Membrane in water
40347
    1TMC1    C1    1   3.788   0.185  11.444 -0.4876 -0.1630  0.7142
    1TMC1    C2    2   3.754   0.293  11.369  0.3126  0.2807  0.2111
    1TMC1    C3    3   3.633   0.303  11.313 -0.0686 -0.2996 -0.3282
    1TMC1    C4    4   3.698   0.085  11.462  0.1743 -0.1107 -0.3798
    1TMC1    C5    5   3.571   0.110  11.419 -1.1445 -0.6396  0.3640
    1TMC1    C6    6   3.531   0.212  11.339  0.0139 -0.0615  0.4746
    1TMC1     C    7   3.901   0.203  11.528 -0.4499 -0.3823 -0.1363
    1TMC1     O    8   3.924   0.318  11.565 -0.4070 -0.0679 -0.0549
    1TMC1     H    9   3.828   0.372  11.376  1.8528 -1.0437 -1.3385
    1TMC1    H1   10   3.727   4.733  11.517  1.5724 -0.2218 -1.2915
    1TMC1    H2   11   3.428   0.213  11.306 -1.5473 -0.1046  5.4637
    1TMC1    C7   12   3.471   0.005  11.433  0.1289  0.2835 -0.7781
    1TMC1    C8   13   3.580   0.438  11.287 -0.1700 -0.6431  0.4098
    1TMC1    O1   14   3.365   0.016  11.367 -0.3201 -0.0112 -0.3844
    1TMC1    O2   15   3.629   0.533  11.355  0.0575  0.0248 -0.2389
    1TMC1    O3   16   3.447   4.730  11.567 -0.0386  0.0033  0.4859
    1TMC1    H3   17   3.512   0.034  11.628  0.2739  0.2171  0.0129
    1TMC1    O5   18   3.451   0.430  11.241  0.1637 -0.1670 -0.7172
    1TMC1    H5   19   3.446   0.362  11.169 -0.4760 -1.7596  0.8419
    2MPD2     C   20   4.117   0.008  11.950 -0.4225  0.9114 -0.2794
    2MPD2    C1   21   4.053   0.128  11.932 -0.5317 -0.2108  0.4054
    2MPD2    C2   22   3.997   0.151  11.808 -0.1950  0.1032 -0.4133
    2MPD2    C3   23   4.005   0.061  11.705  0.8754  0.3040 -0.1392
    2MPD2    C4   24   4.070   4.674  11.729  0.2567  0.0858 -0.0174
    2MPD2    C5   25   4.123   4.647  11.853 -0.0446 -0.5093  0.0575
    2MPD2     H   26   3.962   0.249  11.778 -0.6746  0.3331  0.9335
    2MPD2    H1   27   4.066   4.599  11.650 -0.6933  0.3662 -0.2286
    2MPD2    H2   28   4.155   4.721  12.048  3.0579 -0.7791 -2.0351
    2MPD2    H3   29   4.173   4.553  11.873  1.7148  0.0517 -1.7963
    2MPD2     N   30   3.949   0.083  11.581  0.0362  0.1120  0.0676
    2MPD2    H5   31   3.953   0.005  11.517  2.0087  0.4608 -0.2460
    2MPD2    N1   32   4.030   0.218  12.030  0.0074 -0.2463 -0.9207
    2MPD2    H7   33   3.980   0.303  12.003  0.0394 -0.0739 -0.4382
    3TMC1    C1   34   2.785   1.677  10.512 -0.2693  0.3457  0.1888
    3TMC1    C2   35   2.734   1.621  10.397  0.4746 -0.4930  0.3171
    3TMC1    C3   36   2.759   1.697  10.282  0.2874  0.3307  0.0942
    3TMC1    C4   37   2.843   1.798  10.521 -0.3657 -0.3286 -0.0927
    3TMC1    C5   38   2.846   1.873  10.406  0.2703  0.7602  0.1948
    3TMC1    C6   39   2.792   1.827  10.288 -0.1633 -0.3689  0.0794
    3TMC1     C   40   2.764   1.602  10.635 -0.0391 -0.4384  0.2919
    3TMC1     O   41   2.741   1.482  10.619 -0.2326 -0.3346  0.3724
    3TMC1     H   42   2.696   1.521  10.386 -0.0464  0.1473 -3.4850
    3TMC1    H1   43   2.889   1.828  10.614  2.4141 -2.0535 -0.8899
    3TMC1    H2   44   2.796   1.889  10.200 -0.6362  1.2273  1.1702
    3TMC1    C7   45   2.925   1.992  10.405  0.4633 -0.0810 -0.5525
    3TMC1    C8   46   2.701   1.645  10.160  0.6827  0.0879  0.0157
    3TMC1    O1   47   2.950   2.056  10.504 -0.1075  0.2322  0.1008
    3TMC1    O2   48   2.595   1.587  10.150  0.0851 -0.0729  0.6389
    3TMC1    O3   49   2.981   2.011  10.283  0.2620 -0.3119 -0.1978
    3TMC1    H3   50   2.965   1.928  10.232  0.0977 -0.2695 -0.2158
    3TMC1    O5   51   2.782   1.683  10.059  0.3950  0.0458 -0.2447
    3TMC1    H5   52   2.869   1.723  10.084 -0.8189  2.4579  0.1879
    4MPD2     C   53   2.578   1.605  11.121  0.2389 -0.1535  0.9422
    4MPD2    C1   54   2.599   1.732  11.075  0.8417  0.3567  0.5709
    4MPD2    C2   55   2.649   1.750  10.943 -0.5322 -0.6115  0.1135
    4MPD2    C3   56   2.687   1.650  10.863 -0.0311  0.9071  0.0645
    4MPD2    C4   57   2.673   1.518  10.906 -0.0232  0.5250 -0.5180
    4MPD2    C5   58   2.616   1.503  11.032  0.0670 -0.2801  0.0985
    4MPD2     H   59   2.655   1.852  10.906  2.8347 -2.2533 -3.7952
    4MPD2    H1   60   2.704   1.432  10.847 -0.3267  0.4330 -0.5416
    4MPD2    H2   61   2.531   1.581  11.216 -0.9293  0.2906  0.4812
    4MPD2    H3   62   2.594   1.404  11.069 -2.3796  1.2660  2.6768
    4MPD2     N   63   2.739   1.689  10.738  0.0074 -0.8683 -0.2827
    4MPD2    H5   64   2.741   1.790  10.726  0.8070 -0.7374  0.9440
    4MPD2    N1   65   2.591   1.850  11.153  0.0029 -0.4219 -0.2047
    4MPD2    H7   66   2.622   1.936  11.109 -0.4430 -0.2265 -0.1346
    5TCq1    O1   67   3.334   4.702  10.768  0.3620 -0.1060 -0.6767
    5TCq1    C1   68   3.262   0.034  10.677 -0.2142 -0.1832 -0.4328
    5TCq1    O2   69   3.246   0.156  10.663  0.0910  0.0784  0.4575
    5TCq1    C2   70   3.234   4.683  10.566  0.9446 -0.4371  0.1483
    5TCq1    C3   71   3.194   4.736  10.445  0.2812  0.3003  0.3903
    5TCq1    C4   72   3.158   4.655  10.342  0.4459 -0.9652 -0.5509
    5TCq1    C5   73   3.155   4.525  10.362  0.3719 -0.2300 -0.3919
    5TCq1    C6   74   3.192   4.471  10.484  0.2777  0.9615 -0.3970
    5TCq1    C7   75   3.222   4.551  10.591  0.3417 -0.8153 -0.1497
    5TCq1    C8   76   3.177   4.331  10.528  0.5344  0.5054 -0.0048
    5TCq1    O4   77   3.230   4.286  10.625 -0.0862  0.1238  0.0791
    5TCq1    C9   78   3.126   4.711  10.213  0.7924  0.6753 -0.0548
    5TCq1    O5   79   3.081   4.637  10.128 -0.4882  0.3207 -0.0629
    5TCq1    O6   80   3.107   0.100  10.215 -0.4594  0.3923 -0.0715
    5TCq1    H1   81   3.369   4.617  10.734 -0.0233 -1.0322  1.2596
    5TCq1    H2   82   3.188   0.105  10.423  0.1091  0.3897  0.8668
    5TCq1    H3   83   3.128   4.471  10.272 -1.2426  0.8818 -0.5818
    5TCq1    H4   84   3.232   4.497  10.684  1.0893  1.3380  1.0129
    6MPD2     C   85   3.059   4.082  10.289 -0.7914 -0.3055  0.5100
    6MPD2    C1   86   3.103   4.129  10.408 -0.0482 -0.6941 -0.2803
    6MPD2    C2   87   3.135   4.036  10.505 -0.0732 -0.3024  0.2895
    6MPD2    C3   88   3.112   3.902  10.483 -0.2222  0.2218 -0.2077
    6MPD2    C4   89   3.056   3.861  10.366  0.1350  0.1677  0.8690
    6MPD2    C5   90   3.023   3.954  10.274 -1.0001 -0.6053  0.1400
    6MPD2     H   91   3.164   4.065  10.605 -1.1264 -1.2025  0.8595
    6MPD2    H1   92   3.038   3.757  10.341 -2.8246  0.8847  0.0259
    6MPD2    H2   93   3.029   4.152  10.211  1.1231 -0.9243 -0.7805
    6MPD2    H3   94   2.965   3.916  10.190 -1.6927 -2.3085  1.3790
    6MPD2     N   95   3.141   3.806  10.586 -0.2961  0.2847  0.1391
    6MPD2    H5   96   3.175   3.842  10.675  0.5026  1.2875 -0.5692
    6MPD2    N1   97   3.118   4.269  10.419  0.1645 -0.1617  0.1962
    6MPD2    H7   98   3.079   4.325  10.344 -0.0490 -1.7412 -0.8694
    7TCq1    O1   99   1.324   2.344  13.245  0.0530 -0.2624 -0.0202
    7TCq1    C1  100   1.198   2.299  13.204 -1.3616  0.2251  0.1309
    7TCq1    O2  101   1.160   2.256  13.094  0.5243  0.1205 -0.0387
    7TCq1    C2  102   1.122   2.275  13.325 -0.5197 -0.1711 -0.5736
    7TCq1    C3  103   0.988   2.264  13.318 -0.0703 -0.4916  0.1056
    7TCq1    C4  104   0.912   2.232  13.424 -0.0350 -0.5391 -0.6488
    7TCq1    C5  105   0.973   2.223  13.548  0.4580  0.5395  0.0760
    7TCq1    C6  106   1.103   2.241  13.560  0.2206  0.3518 -0.0102
    7TCq1    C7  107   1.180   2.255  13.446 -0.8382 -0.3860  0.2450
    7TCq1    C8  108   1.163   2.230  13.688  0.2271  0.4934  0.5981
    7TCq1    O4  109   1.086   2.238  13.783 -0.0125 -0.2686 -0.5070
    7TCq1    C9  110   0.767   2.242  13.417 -0.8190 -0.0527 -0.5792
    7TCq1    O5  111   0.709   2.299  13.325  0.8415 -0.3502 -0.2023
    7TCq1    O6  112   0.706   2.194  13.515  0.2631  0.8422  0.2979
    7TCq1    H1  113   1.317   2.406  13.321 -1.4598 -0.7624  0.2285
    7TCq1    H2  114   0.931   2.280  13.227  1.4363 -1.7492 -1.0609
    7TCq1    H3  115   0.913   2.207  13.638 -2.9744 -2.9021 -2.8178
    7TCq1    H4  116   1.286   2.231  13.449 -1.0201 -0.9825  2.4519
    8MPD2     C  117   1.536   2.072  14.007 -0.3245 -0.2022 -0.0270
    8MPD2    C1  118   1.415   2.121  14.046  0.1116  0.3392  0.7272
    8MPD2    C2  119   1.327   2.171  13.949 -0.3935  0.1055  0.4643
    8MPD2    C3  120   1.367   2.166  13.815 -0.1980  0.3515  0.0256
    8MPD2    C4  121   1.487   2.114  13.781 -0.2407  0.0078 -0.1922
    8MPD2    C5  122   1.571   2.060  13.875 -0.8895  0.3780 -0.1182
    8MPD2     H  123   1.231   2.208  13.984 -0.8661  0.2615 -0.9878
    8MPD2    H1  124   1.513   2.109  13.676 -1.3672 -1.8753 -0.3742
    8MPD2    H2  125   1.606   2.025  14.075  0.4032 -0.6525 -1.0938
    8MPD2    H3  126   1.663   2.010  13.847 -1.2214 -0.4009  0.2146
    8MPD2     N  127   1.295   2.213  13.700  0.3559  0.8255 -0.0264
    8MPD2    H5  128   1.358   2.210  13.620 -1.9942  1.5780 -1.9165
    8MPD2    N1  129   1.370   2.104  14.176  0.2338  0.8038  0.3037
    8MPD2    H7  130   1.444   2.088  14.244 -1.7315 -0.8856  2.0616
    9TMC1    C1  131   3.455   1.781  10.810  0.3570  0.4076  0.0849
    9TMC1    C2  132   3.342   1.745  10.871 -0.0265 -0.3963  0.5800
    9TMC1    C3  133   3.228   1.809  10.826 -0.3089 -0.4160  0.5942
    9TMC1    C4  134   3.455   1.868  10.699 -0.1309  0.1988 -0.4148
    9TMC1    C5  135   3.336   1.915  10.657 -0.1089 -0.1068  0.1541
    9TMC1    C6  136   3.218   1.896  10.724 -0.0899  0.7346 -0.1860
    9TMC1     C  137   3.577   1.706  10.837 -0.1930 -0.0746  0.0368
    9TMC1     O  138   3.670   1.705  10.759 -0.2100  0.4497 -0.0495
    9TMC1     H  139   3.331   1.662  10.940 -2.4505 -2.8177 -2.7072
    9TMC1    H1  140   3.535   1.883  10.628 -1.1878  2.6871 -1.0765
    9TMC1    H2  141   3.127   1.901  10.667  2.0038  0.9885 -3.4887
    9TMC1    C7  142   3.322   1.977  10.526 -0.1785 -0.1566  0.2657
    9TMC1    C8  143   3.110   1.796  10.925  0.7175  0.0895 -0.1129
    9TMC1    O1  144   3.405   1.971  10.434  0.5668  0.0993 -0.6657
    9TMC1    O2  145   3.103   1.709  11.014  0.1788  0.1759  0.2049
    9TMC1    O3  146   3.257   2.079  10.571  0.1150 -0.2866 -0.6543
    9TMC1    H3  147   3.231   2.069  10.665 -1.4927 -1.6215 -1.2336
    9TMC1    O5  148   3.004   1.861  10.881  0.6576  0.1911  0.0157
    9TMC1    H5  149   3.037   1.938  10.830 -0.5119  0.5709 -0.1486
   10MPD2     C  150   3.807   1.577  10.970 -1.0400  0.9542 -0.2619
   10MPD2    C1  151   3.686   1.586  11.026 -0.3509 -0.3410 -0.4874
   10MPD2    C2  152   3.671   1.531  11.157 -0.1889  0.3065  0.6249
   10MPD2    C3  153   3.779   1.496  11.233 -0.5071  0.0269 -0.0688
   10MPD2    C4  154   3.902   1.503  11.179  0.4737  0.7256 -1.0536
   10MPD2    C5  155   3.913   1.541  11.047  0.2923  0.1362 -0.1240
   10MPD2     H  156   3.575   1.532  11.207  0.5861 -0.0112  2.1245
   10MPD2    H1  157   3.997   1.482  11.227 -0.4969 -1.7041 -0.2225
   10MPD2    H2  158   3.839   1.619  10.876 -0.2616 -1.5942 -1.1288
   10MPD2    H3  159   4.010   1.526  11.001  0.7011  1.5831  0.2752
   10MPD2     N  160   3.775   1.453  11.364  0.1546 -0.2029  0.5743
   10MPD2    H5  161   3.857   1.443  11.422  0.4140  0.0834  0.2551
   10MPD2    N1  162   3.576   1.651  10.963  0.2840 -0.3111  0.2588
   10MPD2    H7  163   3.496   1.667  11.024  0.5227  1.1543  0.1853
   11TCq1    O1  164   4.368   1.228  14.105  0.4920  0.1937 -0.0590
   11TCq1    C1  165   4.429   1.344  14.141 -0.4803 -0.0353 -0.0327
   11TCq1    O2  166   4.513   1.361  14.227 -0.3331 -0.0612 -0.2990
   11TCq1    C2  167   4.350   1.449  14.079 -0.3625 -0.2304  0.0933
   11TCq1    C3  168   4.337   1.565  14.156  0.0156 -0.2301  0.7538
   11TCq1    C4  169   4.286   1.666  14.085 -0.8317 -0.9605 -0.6326
   11TCq1    C5  170   4.259   1.663  13.951  0.7841  0.5399  0.3686
   11TCq1    C6  171   4.277   1.545  13.880 -0.1872 -0.0712  0.0718
   11TCq1    C7  172   4.321   1.436  13.949 -0.2900 -0.0214  0.6377
   11TCq1    C8  173   4.245   1.531  13.740  0.0327  0.1693  1.0206
   11TCq1    O4  174   4.213   1.633  13.680  0.0724 -0.0195 -0.3202
   11TCq1    C9  175   4.264   1.798  14.153  0.0379  0.6529 -0.8254
   11TCq1    O5  176   4.317   1.805  14.267 -0.0075  0.5132  0.5685
   11TCq1    O6  177   4.178   1.881  14.112  0.1142 -0.5635  0.5562
   11TCq1    H1  178   4.286   1.225  14.051  0.6175  1.2780 -0.2974
   11TCq1    H2  179   4.349   1.561  14.263  1.5593 -1.7634  0.5173
   11TCq1    H3  180   4.207   1.745  13.903  0.9586  0.1682 -0.4517
   11TCq1    H4  181   4.336   1.341  13.900  0.3599  0.9659 -1.0641
   12MPD2     C  182   4.159   1.418  13.469 -0.1631 -0.2333 -0.4644
   12MPD2    C1  183   4.192   1.344  13.581 -0.0249  0.2473 -0.4793
   12MPD2    C2  184   4.184   1.205  13.578 -0.7365 -0.5527 -0.2260
   12MPD2    C3  185   4.144   1.144  13.463 -0.0934  0.6325 -0.1813
   12MPD2    C4  186   4.120   1.217  13.350  0.4327 -1.2149  0.0830
   12MPD2    C5  187   4.130   1.355  13.350 -0.5452 -0.2350  0.6731
   12MPD2     H  188   4.207   1.145  13.665 -1.0805 -1.8509 -1.0301
   12MPD2    H1  189   4.096   1.166  13.258  0.5125  0.7887 -1.0446
   12MPD2    H2  190   4.163   1.526  13.466 -1.1520 -0.1684  0.8436
   12MPD2    H3  191   4.114   1.405  13.255  0.4588  2.9671  2.1705
   12MPD2     N  192   4.140   1.002  13.449 -0.4770  0.8607  0.0187
   12MPD2    H5  193   4.089   0.966  13.369 -2.6092  1.0839  1.2767
   12MPD2    N1  194   4.228   1.400  13.704  0.6483 -0.4644 -0.3302
   12MPD2    H7  195   4.241   1.329  13.775  1.2973  2.0645  2.1085
   13TCq1    O1  196   3.600   1.627  10.173 -0.4654 -0.1071 -0.9274
   13TCq1    C1  197   3.561   1.647  10.300  0.6524 -0.0078  0.3507
   13TCq1    O2  198   3.627   1.633  10.403  0.0525 -0.0116  0.5728
   13TCq1    C2  199   3.420   1.637  10.304  0.2929 -0.6597 -0.0779
   13TCq1    C3  200   3.347   1.694  10.197 -0.1031 -0.1414  0.7886
   13TCq1    C4  201   3.211   1.704  10.220  0.0145 -0.0384 -0.0838
   13TCq1    C5  202   3.146   1.656  10.331  0.1558 -0.4985 -0.4989
   13TCq1    C6  203   3.225   1.596  10.425 -0.1371  0.0655  0.6301
   13TCq1    C7  204   3.365   1.593  10.418 -0.3362  0.0392  0.3084
   13TCq1    C8  205   3.162   1.562  10.554  0.6729 -0.8376  0.5045
   13TCq1    O4  206   3.067   1.624  10.601  0.5212 -0.7524  0.3600
   13TCq1    C9  207   3.135   1.778  10.116 -0.4717 -0.1328 -0.0811
   13TCq1    O5  208   3.201   1.837  10.027  0.0949 -0.6418 -0.0212
   13TCq1    O6  209   3.010   1.784  10.128  0.2506 -0.2277 -0.0879
   13TCq1    H1  210   3.523   1.609  10.115 -0.7792  2.1382 -1.1705
   13TCq1    H2  211   3.384   1.737  10.105 -0.2076 -2.1371 -0.1908
   13TCq1    H3  212   3.040   1.667  10.348  0.1403 -2.8046  0.8953
   13TCq1    H4  213   3.426   1.557  10.500 -0.5992  1.5662  1.1702
   14MPD2     C  214   3.236   1.253  10.743 -0.5676 -0.5352 -0.3488
   14MPD2    C1  215   3.183   1.379  10.723 -0.4558  0.0093  0.1277
   14MPD2    C2  216   3.099   1.436  10.820 -0.0292 -0.7035  0.7457
   14MPD2    C3  217   3.067   1.367  10.929 -0.3533  0.2378 -0.1758
   14MPD2    C4  218   3.093   1.234  10.933  0.9034  0.0039  0.7086
   14MPD2    C5  219   3.183   1.179  10.851 -0.0515 -0.1620 -0.4231
   14MPD2     H  220   3.067   1.539  10.815 -0.1899 -0.7471  0.8795
   14MPD2    H1  221   3.061   1.170  11.015 -1.7524  0.7571  0.2360
   14MPD2    H2  222   3.304   1.199  10.679 -0.4886 -0.5629 -0.2427
   14MPD2    H3  223   3.216   1.077  10.866 -1.5181 -0.7383 -1.2021
   14MPD2     N  224   3.014   1.438  11.045 -0.0433 -0.5156 -0.0891
   14MPD2    H5  225   3.021   1.539  11.044  0.0095 -0.4795  3.7190
   14MPD2    N1  226   3.227   1.449  10.606  0.4004 -0.2664  0.0945
   14MPD2    H7  227   3.290   1.404  10.540  1.2372  0.1018  0.6443
   15TCq1    O1  228   0.872   1.039   1.561  0.1183 -0.0357 -0.1037
   15TCq1    C1  229   0.923   0.928   1.494  0.7275  0.1135  0.2682
   15TCq1    O2  230   0.941   0.907   1.376  0.0412  0.4222  0.4458
   15TCq1    C2  231   1.022   0.881   1.585 -0.7288 -0.2857 -0.3562
   15TCq1    C3  232   1.101   0.970   1.655 -0.3604 -0.1003 -0.4433
   15TCq1    C4  233   1.211   0.909   1.713 -0.4582  0.0097 -0.0294
   15TCq1    C5  234   1.246   0.780   1.698  0.1907 -0.1146  0.1317
   15TCq1    C6  235   1.160   0.699   1.631 -0.6898  0.1133  0.4807
   15TCq1    C7  236   1.049   0.748   1.565  0.4954 -0.2712 -0.2065
   15TCq1    C8  237   1.208   0.561   1.596  0.3218  0.5197 -1.0913
   15TCq1    O4  238   1.330   0.536   1.594 -0.0704  0.3186  0.0993
   15TCq1    C9  239   1.316   0.993   1.770 -0.0643  0.3217  0.2998
   15TCq1    O5  240   1.288   1.118   1.776  0.1011 -0.6164 -0.0822
   15TCq1    O6  241   1.409   0.931   1.831 -0.5494  0.0003 -0.5123
   15TCq1    H1  242   0.877   1.023   1.657  1.8179  0.2935 -0.1464
   15TCq1    H2  243   1.093   1.077   1.640 -0.3562 -0.1620 -0.8722
   15TCq1    H3  244   1.342   0.746   1.734 -0.8873 -2.6681  0.5563
   15TCq1    H4  245   0.979   0.688   1.508  2.9003 -2.4625 -0.8382
   16MPD2     C  246   1.008   0.262   1.524  0.1646  0.1697 -0.2670
   16MPD2    C1  247   1.123   0.336   1.536 -0.2753  0.0484 -0.4513
   16MPD2    C2  248   1.238   0.291   1.478  0.6522 -0.1370  0.7420
   16MPD2    C3  249   1.255   0.164   1.420 -0.0160  0.0890 -0.2831
   16MPD2    C4  250   1.139   0.086   1.427  0.1501 -0.2463 -0.0092
   16MPD2    C5  251   1.023   0.140   1.468  0.4906  0.2536 -0.1773
   16MPD2     H  252   1.332   0.345   1.476 -0.5027  1.7684 -2.1547
   16MPD2    H1  253   1.126   4.724   1.385  3.1749 -0.2594 -0.9764
   16MPD2    H2  254   0.914   0.299   1.565  0.1322 -1.7367  1.3603
   16MPD2    H3  255   0.938   0.073   1.476 -0.2845  1.0551 -1.8427
   16MPD2     N  256   1.377   0.120   1.373  0.2208 -0.1969  0.4933
   16MPD2    H5  257   1.450   0.190   1.366 -0.0473 -0.0884 -1.0930
   16MPD2    N1  258   1.106   0.468   1.586 -1.2232  0.0372 -0.1417
   16MPD2    H7  259   1.011   0.498   1.604 -0.8646  1.3494 -0.4361
   17TMC1    C1  260   3.390   0.027   9.961 -0.5585  0.3140 -0.1380
   17TMC1    C2  261   3.416   0.158   9.927 -0.0670  0.4249 -0.3331
   17TMC1    C3  262   3.347   0.214   9.821 -0.2269 -0.2887  0.3187
   17TMC1    C4  263   3.286   4.699   9.909 -0.0702 -0.5115  0.3377
   17TMC1    C5  264   3.211   0.030   9.823 -0.0785  0.7088  0.1184
   17TMC1    C6  265   3.238   0.154   9.774 -0.6186 -0.5365 -0.6470
   17TMC1     C  266   3.453   4.713  10.080 -0.0827  0.0987  0.2549
   17TMC1     O  267   3.463   4.592  10.083  0.0745  0.2625 -0.2911
   17TMC1     H  268   3.508   0.208   9.956  0.2415 -1.0270  1.1941
   17TMC1    H1  269   3.248   4.601   9.935  1.1361 -1.2055 -0.5011
   17TMC1    H2  270   3.181   0.204   9.696  1.0525  0.1697 -1.4044
   17TMC1    C7  271   3.085   4.716   9.778 -0.2912  0.7381 -0.5607
   17TMC1    C8  272   3.348   0.359   9.808 -0.2703  0.3947  0.4579
   17TMC1    O1  273   3.036   0.019   9.669 -0.0827  0.4433 -0.2549
   17TMC1    O2  274   3.400   0.409   9.706  0.2774  0.1244 -1.0352
   17TMC1    O3  275   3.035   4.628   9.865 -0.2284 -0.4582  0.0603
   17TMC1    H3  276   3.064   4.648   9.957  1.9389 -1.9179 -0.2887
   17TMC1    O5  277   3.384   0.402   9.927 -0.1145  0.1447 -0.1039
   17TMC1    H5  278   3.347   0.365  10.010 -0.6921  1.8103  0.3861
   18MPD2     C  279   3.565   4.676  10.342  0.3272  0.3986  0.6739
   18MPD2    C1  280   3.529   0.064  10.293 -0.2414  0.7475 -0.3025
   18MPD2    C2  281   3.532   0.173  10.377  0.0725 -0.1663  0.3401
   18MPD2    C3  282   3.550   0.162  10.509 -0.0415 -0.8883  0.3682
   18MPD2    C4  283   3.578   0.033  10.563 -0.5236  0.5817  0.3287
   18MPD2    C5  284   3.582   4.660  10.484 -0.3434 -0.0798 -0.3817
   18MPD2     H  285   3.500   0.266  10.332  2.0019  0.0188 -0.6206
   18MPD2    H1  286   3.578   0.021  10.671  0.4570  0.9741  0.3713
   18MPD2    H2  287   3.580   4.590  10.278 -1.9912  0.5447 -0.0367
   18MPD2    H3  288   3.587   4.562  10.530  0.8463  0.1222 -0.0723
   18MPD2     N  289   3.552   0.270  10.597 -0.2452  0.1100  0.6931
   18MPD2    H5  290   3.568   0.247  10.695 -0.8036 -0.1623  0.7210
   18MPD2    N1  291   3.482   0.081  10.164 -0.7698 -0.1305  0.1391
   18MPD2    H7  292   3.446   0.174  10.142  3.5087  1.5348  0.2144
   19TMC2    C1  293   0.594   1.599  14.047  0.1163  0.3558 -0.5847
   19TMC2    C2  294   0.512   1.687  14.103  0.8324  0.4971 -0.2813
   19TMC2    C3  295   0.381   1.653  14.104 -1.1803 -0.1215 -0.2125
   19TMC2    C4  296   0.550   1.485  13.978  0.0507 -0.0882  0.4755
   19TMC2    C5  297   0.415   1.469  13.967  0.6537  0.0957 -0.0596
   19TMC2    C6  298   0.324   1.546  14.036  0.0142  0.0100 -0.3361
   19TMC2     C  299   0.730   1.639  14.032  0.1561  0.5544 -1.1345
   19TMC2     O  300   0.753   1.755  14.008  0.3401  0.0477  0.4648
   19TMC2     H  301   0.553   1.769  14.161  1.8491 -0.3654  0.2091
   19TMC2    H1  302   0.619   1.427  13.918 -1.4896 -0.5419 -0.8721
   19TMC2    H2  303   0.219   1.520  14.029  0.1853 -1.0416  0.9856
   19TMC2    C7  304   0.371   1.344  13.911  0.1770 -0.2047  0.8224
   19TMC2    C8  305   0.298   1.695  14.213  0.2153  0.0732  0.0342
   19TMC2    O1  306   0.464   1.267  13.907  0.1774  0.0117 -0.2831
   19TMC2    O2  307   0.222   1.611  14.263 -0.7501 -0.6566 -0.5805
   19TMC2    O5  308   0.376   1.768  14.290 -0.2024 -0.4633  0.4468
   19TMC2    H5  309   0.411   1.850  14.250  0.3334 -1.1384 -0.4781
   20MPD2     C  310   1.025   1.645  14.030 -0.5010 -0.0726  1.0393
   20MPD2    C1  311   0.950   1.530  14.057  0.1498 -0.2328 -0.0448
   20MPD2    C2  312   1.020   1.417  14.102 -0.6110  0.0112 -0.1032
   20MPD2    C3  313   1.157   1.423  14.118 -0.3890  0.4145  0.0700
   20MPD2    C4  314   1.229   1.535  14.086 -0.9220  0.3002 -0.5291
   20MPD2    C5  315   1.164   1.644  14.041  0.3331  0.0908  0.8052
   20MPD2     H  316   0.966   1.328  14.132  0.6087 -1.2445 -1.6471
   20MPD2    H1  317   1.335   1.540  14.108 -0.8483  0.4510 -0.9141
   20MPD2    H2  318   0.994   1.740  13.988 -0.8755  0.0406  1.5849
   20MPD2    H3  319   1.209   1.740  14.019 -1.1494  0.7981  0.8659
   20MPD2     N  320   1.228   1.316  14.179  0.3554  0.6371  0.3992
   20MPD2    H5  321   1.327   1.335  14.193  0.0768  1.4047  1.3167
   20MPD2    N1  322   0.813   1.530  14.056 -1.0095  0.4993 -0.6988
   20MPD2    H7  323   0.767   1.444  14.085 -2.0649  2.4045  3.2599
   21TMC2    C1  324   3.377   1.620  13.908  0.5294 -0.4142  0.1123
   21TMC2    C2  325   3.298   1.525  13.850 -0.4324  0.0233 -0.7104
   21TMC2    C3  326   3.168   1.551  13.842  0.8080  0.5218  0.5184
   21TMC2    C4  327   3.333   1.745  13.942  0.4093 -0.2196  0.1675
   21TMC2    C5  328   3.196   1.755  13.943  0.1117 -0.0043 -0.0738
   21TMC2    C6  329   3.112   1.665  13.896  0.7474  0.0053 -0.4345
   21TMC2     C  330   3.471   1.555  13.999  0.2028 -0.2784 -0.0410
   21TMC2     O  331   3.501   1.441  13.973 -0.2714 -0.1208  0.0485
   21TMC2     H  332   3.333   1.426  13.826  2.0329  0.7753 -0.2547
   21TMC2    H1  333   3.397   1.823  13.981  0.9348 -1.4276  1.6890
   21TMC2    H2  334   3.005   1.654  13.903  0.7632  0.2307  0.1727
   21TMC2    C7  335   3.132   1.870  14.022  0.2490 -0.2403 -0.5017
   21TMC2    C8  336   3.098   1.501  13.731 -0.0960 -0.5522 -0.5094
   21TMC2    O1  337   3.212   1.949  14.079  0.2105  0.3004  0.0883
   21TMC2    O2  338   3.046   1.572  13.654  0.4024 -0.2286  0.3899
   21TMC2    O5  339   3.062   1.376  13.763  0.4260 -0.1712  0.0114
   21TMC2    H5  340   3.098   1.332  13.843  2.8930  3.8051  1.0510
   22MPD2     C  341   3.488   1.484  14.517 -1.1339  0.1797 -0.1901
   22MPD2    C1  342   3.501   1.389  14.414  0.5958 -0.0214  0.3688
   22MPD2    C2  343   3.495   1.431  14.283  0.1203  0.1577  0.2211
   22MPD2    C3  344   3.488   1.565  14.248 -0.1505  0.5703  0.0966
   22MPD2    C4  345   3.487   1.667  14.342 -0.5859  0.1919 -0.8130
   22MPD2    C5  346   3.486   1.618  14.477 -0.2636 -0.1467 -0.2230
   22MPD2     H  347   3.507   1.361  14.202  0.6864  0.6304 -0.1055
   22MPD2    H1  348   3.486   1.774  14.326 -3.7572  0.1530 -0.7746
   22MPD2    H2  349   3.494   1.462  14.623 -0.7502  1.0102 -0.0418
   22MPD2    H3  350   3.484   1.692  14.556 -1.3947  2.7398 -2.9654
   22MPD2     N  351   3.472   1.624  14.121  0.0876  0.4762 -0.1751
   22MPD2    H5  352   3.458   1.725  14.120 -2.2629  0.1113 -2.4530
   22MPD2    N1  353   3.522   1.254  14.445  0.4220  0.6446  0.6518
   22MPD2    H7  354   3.541   1.183  14.375 -2.3058 -0.6587  1.2641
   23TMC2    C1  355   4.608   2.546  14.587  0.0366 -1.1002 -0.3809
   23TMC2    C2  356   4.614   2.607  14.469 -0.1630 -0.1233 -0.4461
   23TMC2    C3  357   4.497   2.609  14.397 -0.0399 -0.2729  1.0294
   23TMC2    C4  358   4.488   2.491  14.632 -0.2464  0.1732 -0.4916
   23TMC2    C5  359   4.378   2.492  14.552  0.6638  0.6767 -0.6259
   23TMC2    C6  360   4.376   2.552  14.433 -0.5739 -0.4094  0.3923
   23TMC2     C  361   4.720   2.544  14.679 -0.3161  0.1741  0.0829
   23TMC2     O  362   4.708   2.463  14.770  0.3235 -0.2909 -0.4397
   23TMC2     H  363   4.705   2.641  14.421 -0.8619 -0.4263 -1.9689
   23TMC2    H1  364   4.481   2.430  14.722  3.6079 -1.1854 -1.1117
   23TMC2    H2  365   4.291   2.551  14.365 -0.0215 -0.5186 -0.3047
   23TMC2    C7  366   4.261   2.418  14.594  0.3823 -0.1103 -0.5320
   23TMC2    C8  367   4.501   2.703  14.285 -0.9908 -0.2803 -0.1217
   23TMC2    O1  368   4.288   2.313  14.655  0.1209 -0.4145 -0.0580
   23TMC2    O2  369   4.564   2.809  14.295  0.0109 -0.2333 -0.1622
   23TMC2    O5  370   4.421   2.666  14.183  0.2823  0.1467  0.2289
   23TMC2    H5  371   4.390   2.574  14.185 -0.4134  0.3309 -2.5182
   24MPD2     C  372   0.422   2.686  14.902 -0.1898  0.3027  0.2416
   24MPD2    C1  373   0.329   2.590  14.933 -0.4756  0.2102 -0.1878
   24MPD2    C2  374   0.224   2.565  14.851 -0.1005 -0.2917 -0.5328
   24MPD2    C3  375   0.198   2.644  14.739 -0.3219  0.9021 -0.9509
   24MPD2    C4  376   0.290   2.740  14.713 -0.5726 -0.3087  0.9106
   24MPD2    C5  377   0.401   2.763  14.789 -0.5249 -1.2018  0.2571
   24MPD2     H  378   0.158   2.481  14.869 -0.7196  0.1415 -0.7609
   24MPD2    H1  379   0.293   2.792  14.617  0.5423 -2.2859 -0.1369
   24MPD2    H2  380   0.504   2.722  14.963 -1.6319  0.3330  2.1669
   24MPD2    H3  381   0.458   2.850  14.759 -0.7761 -0.8674  0.7511
   24MPD2     N  382   0.089   2.626  14.649  0.5904 -0.0803  0.4490
   24MPD2    H5  383   0.082   2.685  14.567 -0.1301  0.0434  0.6054
   24MPD2    N1  384   0.342   2.512  15.052  0.1627 -0.2961 -0.0029
   24MPD2    H7  385   0.285   2.429  15.062  1.3805 -1.1662 -0.2997
   25TMC2    C1  386   3.097   0.454  11.250  0.1512  0.0326  0.1332
   25TMC2    C2  387   3.150   0.574  11.260  0.7840  0.5528 -0.4875
   25TMC2    C3  388   3.226   0.605  11.373 -0.1075 -0.5491  0.4468
   25TMC2    C4  389   3.096   0.368  11.355  0.6626 -0.1063  0.2172
   25TMC2    C5  390   3.139   0.415  11.477 -0.4343  0.3700 -0.1020
   25TMC2    C6  391   3.225   0.526  11.488 -0.2460  0.5563  0.1736
   25TMC2     C  392   3.048   0.417  11.117  0.1951 -0.3948  0.8184
   25TMC2     O  393   3.040   0.502  11.032 -0.3324 -0.4325  0.3331
   25TMC2     H  394   3.144   0.642  11.176  2.1358  0.3126 -0.7874
   25TMC2    H1  395   3.031   0.282  11.362  0.6280 -0.1421 -0.4602
   25TMC2    H2  396   3.282   0.551  11.577  0.0102  2.2233 -0.4709
   25TMC2    C7  397   3.126   0.327  11.591  0.6161  0.6221  0.5270
   25TMC2    C8  398   3.321   0.707  11.379 -0.5206  0.5133  0.0680
   25TMC2    O1  399   3.107   0.208  11.576  0.4053  0.3858  0.1391
   25TMC2    O2  400   3.336   0.783  11.470  0.1559  0.2609 -0.3690
   25TMC2    O5  401   3.366   0.729  11.255 -0.5935 -0.3179  0.1198
   25TMC2    H5  402   3.342   0.657  11.193  0.7523  0.4268 -1.2435
   26MPD2     C  403   2.917   0.097  10.738 -0.5743 -0.1815 -0.1721
   26MPD2    C1  404   2.964   0.020  10.840  1.2045  0.0879 -0.4977
   26MPD2    C2  405   3.010   0.089  10.955 -0.1986 -0.2740  0.1394
   26MPD2    C3  406   3.007   0.226  10.969 -0.4987  0.7912 -0.4465
   26MPD2    C4  407   2.959   0.300  10.863  0.4432  0.1344  0.8393
   26MPD2    C5  408   2.908   0.230  10.754  0.7723  0.3866 -0.3235
   26MPD2     H  409   3.061   0.031  11.031  0.0216 -0.1646  0.0739
   26MPD2    H1  410   2.946   0.407  10.863  0.5420  0.1474  0.7263
   26MPD2    H2  411   2.860   0.058  10.655  0.2035  2.4051 -1.9476
   26MPD2    H3  412   2.858   0.280  10.671  0.4497 -0.1205 -0.4352
   26MPD2     N  413   3.038   0.284  11.094 -0.7887 -0.0991  0.0222
   26MPD2    H5  414   3.051   0.219  11.171  2.0172  0.0570 -0.2996
   26MPD2    N1  415   2.963   4.609  10.828  0.1824 -0.1570  0.1866
   26MPD2    H7  416   2.928   4.574  10.740  0.7252 -2.1206  0.7613
   27TMC2    C1  417   1.867   2.413  12.372 -0.7738 -0.5651  0.1652
   27TMC2    C2  418   1.813   2.532  12.337 -0.3770  0.6673  0.4628
   27TMC2    C3  419   1.852   2.647  12.402  0.2854 -0.3358  0.2527
   27TMC2    C4  420   1.949   2.403  12.482  0.2557 -0.1829  0.1066
   27TMC2    C5  421   1.998   2.516  12.538  0.8519  0.7605  0.6496
   27TMC2    C6  422   1.951   2.641  12.502 -0.4702  0.1347 -0.8951
   27TMC2     C  423   1.787   2.301  12.333  0.5788 -0.0819 -0.5947
   27TMC2     O  424   1.728   2.306  12.227  0.1603  0.6028 -0.0713
   27TMC2     H  425   1.746   2.542  12.253  0.8894 -0.3250 -0.6629
   27TMC2    H1  426   2.006   2.312  12.491  2.0217  0.9355  0.0981
   27TMC2    H2  427   1.989   2.736  12.538 -1.9951  0.3186  0.2354
   27TMC2    C7  428   2.086   2.501  12.656  0.0428  0.5283 -0.0649
   27TMC2    C8  429   1.844   2.773  12.340 -0.2054 -0.1502  0.1677
   27TMC2    O1  430   2.092   2.388  12.700  0.6260 -0.0076  0.3792
   27TMC2    O2  431   1.820   2.782  12.224  0.9357  0.3626  0.4631
   27TMC2    O5  432   1.798   2.861  12.435  0.3637 -0.5103 -0.5323
   27TMC2    H5  433   1.794   2.826  12.527  2.3510 -0.7253 -0.5342
   28MPD2     C  434   1.518   1.889  12.471  0.0123  0.2948 -0.3664
   28MPD2    C1  435   1.585   1.930  12.588 -0.0221 -0.2554  0.2969
   28MPD2    C2  436   1.669   2.045  12.572  0.3499 -0.0205  0.1590
   28MPD2    C3  437   1.680   2.112  12.449 -0.4354  0.0116 -0.2425
   28MPD2    C4  438   1.601   2.072  12.341 -0.2560  0.1016  0.5744
   28MPD2    C5  439   1.528   1.959  12.352 -0.3145  0.3945  0.9302
   28MPD2     H  440   1.723   2.087  12.657  0.8518 -0.0606 -0.1407
   28MPD2    H1  441   1.585   2.125  12.248 -0.7393  0.1164  0.6632
   28MPD2    H2  442   1.468   1.793  12.468 -0.8304  0.7805 -1.6067
   28MPD2    H3  443   1.478   1.920  12.263  0.6215  0.8613  0.1979
   28MPD2     N  444   1.763   2.220  12.439  0.0024 -0.7238  0.0512
   28MPD2    H5  445   1.807   2.243  12.527 -1.0887 -2.1045  0.9579
   28MPD2    N1  446   1.568   1.855  12.706 -0.5183  0.2435 -0.1897
   28MPD2    H7  447   1.486   1.797  12.714 -0.7475  0.5195 -0.5038
   29TMC2    C1  448   2.190   0.008  14.192  0.5759 -0.0833  0.4797
   29TMC2    C2  449   2.101   0.035  14.293 -1.2894  0.3563  0.1499
   29TMC2    C3  450   2.131   0.135  14.381  0.7200 -0.4494 -0.0875
   29TMC2    C4  451   2.320   0.055  14.195  0.3062  0.0362 -0.4403
   29TMC2    C5  452   2.339   0.162  14.275 -0.4504  0.5078 -0.1060
   29TMC2    C6  453   2.246   0.209  14.364  0.9989 -1.1151  0.2977
   29TMC2     C  454   2.175   4.635  14.101 -0.0707  0.1355 -0.2451
   29TMC2     O  455   2.280   4.593  14.053 -0.2369  0.0895  0.5056
   29TMC2     H  456   2.012   4.711  14.304 -0.7808 -0.3719  0.2140
   29TMC2    H1  457   2.389   0.032  14.115 -0.8109 -2.3475 -0.7076
   29TMC2    H2  458   2.266   0.298  14.422 -3.8995 -0.6706  1.3774
   29TMC2    C7  459   2.450   0.242  14.236 -0.6682  0.5079 -0.2792
   29TMC2    C8  460   2.041   0.157  14.488 -0.1799  0.1124 -0.0035
   29TMC2    O1  461   2.513   0.214  14.132 -0.4327 -0.0046 -0.5844
   29TMC2    O2  462   1.934   0.097  14.495  0.3595  0.2981 -0.3640
   29TMC2    O5  463   2.115   0.194  14.600 -0.3046 -0.1735 -0.1329
   29TMC2    H5  464   2.213   0.195  14.590 -0.2398  1.9405  0.7578
   30MPD2     C  465   1.865   4.295  13.875 -0.5558 -0.5162 -0.3166
   30MPD2    C1  466   1.999   4.278  13.911  0.0997  0.6357 -0.8444
   30MPD2    C2  467   2.060   4.380  13.979  0.0566 -0.8781 -0.7239
   30MPD2    C3  468   1.991   4.495  14.000 -0.2270  0.8273  0.2518
   30MPD2    C4  469   1.860   4.510  13.955  0.3223  0.7420 -0.4532
   30MPD2    C5  470   1.796   4.411  13.891  0.0194  0.7920 -0.7848
   30MPD2     H  471   2.162   4.369  14.014  0.1666  0.6219 -0.5494
   30MPD2    H1  472   1.799   4.599  13.971  0.1482  0.2268  1.7912
   30MPD2    H2  473   1.803   4.219  13.830 -0.0925  0.2693 -2.2446
   30MPD2    H3  474   1.690   4.416  13.870 -0.1284 -0.0162 -0.2061
   30MPD2     N  475   2.040   4.609  14.075 -0.4517  0.0459 -0.3540
   30MPD2    H5  476   1.971   4.677  14.107 -1.4513 -0.0021 -2.4023
   30MPD2    N1  477   2.070   4.158  13.887 -1.1840 -0.0501 -0.5467
   30MPD2    H7  478   2.162   4.145  13.929 -1.7264 -1.0674  0.3455
   31TMC2    C1  479   0.089   2.922  14.943 -0.0889 -0.2404 -0.7606
   31TMC2    C2  480   4.697   2.895  14.897  0.7111 -0.9527 -0.2466
   31TMC2    C3  481   4.606   2.836  14.978 -0.1572  0.7174 -0.6716
   31TMC2    C4  482   0.130   2.887  15.069 -0.6945  0.3148  0.2165
   31TMC2    C5  483   0.024   2.847  15.148 -0.1047  0.2047 -0.0539
   31TMC2    C6  484   4.627   2.828  15.113 -0.3380  0.4114  0.1959
   31TMC2     C  485   0.159   3.014  14.859 -1.2850  0.2118  0.4604
   31TMC2     O  486   0.108   3.042  14.750  0.5499  0.1257 -0.4584
   31TMC2     H  487   4.668   2.893  14.793 -2.0324  0.6818  0.4674
   31TMC2    H1  488   0.230   2.911  15.104  0.5823 -2.1636 -1.7764
   31TMC2    H2  489   4.551   2.785  15.178 -2.3230  0.9567 -1.7743
   31TMC2    C7  490   0.053   2.822  15.288 -0.0822 -0.8702 -0.8715
   31TMC2    C8  491   4.468   2.817  14.923  0.5494 -0.3837  0.5504
   31TMC2    O1  492   0.161   2.764  15.304 -0.0976  0.5815  0.1740
   31TMC2    O2  493   4.421   2.895  14.842 -0.1249  0.2983  0.6550
   31TMC2    O5  494   4.447   2.685  14.930  0.1248  0.3476 -0.7116
   31TMC2    H5  495   4.524   2.644  14.975 -0.2679  1.5470  1.0756
   32MPD2     C  496   0.462   3.430  14.819  0.4204  0.3967 -0.7359
   32MPD2    C1  497   0.350   3.397  14.746 -0.1518 -0.2124  0.3016
   32MPD2    C2  498   0.297   3.269  14.766  0.6778  0.3026  0.5550
   32MPD2    C3  499   0.334   3.188  14.868  0.8406 -0.7168  0.2998
   32MPD2    C4  500   0.437   3.236  14.942  0.3826 -0.0592 -0.7176
   32MPD2    C5  501   0.506   3.349  14.912  0.2427  0.6050 -0.0806
   32MPD2     H  502   0.205   3.244  14.713  0.5818 -0.3480  1.0402
   32MPD2    H1  503   0.474   3.183  15.029 -3.2245  0.5969  1.2337
   32MPD2    H2  504   0.512   3.524  14.798  2.3919 -0.1142  1.6521
   32MPD2    H3  505   0.589   3.385  14.972  0.1307 -0.1538  0.5264
   32MPD2     N  506   0.264   3.076  14.916  0.4426 -0.1844  0.1544
   32MPD2    H5  507   0.294   3.035  15.004  1.3506  1.3144  0.5266
   32MPD2    N1  508   0.313   3.486  14.638 -0.1560  0.3033 -0.6422
   32MPD2    H7  509   0.365   3.572  14.628  0.7395 -0.3395 -1.4700
   33TMC2    C1  510   3.830   1.348  10.259  0.1052 -0.4559  0.0671
   33TMC2    C2  511   3.859   1.286  10.140  0.5186 -0.2267  0.1416
   33TMC2    C3  512   3.935   1.345  10.052  0.5104  0.3094 -0.6000
   33TMC2    C4  513   3.875   1.472  10.287 -0.2097 -0.1770 -0.2090
   33TMC2    C5  514   3.949   1.536  10.192 -0.3986 -0.2394 -0.1132
   33TMC2    C6  515   3.987   1.470  10.073 -0.0357  0.3656 -0.4200
   33TMC2     C  516   3.799   1.262  10.372  0.0484 -0.0266  0.0229
   33TMC2     O  517   3.812   1.142  10.350 -0.1073 -0.3411  0.2975
   33TMC2     H  518   3.852   1.178  10.133  0.9718 -0.1693 -1.1589
   33TMC2    H1  519   3.863   1.509  10.388  1.8009 -1.5825  0.5576
   33TMC2    H2  520   4.032   1.522   9.988  1.4523  0.5414  0.4697
   33TMC2    C7  521   3.973   1.675  10.188 -0.1734 -0.4266 -0.4573
   33TMC2    C8  522   3.952   1.261   9.929 -0.2133  0.7455  0.2538
   33TMC2    O1  523   4.058   1.712  10.105  0.6724  0.1880  0.4657
   33TMC2    O2  524   3.866   1.178   9.895 -0.9798 -0.2263  0.2198
   33TMC2    O5  525   4.068   1.291   9.870  0.3089 -0.2130  0.0690
   33TMC2    H5  526   4.121   1.361   9.913 -2.2791  2.2310 -0.7281
   34MPD2     C  527   3.574   1.164  10.832  0.4462  0.8889 -0.3635
   34MPD2    C1  528   3.606   1.077  10.725 -0.9820  0.4877 -0.7706
   34MPD2    C2  529   3.669   1.122  10.608  0.3240 -0.0184 -0.5243
   34MPD2    C3  530   3.683   1.258  10.593  0.1967  1.0221  0.4299
   34MPD2    C4  531   3.649   1.338  10.699  0.3538  0.3971 -0.0358
   34MPD2    C5  532   3.600   1.300  10.815  0.0678 -0.0712 -0.1129
   34MPD2     H  533   3.699   1.061  10.523 -0.6760 -1.4554  0.1708
   34MPD2    H1  534   3.673   1.444  10.695 -0.1407  0.5964  2.0067
   34MPD2    H2  535   3.521   1.131  10.920  2.2647  0.7994  0.7037
   34MPD2    H3  536   3.585   1.373  10.894  0.8265 -1.3530  1.2284
   34MPD2     N  537   3.740   1.322  10.479 -0.3632  0.7827 -0.0403
   34MPD2    H5  538   3.756   1.422  10.484  1.4630  0.4654  0.5817
   34MPD2    N1  539   3.596   0.946  10.755 -0.0635  0.0166 -0.0614
   34MPD2    H7  540   3.582   0.916  10.851 -2.4533  2.5153  0.3615
   35TMC2    C1  541   0.325   2.433  11.066  0.4675  0.6941  0.2938
   35TMC2    C2  542   0.304   2.433  10.930  0.2761 -0.3479 -0.0238
   35TMC2    C3  543   0.183   2.382  10.907  0.2448 -0.6094  0.9522
   35TMC2    C4  544   0.232   2.407  11.164 -0.3870 -0.0256  0.0169
   35TMC2    C5  545   0.106   2.379  11.123  0.1517  0.6923  0.3562
   35TMC2    C6  546   0.084   2.346  10.993  0.2362 -0.6756 -0.7626
   35TMC2     C  547   0.467   2.466  11.105 -0.0358 -0.1059  0.5604
   35TMC2     O  548   0.541   2.507  11.020 -0.1440  0.0291  0.3479
   35TMC2     H  549   0.383   2.451  10.858  0.3268  0.2312  0.1795
   35TMC2    H1  550   0.251   2.426  11.269  1.5828 -0.0716 -0.3255
   35TMC2    H2  551   4.728   2.302  10.958 -1.3098 -0.1279  2.6319
   35TMC2    C7  552   0.014   2.329  11.226  0.5142 -0.6600  0.2679
   35TMC2    C8  553   0.162   2.345  10.767 -0.1350 -0.5406  0.0780
   35TMC2    O1  554   0.069   2.310  11.336 -0.4222 -0.3605 -0.0267
   35TMC2    O2  555   0.213   2.398  10.673 -0.3430 -0.0625 -0.2277
   35TMC2    O5  556   0.083   2.240  10.757 -0.2059  0.5096 -0.3620
   35TMC2    H5  557   0.103   2.166  10.818  0.2923 -0.5008 -1.7306
   36MPD2     C  558   0.850   2.438  11.443  0.7821  0.0335  0.4492
   36MPD2    C1  559   0.747   2.358  11.487  0.2290  0.0304  0.6206
   36MPD2    C2  560   0.631   2.344  11.416 -0.1780 -0.4352 -0.6083
   36MPD2    C3  561   0.625   2.401  11.289 -0.0350 -0.2951 -0.8962
   36MPD2    C4  562   0.725   2.483  11.251 -0.1454  0.6481  0.1418
   36MPD2    C5  563   0.828   2.511  11.330 -0.0425 -0.1936  0.6899
   36MPD2     H  564   0.546   2.284  11.447 -0.7004 -0.3297 -1.8422
   36MPD2    H1  565   0.721   2.540  11.159 -0.1529  1.3119  0.5552
   36MPD2    H2  566   0.940   2.467  11.496  0.5234  2.4616 -0.4716
   36MPD2    H3  567   0.908   2.572  11.291 -0.0744 -0.4000  0.3104
   36MPD2     N  568   0.494   2.403  11.224  0.7100 -0.2763 -0.1527
   36MPD2    H5  569   0.422   2.341  11.259  0.1988  0.6726  0.5069
   36MPD2    N1  570   0.751   2.305  11.620  0.0648  0.3971 -0.0990
   36MPD2    H7  571   0.669   2.253  11.650  0.8597 -0.5497  0.4532
   37TMC2    C1  572   2.252   2.705  12.047 -0.2962  0.1924 -0.5384
   37TMC2    C2  573   2.180   2.819  12.030 -0.5150  0.5513 -0.0880
   37TMC2    C3  574   2.177   2.879  11.908 -0.2475 -0.0053  0.2151
   37TMC2    C4  575   2.317   2.649  11.942 -0.4104 -0.1013  0.6990
   37TMC2    C5  576   2.308   2.710  11.818 -0.1046 -0.1117  0.2286
   37TMC2    C6  577   2.235   2.827  11.793 -0.3199 -0.1642 -0.4665
   37TMC2     C  578   2.268   2.652  12.182 -0.1057 -0.0800 -0.2199
   37TMC2     O  579   2.204   2.695  12.275  0.1882  0.2582  0.1794
   37TMC2     H  580   2.135   2.876  12.109 -0.6573  0.7836 -0.3364
   37TMC2    H1  581   2.358   2.549  11.927 -0.0677 -0.0200  1.0776
   37TMC2    H2  582   2.229   2.882  11.699  0.0652 -0.3524 -0.5999
   37TMC2    C7  583   2.412   2.669  11.724  0.0661 -0.0555  0.0037
   37TMC2    C8  584   2.107   3.001  11.900 -0.8371 -0.3580  0.3094
   37TMC2    O1  585   2.461   2.559  11.745  0.3031 -0.2358  0.3671
   37TMC2    O2  586   2.157   3.110  11.926  0.4362 -0.0323 -0.4860
   37TMC2    O5  587   2.011   2.982  11.808 -0.1988  0.1784  0.3715
   37TMC2    H5  588   2.013   2.889  11.775  2.2397  0.8237 -1.2876
   38MPD2     C  589   2.524   2.338  12.502 -0.3784 -0.1082  0.4610
   38MPD2    C1  590   2.557   2.304  12.373  0.2265 -0.3110  0.8110
   38MPD2    C2  591   2.500   2.380  12.274  0.0379 -1.0859 -0.3218
   38MPD2    C3  592   2.401   2.477  12.294 -0.3834  0.1804  0.2173
   38MPD2    C4  593   2.371   2.505  12.428 -0.4598 -0.9876  0.1093
   38MPD2    C5  594   2.431   2.430  12.530 -0.5771  0.2312  0.0518
   38MPD2     H  595   2.526   2.365  12.170  1.5348 -2.7920  0.3098
   38MPD2    H1  596   2.303   2.586  12.455 -2.0726 -2.1313 -0.5023
   38MPD2    H2  597   2.577   2.298  12.587  0.8715  1.2826  0.3363
   38MPD2    H3  598   2.412   2.460  12.632  0.0922 -0.9723  0.5296
   38MPD2     N  599   2.353   2.547  12.181  0.1693  0.7299  0.0942
   38MPD2    H5  600   2.397   2.523  12.093  1.3407  0.4271  0.7708
   38MPD2    N1  601   2.657   2.213  12.343  0.0756  0.5191 -0.8322
   38MPD2    H7  602   2.686   2.206  12.246  1.0183  0.4653 -0.5488
   39TMC2    C1  603   1.989   4.675   1.767 -0.0830 -0.5193 -0.4179
   39TMC2    C2  604   1.930   0.041   1.837  0.0098 -0.2181 -0.3771
   39TMC2    C3  605   2.013   0.111   1.919  0.5527 -0.3666  0.0449
   39TMC2    C4  606   2.123   4.634   1.786  0.2270  0.1950  0.3193
   39TMC2    C5  607   2.187   4.700   1.887  0.6475 -0.6277 -0.0090
   39TMC2    C6  608   2.140   0.072   1.950  0.5479  0.0145  0.4430
   39TMC2     C  609   1.900   4.590   1.686 -0.7643  0.3224  0.2774
   39TMC2     O  610   1.782   4.605   1.709  0.4971  0.2903  0.8012
   39TMC2     H  611   1.829   0.072   1.818 -0.8516 -1.1545  2.5378
   39TMC2    H1  612   2.172   4.547   1.743 -0.4280  0.5508 -1.1494
   39TMC2    H2  613   2.182   0.094   2.047  1.9426 -0.6281 -0.0153
   39TMC2    C7  614   2.328   4.691   1.895  0.2521 -0.4202 -0.0703
   39TMC2    C8  615   1.941   0.195   2.006  0.5922 -0.3054  0.2182
   39TMC2    O1  616   2.373   4.581   1.863 -0.2453  0.3504 -0.6569
   39TMC2    O2  617   1.827   0.172   2.043 -0.0680  0.3965  0.2518
   39TMC2    O5  618   2.032   0.282   2.066 -0.1063  0.1387  0.4701
   39TMC2    H5  619   2.116   0.284   2.015  1.5790  1.1402  3.2596
   40MPD2     C  620   1.983   4.327   1.445 -0.3995 -1.0878  0.4610
   40MPD2    C1  621   1.900   4.404   1.521  0.3766  0.0452 -0.4143
   40MPD2    C2  622   1.762   4.394   1.499  0.6112  0.1778  0.2029
   40MPD2    C3  623   1.707   4.317   1.400 -0.6849 -0.1980 -0.3340
   40MPD2    C4  624   1.791   4.257   1.311  0.4905  0.0822  0.0707
   40MPD2    C5  625   1.927   4.257   1.336 -0.4686  0.2446  0.5460
   40MPD2     H  626   1.701   4.448   1.571 -0.4693 -0.6481 -0.0867
   40MPD2    H1  627   1.762   4.187   1.233 -0.8931  0.9865 -0.2166
   40MPD2    H2  628   2.089   4.342   1.459 -0.7055  0.5910  0.9679
   40MPD2    H3  629   2.007   4.216   1.275  2.0556  1.7102  2.8802
   40MPD2     N  630   1.573   4.299   1.379  0.3312 -0.6544  0.9684
   40MPD2    H5  631   1.544   4.236   1.305  0.2398  2.1230 -1.3604
   40MPD2    N1  632   1.960   4.494   1.612 -0.1525  0.6133  0.5056
   40MPD2    H7  633   2.060   4.481   1.621 -0.1291 -0.0143 -0.7822
   41TMC2    C1  634   1.349   2.713  13.134 -1.2019 -0.0117  0.0494
   41TMC2    C2  635   1.429   2.817  13.167 -0.0422  0.4006  0.1056
   41TMC2    C3  636   1.509   2.873  13.072  0.0674  0.0152 -0.3871
   41TMC2    C4  637   1.335   2.682  13.005 -0.7857  0.0397  0.8209
   41TMC2    C5  638   1.407   2.756  12.908  0.1947  0.0668 -0.3667
   41TMC2    C6  639   1.500   2.850  12.942 -0.1154 -0.0045  0.0075
   41TMC2     C  640   1.238   2.678  13.213 -0.1938  0.0474  0.4683
   41TMC2     O  641   1.160   2.601  13.161 -0.2489 -0.4403  0.1763
   41TMC2     H  642   1.428   2.862  13.265 -0.7034  1.8786 -0.5798
   41TMC2    H1  643   1.267   2.602  12.978  0.5683 -0.1708 -1.9876
   41TMC2    H2  644   1.562   2.892  12.864  0.3942  1.9129  1.4290
   41TMC2    C7  645   1.362   2.744  12.765 -0.1747 -0.2129 -0.4985
   41TMC2    C8  646   1.606   2.962  13.130  0.4244 -0.3232  1.1641
   41TMC2    O1  647   1.409   2.822  12.682 -0.2729 -0.1944  0.0710
   41TMC2    O2  648   1.634   2.952  13.248 -0.3321 -1.0671  0.2626
   41TMC2    O5  649   1.683   3.013  13.029 -0.0235  0.1205  0.3772
   41TMC2    H5  650   1.645   3.044  12.944  1.5563  1.4549  0.1482
   42MPD2     C  651   1.003   2.622  13.403  0.2749  0.0409 -0.2186
   42MPD2    C1  652   1.099   2.732  13.414  0.2305 -0.0959  0.2196
   42MPD2    C2  653   1.074   2.827  13.509 -0.1191  0.1932  0.6617
   42MPD2    C3  654   0.964   2.811  13.596 -0.0097 -1.0276 -0.0610
   42MPD2    C4  655   0.871   2.713  13.588  0.5951 -0.4164  0.0988
   42MPD2    C5  656   0.894   2.617  13.488 -0.3280  0.8447 -0.2793
   42MPD2     H  657   1.141   2.911  13.524 -3.9418  3.1964  0.9692
   42MPD2    H1  658   0.785   2.716  13.655  1.3044  0.3579  0.9814
   42MPD2    H2  659   1.007   2.545  13.327 -0.4027  1.2206 -1.4617
   42MPD2    H3  660   0.820   2.542  13.464  0.5217 -0.6916  1.9383
   42MPD2     N  661   0.951   2.887  13.709 -0.7704 -0.1264 -0.1026
   42MPD2    H5  662   0.886   2.855  13.780 -1.2488  0.0300 -0.4629
   42MPD2    N1  663   1.207   2.754  13.324  0.2095  0.4284 -0.5602
   42MPD2    H7  664   1.279   2.821  13.348  1.1901 -0.4152 -1.1352
   43TMC2    C1  665   2.300   0.830   0.398  0.1261  1.1862 -0.0235
   43TMC2    C2  666   2.212   0.819   0.501  0.0395 -0.5759 -0.3061
   43TMC2    C3  667   2.219   0.910   0.605  0.5122 -0.4113  0.2744
   43TMC2    C4  668   2.389   0.932   0.389 -0.0556  0.3654  0.6643
   43TMC2    C5  669   2.395   1.015   0.498 -0.2470  0.4402 -0.4664
   43TMC2    C6  670   2.317   1.007   0.612  0.1279 -0.2441 -0.2860
   43TMC2     C  671   2.327   0.703   0.326 -0.2529  0.2766 -0.2750
   43TMC2     O  672   2.300   0.594   0.378 -0.3519 -0.1908  0.1123
   43TMC2     H  673   2.128   0.750   0.499  0.0163 -0.6213  2.0056
   43TMC2    H1  674   2.454   0.932   0.302 -2.0963  1.2982 -0.8584
   43TMC2    H2  675   2.309   1.076   0.695  1.3424 -0.1182 -0.2816
   43TMC2    C7  676   2.527   1.077   0.501  0.4866  0.6170  0.8038
   43TMC2    C8  677   2.101   0.941   0.678 -0.7031  0.1364 -0.3027
   43TMC2    O1  678   2.557   1.176   0.432  0.3017 -0.0428  0.5916
   43TMC2    O2  679   2.084   1.046   0.739  0.5005 -0.0828  0.2368
   43TMC2    O5  680   2.025   0.830   0.688 -0.0539 -0.4982  0.6205
   43TMC2    H5  681   2.069   0.748   0.658  1.3440  0.5452 -0.1538
   44MPD2     C  682   2.554   0.431  17.711 -0.0321  0.3050 -0.1372
   44MPD2    C1  683   2.518   0.396   0.096  0.5009  0.2363  0.1995
   44MPD2    C2  684   2.466   0.488   0.181  0.2411 -0.1802  0.3247
   44MPD2    C3  685   2.449   0.615   0.129 -0.6449 -0.4646  0.1935
   44MPD2    C4  686   2.497   0.651   0.003 -0.4740 -0.1927  0.3464
   44MPD2    C5  687   2.533   0.557  17.662 -0.3800 -0.5820 -0.8797
   44MPD2     H  688   2.438   0.462   0.282  2.8810  3.6866  2.0335
   44MPD2    H1  689   2.473   0.750  17.711  1.5174 -0.1202 -0.6989
   44MPD2    H2  690   2.590   0.370  17.629  2.0891  0.7632  0.4560
   44MPD2    H3  691   2.545   0.574  17.555 -0.1287 -1.0542 -0.9247
   44MPD2     N  692   2.398   0.720   0.211 -0.1788  0.3963  0.5725
   44MPD2    H5  693   2.396   0.814   0.173  0.5832 -0.9563 -2.8075
   44MPD2    N1  694   2.527   0.266   0.144  0.5921  0.4320  0.0833
   44MPD2    H7  695   2.498   0.254   0.240  0.3348 -0.3893 -0.0994
   45TMC2    C1  696   2.507   2.522   9.487  0.0973 -0.3617 -0.4888
   45TMC2    C2  697   2.618   2.526   9.406  0.2042  0.2411 -0.0179
   45TMC2    C3  698   2.705   2.635   9.423 -0.2332 -0.0756 -0.0428
   45TMC2    C4  699   2.484   2.606   9.595 -0.1048 -0.2044  0.3404
   45TMC2    C5  700   2.585   2.693   9.613  0.7281  0.4696 -0.1383
   45TMC2    C6  701   2.694   2.710   9.536  0.4680 -0.6900 -0.6712
   45TMC2     C  702   2.395   2.441   9.430  0.4844 -0.0041 -0.7821
   45TMC2     O  703   2.421   2.343   9.362  0.1405 -0.2409 -0.0406
   45TMC2     H  704   2.633   2.461   9.321  1.0041 -1.4022  1.3624
   45TMC2    H1  705   2.400   2.588   9.661 -0.4112  0.8469  0.2439
   45TMC2    H2  706   2.755   2.799   9.546  0.7501 -0.8875 -0.6161
   45TMC2    C7  707   2.589   2.767   9.736 -0.4151 -0.4351 -0.0601
   45TMC2    C8  708   2.821   2.632   9.337  0.3313 -0.1655 -0.7036
   45TMC2    O1  709   2.621   2.887   9.729 -0.0593  0.6921 -0.1711
   45TMC2    O2  710   2.814   2.689   9.228  0.5720  0.2618  0.2785
   45TMC2    O5  711   2.854   2.502   9.355 -0.3333 -0.1612 -0.3062
   45TMC2    H5  712   2.858   2.471   9.448 -1.0655  3.9341  1.0619
   46MPD2     C  713   2.138   2.304   9.380 -0.9036 -0.5518  0.2058
   46MPD2    C1  714   2.146   2.427   9.437  0.0107 -0.3810 -0.1130
   46MPD2    C2  715   2.027   2.502   9.457 -0.3951  0.2026 -0.0170
   46MPD2    C3  716   1.907   2.449   9.431 -0.5935  0.2289 -1.1421
   46MPD2    C4  717   1.895   2.321   9.385  0.0282 -0.1705  0.1065
   46MPD2    C5  718   2.010   2.249   9.352 -0.0806  0.6689 -0.0746
   46MPD2     H  719   2.028   2.597   9.511  1.0559 -0.7463  1.6263
   46MPD2    H1  720   1.802   2.269   9.366 -0.8258  1.3506  0.1588
   46MPD2    H2  721   2.214   2.228   9.366  0.6354  0.6934  1.9438
   46MPD2    H3  722   2.006   2.143   9.326  1.6196  0.7721 -0.7385
   46MPD2     N  723   1.790   2.517   9.473  0.1333 -0.4907 -0.6362
   46MPD2    H5  724   1.797   2.583   9.549 -3.3461 -1.2615  0.3407
   46MPD2    N1  725   2.271   2.498   9.456  0.1978  0.0142  0.2443
   46MPD2    H7  726   2.279   2.585   9.508  3.8213  2.0220 -3.6640
   47TMC2    C1  727   3.436   3.337   9.136 -0.0979  0.2924  0.4790
   47TMC2    C2  728   3.318   3.376   9.180 -0.0697  0.7590  0.3183
   47TMC2    C3  729   3.305   3.388   9.315  0.3955 -0.4462  0.1046
   47TMC2    C4  730   3.542   3.318   9.228 -0.1373  0.3101  0.3320
   47TMC2    C5  731   3.521   3.327   9.361 -0.3776  0.8768 -0.6445
   47TMC2    C6  732   3.402   3.355   9.403  0.1935 -0.4933  0.0499
   47TMC2     C  733   3.454   3.313   9.000 -0.0843 -0.5303  0.8094
   47TMC2     O  734   3.370   3.349   8.919  0.7970  0.6323  0.1548
   47TMC2     H  735   3.239   3.406   9.112 -0.4160 -2.4903 -0.7016
   47TMC2    H1  736   3.646   3.309   9.199  0.0089  1.4246  0.5076
   47TMC2    H2  737   3.382   3.354   9.509 -0.3060 -1.2666 -0.0494
   47TMC2    C7  738   3.610   3.246   9.442 -0.6992  0.2556 -0.2073
   47TMC2    C8  739   3.163   3.397   9.350  0.3621 -0.4948  0.6998
   47TMC2    O1  740   3.721   3.223   9.395 -0.0897 -0.1302  0.4129
   47TMC2    O2  741   3.073   3.318   9.324  0.6010  0.0387  0.0479
   47TMC2    O5  742   3.163   3.467   9.468 -0.2356 -0.5849  0.0585
   47TMC2    H5  743   3.243   3.523   9.472  0.5869 -1.6991 -0.6352
   48MPD2     C  744   3.552   3.213   8.735  0.1007 -0.1022  0.3532
   48MPD2    C1  745   3.594   3.164   8.856 -0.2520 -0.3877  0.4292
   48MPD2    C2  746   3.685   3.056   8.852  0.3006  0.1266 -0.0197
   48MPD2    C3  747   3.740   3.012   8.732  0.0203 -0.5887 -0.2378
   48MPD2    C4  748   3.705   3.061   8.613  0.6753 -0.2217  0.5183
   48MPD2    C5  749   3.610   3.161   8.621 -0.3907  0.1791 -0.3106
   48MPD2     H  750   3.704   2.996   8.940 -1.1637 -0.4057 -0.0757
   48MPD2    H1  751   3.741   3.024   8.517 -0.1998 -1.7304  0.7714
   48MPD2    H2  752   3.493   3.303   8.741 -0.1204 -0.4478  3.4831
   48MPD2    H3  753   3.578   3.206   8.527  0.1285  3.9828  1.3392
   48MPD2     N  754   3.837   2.908   8.740  0.2873 -0.7004 -0.6460
   48MPD2    H5  755   3.858   2.880   8.835 -0.7268  0.8608  0.0345
   48MPD2    N1  756   3.543   3.211   8.982  0.5545 -1.0141 -0.3608
   48MPD2    H7  757   3.597   3.179   9.062 -1.5856 -3.9334 -0.0905
   49TMC2    C1  758   2.740   0.725   9.775 -0.6493 -0.5489 -0.5185
   49TMC2    C2  759   2.772   0.716   9.642  0.3659  0.8085 -0.0065
   49TMC2    C3  760   2.740   0.601   9.577  0.3250 -0.9343  0.5095
   49TMC2    C4  761   2.684   0.621   9.846  0.6223 -0.4653 -0.0498
   49TMC2    C5  762   2.676   0.501   9.781  0.0697 -0.3198 -0.1753
   49TMC2    C6  763   2.699   0.488   9.649 -0.5789 -0.3109 -0.7779
   49TMC2     C  764   2.762   0.849   9.841  0.3374  0.4990 -0.1766
   49TMC2     O  765   2.847   0.924   9.796  0.4648  0.3922 -0.4400
   49TMC2     H  766   2.820   0.798   9.589  1.1543 -0.1684 -0.8170
   49TMC2    H1  767   2.682   0.611   9.954 -2.0718 -0.3791 -0.0829
   49TMC2    H2  768   2.681   0.401   9.588  0.4912 -0.6134 -0.6658
   49TMC2    C7  769   2.660   0.386   9.867 -0.0156  0.2123 -0.1574
   49TMC2    C8  770   2.781   0.584   9.441 -0.3858 -0.2470 -0.1863
   49TMC2    O1  771   2.712   0.392   9.978  0.5371  0.3126 -0.3112
   49TMC2    O2  772   2.852   0.660   9.373 -0.2526 -0.7390  0.0239
   49TMC2    O5  773   2.677   0.523   9.388 -0.2998  0.0289 -0.5688
   49TMC2    H5  774   2.616   0.504   9.462 -0.4473  0.8179 -0.4869
   50MPD2     C  775   2.864   0.944  10.100 -1.2433 -0.7631 -0.8933
   50MPD2    C1  776   2.733   0.914  10.076 -0.2053  0.2559  0.0198
   50MPD2    C2  777   2.644   0.920  10.179  0.4979  0.1701 -0.5273
   50MPD2    C3  778   2.688   0.956  10.302  0.5725  0.1464 -0.0726
   50MPD2    C4  779   2.825   0.978  10.329 -0.5588 -0.0483 -0.6952
   50MPD2    C5  780   2.911   0.980  10.226  0.0562  0.3058 -0.0494
   50MPD2     H  781   2.539   0.902  10.160  0.3849 -0.0725  0.3278
   50MPD2    H1  782   2.873   1.007  10.421  0.8693 -3.1805 -0.4302
   50MPD2    H2  783   2.940   0.947  10.023 -0.5901 -0.2569 -0.2321
   50MPD2    H3  784   3.018   0.996  10.238  0.2223 -0.3484 -0.6552
   50MPD2     N  785   2.597   0.972  10.405 -0.2213  0.5542 -0.2026
   50MPD2    H5  786   2.641   0.988  10.496  1.1082 -0.6803 -0.6306
   50MPD2    N1  787   2.694   0.854   9.958 -0.1910 -0.4341 -0.4631
   50MPD2    H7  788   2.603   0.808   9.959 -0.0330 -0.7210  1.3436
   51TMC2    C1  789   3.309   0.243   1.603 -0.0140  0.4768 -0.0067
   51TMC2    C2  790   3.204   0.320   1.645  0.2633 -0.1276  0.1176
   51TMC2    C3  791   3.196   0.442   1.583 -0.1059 -0.2500  0.0641
   51TMC2    C4  792   3.414   0.291   1.517 -0.6226 -0.2843 -0.6795
   51TMC2    C5  793   3.395   0.408   1.453 -0.0309  0.7523  1.0480
   51TMC2    C6  794   3.290   0.484   1.492  0.2832  1.1942  0.3990
   51TMC2     C  795   3.306   0.099   1.628  0.5993 -0.0805  0.1195
   51TMC2     O  796   3.406   0.035   1.602 -0.2155  0.0699 -0.2341
   51TMC2     H  797   3.155   0.300   1.739 -0.4374 -2.0086 -0.6552
   51TMC2    H1  798   3.490   0.220   1.486  1.0028  1.2908 -0.2761
   51TMC2    H2  799   3.266   0.581   1.451  0.2586  0.9915 -0.0582
   51TMC2    C7  800   3.477   0.429   1.335 -0.1712  0.1393 -0.4197
   51TMC2    C8  801   3.095   0.531   1.636 -0.0588 -0.2097 -0.1866
   51TMC2    O1  802   3.581   0.372   1.328  0.2856 -0.0003  0.2318
   51TMC2    O2  803   2.992   0.481   1.678  0.3963 -0.0811  0.6198
   51TMC2    O5  804   3.137   0.656   1.643  0.1280  0.3032 -0.2331
   51TMC2    H5  805   3.232   0.671   1.625  0.7369 -2.5547  0.6343
   52MPD2     C  806   3.036   4.420   1.749  0.5304  0.4795 -0.0237
   52MPD2    C1  807   3.164   4.428   1.701  0.2172  0.0450  0.5297
   52MPD2    C2  808   3.225   4.552   1.671  0.2639  0.1602 -0.1159
   52MPD2    C3  809   3.139   4.661   1.677 -0.2184  0.7759  0.0252
   52MPD2    C4  810   3.007   4.644   1.706  0.2820  0.0145 -0.4978
   52MPD2    C5  811   2.953   4.531   1.751  0.0098  0.1504  0.9206
   52MPD2     H  812   3.322   4.558   1.624  0.6889 -0.5129  0.6816
   52MPD2    H1  813   2.945   4.733   1.709  0.4267  0.1581 -1.6106
   52MPD2    H2  814   2.987   4.324   1.760  0.1570  0.7356  0.5073
   52MPD2    H3  815   2.848   4.522   1.773 -0.2207 -3.2753 -1.5955
   52MPD2     N  816   3.181   0.055   1.655 -0.7313 -0.0479 -0.1183
   52MPD2    H5  817   3.107   0.125   1.656  1.3522  2.1744 -0.8617
   52MPD2    N1  818   3.226   4.307   1.672 -0.0440  0.2564  0.4373
   52MPD2    H7  819   3.320   4.318   1.637 -0.1880 -0.9075 -0.3128
   53TMC2    C1  820   3.049   2.387  11.528 -0.1552  0.3768  0.4321
   53TMC2    C2  821   3.175   2.378  11.480  1.0191 -0.0880 -0.3600
   53TMC2    C3  822   3.270   2.337  11.566  0.5851 -0.0677 -0.7950
   53TMC2    C4  823   3.023   2.357  11.659 -0.7747  0.0476  0.4489
   53TMC2    C5  824   3.129   2.315  11.739  0.0979 -0.6993  0.1704
   53TMC2    C6  825   3.256   2.309  11.697 -0.7035 -0.0465  0.0230
   53TMC2     C  826   2.973   2.493  11.458 -0.4805 -0.5698  0.2487
   53TMC2     O  827   3.005   2.532  11.347 -0.5641  0.3893 -0.2962
   53TMC2     H  828   3.190   2.379  11.373 -0.5737  0.0302 -0.5871
   53TMC2    H1  829   2.924   2.360  11.701 -1.5195  1.6121 -1.4033
   53TMC2    H2  830   3.344   2.290  11.758 -1.0097 -1.1899  0.0978
   53TMC2    C7  831   3.107   2.298  11.879  0.3845  0.0475 -0.0933
   53TMC2    C8  832   3.398   2.295  11.509  0.0465 -0.3621 -0.1788
   53TMC2    O1  833   3.011   2.356  11.923  0.0295  0.0919  0.0281
   53TMC2    O2  834   3.413   2.343  11.395 -0.2511  0.1562 -0.6281
   53TMC2    O5  835   3.409   2.165  11.537  0.6684  0.3440  0.5943
   53TMC2    H5  836   3.384   2.141  11.629 -0.4798 -2.6187 -0.4951
   54MPD2     C  837   2.816   2.747  11.427 -0.3677 -0.2403 -0.1859
   54MPD2    C1  838   2.784   2.642  11.508 -0.5409 -0.3405  0.1934
   54MPD2    C2  839   2.661   2.640  11.574 -0.3670 -0.3902  0.0445
   54MPD2    C3  840   2.589   2.754  11.572 -0.0692  0.7913  0.8923
   54MPD2    C4  841   2.622   2.858  11.490  0.3656  0.1784  0.1223
   54MPD2    C5  842   2.732   2.853  11.410 -0.6072 -0.6851 -0.0740
   54MPD2     H  843   2.638   2.551  11.632 -1.4886  2.0861  3.3992
   54MPD2    H1  844   2.556   2.944  11.484  1.5196  0.9363 -1.5438
   54MPD2    H2  845   2.910   2.756  11.374 -1.2397  2.8341 -1.2060
   54MPD2    H3  846   2.747   2.946  11.356  0.0292 -1.0628 -0.5518
   54MPD2     N  847   2.465   2.771  11.648 -0.0078 -0.2323  0.7111
   54MPD2    H5  848   2.426   2.865  11.644 -0.6530 -0.5986 -1.8222
   54MPD2    N1  849   2.858   2.522  11.522  0.3553 -0.7354 -0.1387
   54MPD2    H7  850   2.820   2.466  11.597  0.9537 -1.3186 -0.2739
   55TMC2    C1  851   0.757   1.262   0.218 -0.0421 -0.2582  0.2516
   55TMC2    C2  852   0.811   1.344   0.121 -0.5681  0.0111  0.9732
   55TMC2    C3  853   0.843   1.281   0.003 -0.0654 -0.2322  0.4012
   55TMC2    C4  854   0.759   1.123   0.209 -0.3892  0.6594 -0.2043
   55TMC2    C5  855   0.814   1.070   0.092  0.3593  0.0611  0.0945
   55TMC2    C6  856   0.859   1.144  17.738 -1.0883  0.2839  0.7582
   55TMC2     C  857   0.656   1.310   0.312 -0.0115 -0.1605  0.5099
   55TMC2     O  858   0.624   1.237   0.403  0.6260  0.3230 -0.1744
   55TMC2     H  859   0.792   1.450   0.128 -2.3249 -0.3011  1.1541
   55TMC2    H1  860   0.724   1.068   0.296  0.3469 -0.8668 -0.8789
   55TMC2    H2  861   0.904   1.103  17.649 -0.6071  1.7729  0.3119
   55TMC2    C7  862   0.801   0.928   0.059  0.0703  0.9689 -0.2190
   55TMC2    C8  863   0.861   1.353  17.629  0.0926 -0.1469 -0.1172
   55TMC2    O1  864   0.774   0.903  17.689  0.3618  0.0008  0.4624
   55TMC2    O2  865   0.859   1.480  17.634  0.0186  0.2973 -0.4383
   55TMC2    O5  866   0.805   1.284  17.527  0.3764  0.2640  0.0463
   55TMC2    H5  867   0.761   1.341  17.461  1.0788 -1.2603 -1.7250
   56MPD2     C  868   0.530   1.664   0.348 -0.8770 -0.1474  0.7725
   56MPD2    C1  869   0.537   1.526   0.375  0.0268 -0.7309 -0.2202
   56MPD2    C2  870   0.450   1.468   0.465 -0.3569  0.0653 -0.2275
   56MPD2    C3  871   0.351   1.540   0.520  1.2851 -0.4650 -0.4624
   56MPD2    C4  872   0.341   1.677   0.492 -0.2019  0.2272 -0.0031
   56MPD2    C5  873   0.431   1.735   0.411  0.2124 -0.0981 -0.3077
   56MPD2     H  874   0.442   1.363   0.491  0.0997 -0.2618 -1.3849
   56MPD2    H1  875   0.262   1.740   0.530 -0.8894 -1.5373  1.4880
   56MPD2    H2  876   0.604   1.708   0.283 -1.0994 -2.4491 -1.0083
   56MPD2    H3  877   0.415   1.841   0.396  1.1482  0.0159 -0.5363
   56MPD2     N  878   0.256   1.478   0.604 -0.2489  0.2526 -0.1165
   56MPD2    H5  879   0.256   1.377   0.607  0.6986  0.2734  0.5195
   56MPD2    N1  880   0.630   1.450   0.294 -0.9966 -0.1063 -0.3176
   56MPD2    H7  881   0.673   1.505   0.221  1.5478 -1.2278  0.3169
   57TMC2    C1  882   4.451   1.856  13.674 -0.1893  0.3570 -0.7221
   57TMC2    C2  883   4.534   1.778  13.755 -0.0796  0.3773  0.0709
   57TMC2    C3  884   4.586   1.661  13.714  0.1591  0.4622  0.1139
   57TMC2    C4  885   4.431   1.828  13.541  0.1044  0.5435  0.1999
   57TMC2    C5  886   4.489   1.707  13.505  0.1004  0.8545  0.5704
   57TMC2    C6  887   4.554   1.621  13.584 -0.1685  0.2435  0.0644
   57TMC2     C  888   4.355   1.950  13.736  0.1940 -0.5041 -0.1042
   57TMC2     O  889   4.398   2.030  13.817 -0.1883  0.1161 -0.0183
   57TMC2     H  890   4.536   1.803  13.860  0.7283 -0.5914  0.2803
   57TMC2    H1  891   4.362   1.882  13.477 -0.5913 -0.3126  0.2227
   57TMC2    H2  892   4.576   1.517  13.563  2.9302  0.8988  0.0292
   57TMC2    C7  893   4.436   1.665  13.371 -0.3000  0.3306  0.4255
   57TMC2    C8  894   4.619   1.555  13.806  0.4164 -0.7442 -0.3581
   57TMC2    O1  895   4.351   1.734  13.324  0.2655  0.3601  0.3314
   57TMC2    O2  896   4.584   1.440  13.796  0.5638 -0.0470 -0.0154
   57TMC2    O5  897   4.726   1.588  13.885 -0.0583  0.1191 -0.5353
   57TMC2    H5  898   0.004   1.684  13.890  0.8659  0.1172 -2.8882
   58MPD2     C  899   3.873   2.117  13.802  0.2703 -0.5458 -0.1669
   58MPD2    C1  900   3.868   2.009  13.716  0.1876  0.0162 -0.3807
   58MPD2    C2  901   3.988   1.955  13.688  0.4506 -0.1073  0.2171
   58MPD2    C3  902   4.112   1.996  13.740 -0.4058 -0.8161  0.8703
   58MPD2    C4  903   4.117   2.104  13.820  0.3561  0.2747 -0.5739
   58MPD2    C5  904   3.995   2.163  13.851  0.5110 -0.2930 -0.2955
   58MPD2     H  905   3.986   1.873  13.618  0.8515  0.5092 -0.5252
   58MPD2    H1  906   4.207   2.137  13.870 -0.6293  0.9924  0.7303
   58MPD2    H2  907   3.785   2.168  13.838  1.4302 -0.4232  2.4808
   58MPD2    H3  908   3.994   2.239  13.928 -0.4693 -2.7268  2.0597
   58MPD2     N  909   4.227   1.921  13.707  0.4491  0.4014  0.4259
   58MPD2    H5  910   4.217   1.835  13.654  2.0184  0.0842  0.6363
   58MPD2    N1  911   3.746   1.957  13.661  0.3200 -0.2462  0.5978
   58MPD2    H7  912   3.770   1.876  13.605  2.1465  0.9513 -0.3531
   59TMC2    C1  913   1.029   1.471  12.763 -0.9610  0.3077 -0.7200
   59TMC2    C2  914   1.142   1.487  12.703 -0.3214 -0.1326 -0.4739
   59TMC2    C3  915   1.144   1.510  12.568  0.1135 -0.1513 -0.0947
   59TMC2    C4  916   0.916   1.480  12.674  0.5161  0.1442  0.1520
   59TMC2    C5  917   0.916   1.491  12.544  0.5341 -0.4357 -0.3699
   59TMC2    C6  918   1.033   1.513  12.482 -0.1408 -0.6352  0.0378
   59TMC2     C  919   1.012   1.484  12.903  0.2971 -0.1759  0.4630
   59TMC2     O  920   0.900   1.482  12.951 -0.2391 -0.6856 -0.2536
   59TMC2     H  921   1.236   1.465  12.755 -0.5276 -1.7044 -0.7475
   59TMC2    H1  922   0.819   1.488  12.723  0.7648  2.3147  0.2904
   59TMC2    H2  923   1.036   1.529  12.375  0.7578  0.9171  0.2921
   59TMC2    C7  924   0.789   1.507  12.481  0.1244 -0.9947  0.1838
   59TMC2    C8  925   1.249   1.602  12.524  0.5340  0.0912  0.1212
   59TMC2    O1  926   0.702   1.431  12.520 -0.0651 -0.5264  0.2209
   59TMC2    O2  927   1.277   1.638  12.412  0.2058 -0.2440  0.2571
   59TMC2    O5  928   1.293   1.668  12.633 -0.1035 -0.0020  0.5228
   59TMC2    H5  929   1.234   1.658  12.711 -0.5871  0.3503  0.2067
   60MPD2     C  930   1.029   1.560  13.190 -0.4713 -0.3414  0.6958
   60MPD2    C1  931   1.137   1.553  13.107 -0.3425 -0.4021  0.4023
   60MPD2    C2  932   1.266   1.576  13.153  0.5259 -0.3175  0.3206
   60MPD2    C3  933   1.292   1.604  13.281 -0.1829 -0.0725 -0.3480
   60MPD2    C4  934   1.184   1.613  13.370  0.1912  0.8404  0.1163
   60MPD2    C5  935   1.053   1.600  13.320 -0.7977  0.6463  0.3854
   60MPD2     H  936   1.343   1.559  13.078 -0.3647 -2.3317 -0.1422
   60MPD2    H1  937   1.198   1.638  13.474 -0.7617  0.3337  0.3709
   60MPD2    H2  938   0.926   1.547  13.160 -0.3113 -2.2352  0.9840
   60MPD2    H3  939   0.972   1.614  13.390 -1.5121 -0.8145 -0.1341
   60MPD2     N  940   1.424   1.625  13.338 -0.2081  0.7649  0.3713
   60MPD2    H5  941   1.436   1.633  13.438 -0.3135  0.8480  0.3767
   60MPD2    N1  942   1.133   1.516  12.972  0.4109 -0.2738 -0.0754
   60MPD2    H7  943   1.218   1.486  12.926  1.7336  1.1641  1.4574
   61TMC2    C1  944   1.392   3.000  15.351  0.3541 -0.4958  0.6288
   61TMC2    C2  945   1.416   2.906  15.448 -0.3931  0.5258 -0.1262
   61TMC2    C3  946   1.355   2.926  15.568 -0.3354  0.1144 -0.0092
   61TMC2    C4  947   1.306   3.105  15.374 -0.0470 -0.2166  0.7755
   61TMC2    C5  948   1.239   3.116  15.493 -0.7653  0.5035 -0.4294
   61TMC2    C6  949   1.266   3.030  15.596  0.2207  0.2634  0.0614
   61TMC2     C  950   1.458   2.983  15.216  0.1867 -0.6876  0.3933
   61TMC2     O  951   1.509   2.876  15.189 -0.0059  0.6173  0.3675
   61TMC2     H  952   1.472   2.815  15.437 -1.4797 -0.2106  0.4743
   61TMC2    H1  953   1.278   3.171  15.292 -0.2980 -0.8314  0.3727
   61TMC2    H2  954   1.222   3.034  15.695 -1.8934  0.7585 -0.9008
   61TMC2    C7  955   1.169   3.241  15.509  0.0798 -0.1568  0.4289
   61TMC2    C8  956   1.334   2.805  15.639 -0.2374  0.2086 -0.0233
   61TMC2    O1  957   1.162   3.313  15.409 -0.3553  0.1525 -0.2435
   61TMC2    O2  958   1.318   2.696  15.583 -0.5595  0.1744 -0.2512
   61TMC2    O5  959   1.349   2.825  15.773  0.1435 -0.1009  0.2372
   61TMC2    H5  960   1.381   2.914  15.800  0.9723 -0.3821  0.1657
   62MPD2     C  961   1.481   2.981  14.931  0.2061  0.1124  0.5344
   62MPD2    C1  962   1.497   3.095  15.000 -0.3607 -0.1502 -0.0667
   62MPD2    C2  963   1.540   3.208  14.941 -0.4668  0.2400 -0.3610
   62MPD2    C3  964   1.567   3.213  14.804  0.3944  0.2381  0.0797
   62MPD2    C4  965   1.547   3.096  14.732  0.1363 -0.3423 -0.8093
   62MPD2    C5  966   1.513   2.985  14.797  0.4604 -0.2180  0.3953
   62MPD2     H  967   1.548   3.295  15.006  0.2281  0.7639 -1.1544
   62MPD2    H1  968   1.551   3.087  14.624  0.9523 -1.7232 -0.6552
   62MPD2    H2  969   1.452   2.885  14.973  0.5249 -0.0107  0.4718
   62MPD2    H3  970   1.498   2.892  14.744 -2.4228  0.1015  0.6384
   62MPD2     N  971   1.607   3.332  14.738  0.0873  0.5706 -0.0594
   62MPD2    H5  972   1.607   3.337  14.637  0.4368 -0.4153 -0.1123
   62MPD2    N1  973   1.451   3.097  15.136  0.7790 -0.0268  0.4560
   62MPD2    H7  974   1.434   3.184  15.185  0.6404  0.5263 -0.5961
   63TMC2    C1  975   0.479   3.150  10.778  0.1068 -0.1692 -0.4304
   63TMC2    C2  976   0.578   3.218  10.845  0.5324  0.5248  0.4005
   63TMC2    C3  977   0.658   3.300  10.770  0.5494 -0.5120 -0.0833
   63TMC2    C4  978   0.472   3.160  10.644 -0.0427 -0.1858  0.2126
   63TMC2    C5  979   0.540   3.253  10.571  0.0199 -0.0090 -0.0530
   63TMC2    C6  980   0.644   3.323  10.638  0.5293 -0.2219  0.3921
   63TMC2     C  981   0.381   3.069  10.856  0.3244  1.0338  0.1447
   63TMC2     O  982   0.361   3.080  10.978 -0.2186 -0.3824 -0.1868
   63TMC2     H  983   0.589   3.189  10.949 -1.8740 -3.7781 -0.5274
   63TMC2    H1  984   0.381   3.121  10.599 -0.6923 -0.4393  1.7241
   63TMC2    H2  985   0.714   3.381  10.580  0.0083 -0.7696 -0.7805
   63TMC2    C7  986   0.473   3.322  10.464  1.0545 -0.2040  0.4212
   63TMC2    C8  987   0.725   3.414  10.835 -0.5035 -0.5472  0.4655
   63TMC2    O1  988   0.381   3.268  10.408 -0.3471  0.2744  0.3111
   63TMC2    O2  989   0.730   3.527  10.785  0.2394  0.5160  0.3804
   63TMC2    O5  990   0.800   3.379  10.946  0.1680  0.0302 -0.2548
   63TMC2    H5  991   0.787   3.288  10.978 -1.0952  0.3789  0.1977
   64MPD2     C  992   0.013   2.712  10.889 -0.2767  0.3303 -0.1849
   64MPD2    C1  993   0.031   2.740  10.754 -0.0792 -0.8506  0.6795
   64MPD2    C2  994   0.134   2.829  10.721 -0.4182  0.5101  0.5997
   64MPD2    C3  995   0.212   2.896  10.818 -0.4433  0.0079  0.0488
   64MPD2    C4  996   0.178   2.872  10.948 -0.7640 -0.4572 -0.2859
   64MPD2    C5  997   0.084   2.783  10.981  0.3928  0.5924 -0.2809
   64MPD2     H  998   0.174   2.839  10.621 -3.1669 -2.2057 -0.7711
   64MPD2    H1  999   0.225   2.918  11.035  0.2711 -0.4622 -0.8462
   64MPD2    H2 1000   4.673   2.647  10.930  0.3716 -1.6766 -2.1171
   64MPD2    H3 1001   0.068   2.766  11.087  1.5748 -0.0830 -0.2153
   64MPD2     N 1002   0.318   2.984  10.773  0.1305  0.6017 -0.3543
   64MPD2    H5 1003   0.342   2.987  10.675 -0.1432  0.6064 -0.4224
   64MPD2    N1 1004   4.711   2.667  10.647 -0.7606  0.2922  0.0622
   64MPD2    H7 1005   0.010   2.687  10.554 -3.3659  1.6766 -0.6886
   65TMC2    C1 1006   1.880   2.850  15.331  0.1522  0.6198  0.8071
   65TMC2    C2 1007   1.897   2.827  15.200  0.3820 -0.6772  0.1055
   65TMC2    C3 1008   1.870   2.936  15.116  0.1082  0.6867 -1.0720
   65TMC2    C4 1009   1.837   2.964  15.391 -0.7736 -0.5338 -0.0549
   65TMC2    C5 1010   1.822   3.064  15.305 -0.7987  0.0971 -0.4130
   65TMC2    C6 1011   1.832   3.054  15.166  0.5632  0.0791 -0.0491
   65TMC2     C 1012   1.925   2.742  15.422  0.6247  0.1541  0.0291
   65TMC2     O 1013   1.976   2.788  15.523 -0.2309  0.0509  0.4128
   65TMC2     H 1014   1.953   2.744  15.159  1.2583  0.1324 -0.3679
   65TMC2    H1 1015   1.832   2.972  15.499 -0.1956  0.4520 -0.0997
   65TMC2    H2 1016   1.786   3.131  15.106 -0.6069 -0.6155 -0.0417
   65TMC2    C7 1017   1.751   3.184  15.352 -0.2895  0.3110 -0.6974
   65TMC2    C8 1018   1.875   2.914  14.968  0.2783 -0.3538  0.1006
   65TMC2    O1 1019   1.746   3.277  15.271  0.2725 -0.4440  0.3442
   65TMC2    O2 1020   1.857   2.800  14.928  0.0339 -0.3551  0.0751
   65TMC2    O5 1021   1.879   3.023  14.902  0.1896  0.5247  0.3036
   65TMC2    H5 1022   1.922   3.096  14.952  0.2847  1.3251 -0.9497
   66MPD2     C 1023   1.988   2.497  15.574 -0.7709  0.2160  0.6079
   66MPD2    C1 1024   1.893   2.504  15.466  0.5669  0.0028  0.5499
   66MPD2    C2 1025   1.818   2.392  15.440 -0.0907  0.0227 -0.5797
   66MPD2    C3 1026   1.841   2.274  15.505 -0.4019 -0.5248 -0.4474
   66MPD2    C4 1027   1.926   2.263  15.613 -0.0430 -0.9387 -0.1859
   66MPD2    C5 1028   1.994   2.373  15.644 -0.5356  0.2938  0.0612
   66MPD2     H 1029   1.747   2.394  15.358  1.6428 -0.3463 -2.0923
   66MPD2    H1 1030   1.958   2.174  15.665 -0.4348 -0.4527  0.8908
   66MPD2    H2 1031   2.054   2.576  15.609 -2.1548  0.9274  1.6199
   66MPD2    H3 1032   2.065   2.367  15.726  1.9949  2.2827 -1.9693
   66MPD2     N 1033   1.785   2.160  15.442  0.1174  0.2438 -0.7191
   66MPD2    H5 1034   1.734   2.176  15.355 -0.7488  1.1866 -0.0480
   66MPD2    N1 1035   1.872   2.620  15.394 -0.1930  0.0358 -0.0153
   66MPD2    H7 1036   1.804   2.617  15.318  0.2290 -2.2469 -0.3035
   67TMC2    C1 1037   1.923   1.383  14.003 -0.0270 -0.1307  0.2293
   67TMC2    C2 1038   1.791   1.362  14.029  0.1292  0.5325  0.3173
   67TMC2    C3 1039   1.743   1.388  14.157  0.8344  0.7292  0.2926
   67TMC2    C4 1040   2.012   1.411  14.105 -0.1368  0.0022 -0.4846
   67TMC2    C5 1041   1.963   1.429  14.233 -0.0942 -0.2799 -0.5297
   67TMC2    C6 1042   1.823   1.426  14.264 -0.2311 -0.3459  0.4285
   67TMC2     C 1043   1.989   1.300  13.905  0.3107  0.4465  0.4951
   67TMC2     O 1044   2.078   1.226  13.946 -0.7816 -0.0098  0.1172
   67TMC2     H 1045   1.736   1.301  13.958 -0.8953  1.3053  0.4488
   67TMC2    H1 1046   2.114   1.433  14.076 -0.7677  1.7099 -1.4093
   67TMC2    H2 1047   1.789   1.448  14.365  1.1340  1.1859  0.5499
   67TMC2    C7 1048   2.060   1.426  14.339 -0.3144 -0.5286  0.4210
   67TMC2    C8 1049   1.604   1.345  14.195 -0.2057 -0.2992  0.3097
   67TMC2    O1 1050   2.159   1.374  14.294 -0.2890 -0.5973 -0.4828
   67TMC2    O2 1051   1.517   1.423  14.232  0.2196  0.1438  0.3751
   67TMC2    O5 1052   1.582   1.224  14.128  0.1208  0.0857  0.5585
   67TMC2    H5 1053   1.662   1.168  14.122 -0.5369 -0.7788 -0.1404
   68MPD2     C 1054   2.053   1.127  13.677  0.0442  0.3220 -0.5909
   68MPD2    C1 1055   1.935   1.200  13.684 -0.4778 -0.3377 -0.1126
   68MPD2    C2 1056   1.844   1.196  13.582 -0.0443  0.0570 -0.1022
   68MPD2    C3 1057   1.859   1.112  13.476  0.5186 -0.6067 -0.3941
   68MPD2    C4 1058   1.978   1.038  13.470  0.0444  0.3407 -0.6516
   68MPD2    C5 1059   2.076   1.056  13.561  0.0711  0.1638 -1.4267
   68MPD2     H 1060   1.755   1.255  13.598 -1.0748 -1.3824 -0.5487
   68MPD2    H1 1061   2.006   0.976  13.386 -0.2411 -0.4284 -0.1701
   68MPD2    H2 1062   2.133   1.134  13.750 -0.1089 -0.4187 -0.3527
   68MPD2    H3 1063   2.166   0.997  13.551  0.4660  0.6375 -0.7202
   68MPD2     N 1064   1.779   1.116  13.360 -0.3512  0.9266  0.3456
   68MPD2    H5 1065   1.805   1.046  13.292  0.9606  1.7888 -0.0235
   68MPD2    N1 1066   1.914   1.292  13.787 -0.1010 -0.1086  0.1628
   68MPD2    H7 1067   1.829   1.348  13.781  0.8194  1.4159  1.3532
   69TMC2    C1 1068   3.439   2.472  12.331 -0.5080  0.5024  0.2011
   69TMC2    C2 1069   3.403   2.596  12.392 -0.0542 -0.1092  0.0136
   69TMC2    C3 1070   3.364   2.699  12.311 -0.1345  0.1429 -0.6032
   69TMC2    C4 1071   3.436   2.449  12.197 -0.5471  0.2441  0.0835
   69TMC2    C5 1072   3.385   2.550  12.120 -0.7230  0.0529 -0.3409
   69TMC2    C6 1073   3.339   2.669  12.180 -0.1105 -0.2283  0.4203
   69TMC2     C 1074   3.448   2.370  12.426 -0.5875 -0.9130 -0.1815
   69TMC2     O 1075   3.449   2.411  12.539 -0.1012  0.9911  0.0927
   69TMC2     H 1076   3.385   2.611  12.497  0.2954  1.7780 -0.1944
   69TMC2    H1 1077   3.473   2.355  12.158 -1.0916 -0.4289  1.1966
   69TMC2    H2 1078   3.312   2.750  12.113  0.5860  0.7907  1.3710
   69TMC2    C7 1079   3.393   2.544  11.972 -0.3076 -0.1878  0.0682
   69TMC2    C8 1080   3.340   2.837  12.356  0.2501 -0.1490  0.3977
   69TMC2    O1 1081   3.483   2.474  11.925  0.1084  0.2814  0.6505
   69TMC2    O2 1082   3.268   2.924  12.305  0.2091  0.3726  0.1978
   69TMC2    O5 1083   3.424   2.861  12.457  0.1876 -0.1787  0.2647
   69TMC2    H5 1084   3.492   2.792  12.469  1.4084  1.0582  0.5092
   70MPD2     C 1085   3.573   2.024  12.375 -1.0975  0.4383 -0.0335
   70MPD2    C1 1086   3.518   2.133  12.447  0.7557  0.7086 -0.0481
   70MPD2    C2 1087   3.500   2.125  12.590 -0.0666 -0.8747 -0.3313
   70MPD2    C3 1088   3.555   2.016  12.654  0.4614 -0.3123 -0.6705
   70MPD2    C4 1089   3.619   1.919  12.584 -0.0886  0.6154 -0.3284
   70MPD2    C5 1090   3.619   1.919  12.445 -0.2961 -0.5941 -0.1989
   70MPD2     H 1091   3.467   2.211  12.648 -0.6841 -0.8118 -0.7743
   70MPD2    H1 1092   3.659   1.834  12.638  0.8201  1.9460  1.0916
   70MPD2    H2 1093   3.562   2.015  12.267 -0.1768 -0.7047 -0.0246
   70MPD2    H3 1094   3.648   1.827  12.394  2.2513 -0.3706  0.8821
   70MPD2     N 1095   3.548   2.004  12.789 -0.0893  0.1355 -0.0937
   70MPD2    H5 1096   3.611   1.935  12.830  3.0205  3.4327  0.6816
   70MPD2    N1 1097   3.497   2.253  12.372  0.3713  0.0633 -0.7295
   70MPD2    H7 1098   3.526   2.243  12.276  0.7094  2.0157 -0.8313
   71TMC2    C1 1099   1.034   4.151   1.650 -0.4487  0.3723 -0.3740
   71TMC2    C2 1100   1.121   4.210   1.733 -0.2656  0.1152  0.1839
   71TMC2    C3 1101   1.068   4.281   1.836 -0.0187 -0.1804 -0.2077
   71TMC2    C4 1102   0.899   4.152   1.675  0.2382 -0.3195  0.6853
   71TMC2    C5 1103   0.846   4.227   1.782  0.4662  0.1161  0.1090
   71TMC2    C6 1104   0.930   4.289   1.868  0.0940  0.4519 -0.0065
   71TMC2     C 1105   1.080   4.099   1.524  0.4031  0.3018 -0.0666
   71TMC2     O 1106   1.201   4.105   1.501 -0.3007 -0.3223  0.0653
   71TMC2     H 1107   1.227   4.208   1.712 -0.0497  0.6436  1.2568
   71TMC2    H1 1108   0.846   4.067   1.631  1.2741 -0.3087 -0.5796
   71TMC2    H2 1109   0.890   4.346   1.951 -0.3413  1.3687 -0.8462
   71TMC2    C7 1110   0.714   4.189   1.824  0.0036  0.7205  0.6336
   71TMC2    C8 1111   1.148   4.376   1.909  0.4611 -0.7132 -0.0834
   71TMC2    O1 1112   0.685   4.204   1.945 -0.1277 -0.2599  0.2342
   71TMC2    O2 1113   1.253   4.421   1.860 -0.4563 -0.0518 -0.2324
   71TMC2    O5 1114   1.119   4.351   2.041  0.7274  0.3168  0.1648
   71TMC2    H5 1115   1.040   4.297   2.065  1.3754 -0.9035 -0.4158
   72MPD2     C 1116   0.989   3.855   1.087  0.1974  0.4140 -0.2335
   72MPD2    C1 1117   1.101   3.901   1.143  0.2365  0.0560 -0.2235
   72MPD2    C2 1118   1.101   3.968   1.254 -0.1753 -0.0037  0.0043
   72MPD2    C3 1119   0.985   4.011   1.318  0.6005  0.4723  0.3012
   72MPD2    C4 1120   0.868   3.972   1.251  0.6843  0.4906 -0.1791
   72MPD2    C5 1121   0.871   3.906   1.135  0.3143  0.3202 -0.0787
   72MPD2     H 1122   1.198   3.987   1.298 -0.7195 -0.7851  1.5135
   72MPD2    H1 1123   0.772   4.001   1.292  0.5713 -0.1727  0.0308
   72MPD2    H2 1124   0.971   3.800   0.995 -0.0274  3.4746 -2.0309
   72MPD2    H3 1125   0.781   3.858   1.100  0.6372  1.7303 -2.8188
   72MPD2     N 1126   0.974   4.064   1.444  0.1531  0.3154  0.1401
   72MPD2    H5 1127   0.880   4.089   1.471 -0.9149 -0.9151 -2.4572
   72MPD2    N1 1128   1.228   3.861   1.097  0.0404  0.1435 -0.0244
   72MPD2    H7 1129   1.306   3.899   1.149  1.4540 -1.6094 -0.8833
   73TMC2    C1 1130   0.838   0.597  14.215  0.1652 -0.0565  0.7998
   73TMC2    C2 1131   0.759   0.485  14.244 -0.0531 -0.2799  0.2378
   73TMC2    C3 1132   0.829   0.366  14.259  0.0545 -0.0348 -0.4692
   73TMC2    C4 1133   0.976   0.592  14.213 -0.2787  0.4575 -0.9185
   73TMC2    C5 1134   1.027   0.473  14.259 -0.0722  0.4616 -0.0138
   73TMC2    C6 1135   0.961   0.361  14.292  0.3628 -0.0434  0.2766
   73TMC2     C 1136   0.770   0.712  14.155  0.7467 -1.0315 -0.0432
   73TMC2     O 1137   0.652   0.707  14.139  0.5605  0.7468  0.2630
   73TMC2     H 1138   0.651   0.498  14.242  0.2729  2.6029  1.3060
   73TMC2    H1 1139   1.036   0.683  14.213 -0.3136  0.4806 -0.4022
   73TMC2    H2 1140   1.010   0.265  14.289 -0.2659 -0.3128 -1.3166
   73TMC2    C7 1141   1.174   0.451  14.249  0.0155 -0.4426 -0.7346
   73TMC2    C8 1142   0.747   0.264  14.316  0.0661  0.1419 -0.8346
   73TMC2    O1 1143   1.232   0.397  14.342  0.7374  0.2285 -0.1384
   73TMC2    O2 1144   0.770   0.182  14.405 -0.4504  0.4753 -0.1186
   73TMC2    O5 1145   0.648   0.250  14.224  0.6541 -0.4918  0.3569
   73TMC2    H5 1146   0.679   0.298  14.145  0.1339  0.1167  0.5310
   74MPD2     C 1147   0.865   1.093  13.797 -0.3587 -0.3696 -0.3679
   74MPD2    C1 1148   0.979   1.037  13.837 -0.4001 -0.2598  0.4861
   74MPD2    C2 1149   0.969   0.927  13.927  0.5788 -0.1789  0.3093
   74MPD2    C3 1150   0.857   0.886  13.986  0.5230  0.4544  0.9704
   74MPD2    C4 1151   0.743   0.955  13.946  0.2976  0.5878  0.0361
   74MPD2    C5 1152   0.746   1.053  13.850  0.0448  0.4445 -0.1194
   74MPD2     H 1153   1.057   0.869  13.954  1.2166  0.9418  0.6295
   74MPD2    H1 1154   0.652   0.923  13.996  0.6671 -0.5571 -0.0293
   74MPD2    H2 1155   0.859   1.173  13.724  0.1870 -0.0719 -0.0882
   74MPD2    H3 1156   0.653   1.105  13.831  0.7251  2.2023  1.4239
   74MPD2     N 1157   0.865   0.789  14.085  0.2966  0.2658 -0.1763
   74MPD2    H5 1158   0.958   0.748  14.088  0.1256 -0.2371 -1.7844
   74MPD2    N1 1159   1.099   1.097  13.789  0.0091  0.6221 -0.4037
   74MPD2    H7 1160   1.094   1.163  13.712 -1.9738  0.9783  0.0239
   75TMC2    C1 1161   1.614   1.194  13.215  0.4088  0.2916  0.4105
   75TMC2    C2 1162   1.685   1.150  13.110  0.2534 -0.8554  0.1998
   75TMC2    C3 1163   1.615   1.135  12.995 -0.1812  0.2970 -0.7451
   75TMC2    C4 1164   1.483   1.235  13.199 -0.5114  0.3249  0.4830
   75TMC2    C5 1165   1.423   1.226  13.078 -0.7022  0.2004  0.4804
   75TMC2    C6 1166   1.489   1.174  12.977 -0.1744 -0.3341 -0.4865
   75TMC2     C 1167   1.674   1.205  13.341  0.2904 -0.0915  0.0738
   75TMC2     O 1168   1.616   1.276  13.422 -0.1022  0.0718 -0.4697
   75TMC2     H 1169   1.790   1.125  13.112  0.2863 -0.7005  0.4301
   75TMC2    H1 1170   1.430   1.271  13.286  0.9561  0.9947  1.0920
   75TMC2    H2 1171   1.430   1.155  12.888 -0.8058 -1.4731  0.1709
   75TMC2    C7 1172   1.278   1.210  13.082 -0.0232  0.1860 -0.4208
   75TMC2    C8 1173   1.685   1.116  12.862  0.6149 -0.3722 -0.4801
   75TMC2    O1 1174   1.228   1.223  12.971  0.2212  0.4831  0.1066
   75TMC2    O2 1175   1.616   1.068  12.776 -0.0366 -0.3167 -0.5745
   75TMC2    O5 1176   1.808   1.088  12.883 -0.0985  0.0599  0.2899
   75TMC2    H5 1177   1.849   1.155  12.942 -1.4150  2.4962 -1.5228
   76TMC2    C1 1178   4.645   2.344  11.722  1.0272 -0.4002 -0.2186
   76TMC2    C2 1179   0.004   2.287  11.642  0.1618  0.1102  0.1866
   76TMC2    C3 1180   0.097   2.202  11.693  0.4706  0.6519  0.3178
   76TMC2    C4 1181   4.634   2.299  11.849  0.0955 -0.3411 -0.3794
   76TMC2    C5 1182   4.733   2.211  11.897 -0.2148  0.2631 -0.1403
   76TMC2    C6 1183   0.094   2.157  11.821 -0.0813 -0.1719 -0.2145
   76TMC2     C 1184   4.544   2.443  11.665 -1.1113  0.7649 -0.1698
   76TMC2     O 1185   4.452   2.489  11.733  0.1169  0.5455  0.4037
   76TMC2     H 1186   0.005   2.300  11.535 -1.6594 -1.6078 -0.0454
   76TMC2    H1 1187   4.554   2.331  11.914 -0.4637 -1.9140 -0.2915
   76TMC2    H2 1188   0.168   2.087  11.858  0.8195  0.1887 -1.3576
   76TMC2    C7 1189   4.726   2.173  12.031 -0.4510  0.0739  0.0616
   76TMC2    C8 1190   0.204   2.148  11.613 -0.1566 -0.1202  0.0059
   76TMC2    O1 1191   4.614   2.177  12.077  0.2336 -0.8825  0.9307
   76TMC2    O2 1192   0.284   2.069  11.663  0.1612  0.2301 -0.3083
   76TMC2    O5 1193   0.229   2.233  11.513 -0.3162 -0.0132  1.5298
   76TMC2    H5 1194   0.152   2.274  11.469  2.9190  1.7194 -2.4521
   77MPD2     C 1195   4.388   2.735  11.268  0.8099 -0.3198 -0.7048
   77MPD2    C1 1196   4.316   2.685  11.372  0.6960  0.2011 -0.2691
   77MPD2    C2 1197   4.378   2.593  11.458  0.1813  0.2098 -0.2884
   77MPD2    C3 1198   4.515   2.565  11.445 -0.1103  0.3109  0.3614
   77MPD2    C4 1199   4.583   2.623  11.344  0.5965  0.0434  0.3677
   77MPD2    C5 1200   4.521   2.702  11.249 -0.4779  0.6944 -0.1193
   77MPD2     H 1201   4.324   2.552  11.543  1.2017 -1.2202 -0.3362
   77MPD2    H1 1202   4.691   2.629  11.341  0.5141  1.6792  0.9282
   77MPD2    H2 1203   4.341   2.812  11.207 -0.5328  1.4563  2.5391
   77MPD2    H3 1204   4.580   2.769  11.188  0.2977 -1.5454 -1.8216
   77MPD2     N 1205   4.579   2.479  11.534 -0.0296  0.3472  0.4184
   77MPD2    H5 1206   4.659   2.439  11.486 -1.9029 -2.9015  0.0246
   77MPD2    N1 1207   4.178   2.711  11.390  0.0122 -0.4216 -0.6682
   77MPD2    H7 1208   4.132   2.661  11.465 -0.4594 -0.3550 -0.9131
   78TMC2    C1 1209   1.826   4.139   1.768 -0.1394 -0.1893 -0.5193
   78TMC2    C2 1210   1.694   4.151   1.809  0.2665 -0.2332  0.2226
   78TMC2    C3 1211   1.597   4.098   1.731  0.4530 -0.5891 -0.3646
   78TMC2    C4 1212   1.862   4.067   1.654  0.3466 -0.3658 -0.0033
   78TMC2    C5 1213   1.762   4.014   1.571  0.9908  0.2417  0.1427
   78TMC2    C6 1214   1.631   4.030   1.612 -0.1232  0.3546  0.1858
   78TMC2     C 1215   1.932   4.212   1.832 -0.1094 -0.4961  0.4091
   78TMC2     O 1216   2.043   4.168   1.815 -1.1011 -0.2952  0.4500
   78TMC2     H 1217   1.673   4.179   1.911  2.2619 -2.1726  1.1572
   78TMC2    H1 1218   1.968   4.049   1.636  0.3968  0.4455 -0.5428
   78TMC2    H2 1219   1.543   4.001   1.556 -0.5226 -1.0335  1.5415
   78TMC2    C7 1220   1.803   3.924   1.463  0.9556  0.2224 -0.5310
   78TMC2    C8 1221   1.460   4.110   1.759  0.2516  0.3591  0.1258
   78TMC2    O1 1222   1.920   3.893   1.454  0.2318  0.3264 -0.6030
   78TMC2    O2 1223   1.389   4.010   1.749 -0.2119  0.1875  0.5207
   78TMC2    O5 1224   1.446   4.206   1.856  0.2022 -0.0104  0.4320
   78TMC2    H5 1225   1.486   4.293   1.836  0.1684  0.1154  0.9040
   79MPD1     C 1226   2.082   4.534   2.206  0.5153  0.5271 -0.7000
   79MPD1    C1 1227   2.164   4.457   2.128 -0.0551  0.5126 -0.4554
   79MPD1    C2 1228   2.103   4.386   2.022 -0.3886 -0.2825 -0.0260
   79MPD1    C3 1229   1.965   4.397   1.994  0.5344  0.0250 -0.0200
   79MPD1    C4 1230   1.894   4.498   2.066  0.7856 -0.5707  0.4083
   79MPD1    C5 1231   1.952   4.561   2.174  0.0727  0.4553 -0.1920
   79MPD1     H 1232   2.159   4.304   1.980 -0.3452 -0.1000 -0.3202
   79MPD1    H1 1233   1.785   4.502   2.065  0.7147 -2.9317  0.7765
   79MPD1    H2 1234   2.123   4.578   2.297 -0.1068  2.3175 -1.2692
   79MPD1    H3 1235   1.898   4.626   2.242 -0.7272 -0.8641  0.4559
   79MPD1     N 1236   1.888   4.320   1.903  0.4445  0.1603 -0.3379
   79MPD1    H5 1237   1.788   4.339   1.901  0.7268  1.5837 -0.4637
   79MPD1    N1 1238   2.293   4.428   2.170  0.1461  0.1894 -0.1154
   79MPD1    H6 1239   2.345   4.501   2.217 -1.1835  2.3032 -1.8728
   79MPD1    H7 1240   2.357   4.383   2.104 -0.2725  1.3011 -1.2848
   80TMC2    C1 1241   3.262   1.371  11.486  0.0185 -0.1658  0.6354
   80TMC2    C2 1242   3.278   1.331  11.357 -0.0984  0.0244 -0.0391
   80TMC2    C3 1243   3.267   1.201  11.320  0.4536  0.8745 -0.3622
   80TMC2    C4 1244   3.214   1.289  11.580 -0.3337  0.3055 -0.5446
   80TMC2    C5 1245   3.201   1.160  11.539  0.4753 -0.2982  0.8089
   80TMC2    C6 1246   3.225   1.113  11.414  0.2912 -0.6210  0.4442
   80TMC2     C 1247   3.250   1.515  11.509 -0.6455 -0.1621  0.5312
   80TMC2     O 1248   3.263   1.586  11.408  0.0497 -0.5415 -0.1914
   80TMC2     H 1249   3.299   1.406  11.281  0.6410 -0.9136 -0.7547
   80TMC2    H1 1250   3.207   1.324  11.682  0.1284  0.1249 -0.4494
   80TMC2    H2 1251   3.198   1.012  11.385  0.9592 -1.2697  2.1130
   80TMC2    C7 1252   3.131   1.073  11.631 -0.3320 -0.1853  0.8095
   80TMC2    C8 1253   3.313   1.162  11.188 -0.0444  0.4165 -0.1273
   80TMC2    O1 1254   3.064   0.984  11.584  0.4291  0.5757 -0.0066
   80TMC2    O2 1255   3.281   1.048  11.153 -0.2552  0.0109 -0.2002
   80TMC2    O5 1256   3.432   1.222  11.185  0.6619  0.7850  0.5835
   80TMC2    H5 1257   3.463   1.291  11.247 -1.4709  2.0434  0.2633
   81MPD2     C 1258   3.176   1.788  11.592  0.9026  0.6457  0.5186
   81MPD2    C1 1259   3.185   1.681  11.675 -0.6177  0.0802  0.0308
   81MPD2    C2 1260   3.123   1.700  11.793  0.4301 -0.4271 -0.3052
   81MPD2    C3 1261   3.048   1.815  11.838 -0.4459 -0.2291  0.2335
   81MPD2    C4 1262   3.038   1.914  11.743 -0.2869  0.2590 -0.0020
   81MPD2    C5 1263   3.105   1.903  11.624  0.0664  0.1540 -0.4736
   81MPD2     H 1264   3.134   1.616  11.862 -0.4720 -0.1692  0.1441
   81MPD2    H1 1265   2.990   2.009  11.766  0.4017  0.9733 -1.4831
   81MPD2    H2 1266   3.215   1.800  11.491 -1.7207 -2.9230 -0.9340
   81MPD2    H3 1267   3.084   1.977  11.548 -1.6755  2.7277  2.5355
   81MPD2     N 1268   3.004   1.824  11.972  0.6743  0.2190  0.6357
   81MPD2    H5 1269   3.049   1.757  12.032 -0.0729  1.0932  2.1748
   81MPD2    N1 1270   3.237   1.552  11.643  1.1551  0.3403 -0.4552
   81MPD2    H7 1271   3.227   1.481  11.715 -0.3203 -1.4878 -2.4620
   82TMC2    C1 1272   0.881   1.986  11.121 -0.0499  0.1745  0.3078
   82TMC2    C2 1273   0.949   2.103  11.111 -0.2392  0.0786 -0.0339
   82TMC2    C3 1274   1.015   2.153  11.216 -0.3653  0.5676 -0.8269
   82TMC2    C4 1275   0.868   1.933  11.243 -0.7086 -0.3141  0.3883
   82TMC2    C5 1276   0.933   1.982  11.353  0.7821 -0.8081  0.2854
   82TMC2    C6 1277   1.008   2.095  11.338  0.3408 -0.3709  0.0947
   82TMC2     C 1278   0.803   1.946  11.006  0.0665  0.1952  0.6277
   82TMC2     O 1279   0.822   2.000  10.896 -1.0085 -0.8802 -0.0064
   82TMC2     H 1280   0.962   2.144  11.011 -1.7708 -1.9526 -1.0693
   82TMC2    H1 1281   0.813   1.840  11.245  1.3595 -1.4933  2.3704
   82TMC2    H2 1282   1.062   2.136  11.423 -0.3948 -0.7923  0.7658
   82TMC2    C7 1283   0.933   1.903  11.478  0.0909 -0.5989  0.2120
   82TMC2    C8 1284   1.130   2.241  11.188 -0.5950  0.3050  0.2857
   82TMC2    O1 1285   0.874   1.796  11.483  0.7396 -0.6648 -0.2015
   82TMC2    O2 1286   1.225   2.237  11.265  0.0771 -0.1050  0.3329
   82TMC2    O5 1287   1.079   2.355  11.144  0.6779  0.1233  0.0245
   82TMC2    H5 1288   1.027   2.348  11.062 -1.2563  0.3270  1.2333
   83MPD2     C 1289   0.438   1.696  10.754 -0.2643  0.2075 -0.2282
   83MPD2    C1 1290   0.534   1.778  10.709 -0.0519 -0.6267  0.0125
   83MPD2    C2 1291   0.623   1.824  10.800  0.6037 -0.0998 -0.6710
   83MPD2    C3 1292   0.610   1.806  10.939 -0.6184 -0.8559 -0.9660
   83MPD2    C4 1293   0.510   1.729  10.979  0.0229  0.0835 -0.8169
   83MPD2    C5 1294   0.427   1.671  10.888 -0.1968 -0.0250  0.1316
   83MPD2     H 1295   0.694   1.894  10.757  0.4117  0.8641  0.5623
   83MPD2    H1 1296   0.496   1.698  11.082 -1.1566 -3.4864 -2.0596
   83MPD2    H2 1297   0.367   1.655  10.684 -0.9452  3.2925 -1.3658
   83MPD2    H3 1298   0.361   1.589  10.915  0.4153 -1.1117 -1.6103
   83MPD2     N 1299   0.707   1.851  11.034  0.4912 -0.0355  0.0993
   83MPD2    H5 1300   0.707   1.819  11.130  1.1407 -2.8925 -0.8503
   83MPD2    N1 1301   0.530   1.810  10.570 -0.6062  0.4529  0.1734
   83MPD2    H7 1302   0.457   1.756  10.523 -0.4995  1.8631 -1.6080
   84TMC2    C1 1303   2.385   1.052  10.766  0.3716 -0.2969  0.5144
   84TMC2    C2 1304   2.255   1.034  10.774  0.0870  0.1581  0.6165
   84TMC2    C3 1305   2.197   0.965  10.667 -0.0521 -0.1529  0.5972
   84TMC2    C4 1306   2.454   1.035  10.645  0.3369 -0.1989 -0.5355
   84TMC2    C5 1307   2.390   0.986  10.533 -0.0085 -0.2071  0.0194
   84TMC2    C6 1308   2.264   0.941  10.546 -0.5655 -0.3156  0.3688
   84TMC2     C 1309   2.464   1.049  10.887 -0.1630  0.0703  0.0174
   84TMC2     O 1310   2.572   0.992  10.896 -0.1351 -0.4088 -0.1224
   84TMC2     H 1311   2.194   1.049  10.863 -2.0337  4.5151 -1.5350
   84TMC2    H1 1312   2.557   1.068  10.640  0.1666  0.9036  3.7445
   84TMC2    H2 1313   2.214   0.893  10.463  0.4603 -0.3700 -0.2240
   84TMC2    C7 1314   2.459   0.960  10.403 -0.1226  1.1818  0.5481
   84TMC2    C8 1315   2.051   0.951  10.663 -0.2790 -0.4424 -0.9008
   84TMC2    O1 1316   2.391   0.905  10.318  0.5533 -0.2914 -0.2268
   84TMC2    O2 1317   1.991   0.947  10.555 -0.7603  0.3167 -0.2866
   84TMC2    O5 1318   1.998   1.007  10.776  0.3945  0.0349 -0.3966
   84TMC2    H5 1319   2.014   0.951  10.855  0.4460 -1.7685 -1.6887
   85TMC2    C1 1320   4.147   3.813  15.692  0.0377  0.2416  1.3369
   85TMC2    C2 1321   4.090   3.931  15.645 -0.4538  0.0028  0.7161
   85TMC2    C3 1322   4.098   3.952  15.510  0.8134 -0.2740  0.3093
   85TMC2    C4 1323   4.206   3.721  15.617 -0.4210 -0.6590  0.5643
   85TMC2    C5 1324   4.219   3.759  15.485 -0.6483 -1.0153  0.3581
   85TMC2    C6 1325   4.163   3.870  15.426  0.2091  0.1009 -0.3090
   85TMC2     C 1326   4.154   3.801  15.834  0.7417  0.0247 -0.9038
   85TMC2     O 1327   4.186   3.900  15.896 -0.1945 -0.6770 -0.0344
   85TMC2     H 1328   4.038   3.999  15.712  0.8567  2.5109 -0.8161
   85TMC2    H1 1329   4.259   3.634  15.652 -0.5594 -1.0681 -0.2389
   85TMC2    H2 1330   4.164   3.898  15.321  0.3365 -0.7622 -0.5363
   85TMC2    C7 1331   4.310   3.678  15.409  0.2205  0.8440  0.0062
   85TMC2    C8 1332   4.059   4.075  15.455  0.4246 -0.3404 -0.6577
   85TMC2    O1 1333   4.368   3.588  15.466  0.6088  0.0846  0.0151
   85TMC2    O2 1334   4.024   4.080  15.336 -0.0207 -0.0590 -0.3378
   85TMC2    O5 1335   4.144   4.169  15.505 -0.2021  1.0550  0.3918
   85TMC2    H5 1336   4.196   4.145  15.585 -1.7024 -0.2935  0.9603
   86MPD2     C 1337   4.247   3.494  16.238 -0.6317 -0.3735  0.1865
   86MPD2    C1 1338   4.181   3.426  16.144 -1.0167 -0.2668 -0.3774
   86MPD2    C2 1339   4.168   3.484  16.022  0.6523  0.5443 -0.0164
   86MPD2    C3 1340   4.191   3.624  16.001  0.2919  0.1826  0.9179
   86MPD2    C4 1341   4.259   3.694  16.100 -0.3113 -0.1996  0.5142
   86MPD2    C5 1342   4.277   3.630  16.217  0.3549  0.2479  0.3858
   86MPD2     H 1343   4.105   3.431  15.951  0.6701  0.6367 -0.1008
   86MPD2    H1 1344   4.301   3.793  16.092  0.0866 -0.3770  0.4052
   86MPD2    H2 1345   4.277   3.448  16.332  1.9736 -1.1403 -1.0117
   86MPD2    H3 1346   4.332   3.684  16.293  2.4793 -0.1365 -0.8630
   86MPD2     N 1347   4.162   3.667  15.870 -0.4882  0.0019  0.3786
   86MPD2    H5 1348   4.119   3.601  15.806 -2.3709  0.6339  0.9865
   86MPD2    N1 1349   4.134   3.298  16.157  0.1261  0.0112 -0.4077
   86MPD2    H7 1350   4.100   3.260  16.069 -0.7763 -1.5753  0.6397
   87TMC2    C1 1351   1.569   1.612   0.849 -0.0563 -0.5948  0.2003
   87TMC2    C2 1352   1.620   1.594   0.974 -0.1090  0.2748  0.1101
   87TMC2    C3 1353   1.595   1.700   1.064 -0.8530 -0.0673 -0.4098
   87TMC2    C4 1354   1.495   1.720   0.812 -0.3240  1.4535  0.0990
   87TMC2    C5 1355   1.442   1.796   0.917 -0.5676  0.5164 -0.4873
   87TMC2    C6 1356   1.494   1.795   1.043 -0.3534  0.5017  0.3607
   87TMC2     C 1357   1.613   1.523   0.742 -0.1521 -0.1720  0.4333
   87TMC2     O 1358   1.635   1.566   0.629 -0.2590  0.2939 -0.3139
   87TMC2     H 1359   1.688   1.513   0.995  0.3179  0.6744  0.2551
   87TMC2    H1 1360   1.433   1.731   0.723 -0.2969  1.8904  0.1321
   87TMC2    H2 1361   1.463   1.861   1.124 -0.3613  2.1534 -0.9924
   87TMC2    C7 1362   1.365   1.914   0.883  0.2310 -0.5484  0.0889
   87TMC2    C8 1363   1.623   1.662   1.200 -0.3208  0.2403  0.1730
   87TMC2    O1 1364   1.311   1.962   0.982  0.0835 -0.0748  0.2801
   87TMC2    O2 1365   1.536   1.670   1.288  0.0895  0.4425 -0.1257
   87TMC2    O5 1366   1.752   1.695   1.219  0.0368 -0.1145 -0.0859
   87TMC2    H5 1367   1.795   1.692   1.131  0.4564  0.5552  0.0935
   88MPD2     C 1368   1.398   2.130   0.584  0.0659  0.9284 -0.1212
   88MPD2    C1 1369   1.337   2.079   0.699  0.6679  0.0907  0.2793
   88MPD2    C2 1370   1.227   2.140   0.756  0.5650  1.2225 -0.2523
   88MPD2    C3 1371   1.168   2.246   0.692  0.1380 -0.1951  0.6936
   88MPD2    C4 1372   1.228   2.303   0.575  0.0534 -0.3327  0.1387
   88MPD2    C5 1373   1.338   2.240   0.521 -0.6285 -0.0386 -0.2405
   88MPD2     H 1374   1.185   2.109   0.850  0.5742  0.4590 -0.4957
   88MPD2    H1 1375   1.174   2.380   0.521  1.6898 -0.5670 -1.8250
   88MPD2    H2 1376   1.484   2.088   0.533  0.3168  0.9448  0.2882
   88MPD2    H3 1377   1.386   2.275   0.430 -0.0296  1.2629  0.5815
   88MPD2     N 1378   1.069   2.334   0.742 -0.0872 -0.3498  0.7293
   88MPD2    H5 1379   1.053   2.419   0.690  1.1961  0.2700  1.3653
   88MPD2    N1 1380   1.402   1.968   0.762  0.3166 -0.2695  0.1104
   88MPD2    H7 1381   1.481   1.927   0.713  1.5916 -0.0969  2.0431
   89TMC2    C1 1382   2.898   0.570   1.957  0.0787 -0.2643 -0.1002
   89TMC2    C2 1383   3.010   0.635   2.008  0.6406 -0.2690 -0.2210
   89TMC2    C3 1384   3.037   0.758   1.956 -0.2428  0.6472 -0.7374
   89TMC2    C4 1385   2.814   0.624   1.862  0.7119 -0.0331 -0.4760
   89TMC2    C5 1386   2.851   0.745   1.808  0.3870  0.6907  0.1238
   89TMC2    C6 1387   2.958   0.816   1.858  0.1050  0.2415  0.6536
   89TMC2     C 1388   2.892   0.425   1.973 -0.2017 -0.6153  0.2680
   89TMC2     O 1389   2.987   0.363   2.014 -0.8614 -0.6966  0.4165
   89TMC2     H 1390   3.087   0.590   2.069  1.8114  1.0009 -0.7647
   89TMC2    H1 1391   2.756   0.561   1.797 -0.2972  2.0312 -1.5636
   89TMC2    H2 1392   2.980   0.917   1.824  1.7731 -0.5919 -0.7464
   89TMC2    C7 1393   2.795   0.784   1.677  1.0973  0.2224 -0.0072
   89TMC2    C8 1394   3.147   0.830   1.994  0.1946 -0.0650 -0.3043
   89TMC2    O1 1395   2.685   0.739   1.649 -0.0791  0.2328  0.0823
   89TMC2    O2 1396   3.223   0.902   1.927 -0.1007  0.5388 -0.0014
   89TMC2    O5 1397   3.108   0.868   2.118 -0.3163 -0.4397  0.1213
   89TMC2    H5 1398   3.022   0.824   2.134 -1.8254  2.2270 -0.6633
   90MPD2     C 1399   2.621   4.730   1.940  0.3226 -0.0106 -0.0631
   90MPD2    C1 1400   2.535   0.099   1.921 -0.6169 -0.0985  0.5355
   90MPD2    C2 1401   2.585   0.224   1.916  0.2926  0.1186 -0.4004
   90MPD2    C3 1402   2.717   0.250   1.944 -0.6017  0.1743  0.4494
   90MPD2    C4 1403   2.800   0.139   1.956 -0.9244 -0.1213 -0.3710
   90MPD2    C5 1404   2.750   0.012   1.950 -0.0259 -0.2449  0.4438
   90MPD2     H 1405   2.515   0.306   1.908  1.4069  1.3192  2.0826
   90MPD2    H1 1406   2.904   0.150   1.984 -0.7580 -2.4159 -0.0477
   90MPD2    H2 1407   2.584   4.630   1.961 -1.0398  0.3588 -0.7029
   90MPD2    H3 1408   2.809   4.662   1.975  0.9693  0.4478  0.5535
   90MPD2     N 1409   2.767   0.382   1.952 -0.5726  0.6358 -0.2779
   90MPD2    H5 1410   2.693   0.450   1.938 -0.9062  0.3438  0.0977
   90MPD2    N1 1411   2.389   0.076   1.909 -0.6559 -0.7769 -0.1930
   90MPD2    H7 1412   2.328   0.157   1.917 -2.6044 -2.3143  0.3513
   91TMC2    C1 1413   4.098   4.641  16.458  0.1184 -0.1273 -0.1776
   91TMC2    C2 1414   4.161   4.696  16.570 -0.6168  0.9054 -0.0954
   91TMC2    C3 1415   4.142   4.629  16.689  0.1139  0.1704  0.4133
   91TMC2    C4 1416   4.000   4.550  16.463  0.4706  0.2556 -0.1450
   91TMC2    C5 1417   3.993   4.484  16.586 -0.0081 -0.6708 -0.0277
   91TMC2    C6 1418   4.057   4.525  16.704 -0.5510  0.1267  0.4760
   91TMC2     C 1419   4.127   4.687  16.318 -0.0822  0.2540  0.1691
   91TMC2     O 1420   4.050   4.652  16.225  0.0271 -0.2308 -0.4584
   91TMC2     H 1421   4.234   0.036  16.548 -1.6329  1.4576 -1.5516
   91TMC2    H1 1422   3.934   4.524  16.382  0.5188 -0.1804 -0.0449
   91TMC2    H2 1423   4.046   4.478  16.801 -0.7691  1.3772  1.0620
   91TMC2    C7 1424   3.917   4.363  16.603 -0.1789 -0.0447  0.0552
   91TMC2    C8 1425   4.155   4.710  16.806 -0.3307  0.5429  0.6848
   91TMC2    O1 1426   3.915   4.304  16.710 -0.2365 -0.0436 -0.1190
   91TMC2    O2 1427   4.136   4.657  16.914 -0.0539 -0.0533  0.6546
   91TMC2    O5 1428   4.164   0.099  16.782  0.0643 -0.4363  0.7915
   91TMC2    H5 1429   4.167   0.124  16.688  2.9241 -1.9994  0.4638
   92MPD2     C 1430   4.213   0.086  16.076 -0.6076  0.2127  0.1201
   92MPD2    C1 1431   4.285   0.084  16.197 -0.1519 -0.3076 -0.2503
   92MPD2    C2 1432   4.411   0.152  16.202 -0.8127  0.6867 -0.4592
   92MPD2    C3 1433   4.471   0.201  16.085  0.1927  0.3990  0.1418
   92MPD2    C4 1434   4.400   0.187  15.965 -0.9590 -0.6186 -0.0028
   92MPD2    C5 1435   4.272   0.141  15.966 -0.1297 -0.1617  1.3748
   92MPD2     H 1436   4.467   0.161  16.295  1.8090 -2.2417 -1.7544
   92MPD2    H1 1437   4.445   0.234  15.878  1.4703 -0.6640  1.2175
   92MPD2    H2 1438   4.110   0.054  16.064 -1.2421  2.9595 -1.8226
   92MPD2    H3 1439   4.205   0.153  15.882 -0.2872  1.0125  1.6667
   92MPD2     N 1440   4.601   0.260  16.093 -0.4752 -0.0187  0.1832
   92MPD2    H5 1441   4.647   0.270  16.183 -1.1022 -1.4903  0.6689
   92MPD2    N1 1442   4.239   0.022  16.313  0.3121 -0.3025  0.4569
   92MPD2    H7 1443   4.295   0.020  16.398 -0.2230 -1.4132  0.7807
   93TMC2    C1 1444   1.429   0.164  14.143 -0.2923  0.0131 -0.6508
   93TMC2    C2 1445   1.430   0.183  14.280  0.8029  0.0306  0.5377
   93TMC2    C3 1446   1.544   0.223  14.344 -0.1442 -0.2457  0.1485
   93TMC2    C4 1447   1.548   0.190  14.078  0.5488  0.0513 -0.4223
   93TMC2    C5 1448   1.662   0.208  14.153  0.4395  0.7308  0.3623
   93TMC2    C6 1449   1.665   0.231  14.289 -0.4961 -0.3420  0.4228
   93TMC2     C 1450   1.312   0.161  14.059 -0.8104  0.0259  0.1553
   93TMC2     O 1451   1.325   0.209  13.946  0.5374 -0.5506  0.0344
   93TMC2     H 1452   1.340   0.171  14.339 -0.0637  0.9744 -0.5729
   93TMC2    H1 1453   1.556   0.185  13.970  2.0459 -1.0977 -0.2546
   93TMC2    H2 1454   1.749   0.250  14.353 -0.2162  2.9962 -0.9156
   93TMC2    C7 1455   1.788   0.182  14.087  0.1846  0.1140  0.4479
   93TMC2    C8 1456   1.532   0.246  14.487  0.3244 -0.4579  0.4727
   93TMC2    O1 1457   1.857   0.085  14.116 -0.3184  0.1207  0.0712
   93TMC2    O2 1458   1.625   0.243  14.564  0.5481  0.4482 -0.4624
   93TMC2    O5 1459   1.438   0.347  14.496  0.1890  0.0906  0.0871
   93TMC2    H5 1460   1.373   0.359  14.424 -0.8947 -0.2605  0.9963
   94MPD2     C 1461   1.031   0.169  13.971 -0.1951 -0.2935 -0.6946
   94MPD2    C1 1462   1.078   0.080  14.065  0.0483 -0.9375 -0.4845
   94MPD2    C2 1463   0.979   0.009  14.126  0.3792  0.0843  0.1976
   94MPD2    C3 1464   0.846   0.008  14.087  0.2446 -0.1669 -0.4663
   94MPD2    C4 1465   0.808   0.101  13.993  0.0610  0.2181 -0.1737
   94MPD2    C5 1466   0.900   0.179  13.936  0.0237  0.3009  0.5885
   94MPD2     H 1467   0.996   4.690  14.217 -0.8620 -0.9245 -0.1795
   94MPD2    H1 1468   0.713   0.105  13.940 -0.1868  0.0316  0.2608
   94MPD2    H2 1469   1.103   0.234  13.923 -1.8941  2.8455  0.9795
   94MPD2    H3 1470   0.870   0.255  13.864  2.1865  1.3083  0.7592
   94MPD2     N 1471   0.747   4.658  14.139  0.2752  0.4917  0.3054
   94MPD2    H5 1472   0.650   4.664  14.108  0.6486 -2.9737 -1.5144
   94MPD2    N1 1473   1.206   0.094  14.123  0.0807 -0.2708 -0.3539
   94MPD2    H7 1474   1.218   0.059  14.218  0.6254 -1.1317 -0.7412
   95TMC2    C1 1475   1.260   1.228  15.969 -0.0249 -0.7681  0.1092
   95TMC2    C2 1476   1.217   1.097  15.957 -0.1598 -0.3465  0.4259
   95TMC2    C3 1477   1.168   1.046  16.069  0.1772  0.1822 -1.0193
   95TMC2    C4 1478   1.257   1.300  16.086  0.1692 -0.2280 -0.6539
   95TMC2    C5 1479   1.224   1.226  16.198 -0.2198 -0.0272  0.4292
   95TMC2    C6 1480   1.168   1.104  16.188  0.5766  0.0834 -0.1520
   95TMC2     C 1481   1.308   1.296  15.843  0.1973  0.1369 -0.1257
   95TMC2     O 1482   1.364   1.402  15.859  0.3170 -0.1205  0.2808
   95TMC2     H 1483   1.236   1.031  15.873  0.9288  0.1198  0.3115
   95TMC2    H1 1484   1.315   1.391  16.084 -0.5051  0.2104 -0.1740
   95TMC2    H2 1485   1.179   1.028  16.265  0.8146 -1.4521 -1.7147
   95TMC2    C7 1486   1.259   1.277  16.327 -0.1106 -0.2815  0.0686
   95TMC2    C8 1487   1.144   0.906  16.071 -0.7539 -0.5397 -0.3270
   95TMC2    O1 1488   1.328   1.377  16.316 -0.2295  0.3033  0.1880
   95TMC2    O2 1489   1.205   0.830  15.996  0.2306  0.3366  0.1482
   95TMC2    O5 1490   1.026   0.889  16.124 -0.0642  0.2730  0.0013
   95TMC2    H5 1491   0.985   0.978  16.131 -0.0710  0.2809 -0.1415
   96MPD2     C 1492   1.286   1.378  15.344  0.2813  0.1346  0.3939
   96MPD2    C1 1493   1.371   1.442  15.432 -0.0173  0.1349  0.2274
   96MPD2    C2 1494   1.375   1.387  15.568  0.3894  0.2252 -0.4384
   96MPD2    C3 1495   1.291   1.280  15.604 -0.1593 -0.7690 -0.1845
   96MPD2    C4 1496   1.215   1.221  15.506 -1.1571 -0.3909 -0.4887
   96MPD2    C5 1497   1.214   1.278  15.381  0.0835 -0.3549 -0.0519
   96MPD2     H 1498   1.438   1.423  15.648 -2.3178  0.9200  1.3779
   96MPD2    H1 1499   1.153   1.136  15.532 -0.7298 -1.1945 -2.1053
   96MPD2    H2 1500   1.263   1.428  15.250 -0.4032 -1.2904 -0.1967
   96MPD2    H3 1501   1.138   1.239  15.314  0.4188 -0.9286 -0.1033
   96MPD2     N 1502   1.272   1.226  15.733 -0.2264  0.3023 -0.0819
   96MPD2    H5 1503   1.205   1.150  15.737 -0.1179  0.2697  1.1160
   96MPD2    N1 1504   1.445   1.555  15.396 -0.7326 -0.0807  0.4261
   96MPD2    H7 1505   1.426   1.596  15.305 -0.7433  0.2006  0.5567
   97TMC2    C1 1506   3.922   4.304   0.362  0.2102  0.0557 -0.4741
   97TMC2    C2 1507   3.881   4.216   0.269  0.5086  0.7790  0.4767
   97TMC2    C3 1508   3.809   4.262   0.161 -1.0096  1.0420  0.0008
   97TMC2    C4 1509   3.905   4.439   0.340  1.0546 -0.3079 -0.7359
   97TMC2    C5 1510   3.839   4.479   0.229  0.1180  0.3579  0.6873
   97TMC2    C6 1511   3.791   4.396   0.136  0.9468  0.2781 -0.4211
   97TMC2     C 1512   3.929   4.258   0.497 -0.0279  0.4832 -0.0039
   97TMC2     O 1513   3.888   4.143   0.512  0.0715 -0.2077  0.1374
   97TMC2     H 1514   3.882   4.110   0.291  0.4223  0.8408  0.7859
   97TMC2    H1 1515   3.936   4.509   0.417  2.4901 -2.1813  0.4092
   97TMC2    H2 1516   3.740   4.435   0.049 -1.3287  0.2093  0.8731
   97TMC2    C7 1517   3.864   4.618   0.185  0.2586 -0.4326  0.5723
   97TMC2    C8 1518   3.777   4.180   0.049  0.0547 -0.1410  0.4709
   97TMC2    O1 1519   3.957   4.671   0.244 -0.2761  0.1035 -0.1052
   97TMC2    O2 1520   3.691   4.209  17.715  0.3733 -0.0657  0.1334
   97TMC2    O5 1521   3.894   4.127   0.020 -0.2289 -0.0075 -0.1790
   97TMC2    H5 1522   3.965   4.135   0.087 -0.7453 -0.5715  0.4348
   98MPD2     C 1523   4.025   4.334   0.991 -0.0716 -0.2836 -0.1595
   98MPD2    C1 1524   3.941   4.249   0.924 -0.0979  1.1203 -0.1485
   98MPD2    C2 1525   3.940   4.256   0.784  0.3108 -1.1157  0.1921
   98MPD2    C3 1526   4.012   4.346   0.714 -0.0484 -0.3424  0.1391
   98MPD2    C4 1527   4.099   4.429   0.779  0.4769 -1.2767 -0.6920
   98MPD2    C5 1528   4.099   4.416   0.915 -0.0623  0.1933  0.2882
   98MPD2     H 1529   3.865   4.195   0.735  0.9254 -0.5775 -1.4042
   98MPD2    H1 1530   4.171   4.487   0.721 -0.5362  0.5967 -0.0852
   98MPD2    H2 1531   4.035   4.334   1.099  1.5580 -0.2072 -0.3026
   98MPD2    H3 1532   4.176   4.473   0.967  1.8178 -1.1029 -1.0615
   98MPD2     N 1533   3.997   4.356   0.579 -0.8412 -0.5932 -0.2754
   98MPD2    H5 1534   4.049   4.431   0.533 -0.1852 -0.7384  0.2257
   98MPD2    N1 1535   3.851   4.174   1.001 -0.6131 -0.8510  0.4726
   98MPD2    H7 1536   3.839   4.196   1.099 -1.8547  0.4193  0.0386
   99TMC2    C1 1537   3.117   0.570   0.798  0.1256 -0.4109 -0.0255
   99TMC2    C2 1538   3.226   0.495   0.775  0.6440 -0.3764  0.1963
   99TMC2    C3 1539   3.269   0.410   0.873 -0.2459  0.1765 -0.3263
   99TMC2    C4 1540   3.051   0.562   0.916  0.4021 -0.1387  0.4788
   99TMC2    C5 1541   3.098   0.489   1.019  0.2389 -0.3413 -0.0266
   99TMC2    C6 1542   3.204   0.399   0.990  0.1517  0.2515  0.4748
   99TMC2     C 1543   3.105   0.687   0.715  0.0185 -0.0317 -0.4155
   99TMC2     O 1544   3.204   0.739   0.668  0.0220 -0.1151  0.2137
   99TMC2     H 1545   3.265   0.493   0.674  0.7187 -0.2254  0.2220
   99TMC2    H1 1546   2.972   0.631   0.941 -2.2932 -2.1627 -2.3422
   99TMC2    H2 1547   3.234   0.318   1.056  0.3698 -0.8364 -0.9376
   99TMC2    C7 1548   3.027   0.486   1.149 -0.5258  0.0620  0.2252
   99TMC2    C8 1549   3.398   0.358   0.838 -0.0553  0.5009 -0.0803
   99TMC2    O1 1550   3.101   0.488   1.248  0.0332 -0.0976 -0.0285
   99TMC2    O2 1551   3.482   0.409   0.768 -0.5668  0.2578  0.1067
   99TMC2    O5 1552   3.409   0.230   0.868 -0.2908 -0.4207  0.1082
   99TMC2    H5 1553   3.330   0.180   0.900 -0.6958  1.8775  2.6841
  100MPD2     C 1554   3.016   0.931   0.566  0.1151  0.7059 -0.8332
  100MPD2    C1 1555   2.930   0.838   0.630  0.2610  0.2790 -0.9198
  100MPD2    C2 1556   2.798   0.859   0.620 -0.2679  0.0502  0.3843
  100MPD2    C3 1557   2.746   0.975   0.559 -0.8358  0.6003  0.9133
  100MPD2    C4 1558   2.833   1.064   0.494 -0.5656 -0.4407 -0.1318
  100MPD2    C5 1559   2.967   1.043   0.503  0.1074 -0.8215 -0.1511
  100MPD2     H 1560   2.735   0.780   0.658  0.5677 -0.8177 -0.0556
  100MPD2    H1 1561   2.801   1.150   0.437  1.4963 -1.2438 -2.5178
  100MPD2    H2 1562   3.124   0.921   0.566  0.0494 -0.0503 -0.5489
  100MPD2    H3 1563   3.041   1.114   0.469  0.9513 -1.6617 -0.0838
  100MPD2     N 1564   2.607   0.979   0.558  0.2471 -0.2516  0.0808
  100MPD2    H5 1565   2.565   0.897   0.599 -1.5190  0.2173 -0.7942
  100MPD2    N1 1566   2.977   0.721   0.699  0.6612 -0.0943 -0.0931
  100MPD2    H7 1567   2.909   0.660   0.744  0.6708 -0.0773 -0.0555
  101TMC2    C1 1568   2.369   2.134  13.521 -0.3123 -0.4925  0.2380
  101TMC2    C2 1569   2.348   2.185  13.644  0.3347 -0.3928 -0.4187
  101TMC2    C3 1570   2.388   2.317  13.659 -1.0845 -0.0656 -0.4218
  101TMC2    C4 1571   2.428   2.205  13.420 -0.2330 -0.2800 -0.0669
  101TMC2    C5 1572   2.464   2.332  13.445  0.8409 -0.5120 -0.2833
  101TMC2    C6 1573   2.453   2.392  13.563 -0.0985  0.1835 -0.0680
  101TMC2     C 1574   2.322   1.999  13.490  0.3130 -0.1731  0.0422
  101TMC2     O 1575   2.238   1.954  13.562  0.1050  0.0863 -0.5129
  101TMC2     H 1576   2.270   2.143  13.706  0.5539 -1.1011 -0.6303
  101TMC2    H1 1577   2.416   2.166  13.319  0.1204  1.0587 -0.6222
  101TMC2    H2 1578   2.496   2.486  13.595 -0.5715 -0.1606  1.5668
  101TMC2    C7 1579   2.521   2.399  13.327  0.2669  0.6078  0.7663
  101TMC2    C8 1580   2.337   2.386  13.777  0.6935  0.0235  0.1653
  101TMC2    O1 1581   2.554   2.329  13.232 -0.1891 -0.2321 -0.2054
  101TMC2    O2 1582   2.316   2.505  13.781 -0.6851  0.8854 -0.1466
  101TMC2    O5 1583   2.395   2.311  13.877  0.3116  0.1391  0.0305
  101TMC2    H5 1584   2.417   2.218  13.855  1.3698  0.0992  1.2931
  102MPD2     C 1585   2.419   1.774  13.214  0.2741 -0.5244  0.3171
  102MPD2    C1 1586   2.346   1.822  13.323  0.2110 -1.0807 -0.4642
  102MPD2    C2 1587   2.229   1.770  13.349 -0.3778 -0.2405 -0.0527
  102MPD2    C3 1588   2.175   1.658  13.285  0.1379  0.2541 -0.1249
  102MPD2    C4 1589   2.244   1.609  13.179 -0.8676 -1.0201  0.6231
  102MPD2    C5 1590   2.363   1.668  13.142  1.3178 -0.4192  0.0344
  102MPD2     H 1591   2.157   1.807  13.422  1.9757  2.2063  1.0148
  102MPD2    H1 1592   2.206   1.522  13.125 -3.2473 -0.3136  1.1293
  102MPD2    H2 1593   2.511   1.821  13.182 -1.7500  3.0756 -0.1894
  102MPD2    H3 1594   2.415   1.634  13.053 -0.5758  0.8348 -1.5509
  102MPD2     N 1595   2.058   1.607  13.342 -0.0944 -0.4747  0.0117
  102MPD2    H5 1596   2.030   1.649  13.430 -1.5200 -0.3680 -0.4897
  102MPD2    N1 1597   2.389   1.941  13.387 -0.2174 -0.4826  0.4918
  102MPD2    H7 1598   2.458   1.994  13.335 -1.0286 -0.4743 -0.5904
  103TMC2    C1 1599   0.659   2.087  12.444  0.4481 -0.0888 -0.0663
  103TMC2    C2 1600   0.675   1.965  12.503  0.3039  0.0327  0.0780
  103TMC2    C3 1601   0.788   1.946  12.575  0.2049 -0.2764  0.1293
  103TMC2    C4 1602   0.743   2.190  12.459  0.9269 -0.4578  0.2552
  103TMC2    C5 1603   0.856   2.166  12.535  0.4343 -0.3089 -0.3736
  103TMC2    C6 1604   0.878   2.044  12.596 -0.5174 -0.8680 -0.7184
  103TMC2     C 1605   0.531   2.109  12.380  0.1177 -0.2545 -0.2298
  103TMC2     O 1606   0.538   2.189  12.285  0.7157  0.5856  0.0875
  103TMC2     H 1607   0.609   1.881  12.487 -0.3520  0.3241  1.2135
  103TMC2    H1 1608   0.717   2.283  12.410  0.3961  0.0169  1.4293
  103TMC2    H2 1609   0.957   2.031  12.669  0.1791  1.4108 -1.0636
  103TMC2    C7 1610   0.941   2.279  12.584  0.8695 -0.2580  0.1723
  103TMC2    C8 1611   0.815   1.813  12.630 -0.1037  0.1328 -0.3812
  103TMC2    O1 1612   1.012   2.258  12.683  0.4907 -0.0775 -0.0109
  103TMC2    O2 1613   0.727   1.732  12.644  0.9548 -0.0001 -0.8743
  103TMC2    O5 1614   0.947   1.788  12.641 -0.1124 -0.1900  0.1861
  103TMC2    H5 1615   0.993   1.871  12.616 -0.1571 -0.2954 -0.2435
  104MPD2     C 1616   0.188   2.010  12.463  0.0344 -0.0646  0.2464
  104MPD2    C1 1617   0.290   2.065  12.380 -0.3243  0.0480  0.3107
  104MPD2    C2 1618   0.255   2.123  12.260 -0.0955  0.0490 -0.7401
  104MPD2    C3 1619   0.124   2.112  12.222 -0.1879 -0.3706 -0.3074
  104MPD2    C4 1620   0.025   2.064  12.307  0.4204 -0.2006  0.5769
  104MPD2    C5 1621   0.058   2.009  12.432  0.1886 -0.3993 -0.1807
  104MPD2     H 1622   0.325   2.174  12.196  2.5055 -1.5340  0.8423
  104MPD2    H1 1623   4.656   2.072  12.285  0.7229 -1.6658 -1.3450
  104MPD2    H2 1624   0.220   1.978  12.561 -0.7127  0.9145  0.8077
  104MPD2    H3 1625   4.719   1.966  12.496  1.5020 -1.7935  0.4657
  104MPD2     N 1626   0.107   2.149  12.088 -0.3249  0.1581 -0.1577
  104MPD2    H5 1627   0.185   2.193  12.040  0.5835 -0.7948  0.4605
  104MPD2    N1 1628   0.421   2.051  12.431  0.2568 -0.6460 -0.3115
  104MPD2    H7 1629   0.438   2.002  12.519 -0.0403  0.1323  0.1817
  105TMC2    C1 1630   2.250   1.131   0.143 -0.4311  0.0549 -1.0098
  105TMC2    C2 1631   2.314   1.240   0.188  0.2973 -0.1211 -0.3156
  105TMC2    C3 1632   2.253   1.317   0.283 -0.6096 -0.3524  0.0685
  105TMC2    C4 1633   2.134   1.084   0.199  0.0695 -0.0949  0.1922
  105TMC2    C5 1634   2.073   1.161   0.293 -0.4846  0.3709 -0.5301
  105TMC2    C6 1635   2.136   1.272   0.343 -0.1344  0.6703  0.3712
  105TMC2     C 1636   2.318   1.057   0.037  0.7693 -0.1846 -0.3475
  105TMC2     O 1637   2.315   0.932   0.026  0.3890 -0.5080  0.0160
  105TMC2     H 1638   2.421   1.253   0.173  0.1475  1.1560 -0.2954
  105TMC2    H1 1639   2.076   1.003   0.156  0.2600 -0.6133  0.9128
  105TMC2    H2 1640   2.094   1.340   0.416 -0.3189 -1.0042  1.8434
  105TMC2    C7 1641   1.965   1.102   0.369 -0.1668  0.0303 -0.1940
  105TMC2    C8 1642   2.327   1.427   0.343 -0.5097 -0.3114  1.3472
  105TMC2    O1 1643   1.949   0.980   0.376 -0.5227 -0.2210  0.2048
  105TMC2    O2 1644   2.298   1.471   0.454 -0.1647 -1.0996  0.5433
  105TMC2    O5 1645   2.336   1.505   0.240  0.4349  0.1115  0.1136
  105TMC2    H5 1646   2.319   1.472   0.149  2.5680 -1.3808  0.2500
  106MPD2     C 1647   2.560   1.062  17.336  0.4875  0.4501  0.4930
  106MPD2    C1 1648   2.541   1.194  17.378 -0.0433  0.0830 -0.6496
  106MPD2    C2 1649   2.492   1.212  17.501 -0.3291  0.1599 -0.7903
  106MPD2    C3 1650   2.451   1.107  17.579  0.6743 -0.3893 -0.3058
  106MPD2    C4 1651   2.473   0.978  17.538 -0.3784  0.4282 -0.0996
  106MPD2    C5 1652   2.538   0.959  17.423 -0.2066  0.5616  0.2343
  106MPD2     H 1653   2.487   1.317  17.528 -0.0995  0.2913 -1.2507
  106MPD2    H1 1654   2.434   0.888  17.585 -2.9977  2.2089  1.1589
  106MPD2    H2 1655   2.601   1.047  17.237 -1.3377 -2.8483  0.2448
  106MPD2    H3 1656   2.556   0.858  17.388  1.9996  0.6758  0.9817
  106MPD2     N 1657   2.384   1.147  17.697 -0.6550  0.1431  0.4299
  106MPD2    H5 1658   2.372   1.247  17.710 -0.3928  0.4882 -2.0156
  106MPD2    N1 1659   2.557   1.307  17.288  0.3348  0.1363 -0.1595
  106MPD2    H7 1660   2.519   1.399  17.307  1.7917  0.9363 -1.1233
  107TMC2    C1 1661   2.190   1.687  11.697  0.3534  0.4303 -0.6494
  107TMC2    C2 1662   2.075   1.721  11.625 -0.0326  0.0172 -0.0035
  107TMC2    C3 1663   2.053   1.648  11.512  1.0764  0.0476 -0.1924
  107TMC2    C4 1664   2.278   1.583  11.659 -0.0945  0.9030  0.4147
  107TMC2    C5 1665   2.237   1.511  11.550  0.0589 -0.1227  0.0368
  107TMC2    C6 1666   2.127   1.543  11.477  0.1970 -0.2475 -0.4232
  107TMC2     C 1667   2.207   1.736  11.835 -0.7360 -0.1639  0.3741
  107TMC2     O 1668   2.291   1.687  11.910 -0.2238 -0.0820 -0.0617
  107TMC2     H 1669   2.004   1.800  11.648 -0.1440 -0.1257  0.1487
  107TMC2    H1 1670   2.368   1.569  11.719 -0.7224 -2.1049  0.6479
  107TMC2    H2 1671   2.097   1.498  11.384 -0.9913  1.9778 -1.1109
  107TMC2    C7 1672   2.341   1.432  11.496  0.0710 -0.3407  0.3120
  107TMC2    C8 1673   1.940   1.686  11.422 -0.3118 -0.0950 -0.2576
  107TMC2    O1 1674   2.428   1.408  11.579 -0.3065 -0.1166  0.5137
  107TMC2    O2 1675   1.874   1.789  11.432 -0.5873  0.2847 -0.1674
  107TMC2    O5 1676   1.883   1.571  11.389 -0.1543  0.0148  0.5682
  107TMC2    H5 1677   1.934   1.487  11.398  0.7531  0.4677 -0.2848
  108MPD2     C 1678   1.992   1.979  12.009  0.1164  0.5408 -0.0378
  108MPD2    C1 1679   2.061   1.864  11.997 -0.4637  0.1225 -0.2132
  108MPD2    C2 1680   2.074   1.780  12.103  0.1042 -0.0577  0.4832
  108MPD2    C3 1681   2.009   1.813  12.225 -0.1294 -0.2872 -0.0989
  108MPD2    C4 1682   1.928   1.921  12.231 -0.5197 -0.0396 -0.8727
  108MPD2    C5 1683   1.915   2.006  12.126  0.5556 -0.3205 -0.2466
  108MPD2     H 1684   2.139   1.693  12.098 -0.8645 -0.8101  0.8994
  108MPD2    H1 1685   1.878   1.952  12.322  0.8600 -1.0350  0.2250
  108MPD2    H2 1686   1.989   2.058  11.935 -2.4375 -0.0114 -0.5260
  108MPD2    H3 1687   1.858   2.097  12.140  0.1737 -0.7242  0.7748
  108MPD2     N 1688   2.025   1.728  12.341 -0.1722  0.7904 -0.0993
  108MPD2    H5 1689   1.962   1.754  12.415 -0.2956  1.2065 -0.3511
  108MPD2    N1 1690   2.117   1.836  11.870 -0.2060 -0.0040  0.0519
  108MPD2    H7 1691   2.076   1.886  11.792 -1.0315  0.6854  0.9205
  109TMC2    C1 1692   2.868   3.891   0.197  0.5682  0.3469  0.1541
  109TMC2    C2 1693   2.896   3.898   0.066 -0.4834  0.5318 -0.3465
  109TMC2    C3 1694   3.024   3.880   0.022 -0.6772 -0.4678 -0.0843
  109TMC2    C4 1695   2.962   3.873   0.289  0.3863 -0.3499  0.4657
  109TMC2    C5 1696   3.090   3.855   0.249  0.1560 -0.5788  0.2031
  109TMC2    C6 1697   3.116   3.861   0.117 -0.1042 -0.0296  0.7312
  109TMC2     C 1698   2.745   3.949   0.245  0.8926 -0.7860  0.2399
  109TMC2     O 1699   2.683   4.019   0.167  0.0124 -0.1387 -0.2087
  109TMC2     H 1700   2.824   3.920  17.735  0.5024  1.2848 -1.0560
  109TMC2    H1 1701   2.935   3.902   0.390 -1.1109  0.4168 -0.1601
  109TMC2    H2 1702   3.219   3.860   0.085 -0.9628 -1.0782 -1.9997
  109TMC2    C7 1703   3.194   3.840   0.355 -0.6927  0.2869  0.6563
  109TMC2    C8 1704   3.074   3.923  17.640 -0.6706  0.3696  1.2393
  109TMC2    O1 1705   3.153   3.837   0.469 -0.3810  0.4850 -0.0604
  109TMC2    O2 1706   3.181   3.902  17.590  0.6132 -0.0625  0.3956
  109TMC2    O5 1707   3.003   4.042  17.622  0.3331  0.3562 -0.0418
  109TMC2    H5 1708   2.937   4.050  17.695 -0.1280  0.3932 -0.4676
  110MPD2     C 1709   2.314   3.973   0.540  0.1962  0.1398 -0.1723
  110MPD2    C1 1710   2.398   3.870   0.588 -0.5610  0.0029  0.6746
  110MPD2    C2 1711   2.512   3.844   0.512 -0.7256 -1.1861 -0.6766
  110MPD2    C3 1712   2.560   3.921   0.409  0.3560 -0.1953  0.0620
  110MPD2    C4 1713   2.476   4.018   0.358 -0.2822 -0.4408 -0.5775
  110MPD2    C5 1714   2.359   4.038   0.428 -0.1402  0.3637 -0.5765
  110MPD2     H 1715   2.588   3.773   0.545  0.7297  0.3269 -0.8054
  110MPD2    H1 1716   2.492   4.076   0.268  1.2318 -0.4907 -0.3464
  110MPD2    H2 1717   2.223   4.012   0.585  0.0074  0.7073 -1.0463
  110MPD2    H3 1718   2.287   4.111   0.392  1.5937  1.2898 -2.1638
  110MPD2     N 1719   2.688   3.888   0.357 -0.3286 -0.4439  0.4618
  110MPD2    H5 1720   2.747   3.827   0.413 -1.9584 -1.2147  1.3470
  110MPD2    N1 1721   2.359   3.802   0.709  0.2795 -0.1697 -0.4422
  110MPD2    H7 1722   2.268   3.824   0.747  0.0220  0.1620 -1.2659
  111TMC2    C1 1723   2.381   3.443  12.131  0.6771 -0.0599 -0.4083
  111TMC2    C2 1724   2.383   3.501  12.260  0.7866 -0.4512 -0.4128
  111TMC2    C3 1725   2.354   3.418  12.363  0.6076 -0.1964 -0.3446
  111TMC2    C4 1726   2.366   3.308  12.119  0.5086  0.0336  0.3738
  111TMC2    C5 1727   2.361   3.231  12.232 -0.3676  0.2549 -0.2471
  111TMC2    C6 1728   2.351   3.284  12.352  0.6677  0.0864  0.3702
  111TMC2     C 1729   2.388   3.520  12.006 -0.1362  0.4018  0.2747
  111TMC2     O 1730   2.374   3.458  11.902 -0.6876 -0.1818 -0.5072
  111TMC2     H 1731   2.391   3.609  12.271 -1.9930 -0.0860 -1.6708
  111TMC2    H1 1732   2.361   3.260  12.022 -0.4471 -0.5950  0.7235
  111TMC2    H2 1733   2.330   3.213  12.432  0.6411  1.0249  1.1921
  111TMC2    C7 1734   2.420   3.102  12.238  0.1779 -0.1018 -0.2000
  111TMC2    C8 1735   2.334   3.463  12.495  0.3447 -0.2540 -0.3228
  111TMC2    O1 1736   2.400   3.031  12.333  0.1953 -0.3102 -0.3124
  111TMC2    O2 1737   2.339   3.387  12.589 -0.1309 -0.6027 -0.1326
  111TMC2    O5 1738   2.227   3.551  12.481  0.1074 -0.1010  0.4930
  111TMC2    H5 1739   2.226   3.588  12.390  1.5210  2.4321  1.5091
  112MPD2     C 1740   2.377   3.932  11.700  0.1093 -0.2508  0.3693
  112MPD2    C1 1741   2.358   3.795  11.678  0.0712  0.1695 -0.7597
  112MPD2    C2 1742   2.367   3.709  11.782 -0.7828  0.4454  0.9599
  112MPD2    C3 1743   2.410   3.744  11.910  0.1086  0.3748 -0.0194
  112MPD2    C4 1744   2.445   3.879  11.926 -0.6162 -0.2399  0.1403
  112MPD2    C5 1745   2.429   3.971  11.821  0.4395 -0.2478  0.3182
  112MPD2     H 1746   2.322   3.613  11.757  0.1770  0.7060 -1.7707
  112MPD2    H1 1747   2.480   3.924  12.018 -1.0654 -0.6696  0.5206
  112MPD2    H2 1748   2.354   4.012  11.631  1.0946  0.4034  0.8107
  112MPD2    H3 1749   2.449   4.075  11.844  2.4323 -0.8417  1.2115
  112MPD2     N 1750   2.407   3.657  12.019 -0.1060  0.2766  0.0230
  112MPD2    H5 1751   2.415   3.703  12.109 -1.0050 -1.6952  1.1036
  112MPD2    N1 1752   2.334   3.753  11.546 -0.0837  0.2738 -0.4877
  112MPD2    H7 1753   2.338   3.653  11.534 -0.3954  0.0074  1.6733
  113TMC2    C1 1754   1.235   0.636   0.895 -0.0121  0.3104 -1.0839
  113TMC2    C2 1755   1.163   0.757   0.905  1.0401 -0.5168  0.2229
  113TMC2    C3 1756   1.027   0.744   0.900 -0.1635  0.3630  0.7735
  113TMC2    C4 1757   1.182   0.516   0.865  0.5327 -0.0172  0.8182
  113TMC2    C5 1758   1.043   0.515   0.852 -0.1921  0.5789  0.6996
  113TMC2    C6 1759   0.966   0.621   0.886 -0.5125  0.1671  0.6145
  113TMC2     C 1760   1.376   0.639   0.920 -0.5880 -0.1475  1.2135
  113TMC2     O 1761   1.413   0.733   0.988 -0.3706  0.6797 -0.2890
  113TMC2     H 1762   1.207   0.852   0.935 -0.2709  0.3811 -0.7256
  113TMC2    H1 1763   1.234   0.422   0.848  0.0970 -0.3001  1.0383
  113TMC2    H2 1764   0.858   0.622   0.875 -0.3648  1.5927 -0.7914
  113TMC2    C7 1765   0.992   0.377   0.828 -0.4137  0.4762  0.0592
  113TMC2    C8 1766   0.951   0.868   0.887  0.1812  0.7094  0.0213
  113TMC2    O1 1767   1.060   0.294   0.772 -0.3830  0.1719 -0.6232
  113TMC2    O2 1768   0.978   0.958   0.965  0.0769  0.6763  0.1655
  113TMC2    O5 1769   0.828   0.841   0.843  0.2389  0.1371  0.3989
  113TMC2    H5 1770   0.836   0.767   0.779  1.2715 -0.2430  0.9755
  114MPD2     C 1771   1.860   0.468   0.912 -0.1004  0.3360  0.6196
  114MPD2    C1 1772   1.806   0.585   0.966  0.7523 -0.1825 -0.0968
  114MPD2    C2 1773   1.668   0.606   0.957 -0.0893 -0.7294 -0.1870
  114MPD2    C3 1774   1.586   0.510   0.908  0.8746 -0.1764  0.2746
  114MPD2    C4 1775   1.639   0.395   0.859  0.3362 -0.3301 -1.1002
  114MPD2    C5 1776   1.772   0.378   0.862  0.5484 -0.2960  0.3391
  114MPD2     H 1777   1.637   0.710   0.954  5.4054  0.8238 -2.6213
  114MPD2    H1 1778   1.579   0.317   0.813 -0.6761  0.5568 -1.2856
  114MPD2    H2 1779   1.964   0.443   0.927 -0.5498 -0.9725  1.5863
  114MPD2    H3 1780   1.815   0.283   0.833  0.7354 -0.0272 -0.2689
  114MPD2     N 1781   1.447   0.529   0.877 -0.3618  0.4575  0.3465
  114MPD2    H5 1782   1.398   0.455   0.830  1.4012 -1.4907  1.5482
  114MPD2    N1 1783   1.891   0.690   1.016  0.3054 -0.3189  0.2304
  114MPD2    H7 1784   1.851   0.780   1.038 -1.4449 -1.2345  0.7679
  115TMC2    C1 1785   1.727   3.261  17.730 -0.9549 -0.0693  0.3572
  115TMC2    C2 1786   1.850   3.205  17.710 -0.2367 -0.0397 -0.4837
  115TMC2    C3 1787   1.954   3.292  17.691 -0.3372  0.3653  1.0697
  115TMC2    C4 1788   1.723   3.400  17.731  0.3125  0.6618 -0.0560
  115TMC2    C5 1789   1.831   3.480  17.696  0.2901 -0.0319  0.2527
  115TMC2    C6 1790   1.957   3.424  17.690  0.2776  0.7086 -0.2014
  115TMC2     C 1791   1.605   3.177  17.729 -0.6873  0.5018 -0.3299
  115TMC2     O 1792   1.616   3.061  17.689  0.7783 -0.0013  0.2558
  115TMC2     H 1793   1.861   3.098  17.707 -0.7911 -0.1297  0.5765
  115TMC2    H1 1794   1.628   3.451  17.737  0.4026  0.5695  1.9412
  115TMC2    H2 1795   2.047   3.482  17.672  0.8137  0.2932  1.1550
  115TMC2    C7 1796   1.810   3.624  17.681  0.0586  0.5574 -0.5265
  115TMC2    C8 1797   2.078   3.231  17.710  0.4643  0.6915 -0.2784
  115TMC2    O1 1798   1.708   3.677  17.728  0.3893 -0.1051  0.3492
  115TMC2    O2 1799   2.101   3.110  17.692 -0.4604  0.1763  0.1744
  115TMC2    O5 1800   2.147   3.318   0.042 -0.0274  0.5736 -0.3105
  115TMC2    H5 1801   2.093   3.392   0.078  1.4730  1.5977 -0.1405
  116MPD2     C 1802   1.125   3.151  17.554 -0.3246 -0.5483  0.4664
  116MPD2    C1 1803   1.220   3.048  17.571 -0.2739 -0.0472 -0.5497
  116MPD2    C2 1804   1.337   3.076  17.638  0.0553 -0.2320 -0.3816
  116MPD2    C3 1805   1.360   3.204  17.682  0.2013  0.5848 -0.0179
  116MPD2    C4 1806   1.258   3.299  17.686  0.4052  0.3609 -0.1669
  116MPD2    C5 1807   1.151   3.276  17.609  0.1737  0.0443  0.0691
  116MPD2     H 1808   1.420   3.007  17.631  1.9176  1.8315  1.6377
  116MPD2    H1 1809   1.269   3.393  17.738 -0.6043  0.9517 -1.0463
  116MPD2    H2 1810   1.027   3.130  17.513 -0.6323 -1.9962  1.9205
  116MPD2    H3 1811   1.088   3.361  17.585 -1.2665 -1.1870 -0.4926
  116MPD2     N 1812   1.485   3.255  17.730 -0.9900  0.1840 -0.8308
  116MPD2    H5 1813   1.486   3.353   0.008 -0.8805  0.5446 -2.2908
  116MPD2    N1 1814   1.208   2.938  17.484  0.0860  0.1610 -0.1183
  116MPD2    H7 1815   1.129   2.933  17.421 -1.2368 -1.0361  1.6710
  117TMC2    C1 1816   0.399   0.460  13.675 -0.4540  0.2025 -0.2654
  117TMC2    C2 1817   0.519   0.415  13.724 -0.2672  0.2526 -0.0862
  117TMC2    C3 1818   0.588   0.502  13.802 -0.4186  0.6086  0.1026
  117TMC2    C4 1819   0.346   0.586  13.699 -0.1995 -0.5678  0.3183
  117TMC2    C5 1820   0.431   0.670  13.774  0.4666  0.2515 -0.4786
  117TMC2    C6 1821   0.549   0.629  13.831  0.0030  0.3242  0.5190
  117TMC2     C 1822   0.313   0.357  13.626  0.1075  0.7096  0.3713
  117TMC2     O 1823   0.346   0.238  13.636 -0.3711 -0.5574 -0.9369
  117TMC2     H 1824   0.565   0.317  13.715  2.0320  1.2419  0.9256
  117TMC2    H1 1825   0.243   0.610  13.678 -0.2971 -2.0032 -0.9007
  117TMC2    H2 1826   0.619   0.704  13.865  0.6341  0.4801 -1.0919
  117TMC2    C7 1827   0.388   0.808  13.800  0.0260  0.0666  0.9267
  117TMC2    C8 1828   0.699   0.451  13.881  0.4343  0.4708 -0.4193
  117TMC2    O1 1829   0.436   0.865  13.897  0.1764 -0.1174 -0.4867
  117TMC2    O2 1830   0.803   0.514  13.895  0.5073  0.6835  0.2668
  117TMC2    O5 1831   0.631   0.370  13.967  0.7353 -0.1344  0.1715
  117TMC2    H5 1832   0.535   0.363  13.949  1.0906 -2.2094 -0.8605
  118MPD2     C 1833   0.105   0.990  13.635 -0.0599 -0.1070  0.3603
  118MPD2    C1 1834   0.221   0.976  13.712  0.2631  0.0034 -0.0026
  118MPD2    C2 1835   0.269   1.086  13.792 -0.0342  0.2766  0.2200
  118MPD2    C3 1836   0.210   1.207  13.786  0.0360 -0.6483  1.3133
  118MPD2    C4 1837   0.095   1.222  13.715 -0.2607 -0.5921 -0.3984
  118MPD2    C5 1838   0.054   1.123  13.629 -0.3206  0.0988  0.2809
  118MPD2     H 1839   0.367   1.074  13.839  0.1713  2.5614  0.3654
  118MPD2    H1 1840   0.040   1.315  13.710  0.2851 -0.3440 -1.6347
  118MPD2    H2 1841   0.057   0.908  13.583  0.4665  0.6459 -1.3059
  118MPD2    H3 1842   4.700   1.146  13.574 -0.3509  0.1398  0.3483
  118MPD2     N 1843   0.247   1.325  13.858  0.4315  0.8333 -0.2610
  118MPD2    H5 1844   0.184   1.404  13.866 -0.0981  0.4422 -0.5811
  118MPD2    N1 1845   0.293   0.848  13.711  0.1009  0.1144  0.1107
  118MPD2    H7 1846   0.267   0.789  13.633 -0.6932  1.0238 -0.3127
  119TMC2    C1 1847   3.280   0.945  13.211  0.2354  0.0647 -0.3392
  119TMC2    C2 1848   3.264   0.893  13.083  0.2485 -0.3926 -0.1246
  119TMC2    C3 1849   3.135   0.902  13.041  0.6471  0.2647  0.2858
  119TMC2    C4 1850   3.181   0.974  13.304 -1.1713 -0.0151 -0.4909
  119TMC2    C5 1851   3.055   0.968  13.255 -1.1880  0.4197 -0.3328
  119TMC2    C6 1852   3.028   0.937  13.125  0.2858 -0.2639 -0.1832
  119TMC2     C 1853   3.411   0.999  13.245 -0.4720 -0.4471  0.5484
  119TMC2     O 1854   3.501   0.957  13.176 -0.0345  0.6417 -0.3588
  119TMC2     H 1855   3.341   0.882  13.007  0.6273 -0.6468  0.3011
  119TMC2    H1 1856   3.188   1.015  13.404 -4.0818  0.6225 -0.5462
  119TMC2    H2 1857   2.923   0.932  13.101  0.2827  1.8307 -0.6687
  119TMC2    C7 1858   2.944   0.999  13.348  0.3725  0.0068  0.4160
  119TMC2    C8 1859   3.109   0.844  12.912 -0.2976  0.3415 -0.9243
  119TMC2    O1 1860   2.831   1.015  13.305 -0.3245 -0.0014 -0.8056
  119TMC2    O2 1861   3.183   0.779  12.842  0.0458  0.0528 -0.4385
  119TMC2    O5 1862   2.993   0.901  12.871  0.2504  0.2168 -0.2292
  119TMC2    H5 1863   2.963   0.978  12.924 -0.3679  0.3518 -0.7739
  120MPD2     C 1864   3.727   1.374  13.428 -0.1767  0.4674 -0.0983
  120MPD2    C1 1865   3.595   1.411  13.442 -0.2669 -0.1745  0.3027
  120MPD2    C2 1866   3.501   1.320  13.399  0.4977  0.0505  0.2900
  120MPD2    C3 1867   3.533   1.189  13.353  0.1835  0.4640  0.0534
  120MPD2    C4 1868   3.669   1.150  13.363 -0.5877  1.0671 -0.1544
  120MPD2    C5 1869   3.764   1.242  13.400 -0.4571 -0.1082 -0.3190
  120MPD2     H 1870   3.394   1.338  13.401  0.4921 -0.0943  1.3682
  120MPD2    H1 1871   3.688   1.046  13.338 -2.7415  0.2566  1.6061
  120MPD2    H2 1872   3.801   1.449  13.456  0.7399 -0.6458  0.4656
  120MPD2    H3 1873   3.869   1.216  13.406 -0.6560 -0.5303  1.5263
  120MPD2     N 1874   3.416   1.111  13.329 -0.8316 -0.3874  0.3200
  120MPD2    H5 1875   3.324   1.136  13.365 -1.7182 -0.5501 -1.8519
  120MPD2    N1 1876   3.564   1.537  13.498 -0.4455  0.3063  0.2287
  120MPD2    H7 1877   3.645   1.597  13.510 -1.3371  1.5115  0.1364
  121TMC2    C1 1878   0.526   3.262  14.298 -0.2923  0.8900 -0.1237
  121TMC2    C2 1879   0.574   3.282  14.430 -0.5768 -0.0859 -0.1822
  121TMC2    C3 1880   0.524   3.190  14.516 -0.3069 -0.3968  0.4618
  121TMC2    C4 1881   0.430   3.173  14.258 -0.1070  1.0713  0.3565
  121TMC2    C5 1882   0.382   3.093  14.355 -0.2861 -0.0827 -0.6806
  121TMC2    C6 1883   0.438   3.092  14.482 -0.3727 -0.0461  0.0587
  121TMC2     C 1884   0.568   3.373  14.208 -0.2309 -0.6383 -0.5665
  121TMC2     O 1885   0.657   3.440  14.256  0.0890  1.1860  0.1604
  121TMC2     H 1886   0.624   3.373  14.458 -0.8774 -0.5699  1.9469
  121TMC2    H1 1887   0.418   3.146  14.154 -0.8620 -0.4018  0.8237
  121TMC2    H2 1888   0.411   3.020  14.559 -2.3459 -0.8074 -1.3576
  121TMC2    C7 1889   0.283   2.985  14.319 -0.1848  0.5171  0.1543
  121TMC2    C8 1890   0.612   3.163  14.623  0.6496  0.0314 -0.0429
  121TMC2    O1 1891   0.273   2.886  14.394 -0.3573  0.3337  0.2177
  121TMC2    O2 1892   0.608   3.053  14.675 -0.4754  0.7282 -0.1134
  121TMC2    O5 1893   0.705   3.263  14.643 -0.3730  0.2035  0.0255
  121TMC2    H5 1894   0.669   3.350  14.613  0.1344  0.9589  1.5796
  122MPD2     C 1895   0.647   3.554  13.983  0.0521 -0.0562  1.2680
  122MPD2    C1 1896   0.537   3.463  13.985 -0.0995  0.2513  0.2779
  122MPD2    C2 1897   0.464   3.456  13.867  0.2218  0.0382  0.2718
  122MPD2    C3 1898   0.492   3.534  13.759 -0.0350 -0.4433  0.1644
  122MPD2    C4 1899   0.599   3.625  13.764  0.4702 -0.1488 -0.3665
  122MPD2    C5 1900   0.675   3.638  13.878  0.1805 -0.0224  0.1287
  122MPD2     H 1901   0.391   3.375  13.864  0.8679 -0.4674 -2.1100
  122MPD2    H1 1902   0.636   3.686  13.682  0.9942 -0.8786 -0.6689
  122MPD2    H2 1903   0.712   3.564  14.070  2.7295  0.4872 -0.7815
  122MPD2    H3 1904   0.763   3.701  13.888  0.0870  0.1128  0.0896
  122MPD2     N 1905   0.425   3.524  13.634  0.0929 -0.1690  0.1879
  122MPD2    H5 1906   0.457   3.585  13.558  0.2562 -1.5715 -0.8686
  122MPD2    N1 1907   0.507   3.370  14.087 -0.7047 -0.2058 -0.5688
  122MPD2    H7 1908   0.439   3.297  14.069 -1.1847  0.7648 -2.7277
  123TMC2    C1 1909   3.502   1.375   9.798  0.2624 -0.7130  0.9666
  123TMC2    C2 1910   3.589   1.477   9.797  0.2803 -0.2726 -0.2044
  123TMC2    C3 1911   3.635   1.509   9.676 -0.4409  0.4776 -0.2916
  123TMC2    C4 1912   3.454   1.307   9.695  0.2370  0.1886  0.4047
  123TMC2    C5 1913   3.508   1.337   9.573  0.2458 -0.5503  0.7094
  123TMC2    C6 1914   3.590   1.443   9.563 -1.0295 -0.0409 -0.0154
  123TMC2     C 1915   3.436   1.373   9.923 -0.1788 -0.5432  0.3976
  123TMC2     O 1916   3.496   1.414  10.021 -0.4379  0.0891  0.3233
  123TMC2     H 1917   3.644   1.508   9.885  1.8086  1.3645 -1.7365
  123TMC2    H1 1918   3.396   1.217   9.711  0.0960  0.2557  0.2744
  123TMC2    H2 1919   3.643   1.454   9.470 -1.4449  0.5167 -0.1831
  123TMC2    C7 1920   3.474   1.268   9.446  0.0851 -0.3636  0.0921
  123TMC2    C8 1921   3.740   1.602   9.660 -0.0760 -0.4812 -0.2524
  123TMC2    O1 1922   3.551   1.270   9.349  0.2010  0.3906 -0.1689
  123TMC2    O2 1923   3.795   1.648   9.759  0.1050  0.0916 -0.6849
  123TMC2    O5 1924   3.725   1.668   9.542  0.1095 -0.1148 -0.1553
  123TMC2    H5 1925   3.651   1.647   9.481 -0.0899  1.3111 -0.4114
  124MPD2     C 1926   3.029   1.284  10.218 -0.0299  0.1378  0.7237
  124MPD2    C1 1927   2.985   1.307  10.091  0.2738 -0.4636  0.5704
  124MPD2    C2 1928   3.080   1.325   9.997  0.5675 -0.4156  0.6025
  124MPD2    C3 1929   3.212   1.325  10.020 -0.2500  0.2405  0.4915
  124MPD2    C4 1930   3.254   1.319  10.155 -0.4908 -0.0861  0.9707
  124MPD2    C5 1931   3.158   1.287  10.248  0.4110 -0.6553  0.1235
  124MPD2     H 1932   3.051   1.317   9.893  0.9365  1.8668  0.3290
  124MPD2    H1 1933   3.355   1.338  10.187 -0.4486  1.4349 -0.0577
  124MPD2    H2 1934   2.961   1.270  10.301 -0.5291 -0.8294  0.1495
  124MPD2    H3 1935   3.186   1.279  10.352 -0.7866  1.8994  0.6419
  124MPD2     N 1936   3.305   1.337   9.911  0.5344 -0.0021 -0.1503
  124MPD2    H5 1937   3.266   1.334   9.818 -1.0805 -3.8358  0.6171
  124MPD2    N1 1938   2.848   1.294  10.055 -0.1060 -0.6912  0.1512
  124MPD2    H7 1939   2.783   1.279  10.131  2.7855 -1.8701  2.3793
  125TMC2    C1 1940   4.293   2.858   9.493 -0.2975  0.4466 -0.0760
  125TMC2    C2 1941   4.408   2.794   9.546  0.2725  0.1216 -0.1939
  125TMC2    C3 1942   4.410   2.778   9.685  0.2337 -0.0081 -0.0308
  125TMC2    C4 1943   4.187   2.904   9.562 -0.9688 -0.5011 -0.0899
  125TMC2    C5 1944   4.190   2.863   9.694  0.3057  0.4392 -0.2740
  125TMC2    C6 1945   4.297   2.800   9.761  0.6416 -0.4075 -0.7594
  125TMC2     C 1946   4.287   2.889   9.352  0.3774  0.5152  1.1047
  125TMC2     O 1947   4.209   2.969   9.315 -0.1427 -0.0347  0.3085
  125TMC2     H 1948   4.493   2.785   9.480 -0.2100  2.2091 -1.1148
  125TMC2    H1 1949   4.099   2.930   9.505 -0.7757 -1.3327 -0.7713
  125TMC2    H2 1950   4.283   2.777   9.865 -0.7346  1.8370 -0.4536
  125TMC2    C7 1951   4.061   2.873   9.762  0.2208 -0.2785 -0.4377
  125TMC2    C8 1952   4.501   2.682   9.737 -0.7207 -0.2809  0.4990
  125TMC2    O1 1953   4.040   2.804   9.859 -0.0420  0.5073 -0.2134
  125TMC2    O2 1954   4.561   2.592   9.678  0.1677 -0.7912 -0.1748
  125TMC2    O5 1955   4.523   2.703   9.870  0.0440 -0.2187  0.2536
  125TMC2    H5 1956   4.483   2.782   9.914 -0.3342 -0.0216 -0.4359
  126MPD1     C 1957   4.447   2.840   8.866  0.3278 -0.6275 -0.0408
  126MPD1    C1 1958   4.496   2.733   8.943 -0.3713  0.3635 -0.2241
  126MPD1    C2 1959   4.464   2.720   9.081  0.1533  0.0549 -0.0006
  126MPD1    C3 1960   4.402   2.824   9.143  0.3894 -0.0022  0.6952
  126MPD1    C4 1961   4.346   2.921   9.071 -0.3637  0.0203 -0.1415
  126MPD1    C5 1962   4.365   2.928   8.933 -0.0584 -0.2632 -0.0469
  126MPD1     H 1963   4.502   2.635   9.136  1.5642 -0.3451 -1.6018
  126MPD1    H1 1964   4.273   2.995   9.104 -0.3062  0.1323 -0.2630
  126MPD1    H2 1965   4.458   2.854   8.759  0.0586  2.3904  0.3292
  126MPD1    H3 1966   4.321   3.012   8.879  2.1186  1.1907  0.4022
  126MPD1     N 1967   4.373   2.811   9.283  0.0441  0.1359 -0.6156
  126MPD1    H5 1968   4.404   2.723   9.323 -1.1669  0.4019  0.8959
  126MPD1    N1 1969   4.557   2.625   8.869 -0.3147 -0.2698 -0.1118
  126MPD1    H6 1970   4.612   2.560   8.925 -2.3747 -2.4708 -0.6099
  126MPD1    H7 1971   4.594   2.649   8.778 -1.3616  0.0566 -0.4490
  127TMC2    C1 1972   4.157   2.433   9.730 -0.2384 -0.3117  0.7172
  127TMC2    C2 1973   4.283   2.398   9.766 -0.4066 -0.1149  0.3904
  127TMC2    C3 1974   4.296   2.326   9.881  0.0765  0.0352 -0.7072
  127TMC2    C4 1975   4.046   2.409   9.805  0.4640  0.1168  0.3288
  127TMC2    C5 1976   4.067   2.331   9.915 -0.2910 -0.4582  0.0420
  127TMC2    C6 1977   4.191   2.291   9.953 -0.3201 -0.5406  0.0355
  127TMC2     C 1978   4.146   2.501   9.602 -0.4972 -0.0974  0.9072
  127TMC2     O 1979   4.244   2.488   9.531 -0.5977  0.5473 -0.5980
  127TMC2     H 1980   4.370   2.418   9.705 -1.4094 -1.8160 -1.5970
  127TMC2    H1 1981   3.944   2.417   9.770 -0.1260 -3.0301  1.2829
  127TMC2    H2 1982   4.215   2.237  10.044 -1.4749 -0.0418  0.6360
  127TMC2    C7 1983   3.957   2.295   9.991  0.1627 -0.3634  0.1562
  127TMC2    C8 1984   4.425   2.270   9.901  0.4266  0.2299 -0.1503
  127TMC2    O1 1985   3.858   2.371  10.011  0.2336 -0.4882  0.9553
  127TMC2    O2 1986   4.521   2.292   9.825 -0.4467 -0.7313 -0.2725
  127TMC2    O5 1987   4.445   2.243  10.029 -0.0818  0.2827 -0.7603
  127TMC2    H5 1988   4.370   2.227  10.091  0.7366 -0.7432 -0.0357
  128MPD2     C 1989   3.867   2.718   9.510  0.6224 -0.6788 -0.3849
  128MPD2    C1 1990   3.985   2.647   9.492 -0.5268 -0.0747 -0.6648
  128MPD2    C2 1991   4.055   2.649   9.373 -0.1363 -0.0383  0.2850
  128MPD2    C3 1992   3.994   2.722   9.272  0.1688 -0.7738 -0.5277
  128MPD2    C4 1993   3.879   2.801   9.288  0.2543 -0.3026  0.2946
  128MPD2    C5 1994   3.818   2.801   9.410  0.2060 -0.0017 -0.6233
  128MPD2     H 1995   4.141   2.590   9.343 -1.4155 -0.2819 -2.9816
  128MPD2    H1 1996   3.831   2.851   9.205  0.2932  0.1143  0.5235
  128MPD2    H2 1997   3.804   2.706   9.597 -1.3585 -4.6649 -2.3781
  128MPD2    H3 1998   3.721   2.847   9.424 -1.1763 -2.7500 -1.1280
  128MPD2     N 1999   4.052   2.687   9.144 -0.3364  0.4767 -0.7575
  128MPD2    H5 2000   4.122   2.614   9.142 -2.3029 -1.5070  2.0955
  128MPD2    N1 2001   4.029   2.575   9.599  0.2154 -0.4640  0.7000
  128MPD2    H7 2002   3.972   2.574   9.683 -1.0336 -0.3962 -0.1569
  129TMC2    C1 2003   3.778   3.052   1.480 -0.1083 -0.3344 -0.1862
  129TMC2    C2 2004   3.889   3.132   1.481  0.1093  0.0415  0.1267
  129TMC2    C3 2005   3.995   3.100   1.400  0.2716  0.0585  0.0069
  129TMC2    C4 2006   3.783   2.930   1.420 -0.0196 -0.5234 -0.1237
  129TMC2    C5 2007   3.891   2.895   1.345 -0.3132  0.5083 -0.3109
  129TMC2    C6 2008   3.994   2.983   1.329 -0.3089 -0.5419  0.3063
  129TMC2     C 2009   3.656   3.095   1.548 -0.3989  0.5593  0.7052
  129TMC2     O 2010   3.563   3.014   1.558 -0.4709 -0.0820 -0.4125
  129TMC2     H 2011   3.885   3.226   1.536 -1.6708 -0.7842  1.4074
  129TMC2    H1 2012   3.696   2.865   1.424 -1.6269  1.6089 -0.4823
  129TMC2    H2 2013   4.065   2.967   1.248 -2.9760 -1.5146 -1.8423
  129TMC2    C7 2014   3.885   2.762   1.275 -0.9191  0.3932 -0.2538
  129TMC2    C8 2015   4.088   3.201   1.356 -0.1302 -0.7882 -0.4890
  129TMC2    O1 2016   3.770   2.715   1.272  0.0685 -0.1620 -0.7576
  129TMC2    O2 2017   4.136   3.205   1.245  0.0608 -0.1958  0.0804
  129TMC2    O5 2018   4.115   3.283   1.461 -0.5520  0.1037 -0.3046
  129TMC2    H5 2019   4.067   3.237   1.533 -0.0088 -1.4727 -0.9354
  130MPD2     C 2020   3.414   3.222   1.694 -0.2972 -0.5170 -0.6362
  130MPD2    C1 2021   3.526   3.286   1.642  0.3155 -0.0437  0.2944
  130MPD2    C2 2022   3.513   3.422   1.635  0.7125 -0.1988 -0.5103
  130MPD2    C3 2023   3.405   3.490   1.676  0.0971  0.9922  0.0982
  130MPD2    C4 2024   3.305   3.423   1.740 -0.0775 -0.8073  0.0612
  130MPD2    C5 2025   3.308   3.290   1.744 -0.2150  0.2109 -0.0352
  130MPD2     H 2026   3.584   3.483   1.581  0.9456 -0.8339 -0.9173
  130MPD2    H1 2027   3.207   3.457   1.773  0.7872 -0.0986  1.9601
  130MPD2    H2 2028   3.396   3.116   1.710  0.8634 -0.6501 -0.2103
  130MPD2    H3 2029   3.224   3.238   1.787 -0.3153  2.1764  2.1794
  130MPD2     N 2030   3.401   3.627   1.642  0.0155  0.0444  0.1025
  130MPD2    H5 2031   3.492   3.655   1.606 -0.0048  0.8931  0.6959
  130MPD2    N1 2032   3.643   3.229   1.591 -0.1538 -0.7624  0.3707
  130MPD2    H7 2033   3.710   3.297   1.556 -1.3493  0.3170  0.1681
  131TMC2    C1 2034   2.745   2.254   9.916 -0.0425 -0.4208 -0.6178
  131TMC2    C2 2035   2.762   2.328   9.804  0.1056  0.3585  0.0545
  131TMC2    C3 2036   2.838   2.438   9.814 -0.3178  0.3822  0.3111
  131TMC2    C4 2037   2.802   2.288  10.037 -0.3074  0.1036 -0.0328
  131TMC2    C5 2038   2.877   2.400  10.038 -0.0700 -0.4900  0.1100
  131TMC2    C6 2039   2.901   2.474   9.930 -0.5969  0.5027  0.2299
  131TMC2     C 2040   2.697   2.118   9.892 -0.7588  0.0281 -0.3635
  131TMC2     O 2041   2.729   2.035   9.973  0.0381 -0.3857 -1.2566
  131TMC2     H 2042   2.733   2.290   9.706  0.6103 -2.6502  1.0671
  131TMC2    H1 2043   2.788   2.235  10.130  2.8963 -2.2209 -0.8849
  131TMC2    H2 2044   2.982   2.546   9.932  1.5417 -1.8289 -0.8444
  131TMC2    C7 2045   2.898   2.459  10.169  0.0149 -0.9571 -0.4353
  131TMC2    C8 2046   2.901   2.488   9.695  0.1021 -0.4579 -0.8178
  131TMC2    O1 2047   2.899   2.386  10.267 -0.1436 -0.4968  0.1524
  131TMC2    O2 2048   2.900   2.418   9.598 -0.1029  0.2831  0.0754
  131TMC2    O5 2049   2.958   2.616   9.707 -0.0176 -0.2494  0.2618
  131TMC2    H5 2050   2.931   2.661   9.790  0.8098 -1.2920  1.0995
  132MPD2     C 2051   2.403   2.017   9.684  0.7034 -0.3422  0.5095
  132MPD2    C1 2052   2.515   1.993   9.766 -0.0217  0.1214  0.4878
  132MPD2    C2 2053   2.546   1.870   9.819 -0.5033 -0.3954 -0.7398
  132MPD2    C3 2054   2.453   1.773   9.794 -0.8418  0.3724 -0.1849
  132MPD2    C4 2055   2.341   1.794   9.716  0.0714  0.5278  0.1885
  132MPD2    C5 2056   2.313   1.913   9.676  0.1179  0.1819 -0.3028
  132MPD2     H 2057   2.635   1.861   9.881 -0.5119 -0.1895 -0.6992
  132MPD2    H1 2058   2.255   1.728   9.709  1.4773 -1.1071 -1.6122
  132MPD2    H2 2059   2.383   2.119   9.653 -0.5495 -1.5629 -2.6101
  132MPD2    H3 2060   2.220   1.942   9.627 -0.7080  0.1613  1.2386
  132MPD2     N 2061   2.472   1.638   9.851  0.2841  0.1861  0.8177
  132MPD2    H5 2062   2.558   1.620   9.903  1.1088  1.7601 -0.0184
  132MPD2    N1 2063   2.594   2.110   9.802  0.2795 -0.5098  0.1905
  132MPD2    H7 2064   2.564   2.202   9.772 -1.3866 -0.6833  1.3011
  133TMC2    C1 2065   1.182   3.432   9.194  0.0538  0.4007  0.8895
  133TMC2    C2 2066   1.208   3.525   9.283 -0.0657 -0.4528  0.0461
  133TMC2    C3 2067   1.159   3.649   9.265 -0.7900 -0.1000  1.2145
  133TMC2    C4 2068   1.114   3.463   9.077 -0.8964  0.0928  0.7200
  133TMC2    C5 2069   1.062   3.592   9.059  0.1088  0.9288  0.6265
  133TMC2    C6 2070   1.072   3.684   9.163 -0.2702 -0.1167 -0.2101
  133TMC2     C 2071   1.202   3.291   9.232  0.7175 -0.2764 -0.4642
  133TMC2     O 2072   1.274   3.261   9.327 -0.0669  0.2045  0.1507
  133TMC2     H 2073   1.269   3.494   9.367 -1.3693 -0.0485  1.1527
  133TMC2    H1 2074   1.095   3.394   8.996 -2.2845  2.4069 -0.9239
  133TMC2    H2 2075   1.033   3.785   9.156  0.3328  0.0425 -1.2625
  133TMC2    C7 2076   0.950   3.596   8.975  0.4123  0.5703 -0.0266
  133TMC2    C8 2077   1.155   3.746   9.371 -0.3275  0.4138  0.0053
  133TMC2    O1 2078   0.877   3.500   8.955 -0.3731 -0.1702  0.2908
  133TMC2    O2 2079   1.141   3.866   9.341  0.0733  0.3992 -0.0471
  133TMC2    O5 2080   1.224   3.694   9.478 -0.7983  0.2920  0.4644
  133TMC2    H5 2081   1.231   3.598   9.492  3.0553  0.2151 -2.1416
  134MPD2     C 2082   1.061   2.992   9.061 -0.3997  0.3403 -0.1042
  134MPD2    C1 2083   1.130   3.055   9.159 -0.0127  0.3528 -0.1274
  134MPD2    C2 2084   1.193   2.984   9.258 -0.4514  0.4117 -0.7352
  134MPD2    C3 2085   1.182   2.844   9.257  0.3872 -0.5605  1.1902
  134MPD2    C4 2086   1.102   2.781   9.160 -0.0799 -0.2990  0.0876
  134MPD2    C5 2087   1.039   2.854   9.066 -0.2666 -0.0508  0.5900
  134MPD2     H 2088   1.253   3.029   9.337  0.2973 -1.6715 -0.1247
  134MPD2    H1 2089   1.081   2.676   9.174  0.3823 -0.2720  0.9912
  134MPD2    H2 2090   1.017   3.050   8.981 -2.8354  1.5855  2.1285
  134MPD2    H3 2091   0.988   2.805   8.984 -1.6126  1.8724  0.2729
  134MPD2     N 2092   1.245   2.762   9.346  0.1178 -0.6634 -0.0665
  134MPD2    H5 2093   1.253   2.664   9.319 -1.8199 -0.7116 -0.4586
  134MPD2    N1 2094   1.131   3.203   9.152  0.1499 -0.0848  0.0739
  134MPD2    H7 2095   1.077   3.247   9.077  1.9755  0.1610 -1.1067
  135TMC2    C1 2096   4.000   4.022   9.733 -0.4379  0.2793 -0.4731
  135TMC2    C2 2097   3.873   4.024   9.774 -0.0083 -0.2672 -0.2115
  135TMC2    C3 2098   3.830   3.908   9.832 -0.5989  0.7354  0.2946
  135TMC2    C4 2099   4.090   3.923   9.758 -0.1608 -0.1666  0.2780
  135TMC2    C5 2100   4.039   3.812   9.822 -0.0307 -0.0731 -0.2241
  135TMC2    C6 2101   3.910   3.804   9.864 -0.6514  0.1437  0.1416
  135TMC2     C 2102   4.027   4.111   9.618 -0.4489  0.2164  0.4418
  135TMC2     O 2103   3.968   4.219   9.607 -0.1563  0.2838 -0.1453
  135TMC2     H 2104   3.807   4.100   9.733  1.3687  0.7754 -0.4880
  135TMC2    H1 2105   4.190   3.918   9.718 -0.4641 -0.1362 -0.5063
  135TMC2    H2 2106   3.866   3.710   9.893 -2.1358  0.3745 -1.3481
  135TMC2    C7 2107   4.137   3.712   9.874  0.4311 -0.0872  0.0889
  135TMC2    C8 2108   3.686   3.903   9.857 -0.2427 -0.0076 -0.1485
  135TMC2    O1 2109   4.227   3.679   9.802  0.2499 -0.2527  0.4046
  135TMC2    O2 2110   3.609   3.981   9.802  0.1376 -0.5580 -0.2292
  135TMC2    O5 2111   3.650   3.810   9.947  0.8457  0.1506 -0.7087
  135TMC2    H5 2112   3.726   3.768   9.993 -0.4255 -1.5057 -0.1072
  136MPD2     C 2113   4.136   4.229   9.364 -0.2154  0.4055 -0.9086
  136MPD2    C1 2114   4.160   4.097   9.403 -0.2822 -0.2874 -0.2280
  136MPD2    C2 2115   4.234   4.008   9.332 -0.2185  0.3316  0.4930
  136MPD2    C3 2116   4.284   4.047   9.211  1.2961 -0.0518  0.1693
  136MPD2    C4 2117   4.264   4.172   9.171  0.5200  0.9603  0.0957
  136MPD2    C5 2118   4.190   4.265   9.244 -0.1465 -0.2476 -0.3679
  136MPD2     H 2119   4.254   3.907   9.365  0.6734 -0.3595 -2.2655
  136MPD2    H1 2120   4.301   4.211   9.077 -0.5997  2.9089  0.4625
  136MPD2    H2 2121   4.077   4.305   9.414  1.0077  1.0989 -0.5402
  136MPD2    H3 2122   4.167   4.365   9.209  0.5254  0.9267  2.6251
  136MPD2     N 2123   4.370   3.961   9.127 -0.5469 -0.7938 -0.3543
  136MPD2    H5 2124   4.405   4.008   9.044  0.0292  2.7283  1.9063
  136MPD2    N1 2125   4.103   4.043   9.524  0.0753  0.6973 -1.0697
  136MPD2    H7 2126   4.120   3.944   9.541 -0.2482  0.5682 -1.5065
  137TMC2    C1 2127   4.107   3.174   9.927 -0.3674 -0.1009 -0.5089
  137TMC2    C2 2128   4.225   3.156   9.853 -1.0220  0.3199 -0.0290
  137TMC2    C3 2129   4.243   3.230   9.745 -0.1666 -0.1373 -0.0897
  137TMC2    C4 2130   4.010   3.258   9.883  1.0731 -0.0841 -0.8333
  137TMC2    C5 2131   4.027   3.328   9.769  0.5435 -0.3629  0.5164
  137TMC2    C6 2132   4.149   3.321   9.698  0.2098  0.0316  0.2966
  137TMC2     C 2133   4.090   3.100  10.049 -0.0036 -0.8593 -0.2547
  137TMC2     O 2134   4.177   3.020  10.075 -0.8235  0.2870 -0.1175
  137TMC2     H 2135   4.294   3.075   9.875 -0.0124  1.2510  0.2792
  137TMC2    H1 2136   3.931   3.281   9.954  2.1890  0.7082  0.1418
  137TMC2    H2 2137   4.181   3.372   9.607  0.0060  1.9934  1.3238
  137TMC2    C7 2138   3.930   3.431   9.723  0.0273  0.1250 -0.5551
  137TMC2    C8 2139   4.382   3.223   9.695 -0.1374 -0.1534 -1.1641
  137TMC2    O1 2140   3.969   3.500   9.626  0.1962 -0.0494 -0.1936
  137TMC2    O2 2141   4.467   3.162   9.753  0.3696 -0.3536 -0.1048
  137TMC2    O5 2142   4.359   3.201   9.567 -0.7190  0.5202 -0.0594
  137TMC2    H5 2143   4.270   3.223   9.534 -0.7633 -0.7423 -0.7828
  138MPD2     C 2144   3.823   3.125  10.315 -0.1093  0.0753 -0.2867
  138MPD2    C1 2145   3.940   3.077  10.253  0.4542  0.2965 -1.0723
  138MPD2    C2 2146   4.012   2.975  10.316 -0.7092  0.4352 -0.3272
  138MPD2    C3 2147   3.969   2.926  10.441  0.0423 -0.4745  0.1078
  138MPD2    C4 2148   3.844   2.969  10.496  0.3491 -0.3259 -0.2059
  138MPD2    C5 2149   3.781   3.070  10.436 -0.1699 -1.0635  0.2548
  138MPD2     H 2150   4.109   2.947  10.277 -0.6417  0.3605 -0.1027
  138MPD2    H1 2151   3.810   2.939  10.595  1.3485  0.9791  0.5304
  138MPD2    H2 2152   3.770   3.212  10.279 -2.4154 -1.0533  0.3699
  138MPD2    H3 2153   3.695   3.120  10.479  0.2500 -0.5367  0.4893
  138MPD2     N 2154   4.066   2.844  10.510 -0.3598 -0.0879  0.6242
  138MPD2    H5 2155   4.160   2.836  10.473  0.3908  2.4639  1.9594
  138MPD2    N1 2156   3.982   3.135  10.127  0.3684 -0.6088  0.0179
  138MPD2    H7 2157   3.921   3.202  10.082  0.1567 -0.6290  0.2760
  139TMC2    C1 2158   0.301   1.126  13.279  0.0710  0.0667 -1.0139
  139TMC2    C2 2159   0.256   1.127  13.153 -0.2170  0.1020  0.2590
  139TMC2    C3 2160   0.166   1.227  13.128  0.3703  0.5205 -0.0177
  139TMC2    C4 2161   0.264   1.217  13.374 -0.2999  0.2189 -0.4209
  139TMC2    C5 2162   0.164   1.310  13.344 -0.4290 -1.2239  0.6779
  139TMC2    C6 2163   0.122   1.324  13.216 -0.0372  0.1663 -0.3732
  139TMC2     C 2164   0.345   1.000  13.323  0.1622  0.0569  0.6127
  139TMC2     O 2165   0.291   0.901  13.274 -0.1522 -0.2639  0.4522
  139TMC2     H 2166   0.294   1.059  13.078 -1.0655 -0.7700  0.6051
  139TMC2    H1 2167   0.283   1.200  13.480  0.6574 -0.6936 -0.7434
  139TMC2    H2 2168   0.051   1.396  13.177  0.5577  0.4261 -0.9879
  139TMC2    C7 2169   0.141   1.429  13.416  0.1699 -0.1453 -0.2298
  139TMC2    C8 2170   0.139   1.251  12.992  0.0329 -0.5620  0.1088
  139TMC2    O1 2171   0.029   1.482  13.409  0.0609  0.2724 -0.1469
  139TMC2    O2 2172   0.142   1.153  12.918 -0.0135 -0.6341 -0.3555
  139TMC2    O5 2173   0.204   1.365  12.963  0.3317  0.0527  0.3488
  139TMC2    H5 2174   0.236   1.412  13.043 -0.0064  0.5252  0.2090
  140MPD2     C 2175   0.644   0.907  13.523 -1.4913  0.2296  0.4368
  140MPD2    C1 2176   0.534   0.887  13.438 -0.1023 -0.6141  0.0354
  140MPD2    C2 2177   0.512   0.759  13.387 -0.0219  0.2329 -0.2992
  140MPD2    C3 2178   0.590   0.656  13.430  0.6591 -0.2781 -0.3271
  140MPD2    C4 2179   0.687   0.675  13.517 -0.0861 -0.5350  0.3059
  140MPD2    C5 2180   0.715   0.798  13.567 -0.1304  0.4157 -0.1386
  140MPD2     H 2181   0.437   0.738  13.312  2.2229 -2.7604 -1.6829
  140MPD2    H1 2182   0.743   0.593  13.560  1.6151  1.1037  1.1999
  140MPD2    H2 2183   0.677   1.007  13.548 -0.4692  0.1374 -0.5401
  140MPD2    H3 2184   0.801   0.813  13.631 -0.9062 -0.0163  0.9937
  140MPD2     N 2185   0.563   0.525  13.380 -0.2533 -0.0515  0.4775
  140MPD2    H5 2186   0.486   0.520  13.315 -0.2351 -1.5597  0.5703
  140MPD2    N1 2187   0.458   1.003  13.404  0.1363  0.2505 -0.1617
  140MPD2    H7 2188   0.483   1.099  13.425 -1.4761  1.0522 -1.8484
  141TMC2    C1 2189   1.053   3.004  13.893 -1.0884  0.1675  0.3732
  141TMC2    C2 2190   1.037   2.896  13.978  0.0005  0.3237  0.0619
  141TMC2    C3 2191   1.068   2.912  14.105 -0.1068 -0.2375  0.0122
  141TMC2    C4 2192   1.099   3.130  13.932 -0.4247  0.2973 -0.5090
  141TMC2    C5 2193   1.119   3.132  14.067 -0.4604  0.2897 -0.6735
  141TMC2    C6 2194   1.107   3.030  14.157 -0.2193 -0.2047  0.5304
  141TMC2     C 2195   1.039   2.984  13.748 -0.2339 -0.2165  0.7512
  141TMC2     O 2196   1.098   3.066  13.678 -0.1577  0.0129  0.0360
  141TMC2     H 2197   1.012   2.802  13.929 -1.3945 -1.0193  3.4053
  141TMC2    H1 2198   1.119   3.212  13.865 -2.1200 -0.9438 -2.5354
  141TMC2    H2 2199   1.129   3.037  14.263  0.2440  1.5019  0.3206
  141TMC2    C7 2200   1.194   3.237  14.120 -0.2876  0.4767  0.0849
  141TMC2    C8 2201   1.057   2.797  14.199  0.1219 -0.1997 -0.5006
  141TMC2    O1 2202   1.270   3.205  14.213 -0.1410  0.2306  0.7237
  141TMC2    O2 2203   1.104   2.797  14.313 -0.3763  0.0071  0.2264
  141TMC2    O5 2204   0.954   2.713  14.164 -0.0294 -0.2073  0.3494
  141TMC2    H5 2205   0.910   2.734  14.080  1.1002 -0.5518 -0.3327
  142TMC2    C1 2206   2.545   0.847   9.377  0.3182  0.3066  0.2726
  142TMC2    C2 2207   2.524   0.789   9.253 -0.3638 -0.1046  0.3974
  142TMC2    C3 2208   2.617   0.823   9.155  0.1275  0.0243 -0.3673
  142TMC2    C4 2209   2.655   0.926   9.406 -0.0154 -0.8024  0.2252
  142TMC2    C5 2210   2.741   0.949   9.304 -0.3808 -0.0560 -0.4917
  142TMC2    C6 2211   2.731   0.893   9.178 -0.2468 -0.8235  0.2250
  142TMC2     C 2212   2.475   0.807   9.488 -0.0763 -0.1090 -0.1941
  142TMC2     O 2213   2.438   0.690   9.494 -0.4851  0.1184 -0.4899
  142TMC2     H 2214   2.440   0.723   9.231 -0.1720  0.3526 -1.6699
  142TMC2    H1 2215   2.679   0.970   9.502  1.7854 -0.0459 -0.5674
  142TMC2    H2 2216   2.791   0.932   9.097  0.8894  0.8586  1.8962
  142TMC2    C7 2217   2.876   1.005   9.335 -0.2536  0.5217  0.5632
  142TMC2    C8 2218   2.578   0.789   9.021 -0.4454 -0.4235 -0.2193
  142TMC2    O1 2219   2.884   1.060   9.444  0.3290  0.5495 -0.0168
  142TMC2    O2 2220   2.462   0.754   9.007  0.0754  0.5806  0.4505
  142TMC2    O5 2221   2.685   0.737   8.965  0.0141 -0.5169 -0.2957
  142TMC2    H5 2222   2.773   0.758   9.001 -0.1678 -0.0152 -0.1498
  143MPD2     C 2223   2.330   0.856   9.979 -0.8111 -0.1509 -0.1036
  143MPD2    C1 2224   2.352   0.747   9.900  0.3561 -0.2986 -0.2992
  143MPD2    C2 2225   2.393   0.755   9.769 -0.0440  0.6587  0.2406
  143MPD2    C3 2226   2.409   0.881   9.716  0.3735  0.5586  0.1566
  143MPD2    C4 2227   2.392   0.994   9.797 -0.0125  0.2563  0.3464
  143MPD2    C5 2228   2.356   0.979   9.930  0.0940  0.6515 -0.2966
  143MPD2     H 2229   2.412   0.664   9.713 -0.3859  0.8152 -0.1331
  143MPD2    H1 2230   2.422   1.090   9.759 -1.7836  1.9859  3.2774
  143MPD2    H2 2231   2.269   0.857  10.069  0.5441 -1.2794  0.8274
  143MPD2    H3 2232   2.350   1.067   9.991  2.0930 -0.4558  1.4977
  143MPD2     N 2233   2.463   0.900   9.582  0.3407  0.5531  0.4761
  143MPD2    H5 2234   2.472   0.998   9.556  2.9552  0.3125  0.4838
  143MPD2    N1 2235   2.333   0.626   9.965  0.4027  0.4897  0.0638
  143MPD2    H7 2236   2.330   0.631  10.066  2.4260  1.0893  0.1067
  144TMC2    C1 2237   1.631   4.304   0.438 -0.1313 -0.5478 -0.2052
  144TMC2    C2 2238   1.662   4.182   0.389  0.0417  0.4708 -0.6473
  144TMC2    C3 2239   1.783   4.169   0.317 -0.5084  0.8091  0.3631
  144TMC2    C4 2240   1.720   4.412   0.427  0.7708  0.5033 -0.2730
  144TMC2    C5 2241   1.842   4.389   0.369 -0.6903  0.1089 -0.2649
  144TMC2    C6 2242   1.871   4.274   0.302  0.2272  0.0251 -0.8262
  144TMC2     C 2243   1.492   4.335   0.464 -0.2296 -0.0608 -0.3369
  144TMC2     O 2244   1.412   4.264   0.402  0.3797 -0.5052 -0.4249
  144TMC2     H 2245   1.591   4.100   0.392 -2.9982  3.0872 -0.8305
  144TMC2    H1 2246   1.693   4.509   0.468 -2.5383 -0.3077 -0.5714
  144TMC2    H2 2247   1.968   4.248   0.260  0.7655 -1.3788  1.2705
  144TMC2    C7 2248   1.946   4.481   0.385  0.3506  0.5764  0.4217
  144TMC2    C8 2249   1.854   4.040   0.308 -0.2265  0.0465 -0.1316
  144TMC2    O1 2250   2.029   4.484   0.296 -0.2653 -0.3497  0.7359
  144TMC2    O2 2251   1.966   4.015   0.356 -0.3054 -0.1879  0.3462
  144TMC2    O5 2252   1.759   3.945   0.291  0.0054  0.6755  0.3428
  144TMC2    H5 2253   1.683   3.980   0.241 -0.3199 -0.5255 -0.0115
  145MPD2     C 2254   1.150   4.707   0.495  0.6514 -0.2218 -0.3573
  145MPD2    C1 2255   1.158   4.597   0.415  0.0309  0.4900  0.4332
  145MPD2    C2 2256   1.268   4.522   0.429  0.4422  0.3725  0.0554
  145MPD2    C3 2257   1.364   4.542   0.526  0.2166  0.6345 -0.0190
  145MPD2    C4 2258   1.358   4.645   0.607  1.3832  0.8127 -1.1154
  145MPD2    C5 2259   1.250   4.725   0.588 -0.2361  0.8726  0.3805
  145MPD2     H 2260   1.279   4.443   0.356  0.1706 -0.5954  1.0627
  145MPD2    H1 2261   1.436   4.664   0.680  1.2761 -0.2551 -0.7151
  145MPD2    H2 2262   1.081   0.053   0.482 -1.0459 -1.1499  2.8695
  145MPD2    H3 2263   1.244   0.075   0.652  0.8121  0.9958  0.3076
  145MPD2     N 2264   1.479   4.456   0.535 -0.3600  0.1185  0.2556
  145MPD2    H5 2265   1.561   4.490   0.585 -0.5660  0.4274  0.3833
  145MPD2    N1 2266   1.084   4.577   0.303 -0.6350  0.3163  0.2623
  145MPD2    H7 2267   1.089   4.483   0.266 -0.3474  0.8024 -0.9660
  146TMC2    C1 2268   2.786   3.251  12.488  0.2559  0.0799  0.3313
  146TMC2    C2 2269   2.759   3.265  12.355  0.2002  0.9025  0.5386
  146TMC2    C3 2270   2.793   3.166  12.262 -0.4683 -0.0046 -0.7136
  146TMC2    C4 2271   2.843   3.129  12.533  0.4994  0.5516  0.3310
  146TMC2    C5 2272   2.868   3.027  12.442  0.8493 -0.0275 -0.2426
  146TMC2    C6 2273   2.850   3.042  12.308  0.1984  0.3252 -0.4107
  146TMC2     C 2274   2.741   3.352  12.579 -0.4653  0.0597 -0.3224
  146TMC2     O 2275   2.682   3.446  12.535  0.0906  0.3833  0.3029
  146TMC2     H 2276   2.726   3.363  12.324 -2.4760  0.1008  0.7786
  146TMC2    H1 2277   2.858   3.104  12.637 -0.7845 -1.8769 -0.0462
  146TMC2    H2 2278   2.888   2.975  12.232 -1.3236 -1.4660  0.4278
  146TMC2    C7 2279   2.941   2.906  12.480  0.3747 -0.1271  0.8159
  146TMC2    C8 2280   2.782   3.197  12.120 -0.4775  0.3998 -0.2905
  146TMC2    O1 2281   2.947   2.814  12.396  0.0158  0.0314  0.4273
  146TMC2    O2 2282   2.695   3.272  12.077 -0.1123  0.2248  0.5143
  146TMC2    O5 2283   2.855   3.111  12.046  0.1373  0.7468 -0.4661
  146TMC2    H5 2284   2.924   3.071  12.104  0.3859  2.4642  0.4342
  147MPD2     C 2285   3.146   2.598  12.835 -0.0377  0.1074 -0.7092
  147MPD2    C1 2286   3.094   2.707  12.898  0.6364 -0.4627 -1.0657
  147MPD2    C2 2287   3.033   2.809  12.826  0.4184  0.1701  1.0145
  147MPD2    C3 2288   3.038   2.803  12.685  0.3923 -0.9856  0.3784
  147MPD2    C4 2289   3.090   2.692  12.623 -0.2472 -0.1504  0.6752
  147MPD2    C5 2290   3.148   2.594  12.701  0.0055  0.6330 -0.0559
  147MPD2     H 2291   2.984   2.892  12.876  1.7922  0.7426  1.4004
  147MPD2    H1 2292   3.096   2.689  12.514 -0.1727  0.5770  0.6544
  147MPD2    H2 2293   3.174   2.511  12.893  3.1205  1.2790 -0.4782
  147MPD2    H3 2294   3.199   2.507  12.663 -0.7329 -0.3722  1.2471
  147MPD2     N 2295   2.980   2.909  12.609  0.3707 -0.0313 -0.2010
  147MPD2    H5 2296   2.944   2.986  12.663 -1.0294 -0.6944 -0.1965
  147MPD2    N1 2297   3.109   2.709  13.040 -0.3626  1.0279 -0.5214
  147MPD2    H7 2298   3.153   2.626  13.079  1.0568  1.6522 -0.7695
  148TMC2    C1 2299   2.182   2.555  10.707 -0.0848  0.0970  0.5137
  148TMC2    C2 2300   2.278   2.643  10.736 -0.7601 -0.8592  0.1422
  148TMC2    C3 2301   2.387   2.607  10.799 -0.3283  0.2147  0.2820
  148TMC2    C4 2302   2.206   2.419  10.713  0.5487  0.0285 -0.8394
  148TMC2    C5 2303   2.318   2.387  10.783 -0.6969  0.8761  0.0250
  148TMC2    C6 2304   2.413   2.477  10.824 -0.1928  0.0959  0.1617
  148TMC2     C 2305   2.070   2.602  10.617  0.7245 -0.5321 -0.0659
  148TMC2     O 2306   2.051   2.724  10.617 -0.0425  0.2617  0.5929
  148TMC2     H 2307   2.261   2.749  10.717  2.2829 -0.1536  1.2628
  148TMC2    H1 2308   2.137   2.340  10.686 -0.7282  0.0504  2.2349
  148TMC2    H2 2309   2.506   2.433  10.860 -0.3739  1.4454  2.2837
  148TMC2    C7 2310   2.372   2.254  10.763  0.3433  0.6761  0.5069
  148TMC2    C8 2311   2.504   2.691  10.787  0.1345  0.4967 -0.3367
  148TMC2    O1 2312   2.455   2.232  10.672  0.2685 -0.3183  0.2758
  148TMC2    O2 2313   2.597   2.718  10.859  0.3824 -0.4132  0.2271
  148TMC2    O5 2314   2.486   2.759  10.672  0.7100  0.6276  0.3495
  148TMC2    H5 2315   2.421   2.704  10.623  0.6681  0.8104  0.1994
  149MPD2     C 2316   1.853   2.632  10.395 -0.4898  0.3539 -0.0801
  149MPD2    C1 2317   1.923   2.519  10.431  0.2215 -0.7863  0.3719
  149MPD2    C2 2318   1.899   2.408  10.355  0.6837 -0.9413 -0.1503
  149MPD2    C3 2319   1.797   2.403  10.256 -0.3091 -0.5530 -0.2390
  149MPD2    C4 2320   1.719   2.513  10.237 -0.0388 -1.3075  0.3963
  149MPD2    C5 2321   1.751   2.630  10.301  0.2048 -1.2593  0.3684
  149MPD2     H 2322   1.946   2.313  10.377  1.0732 -0.7325 -0.0770
  149MPD2    H1 2323   1.642   2.514  10.161  0.0089 -1.4250  0.3463
  149MPD2    H2 2324   1.878   2.729  10.438  1.9185  0.5773 -1.9583
  149MPD2    H3 2325   1.706   2.727  10.288  2.3076 -0.4588 -0.9747
  149MPD2     N 2326   1.774   2.291  10.169  0.2690 -0.1558 -0.3006
  149MPD2    H5 2327   1.693   2.302  10.109 -1.4475  0.8196  2.2120
  149MPD2    N1 2328   2.029   2.510  10.528  0.1060  0.0177  0.7000
  149MPD2    H7 2329   2.062   2.414  10.524 -0.1386  0.0107 -1.0979
  150TMC2    C1 2330   4.429   1.845  12.083  0.2103 -0.3489  0.9847
  150TMC2    C2 2331   4.355   1.922  11.996  0.0762  0.2935 -0.2327
  150TMC2    C3 2332   4.414   1.964  11.885  0.2958  0.7162  0.2554
  150TMC2    C4 2333   4.561   1.812  12.058  0.9257 -0.2497 -0.3426
  150TMC2    C5 2334   4.615   1.859  11.948  0.0941 -0.0608  0.2623
  150TMC2    C6 2335   4.549   1.941  11.860  0.5196  0.2989 -0.1749
  150TMC2     C 2336   4.351   1.745  12.153 -0.1495  0.8759  0.1591
  150TMC2     O 2337   4.408   1.688  12.243 -0.1562 -0.5005 -0.1599
  150TMC2     H 2338   4.251   1.943  12.020 -0.7093 -1.6559 -1.9158
  150TMC2    H1 2339   4.623   1.769  12.136 -0.5942 -0.5934  0.6773
  150TMC2    H2 2340   4.595   1.964  11.765 -2.1408  1.1895 -1.2373
  150TMC2    C7 2341   0.011   1.814  11.922 -0.6690  0.4228 -0.5640
  150TMC2    C8 2342   4.346   2.049  11.790  0.1708 -0.0604  0.2735
  150TMC2    O1 2343   0.081   1.877  11.847 -0.3186  0.5449  0.6551
  150TMC2    O2 2344   4.401   2.155  11.754  0.1673 -0.0179 -0.1259
  150TMC2    O5 2345   4.216   2.045  11.815 -0.1776 -0.0150 -0.4587
  150TMC2    H5 2346   4.188   1.954  11.837 -0.2679  0.3543  0.9341
  151MPD2     C 2347   3.971   1.401  12.198 -0.3765  1.0869  0.0157
  151MPD2    C1 2348   3.971   1.454  12.072  0.7446  0.0358 -0.0996
  151MPD2    C2 2349   4.061   1.551  12.039 -0.1281  0.9222 -0.1108
  151MPD2    C3 2350   4.145   1.606  12.132 -0.1731 -0.0829  0.2493
  151MPD2    C4 2351   4.141   1.554  12.255  0.5920  0.8164 -0.0188
  151MPD2    C5 2352   4.058   1.453  12.288 -0.3289 -0.7027 -0.8791
  151MPD2     H 2353   4.072   1.581  11.935  0.7581  2.0815  0.3057
  151MPD2    H1 2354   4.210   1.581  12.334  1.5775  0.6525 -0.8182
  151MPD2    H2 2355   3.907   1.321  12.234  1.3158 -0.5227 -0.5806
  151MPD2    H3 2356   4.057   1.415  12.389 -1.6212 -0.8545 -0.9466
  151MPD2     N 2357   4.236   1.699  12.089 -0.4849 -0.5366 -0.7530
  151MPD2    H5 2358   4.215   1.735  11.996  1.0242  0.8115 -0.5753
  151MPD2    N1 2359   3.898   1.389  11.970  0.1134 -0.7285 -0.1283
  151MPD2    H7 2360   3.862   1.301  12.005  1.1055 -1.3497 -0.6567
  152TMC2    C1 2361   4.245   1.139  12.618 -0.5906  0.3086  0.3759
  152TMC2    C2 2362   4.309   1.016  12.647 -0.3799 -0.3687  0.7108
  152TMC2    C3 2363   4.432   0.993  12.581 -0.1978  0.3695  0.8128
  152TMC2    C4 2364   4.307   1.226  12.532 -0.0832  0.5068  0.1208
  152TMC2    C5 2365   4.429   1.201  12.473  0.2148  0.2088  0.4096
  152TMC2    C6 2366   4.490   1.083  12.501  0.8755  0.0896 -0.8083
  152TMC2     C 2367   4.116   1.172  12.667 -0.3665  1.0778  0.4292
  152TMC2     O 2368   4.034   1.236  12.600  0.5379  0.1276 -0.1225
  152TMC2     H 2369   4.277   0.938  12.715  0.4628  1.0853  2.7872
  152TMC2    H1 2370   4.264   1.326  12.526  0.0449  0.5479 -0.1138
  152TMC2    H2 2371   4.582   1.053  12.452  2.1514  2.4242  0.1601
  152TMC2    C7 2372   4.518   1.316  12.449  0.4149  0.0796 -0.1680
  152TMC2    C8 2373   4.495   0.871  12.607 -0.1807 -0.0594  0.8437
  152TMC2    O1 2374   4.461   1.419  12.414  0.5047 -0.1269  0.1751
  152TMC2    O2 2375   4.519   0.819  12.716 -0.2344 -0.5648 -0.5800
  152TMC2    O5 2376   4.437   0.802  12.505 -0.0902 -0.3653 -0.7016
  152TMC2    H5 2377   4.423   0.848  12.420 -0.7054  0.4903 -0.1373
  153MPD2     C 2378   3.974   0.983  12.953  0.4837 -0.5274  0.8325
  153MPD2    C1 2379   3.972   1.051  12.835  1.2165 -0.1916  0.5523
  153MPD2    C2 2380   3.854   1.072  12.764 -0.1593 -0.5078 -0.0596
  153MPD2    C3 2381   3.738   1.005  12.798 -0.4422  0.4874 -0.0197
  153MPD2    C4 2382   3.738   0.932  12.917  0.2677  0.1029  0.5504
  153MPD2    C5 2383   3.858   0.918  12.989  0.7382  0.6484  0.3163
  153MPD2     H 2384   3.837   1.109  12.663 -1.5414  1.3761  0.8653
  153MPD2    H1 2385   3.657   0.866  12.946  0.3381 -0.8916 -1.5196
  153MPD2    H2 2386   4.069   0.961  13.001  1.0799  2.1682  0.9061
  153MPD2    H3 2387   3.856   0.858  13.080  0.1529 -1.9800 -1.4464
  153MPD2     N 2388   3.614   1.013  12.736  0.5865  0.2345 -0.3929
  153MPD2    H5 2389   3.557   0.941  12.780 -0.4881  2.3722  1.6933
  153MPD2    N1 2390   4.094   1.097  12.787  0.4438 -0.1873  0.8509
  153MPD2    H7 2391   4.181   1.057  12.820  1.6197  1.0983 -0.6848
  154TMC2    C1 2392   1.542   0.964   0.323 -0.3469 -0.6204 -0.6643
  154TMC2    C2 2393   1.505   0.834   0.328  0.7734 -0.2737  0.1308
  154TMC2    C3 2394   1.572   0.746   0.247  0.4051  0.5449  0.2415
  154TMC2    C4 2395   1.650   1.004   0.243 -0.1007  0.6271 -0.5356
  154TMC2    C5 2396   1.716   0.912   0.164 -0.2891  0.2508  0.4933
  154TMC2    C6 2397   1.667   0.787   0.157  0.9016 -0.0918  0.2187
  154TMC2     C 2398   1.457   1.060   0.394  0.9255  0.1728 -0.6718
  154TMC2     O 2399   1.378   1.021   0.479 -0.1229  0.0304  0.1048
  154TMC2     H 2400   1.415   0.809   0.384 -0.9944 -1.2872 -3.1379
  154TMC2    H1 2401   1.698   1.100   0.259  0.4767  0.2913 -0.2433
  154TMC2    H2 2402   1.713   0.708   0.098  0.3837  1.3383 -2.1358
  154TMC2    C7 2403   1.802   0.950   0.052  0.4187  0.5280  0.4139
  154TMC2    C8 2404   1.545   0.605   0.250  0.3372  0.5467  0.0255
  154TMC2    O1 2405   1.816   0.873  17.705  0.3566  0.2490  0.4339
  154TMC2    O2 2406   1.558   0.529   0.158 -0.2056 -0.4230 -0.1710
  154TMC2    O5 2407   1.560   0.578   0.379 -0.1483  0.5233 -0.2916
  154TMC2    H5 2408   1.537   0.646   0.446 -1.2557 -0.3043  0.1624
  155MPD2     C 2409   1.441   1.425   0.333 -0.0674 -0.9582  0.6167
  155MPD2    C1 2410   1.417   1.302   0.393  0.0579 -0.1771  0.6553
  155MPD2    C2 2411   1.344   1.306   0.515  0.3271 -0.0853 -0.4321
  155MPD2    C3 2412   1.313   1.428   0.580  0.2450 -0.2925  0.3116
  155MPD2    C4 2413   1.346   1.546   0.513  0.4969 -0.2214  0.0233
  155MPD2    C5 2414   1.398   1.544   0.389  0.2505  0.4236 -0.6394
  155MPD2     H 2415   1.327   1.213   0.568  1.8708 -0.5776 -0.7914
  155MPD2    H1 2416   1.325   1.645   0.552  0.9949  0.2341 -0.8791
  155MPD2    H2 2417   1.487   1.434   0.236 -1.1805 -0.4670  0.1391
  155MPD2    H3 2418   1.421   1.640   0.344 -0.9491  0.7577 -0.5415
  155MPD2     N 2419   1.269   1.419   0.711  0.2855 -0.7952 -0.7250
  155MPD2    H5 2420   1.278   1.327   0.754  0.6026  0.7781  2.5613
  155MPD2    N1 2421   1.474   1.187   0.338  0.3800 -0.6152  0.5107
  155MPD2    H7 2422   1.509   1.187   0.243 -2.2828 -2.0809 -0.4650
  156TMC2    C1 2423   3.775   3.926  11.438 -0.0473 -0.0392  0.4202
  156TMC2    C2 2424   3.665   3.845  11.424 -0.3255  0.4022 -0.3013
  156TMC2    C3 2425   3.552   3.893  11.352  0.2837  0.3060 -0.3271
  156TMC2    C4 2426   3.767   4.049  11.389  0.3679 -0.4497 -0.6240
  156TMC2    C5 2427   3.661   4.095  11.316  0.2626 -0.4786 -0.3744
  156TMC2    C6 2428   3.552   4.012  11.284  0.3255  0.4204  0.2230
  156TMC2     C 2429   3.868   3.904  11.556 -0.3059 -0.2855 -0.0241
  156TMC2     O 2430   3.917   4.001  11.610  0.0561  0.6574  0.0623
  156TMC2     H 2431   3.672   3.746  11.468  2.4589  0.3142 -0.9519
  156TMC2    H1 2432   3.853   4.111  11.413  1.0953 -2.4786  1.9773
  156TMC2    H2 2433   3.470   4.042  11.220  1.0356  1.3790 -0.2325
  156TMC2    C7 2434   3.682   4.217  11.238 -0.1609 -0.2161 -0.1771
  156TMC2    C8 2435   3.436   3.807  11.328 -0.4812  0.6039  0.0283
  156TMC2    O1 2436   3.794   4.239  11.195  0.0071  0.0689 -0.1395
  156TMC2    O2 2437   3.366   3.809  11.229  0.0321 -0.2182 -0.3485
  156TMC2    O5 2438   3.405   3.753  11.447 -0.0741  0.5724 -0.6907
  156TMC2    H5 2439   3.460   3.795  11.517  0.0203  0.7680 -0.8824
  157MPD2     C 2440   3.970   3.587  11.708 -0.5081 -0.4025  0.0541
  157MPD2    C1 2441   3.952   3.722  11.695  0.2870 -0.3487  0.1027
  157MPD2    C2 2442   3.993   3.804  11.799 -0.1442 -0.5328 -0.7510
  157MPD2    C3 2443   4.051   3.748  11.906 -0.2423 -0.2300 -0.0597
  157MPD2    C4 2444   4.066   3.615  11.926  0.2143 -0.1095 -0.2812
  157MPD2    C5 2445   4.017   3.534  11.830 -0.4595  0.1640 -0.1449
  157MPD2     H 2446   3.983   3.912  11.797  1.0514 -0.3667  2.4570
  157MPD2    H1 2447   4.123   3.560  12.000 -0.3223 -1.3583 -0.7907
  157MPD2    H2 2448   3.943   3.511  11.636  0.8961 -1.6258  0.8229
  157MPD2    H3 2449   4.019   3.426  11.840 -2.2403 -0.0828 -2.4556
  157MPD2     N 2450   4.113   3.849  11.988  0.1649  0.4830  0.0498
  157MPD2    H5 2451   4.079   3.944  11.977  2.9975  1.8024  2.6379
  157MPD2    N1 2452   3.892   3.775  11.579 -0.1207  0.0084 -0.4792
  157MPD2    H7 2453   3.861   3.711  11.506  0.0693  0.8179 -1.2760
  158TMC2    C1 2454   0.619   3.146  13.691 -0.1432 -0.2423  0.7206
  158TMC2    C2 2455   0.633   3.253  13.610 -0.4069  0.0871 -0.4500
  158TMC2    C3 2456   0.580   3.248  13.486 -0.0628 -0.0089 -0.2237
  158TMC2    C4 2457   0.549   3.035  13.652 -0.1834  0.6181  0.3150
  158TMC2    C5 2458   0.489   3.029  13.530  0.4024  0.2853 -0.0627
  158TMC2    C6 2459   0.506   3.145  13.444 -0.4913  0.2237 -0.0669
  158TMC2     C 2460   0.684   3.157  13.820  0.1357  0.1205  0.0209
  158TMC2     O 2461   0.759   3.247  13.851  0.8937  0.2050  0.0878
  158TMC2     H 2462   0.698   3.337  13.634 -1.3688  0.5089  0.6940
  158TMC2    H1 2463   0.510   2.964  13.724  0.0246  0.2821  0.0954
  158TMC2    H2 2464   0.482   3.144  13.338  0.4057 -0.7348 -0.2682
  158TMC2    C7 2465   0.399   2.919  13.509 -0.4894 -0.4089  0.0321
  158TMC2    C8 2466   0.614   3.357  13.401 -0.4778 -0.6553  0.5779
  158TMC2    O1 2467   0.406   2.818  13.575 -0.2425  0.0428 -0.5777
  158TMC2    O2 2468   0.534   3.386  13.314 -0.3411  0.4815 -0.3645
  158TMC2    O5 2469   0.747   3.355  13.391  0.2227 -0.6877 -0.2475
  158TMC2    H5 2470   0.797   3.312  13.464  0.8392  0.5967  0.0855
  159MPD2     C 2471   0.730   2.967  14.293 -0.2695  0.7200 -0.3036
  159MPD2    C1 2472   0.648   2.884  14.219 -0.7184 -0.2738  0.7356
  159MPD2    C2 2473   0.620   2.915  14.092  0.0059  0.0791 -0.0325
  159MPD2    C3 2474   0.681   3.025  14.032  0.2027  0.1203  0.8399
  159MPD2    C4 2475   0.771   3.104  14.104 -0.3496  0.2787 -0.5941
  159MPD2    C5 2476   0.785   3.074  14.236 -0.0939 -0.2096 -0.2113
  159MPD2     H 2477   0.559   2.851  14.028  0.8056 -1.3295  0.5979
  159MPD2    H1 2478   0.823   3.194  14.077  0.9752 -1.1496 -2.7154
  159MPD2    H2 2479   0.759   2.943  14.395 -0.1721  0.5813 -0.3624
  159MPD2    H3 2480   0.838   3.135  14.309  1.2781 -4.0684  1.9968
  159MPD2     N 2481   0.655   3.042  13.895 -0.2052 -0.1047 -1.0437
  159MPD2    H5 2482   0.584   2.977  13.862  0.3869 -0.3187 -1.9166
  159MPD2    N1 2483   0.600   2.768  14.290  0.1116 -0.0902  0.1810
  159MPD2    H7 2484   0.629   2.761  14.387 -3.3999  0.1780  1.2256
  160TMC2    C1 2485   0.238   0.785   1.244  0.1901  0.0825 -0.3965
  160TMC2    C2 2486   0.164   0.759   1.131 -0.5684  0.1698  0.7583
  160TMC2    C3 2487   0.166   0.629   1.081  0.1745 -0.3488 -0.7492
  160TMC2    C4 2488   0.338   0.694   1.282  0.1585  0.0515 -0.0579
  160TMC2    C5 2489   0.342   0.573   1.216  0.4317 -0.0123 -0.0340
  160TMC2    C6 2490   0.260   0.540   1.108  0.5286  0.2289 -0.3817
  160TMC2     C 2491   0.252   0.923   1.291 -0.4794 -0.0825  0.2288
  160TMC2     O 2492   0.354   0.947   1.356 -0.1843  0.7658  0.4104
  160TMC2     H 2493   0.111   0.841   1.085  1.6394  1.1856  0.0661
  160TMC2    H1 2494   0.401   0.722   1.365  1.2923 -1.1704 -0.4969
  160TMC2    H2 2495   0.269   0.445   1.056  0.7604 -0.5530  1.1107
  160TMC2    C7 2496   0.465   0.495   1.235  0.4650  0.4776 -0.0567
  160TMC2    C8 2497   0.078   0.591   0.975 -1.4198 -0.6948 -0.1622
  160TMC2    O1 2498   0.460   0.377   1.206  0.1740  0.0510  0.0184
  160TMC2    O2 2499   0.127   0.520   0.885  0.3218  0.8151  0.0522
  160TMC2    O5 2500   4.725   0.688   0.947 -0.5455  0.2098  0.6057
  160TMC2    H5 2501   4.714   0.744   1.026 -1.5237  0.6602  0.1506
  161MPD2     C 2502   0.256   1.228   1.279 -0.3453  1.1064 -0.0046
  161MPD2    C1 2503   0.153   1.151   1.237  0.1359 -0.0760  0.3334
  161MPD2    C2 2504   0.037   1.209   1.188 -0.2462 -0.0060 -0.5386
  161MPD2    C3 2505   0.016   1.348   1.193 -0.4812 -0.0056 -0.5870
  161MPD2    C4 2506   0.120   1.426   1.248  0.3657 -0.4040  0.3471
  161MPD2    C5 2507   0.234   1.366   1.287 -0.0264  0.0965 -0.5697
  161MPD2     H 2508   4.697   1.147   1.144 -2.3061  1.7660  0.5917
  161MPD2    H1 2509   0.123   1.535   1.255  2.1522 -0.5633  2.0047
  161MPD2    H2 2510   0.344   1.179   1.320 -0.2016 -0.2270 -1.9167
  161MPD2    H3 2511   0.311   1.426   1.334 -0.2260 -0.0438 -0.0646
  161MPD2     N 2512   4.640   1.412   1.143  0.1871  0.5948 -0.2451
  161MPD2    H5 2513   4.632   1.512   1.158  0.5027  0.7177 -0.8789
  161MPD2    N1 2514   0.154   1.010   1.236 -0.3128  0.2820  0.0056
  161MPD2    H7 2515   0.068   0.966   1.205 -0.5994  0.5598  0.3962
  162TMC2    C1 2516   2.484   2.622   0.604  0.7784 -0.3206 -0.0822
  162TMC2    C2 2517   2.383   2.697   0.655 -0.0758  0.2427  0.5008
  162TMC2    C3 2518   2.405   2.769   0.769 -0.0368 -0.0355 -0.3023
  162TMC2    C4 2519   2.601   2.609   0.669 -0.4286  0.7255  0.2797
  162TMC2    C5 2520   2.614   2.678   0.790  0.5839 -0.3664  0.5860
  162TMC2    C6 2521   2.523   2.768   0.832  0.7270  0.4015  0.2137
  162TMC2     C 2522   2.478   2.573   0.467  0.5929  0.3867  0.0071
  162TMC2     O 2523   2.561   2.493   0.426  0.4234 -0.2715  0.5243
  162TMC2     H 2524   2.288   2.704   0.602  0.1851 -1.8466 -0.2380
  162TMC2    H1 2525   2.679   2.541   0.639  0.4062  1.5977  0.4956
  162TMC2    H2 2526   2.547   2.821   0.924 -0.1067 -0.1364  0.7346
  162TMC2    C7 2527   2.716   2.632   0.885 -0.3871  0.0683 -0.6802
  162TMC2    C8 2528   2.325   2.891   0.773 -0.2103  0.4903  0.1089
  162TMC2    O1 2529   2.681   2.639   1.003  0.3064 -0.0319  0.1807
  162TMC2    O2 2530   2.295   2.954   0.673 -0.3183 -0.7208  0.1054
  162TMC2    O5 2531   2.361   2.951   0.889 -0.0529 -0.2452  0.1020
  162TMC2    H5 2532   2.371   2.883   0.960  1.7644  1.6322  1.6553
  163MPD2     C 2533   2.325   2.624  17.726  0.0520 -0.2427 -0.0424
  163MPD2    C1 2534   2.410   2.529   0.037  0.3262  0.2882 -0.2756
  163MPD2    C2 2535   2.435   2.533   0.174 -0.2654 -0.8962  0.5999
  163MPD2    C3 2536   2.367   2.623   0.249  0.5118  0.7012  0.4466
  163MPD2    C4 2537   2.276   2.703   0.191 -0.3140 -0.6150  0.1533
  163MPD2    C5 2538   2.260   2.711   0.057  0.5414  0.1471 -0.0933
  163MPD2     H 2539   2.524   2.482   0.207  1.2716  0.0785 -2.0930
  163MPD2    H1 2540   2.218   2.782   0.237  0.5012  0.0266  0.0656
  163MPD2    H2 2541   2.300   2.621  17.621 -2.1037 -3.0075  0.5181
  163MPD2    H3 2542   2.185   2.776   0.012 -0.0433 -0.1580  0.4332
  163MPD2     N 2543   2.389   2.641   0.383 -0.7745  0.6097 -0.2300
  163MPD2    H5 2544   2.342   2.721   0.423  1.8681  1.2380  1.5521
  163MPD2    N1 2545   2.487   2.443  17.692  0.0302 -0.0097 -0.3395
  163MPD2    H7 2546   2.468   2.448  17.592 -0.2236  2.7589 -0.1562
  164TMC2    C1 2547   2.532   1.987  11.332 -0.1522  0.8533 -0.3960
  164TMC2    C2 2548   2.601   2.017  11.446 -0.1189  0.4111  0.2804
  164TMC2    C3 2549   2.644   2.150  11.454  0.0834 -0.7469  1.0270
  164TMC2    C4 2550   2.500   2.079  11.236 -0.2646 -0.3574 -0.4258
  164TMC2    C5 2551   2.546   2.210  11.252  0.0073  0.0360  0.1100
  164TMC2    C6 2552   2.606   2.248  11.369 -0.2210 -0.3599  0.5545
  164TMC2     C 2553   2.536   1.850  11.283 -0.3899 -0.5183 -0.0138
  164TMC2     O 2554   2.491   1.767  11.362  0.1207 -0.0604  0.4866
  164TMC2     H 2555   2.635   1.938  11.513  1.9950  0.6982 -0.4541
  164TMC2    H1 2556   2.461   2.050  11.139  0.5631 -0.0764 -0.8505
  164TMC2    H2 2557   2.632   2.351  11.392 -1.1346 -0.1645  0.7267
  164TMC2    C7 2558   2.456   2.299  11.193 -0.0829  0.2700 -0.1469
  164TMC2    C8 2559   2.715   2.181  11.582  0.4688  0.1583 -0.5889
  164TMC2    O1 2560   2.362   2.254  11.137  0.4377 -0.6465  0.4828
  164TMC2    O2 2561   2.712   2.298  11.628  0.1772  0.6989 -0.1933
  164TMC2    O5 2562   2.815   2.093  11.590  0.3790  0.2927  0.0649
  164TMC2    H5 2563   2.822   2.028  11.518 -0.2163 -0.0700  0.3342
  165TMC2    C1 2564   4.001   0.465   0.938  0.4711  0.7536 -0.5685
  165TMC2    C2 2565   3.970   0.395   0.824 -0.5127  0.6383  0.5514
  165TMC2    C3 2566   4.066   0.321   0.758  0.8180 -0.4169 -1.0584
  165TMC2    C4 2567   4.121   0.473   0.984  0.6850 -0.8242 -0.0660
  165TMC2    C5 2568   4.218   0.395   0.923  0.2060  0.5334  0.4237
  165TMC2    C6 2569   4.190   0.313   0.814 -0.3879  0.2898 -0.1318
  165TMC2     C 2570   3.895   0.500   1.028 -0.7399  0.0775 -0.3279
  165TMC2     O 2571   3.904   0.491   1.150  0.6659 -0.5429 -0.0142
  165TMC2     H 2572   3.869   0.381   0.787 -1.1104  1.5503  1.8254
  165TMC2    H1 2573   4.133   0.521   1.080 -0.5314 -1.1888  0.2703
  165TMC2    H2 2574   4.271   0.259   0.766 -0.1651  2.3427 -2.0614
  165TMC2    C7 2575   4.353   0.402   0.968  0.0845  0.0404 -0.0848
  165TMC2    C8 2576   4.042   0.304   0.621 -0.9150 -0.0680 -0.4601
  165TMC2    O1 2577   4.434   0.323   0.923 -0.6089 -0.0349  0.2756
  165TMC2    O2 2578   3.963   0.380   0.567 -0.0882  0.0721  0.6061
  165TMC2    O5 2579   4.061   0.172   0.596  0.2049  0.2428 -0.0693
  165TMC2    H5 2580   4.115   0.134   0.668  0.4303 -0.2844 -0.5178
  166MPD2     C 2581   3.397   0.653   1.056 -0.5850  0.2724 -0.3557
  166MPD2    C1 2582   3.471   0.569   1.133  0.0806 -0.1527 -0.3739
  166MPD2    C2 2583   3.605   0.553   1.104  0.5896 -0.3496 -0.0178
  166MPD2    C3 2584   3.664   0.596   0.995  0.0870  0.1077 -0.0960
  166MPD2    C4 2585   3.594   0.672   0.908  0.5067 -0.7270  0.3842
  166MPD2    C5 2586   3.463   0.707   0.943  0.1457 -0.1887  0.3180
  166MPD2     H 2587   3.671   0.517   1.183 -1.6572 -1.1668  1.4815
  166MPD2    H1 2588   3.647   0.709   0.820 -1.7340  0.2728 -0.5528
  166MPD2    H2 2589   3.292   0.677   1.071 -0.1585  1.4348  0.7531
  166MPD2    H3 2590   3.414   0.771   0.870  2.8491  1.3663 -0.1403
  166MPD2     N 2591   3.800   0.568   0.954 -0.4647  0.3957  0.7918
  166MPD2    H5 2592   3.828   0.591   0.859  0.3253 -0.4703  0.8122
  166MPD2    N1 2593   3.413   0.515   1.250  0.6062 -0.0420 -0.1758
  166MPD2    H7 2594   3.324   0.549   1.285  1.4010  2.1280 -0.2284
  167TMC2    C1 2595   2.082   2.287  13.332  0.2684 -0.0770 -0.4574
  167TMC2    C2 2596   2.052   2.291  13.464 -0.4391 -0.3638  0.1071
  167TMC2    C3 2597   1.989   2.180  13.518  0.8006 -0.0898  0.4983
  167TMC2    C4 2598   2.046   2.188  13.247 -0.0384 -0.1396  0.0256
  167TMC2    C5 2599   1.995   2.077  13.311  0.0668 -0.1393 -0.1940
  167TMC2    C6 2600   1.957   2.069  13.447 -0.2338 -0.0107  0.7196
  167TMC2     C 2601   2.140   2.413  13.283  0.1237 -0.1442 -0.4712
  167TMC2     O 2602   2.207   2.483  13.362 -0.2627 -0.0352  0.1629
  167TMC2     H 2603   2.064   2.377  13.529  2.3962 -0.1104 -0.7264
  167TMC2    H1 2604   2.052   2.183  13.139  2.7832  1.5048  0.1156
  167TMC2    H2 2605   1.926   1.973  13.487 -2.5900  0.1825 -0.6846
  167TMC2    C7 2606   1.963   1.959  13.228  0.3787 -0.3786  0.5738
  167TMC2    C8 2607   1.949   2.206  13.656  0.5726 -0.2303  0.0175
  167TMC2    O1 2608   1.873   1.891  13.272 -0.7544  0.5300  0.7972
  167TMC2    O2 2609   2.014   2.265  13.743  0.1392 -0.6357 -0.3857
  167TMC2    O5 2610   1.846   2.122  13.681 -0.5943 -0.3144 -0.7129
  167TMC2    H5 2611   1.799   2.077  13.608  1.7121 -1.3169 -1.5642
  168MPD2     C 2612   2.281   2.616  13.101  0.6269  0.2338 -0.4901
  168MPD2    C1 2613   2.187   2.528  13.067 -0.1380 -0.1683 -0.8389
  168MPD2    C2 2614   2.143   2.527  12.939 -0.0892 -0.1138 -0.2228
  168MPD2    C3 2615   2.190   2.618  12.844 -0.1973 -0.5121  0.1834
  168MPD2    C4 2616   2.275   2.721  12.884 -0.8730 -0.2059  0.1626
  168MPD2    C5 2617   2.323   2.710  13.012 -0.8092 -0.3052  0.3066
  168MPD2     H 2618   2.065   2.457  12.911  0.7762 -1.8183  1.6019
  168MPD2    H1 2619   2.309   2.797  12.815 -0.6240 -0.8155 -0.3943
  168MPD2    H2 2620   2.310   2.626  13.205 -1.1559 -0.4737  0.0747
  168MPD2    H3 2621   2.412   2.764  13.039 -0.7727  0.0390 -0.4874
  168MPD2     N 2622   2.138   2.615  12.711 -0.5794 -0.4558  0.4454
  168MPD2    H5 2623   2.151   2.697  12.652 -2.1498  0.6665  1.6935
  168MPD2    N1 2624   2.126   2.426  13.148 -0.0550 -0.0787  0.3814
  168MPD2    H7 2625   2.050   2.374  13.106 -0.1578 -0.7100  1.3507
  169MPD1     C 2626   3.439   2.883   9.030  0.0234 -0.0241  0.5131
  169MPD1    C1 2627   3.459   2.854   9.161  0.4987 -0.1431 -0.9481
  169MPD1    C2 2628   3.526   2.736   9.183 -0.6199 -0.2744  0.1301
  169MPD1    C3 2629   3.548   2.637   9.079 -0.2189 -0.8399 -0.1162
  169MPD1    C4 2630   3.501   2.661   8.950  0.5692 -0.0350 -0.4312
  169MPD1    C5 2631   3.457   2.788   8.930  0.0956  0.8260 -0.7807
  169MPD1     H 2632   3.551   2.706   9.284 -1.4943 -0.8141  0.1895
  169MPD1    H1 2633   3.525   2.601   8.863  0.6157  1.4564 -1.4443
  169MPD1    H2 2634   3.406   2.981   9.000 -1.0024 -0.7245 -0.6825
  169MPD1    H3 2635   3.435   2.812   8.827  1.0228 -0.6128 -1.3194
  169MPD1     N 2636   3.634   2.536   9.112  0.5154 -0.0078 -0.2387
  169MPD1    H5 2637   3.662   2.526   9.209  1.0170  1.7511 -0.2173
  169MPD1    N1 2638   3.448   2.957   9.255 -0.0307  0.0703  0.5669
  169MPD1    H6 2639   3.373   3.022   9.234 -0.1519 -0.1562  0.2979
  169MPD1    H7 2640   3.432   2.925   9.351  0.0635 -1.3023  0.1321
  170MPD1     C 2641   3.431   3.703  12.523 -0.2540  0.0474 -0.0213
  170MPD1    C1 2642   3.533   3.640  12.595  0.5860  0.1072  0.2214
  170MPD1    C2 2643   3.529   3.664  12.736  0.0036  0.0927 -0.0574
  170MPD1    C3 2644   3.421   3.733  12.793 -0.4858 -0.0295 -0.3131
  170MPD1    C4 2645   3.313   3.775  12.720  0.9879  0.6835 -0.4899
  170MPD1    C5 2646   3.324   3.760  12.586  0.1898  0.4278 -0.2294
  170MPD1     H 2647   3.604   3.621  12.801 -0.7146  0.2150  0.8671
  170MPD1    H1 2648   3.225   3.823  12.762  0.6033 -1.0899  0.7561
  170MPD1    H2 2649   3.442   3.714  12.416  0.0784  0.5525  0.0649
  170MPD1    H3 2650   3.243   3.802  12.527  0.8659  1.5788 -0.3332
  170MPD1     N 2651   3.436   3.766  12.926 -0.3277 -0.2984  0.5512
  170MPD1    H5 2652   3.517   3.728  12.974  2.0560  2.8255 -1.0048
  170MPD1    N1 2653   3.642   3.593  12.528  0.5224  0.1475  0.2084
  170MPD1    H6 2654   3.614   3.556  12.437  0.0698 -0.0712  0.4364
  170MPD1    H7 2655   3.694   3.523  12.581  1.1429  0.5508  0.1396
  171MPD1     C 2656   1.681   0.096  15.527 -0.3511 -0.4684  0.1223
  171MPD1    C1 2657   1.707   0.218  15.585 -0.1279 -1.0096 -0.2111
  171MPD1    C2 2658   1.839   0.250  15.622  0.3366  0.3656 -0.6840
  171MPD1    C3 2659   1.938   0.157  15.600 -0.0290  0.0192  0.3569
  171MPD1    C4 2660   1.913   0.041  15.549 -0.5879  0.7395  0.4738
  171MPD1    C5 2661   1.783   0.006  15.512  0.1733  0.3908  0.4187
  171MPD1     H 2662   1.861   0.349  15.660  1.4896 -0.0884 -0.1503
  171MPD1    H1 2663   1.994   4.706  15.543 -1.1793  0.2877 -2.3300
  171MPD1    H2 2664   1.581   0.072  15.494 -1.1501  0.4796  1.8424
  171MPD1    H3 2665   1.766   4.650  15.460 -0.2768  1.5895 -1.5651
  171MPD1     N 2666   2.069   0.179  15.643 -0.4919 -0.5556  0.6792
  171MPD1    H5 2667   2.131   0.100  15.630 -1.2807 -1.1708  0.6480
  171MPD1    N1 2668   1.612   0.317  15.587  0.1916 -0.3298  1.0285
  171MPD1    H6 2669   1.521   0.283  15.555 -0.2065 -0.2993  2.1309
  171MPD1    H7 2670   1.607   0.385  15.663 -0.2034  1.0483 -0.2352
  172MPD1     C 2671   1.573   4.327  17.700 -0.1700 -0.4420  0.0529
  172MPD1    C1 2672   1.462   4.373   0.024 -0.8052 -0.1618 -0.0549
  172MPD1    C2 2673   1.478   4.483   0.109  0.4779  0.3612 -0.1344
  172MPD1    C3 2674   1.604   4.541   0.123 -0.3742  0.1136  0.0438
  172MPD1    C4 2675   1.711   4.503   0.041 -0.1464  0.5261  0.0024
  172MPD1    C5 2676   1.693   4.392  17.710  0.5038  0.0886 -0.0620
  172MPD1     H 2677   1.393   4.500   0.175  3.2972  1.7736  3.1593
  172MPD1    H1 2678   1.813   4.537   0.055  0.3315 -0.5959 -0.8223
  172MPD1    H2 2679   1.570   4.247  17.626 -0.3576  0.9949 -1.4861
  172MPD1    H3 2680   1.775   4.361  17.646 -0.1229 -0.8168 -0.4343
  172MPD1     N 2681   1.619   4.658   0.197 -0.8094 -0.6157 -0.1531
  172MPD1    H5 2682   1.708   4.707   0.191 -1.0632 -0.2409 -0.8571
  172MPD1    N1 2683   1.343   4.307  17.734 -0.1563 -0.3647 -0.3891
  172MPD1    H6 2684   1.288   4.305   0.073 -0.2181 -0.5900 -0.4336
  172MPD1    H7 2685   1.361   4.207  17.720  0.5209 -0.3341  0.2421
  173MPD1     C 2686   3.366   0.220  13.593  0.0236  0.4939 -0.2734
  173MPD1    C1 2687   3.247   0.251  13.653 -0.0833  0.0697  1.0257
  173MPD1    C2 2688   3.238   0.235  13.790 -0.5010 -0.1596 -0.0921
  173MPD1    C3 2689   3.331   0.167  13.862 -0.3846  0.6907 -0.1058
  173MPD1    C4 2690   3.441   0.133  13.795 -0.0693 -0.5705  0.2203
  173MPD1    C5 2691   3.464   0.160  13.663  0.4919 -0.0448  0.4484
  173MPD1     H 2692   3.145   0.258  13.841 -0.5856 -0.0251 -0.3034
  173MPD1    H1 2693   3.529   0.087  13.838  0.3707  0.2457  0.1889
  173MPD1    H2 2694   3.384   0.246  13.489  0.6946  1.1032 -0.0076
  173MPD1    H3 2695   3.556   0.128  13.615  0.2302  0.0079 -0.0850
  173MPD1     N 2696   3.304   0.132  13.996  0.2291 -0.0692 -0.4368
  173MPD1    H5 2697   3.219   0.167  14.039  1.5671 -0.6561  2.7503
  173MPD1    N1 2698   3.159   0.342  13.590 -0.5501  0.2559 -0.0681
  173MPD1    H6 2699   3.072   0.353  13.642  0.0683  1.0679  0.8026
  173MPD1    H7 2700   3.146   0.332  13.490  2.4228 -0.7080 -0.3569
  174MPD1     C 2701   3.401   3.941  14.340 -1.3236  0.2432  0.4470
  174MPD1    C1 2702   3.379   4.013  14.451 -0.1005  0.7042  0.3165
  174MPD1    C2 2703   3.386   4.155  14.445  0.1645 -0.6756  0.1870
  174MPD1    C3 2704   3.400   4.216  14.321 -1.3153  0.0521 -0.0012
  174MPD1    C4 2705   3.407   4.143  14.208  0.1936 -0.0877 -0.4190
  174MPD1    C5 2706   3.394   4.005  14.215 -0.1358 -0.1034 -0.2649
  174MPD1     H 2707   3.382   4.208  14.539 -1.5572  0.7472 -0.6987
  174MPD1    H1 2708   3.425   4.188  14.111  1.4037 -2.2931 -1.2227
  174MPD1    H2 2709   3.399   3.832  14.345 -0.8636  0.1294 -1.8905
  174MPD1    H3 2710   3.409   3.947  14.125 -0.3553 -1.9514  0.8912
  174MPD1     N 2711   3.391   4.360  14.300  0.0603  0.0485  0.2070
  174MPD1    H5 2712   3.398   4.400  14.207  0.1145 -2.2391 -0.7604
  174MPD1    N1 2713   3.381   3.942  14.575  0.4763 -0.6605 -0.1585
  174MPD1    H6 2714   3.361   4.006  14.652  0.3775  0.4679 -1.1097
  174MPD1    H7 2715   3.475   3.905  14.587 -0.0578 -1.0404  2.8185
  175MPD1     C 2716   0.924   0.952  15.267  0.9954 -0.6396 -0.2393
  175MPD1    C1 2717   1.030   0.882  15.315  0.3359 -0.8999 -0.1122
  175MPD1    C2 2718   1.019   0.818  15.440 -0.0900 -0.3886 -0.0533
  175MPD1    C3 2719   0.897   0.814  15.504  0.4304  0.3443 -0.5525
  175MPD1    C4 2720   0.790   0.876  15.451 -0.5936 -0.5408  0.1579
  175MPD1    C5 2721   0.805   0.947  15.337 -0.6136  0.0693  0.0529
  175MPD1     H 2722   1.113   0.801  15.491 -1.1174 -0.8727  1.6528
  175MPD1    H1 2723   0.691   0.867  15.494 -2.0596  0.7102 -2.9714
  175MPD1    H2 2724   0.920   1.030  15.191 -1.3099  0.4842  1.0639
  175MPD1    H3 2725   0.724   1.007  15.297  1.0892  2.2205 -0.1320
  175MPD1     N 2726   0.881   0.768  15.640 -0.1604 -0.6748  0.0394
  175MPD1    H5 2727   0.788   0.777  15.679  0.6067  1.0634  1.4367
  175MPD1    N1 2728   1.151   0.908  15.261 -0.0058  0.4311 -0.7482
  175MPD1    H6 2729   1.149   0.929  15.162 -2.1412 -3.8796 -1.6450
  175MPD1    H7 2730   1.207   0.823  15.264 -2.9866 -1.5314 -0.2554
  176MPD1     C 2731   2.081   2.609  16.792 -0.4459  0.6462  0.1916
  176MPD1    C1 2732   1.997   2.605  16.903 -0.2236 -0.0628 -0.0602
  176MPD1    C2 2733   2.051   2.596  17.031  0.5120 -0.1097 -0.0017
  176MPD1    C3 2734   2.190   2.602  17.052 -0.2590  0.7023  0.3860
  176MPD1    C4 2735   2.273   2.598  16.938  0.1723  0.0561  0.2691
  176MPD1    C5 2736   2.214   2.606  16.819 -0.3541 -0.3687 -0.9678
  176MPD1     H 2737   1.994   2.584  17.122  0.5257 -1.7845 -0.1999
  176MPD1    H1 2738   2.380   2.589  16.953  0.6382  4.0546 -0.4610
  176MPD1    H2 2739   2.048   2.598  16.690  1.8717  0.6596 -0.5529
  176MPD1    H3 2740   2.281   2.607  16.734  2.1711  1.2202  1.0245
  176MPD1     N 2741   2.239   2.596  17.183  0.6265  0.0466  0.4278
  176MPD1    H5 2742   2.176   2.609  17.261 -0.0969 -0.4550 -0.0761
  176MPD1    N1 2743   1.858   2.601  16.873 -0.2069  0.3053  0.4035
  176MPD1    H6 2744   1.805   2.647  16.946 -1.5516  1.0565 -1.0460
  176MPD1    H7 2745   1.843   2.653  16.787  0.3143  1.1328  0.8108
  177MPD1     C 2746   4.033   1.922   8.969 -0.4719  0.8174 -0.2688
  177MPD1    C1 2747   4.129   2.001   9.019 -0.1569  0.2401  0.0733
  177MPD1    C2 2748   4.130   2.124   8.969  0.1539 -0.3456  0.0020
  177MPD1    C3 2749   4.030   2.175   8.878 -0.0770 -0.4564 -0.5349
  177MPD1    C4 2750   3.934   2.085   8.831  0.9198 -0.8747  0.5441
  177MPD1    C5 2751   3.938   1.957   8.879  0.3669 -0.5377  0.2138
  177MPD1     H 2752   4.199   2.199   9.007  1.3161 -1.2013 -0.4357
  177MPD1    H1 2753   3.858   2.100   8.755  2.7711  1.2024 -0.9037
  177MPD1    H2 2754   4.019   1.821   9.006 -0.3734  1.3640  1.2744
  177MPD1    H3 2755   3.864   1.881   8.861  0.0146 -0.0198 -0.5193
  177MPD1     N 2756   4.041   2.309   8.846  0.3393  0.1848 -0.4183
  177MPD1    H5 2757   4.110   2.362   8.899  1.2888 -0.6847 -0.7860
  177MPD1    N1 2758   4.232   1.948   9.093 -0.1603  0.1272  0.4737
  177MPD1    H6 2759   4.199   1.884   9.164 -0.3151 -2.5349 -1.9789
  177MPD1    H7 2760   4.288   2.021   9.137  1.4976 -1.5875  1.1716
  178MPD1     C 2761   3.553   3.505   0.977 -0.3581 -0.0042  0.2596
  178MPD1    C1 2762   3.439   3.472   0.907 -0.0992  0.3208  0.3749
  178MPD1    C2 2763   3.447   3.469   0.770 -0.9388  0.6458 -0.5001
  178MPD1    C3 2764   3.568   3.507   0.705 -0.1350 -0.1262 -0.3148
  178MPD1    C4 2765   3.680   3.541   0.780  0.2993  0.0313  0.2585
  178MPD1    C5 2766   3.669   3.541   0.918 -0.2590 -0.1869  0.0391
  178MPD1     H 2767   3.356   3.444   0.716 -1.3180  0.3453  0.2827
  178MPD1    H1 2768   3.777   3.569   0.741  0.6846 -2.0544 -0.2579
  178MPD1    H2 2769   3.556   3.502   1.085  0.9920  0.3947  0.2387
  178MPD1    H3 2770   3.747   3.575   0.985 -1.5131  1.1555  0.8096
  178MPD1     N 2771   3.578   3.508   0.563  0.3726  0.4619 -0.2181
  178MPD1    H5 2772   3.670   3.515   0.521 -0.8122 -1.2682 -3.1717
  178MPD1    N1 2773   3.322   3.441   0.978 -0.5591  0.3525 -0.1272
  178MPD1    H6 2774   3.240   3.488   0.942  0.2914  1.8934 -0.0496
  178MPD1    H7 2775   3.330   3.462   1.077  3.2488  4.6550 -1.3531
  179MPD1     C 2776   2.720   1.969  16.042 -0.2904  0.0630 -0.2795
  179MPD1    C1 2777   2.655   1.909  15.931 -0.1667 -0.2670  0.0939
  179MPD1    C2 2778   2.708   1.792  15.874 -0.2012 -0.5389  0.4831
  179MPD1    C3 2779   2.826   1.751  15.919  0.3704 -0.5924  0.6157
  179MPD1    C4 2780   2.891   1.821  16.014 -0.0959  0.4211  0.3632
  179MPD1    C5 2781   2.842   1.929  16.082  0.6689 -0.1243 -0.2120
  179MPD1     H 2782   2.657   1.749  15.789 -1.4286 -2.5079  2.2074
  179MPD1    H1 2783   2.987   1.780  16.043  0.6487  0.3646 -2.1677
  179MPD1    H2 2784   2.663   2.049  16.087 -2.2464  0.2230 -3.0290
  179MPD1    H3 2785   2.893   1.981  16.162  1.9920 -0.0817 -1.0743
  179MPD1     N 2786   2.895   1.635  15.871  0.5525  0.3515 -0.1353
  179MPD1    H5 2787   2.982   1.609  15.915  0.8129  0.5025 -0.5579
  179MPD1    N1 2788   2.531   1.960  15.881 -0.8905 -0.0099  0.6612
  179MPD1    H6 2789   2.518   2.054  15.918 -1.7066  0.7216 -1.4958
  179MPD1    H7 2790   2.520   1.956  15.780  2.2500  0.3282  0.3005
  180MPD1     C 2791   3.072   2.750  15.685 -0.0861 -0.5143  0.6233
  180MPD1    C1 2792   3.141   2.748  15.569  0.2724 -0.3136  0.7207
  180MPD1    C2 2793   3.107   2.825  15.456 -0.8421  0.7418  0.0126
  180MPD1    C3 2794   2.988   2.899  15.461 -0.2365  0.3170  0.4517
  180MPD1    C4 2795   2.907   2.883  15.575  0.2520 -0.2161  0.2926
  180MPD1    C5 2796   2.952   2.817  15.690  0.2613 -0.2141 -0.7951
  180MPD1     H 2797   3.176   2.833  15.373 -1.4249  2.0456 -0.3341
  180MPD1    H1 2798   2.810   2.931  15.578  0.0260 -0.4890 -2.9293
  180MPD1    H2 2799   3.105   2.708  15.780  0.1790 -0.5900  0.4958
  180MPD1    H3 2800   2.886   2.797  15.773  0.8457  2.9502  0.4580
  180MPD1     N 2801   2.953   2.973  15.347  0.2390  0.1660 -0.3789
  180MPD1    H5 2802   3.012   2.965  15.265  1.0998  0.7091  0.1816
  180MPD1    N1 2803   3.261   2.685  15.567 -0.2882 -0.1626 -0.0262
  180MPD1    H6 2804   3.260   2.592  15.608  4.8095 -0.0951  0.2291
  180MPD1    H7 2805   3.291   2.679  15.469 -0.6286 -2.2598 -0.0044
  181MPD1     C 2806   0.104   0.806   9.255 -0.6601  0.1854  0.1948
  181MPD1    C1 2807   0.097   0.671   9.284  1.0305  0.1914  0.1251
  181MPD1    C2 2808   0.105   0.626   9.416 -0.2948  0.8560  0.2766
  181MPD1    C3 2809   0.092   0.710   9.524  0.3173 -0.5922 -0.0428
  181MPD1    C4 2810   0.086   0.845   9.494  0.3283  0.2124  0.1368
  181MPD1    C5 2811   0.098   0.890   9.365 -0.3718  0.2884 -0.0477
  181MPD1     H 2812   0.114   0.519   9.431  0.9308  0.8152 -0.7690
  181MPD1    H1 2813   0.103   0.924   9.566  0.8329  1.5391 -1.4372
  181MPD1    H2 2814   0.112   0.855   9.159  1.7426  0.3102  0.4520
  181MPD1    H3 2815   0.094   0.997   9.350  0.3110  0.2876 -0.2391
  181MPD1     N 2816   0.096   0.675   9.657  0.4360 -0.2362  0.4774
  181MPD1    H5 2817   0.084   0.746   9.729  2.4063  0.0092  0.5710
  181MPD1    N1 2818   0.105   0.578   9.174 -0.5423  0.4518 -0.5693
  181MPD1    H6 2819   0.061   0.618   9.091 -0.2168  1.3837 -0.2913
  181MPD1    H7 2820   0.066   0.485   9.184 -0.7888  0.6078 -0.1352
  182MPD1     C 2821   0.144   4.427   1.474  0.0120  0.0897 -0.3646
  182MPD1    C1 2822   0.250   4.345   1.495  0.0973 -0.0161 -0.6209
  182MPD1    C2 2823   0.353   4.339   1.401  0.2335  0.2155  0.4824
  182MPD1    C3 2824   0.332   4.398   1.280  0.3720  0.3604 -0.6187
  182MPD1    C4 2825   0.227   4.488   1.257  0.3085 -0.9323 -0.2945
  182MPD1    C5 2826   0.136   4.502   1.354  0.1578 -0.2848 -0.3053
  182MPD1     H 2827   0.435   4.269   1.416 -1.0859 -1.0831  1.7103
  182MPD1    H1 2828   0.212   4.545   1.166 -1.7413 -1.7242 -0.4493
  182MPD1    H2 2829   0.064   4.432   1.547 -0.0085 -2.5181 -0.1913
  182MPD1    H3 2830   0.040   4.546   1.328 -0.0176 -0.3064  0.2969
  182MPD1     N 2831   0.426   4.385   1.173 -0.3596 -0.0432 -0.2768
  182MPD1    H5 2832   0.413   4.454   1.099 -0.0567  0.0129 -0.2777
  182MPD1    N1 2833   0.256   4.287   1.618 -0.3681 -0.1041 -0.3065
  182MPD1    H6 2834   0.169   4.271   1.669 -0.5862  3.7353  0.5307
  182MPD1    H7 2835   0.309   4.200   1.614  0.5961  0.5543 -1.6738
  183MPD1     C 2836   0.370   4.074   8.649  0.2825  0.5950  0.1170
  183MPD1    C1 2837   0.382   4.040   8.775  0.3973  0.6086 -0.0293
  183MPD1    C2 2838   0.316   4.126   8.861  0.5002 -0.4666 -0.2760
  183MPD1    C3 2839   0.269   4.253   8.828 -0.2499  0.0660 -0.8157
  183MPD1    C4 2840   0.264   4.289   8.695 -0.3587 -0.1208  0.1397
  183MPD1    C5 2841   0.309   4.193   8.611 -0.3347 -0.5341 -0.5956
  183MPD1     H 2842   0.307   4.094   8.964 -0.7745  2.1473  0.4355
  183MPD1    H1 2843   0.211   4.374   8.654 -0.7931  0.5381  2.0515
  183MPD1    H2 2844   0.405   4.013   8.566 -0.8113 -0.4250  0.4101
  183MPD1    H3 2845   0.287   4.216   8.507 -0.5496 -1.6135 -0.7904
  183MPD1     N 2846   0.217   4.330   8.929 -0.3483 -0.7302 -0.0509
  183MPD1    H5 2847   0.216   4.289   9.022 -1.7510 -0.4679  0.0440
  183MPD1    N1 2848   0.425   3.911   8.811  0.2926 -0.1852 -0.2722
  183MPD1    H6 2849   0.492   3.871   8.745  0.0711 -0.9771 -0.0208
  183MPD1    H7 2850   0.460   3.900   8.905  0.4151 -3.3326 -0.6818
  184MPD1     C 2851   4.042   3.689   8.878  0.8926 -0.1030  0.8144
  184MPD1    C1 2852   4.111   3.572   8.851 -0.2994  0.2639 -0.1187
  184MPD1    C2 2853   4.191   3.519   8.951 -0.5262  0.4602  0.0798
  184MPD1    C3 2854   4.188   3.560   9.087  0.4326  0.1395  0.3466
  184MPD1    C4 2855   4.109   3.664   9.121  0.2814  0.2593 -0.3585
  184MPD1    C5 2856   4.053   3.735   9.012  0.3426  0.5708  0.2975
  184MPD1     H 2857   4.256   3.437   8.922 -0.5483  0.3308  0.3905
  184MPD1    H1 2858   4.110   3.711   9.219  2.4775  0.4003 -0.4532
  184MPD1    H2 2859   3.993   3.751   8.803  2.9308  2.1125  1.3109
  184MPD1    H3 2860   4.000   3.824   9.043  0.1377  1.1904 -1.7878
  184MPD1     N 2861   4.268   3.497   9.186  0.8329  0.1670 -0.3124
  184MPD1    H5 2862   4.252   3.522   9.283  0.4240 -1.2418 -0.0238
  184MPD1    N1 2863   4.137   3.537   8.718  1.2688  0.6753  0.0347
  184MPD1    H6 2864   4.073   3.566   8.644 -2.1132  1.0905  3.0872
  184MPD1    H7 2865   4.159   3.438   8.709  2.1074  1.0137 -1.4511
  185MPD1     C 2866   0.187   2.639   9.412  0.3201  0.0660  0.4135
  185MPD1    C1 2867   0.157   2.697   9.289 -0.3063  0.1879  0.1566
  185MPD1    C2 2868   0.076   2.808   9.295 -0.0369  0.2087 -0.2528
  185MPD1    C3 2869   0.058   2.890   9.408  0.3469 -0.2253  0.2584
  185MPD1    C4 2870   0.100   2.834   9.527 -0.0781  0.4360  0.2311
  185MPD1    C5 2871   0.151   2.706   9.525 -0.3657 -1.0724  0.3373
  185MPD1     H 2872   0.051   2.846   9.197 -0.7818  1.4091  0.4049
  185MPD1    H1 2873   0.093   2.896   9.616 -1.9682 -0.3259  0.5978
  185MPD1    H2 2874   0.249   2.550   9.413 -0.0252 -0.1806 -0.0953
  185MPD1    H3 2875   0.186   2.670   9.620 -0.5381  0.5952  1.0392
  185MPD1     N 2876   4.735   3.016   9.411  0.0363 -0.1011  0.1831
  185MPD1    H5 2877   4.716   3.063   9.499  0.2941  1.1740 -0.4410
  185MPD1    N1 2878   0.177   2.614   9.177 -0.4922  0.4130 -0.0103
  185MPD1    H6 2879   0.195   2.666   9.092 -1.1111  1.5040  0.5264
  185MPD1    H7 2880   0.255   2.550   9.191  0.8674  2.1377  0.3318
  186MPD1     C 2881   4.173   1.699  16.172 -0.4732 -0.0117  0.1102
  186MPD1    C1 2882   4.095   1.793  16.107  0.5598  0.5120 -0.9161
  186MPD1    C2 2883   4.023   1.879  16.181 -0.4684  0.3004  0.0955
  186MPD1    C3 2884   4.025   1.884  16.320  0.5421  0.2817 -0.6969
  186MPD1    C4 2885   4.105   1.790  16.384 -0.1627  0.8578 -0.6345
  186MPD1    C5 2886   4.184   1.705  16.304 -0.4353 -0.7957  0.0497
  186MPD1     H 2887   3.960   1.945  16.122 -1.9432  0.3120  1.6804
  186MPD1    H1 2888   4.129   1.786  16.490  1.2966 -0.1322 -1.0046
  186MPD1    H2 2889   4.239   1.632  16.117 -0.8089  0.4835 -0.9040
  186MPD1    H3 2890   4.268   1.649  16.344 -1.9881 -1.5293  2.3566
  186MPD1     N 2891   3.974   1.993  16.400 -0.1411 -0.1522 -0.2246
  186MPD1    H5 2892   4.007   1.999  16.496  0.5054 -2.4156 -0.3207
  186MPD1    N1 2893   4.079   1.789  15.965 -0.0926 -0.2380  0.2509
  186MPD1    H6 2894   4.044   1.875  15.923 -2.3599 -1.1772  0.1810
  186MPD1    H7 2895   4.168   1.782  15.917  0.3108 -0.1787  0.9873
  187MPD1     C 2896   2.481   3.489   0.283 -0.1492 -0.3460 -0.3206
  187MPD1    C1 2897   2.447   3.380   0.209  0.2909  0.8565  0.1390
  187MPD1    C2 2898   2.523   3.356   0.096  0.2471 -0.5942 -0.2795
  187MPD1    C3 2899   2.625   3.448   0.057  0.1530  0.4493  0.7740
  187MPD1    C4 2900   2.650   3.558   0.136  0.5128 -0.2851 -0.3968
  187MPD1    C5 2901   2.587   3.571   0.252 -0.1869  0.1813 -0.6329
  187MPD1     H 2902   2.512   3.266   0.038 -0.4061 -0.6649 -0.0426
  187MPD1    H1 2903   2.730   3.629   0.115  1.9643 -2.6184 -2.7405
  187MPD1    H2 2904   2.430   3.515   0.376 -0.0808 -1.1830 -0.0447
  187MPD1    H3 2905   2.612   3.652   0.320 -0.3473  1.9002 -2.6321
  187MPD1     N 2906   2.698   3.444  17.685  0.3987  0.1251  0.2703
  187MPD1    H5 2907   2.761   3.520  17.664 -0.7412  0.6402 -1.2907
  187MPD1    N1 2908   2.352   3.292   0.260  0.2845  0.4702  0.2500
  187MPD1    H6 2909   2.327   3.218   0.195 -1.7168  0.6133  0.8538
  187MPD1    H7 2910   2.265   3.325   0.302  1.1751 -0.4052  2.7566
  188MPD1     C 2911   1.976   4.381  10.846  0.5561 -0.2537 -0.4421
  188MPD1    C1 2912   2.086   4.307  10.888 -0.0284  0.4370 -0.4230
  188MPD1    C2 2913   2.102   4.184  10.828 -0.0103 -0.1761  0.2404
  188MPD1    C3 2914   2.029   4.143  10.718  0.2366  0.2170  0.3980
  188MPD1    C4 2915   1.927   4.220  10.677 -0.2470  0.8989  0.7111
  188MPD1    C5 2916   1.907   4.342  10.733 -0.3740  0.3511  0.4941
  188MPD1     H 2917   2.184   4.121  10.860  0.7000  0.0914 -1.0269
  188MPD1    H1 2918   1.871   4.202  10.586 -0.7934  1.6167  0.8972
  188MPD1    H2 2919   1.967   4.484  10.880  1.0291 -0.3430 -0.0495
  188MPD1    H3 2920   1.832   4.406  10.688 -0.2532 -0.1067 -0.3539
  188MPD1     N 2921   2.037   4.021  10.663 -0.4567 -0.0440  0.8764
  188MPD1    H5 2922   1.972   4.003  10.587  1.2391  1.0774 -0.8470
  188MPD1    N1 2923   2.160   4.343  11.007 -0.1661 -0.0239 -0.2915
  188MPD1    H6 2924   2.255   4.308  10.999 -0.6946 -1.9341  1.8937
  188MPD1    H7 2925   2.160   4.443  11.026  0.0449 -0.1355  0.2906
  189MPD1     C 2926   0.253   0.186   0.311  0.4241 -0.7200 -0.0150
  189MPD1    C1 2927   0.141   0.107   0.280  0.0490 -0.0932 -0.3954
  189MPD1    C2 2928   0.021   0.170   0.245 -0.6532 -0.6570  0.0208
  189MPD1    C3 2929   0.007   0.306   0.228  0.0701  0.5033 -0.0926
  189MPD1    C4 2930   0.121   0.381   0.262  0.5750  0.1028 -0.2805
  189MPD1    C5 2931   0.237   0.320   0.297 -0.1669 -0.2812 -0.6183
  189MPD1     H 2932   4.673   0.111   0.215  0.4904 -1.1702 -2.1775
  189MPD1    H1 2933   0.118   0.489   0.254 -0.2797  0.0631 -0.5613
  189MPD1    H2 2934   0.347   0.137   0.336  0.2086 -1.6596 -1.0429
  189MPD1    H3 2935   0.323   0.384   0.314 -0.4126 -0.0497 -0.2563
  189MPD1     N 2936   4.623   0.356   0.179  0.1421 -0.0738  0.0483
  189MPD1    H5 2937   4.561   0.289   0.132 -2.9883  2.1519  0.9965
  189MPD1    N1 2938   0.159   4.710   0.257 -0.0580 -0.1945  0.3451
  189MPD1    H6 2939   0.221   4.672   0.329 -1.8418 -1.1555  1.3792
  189MPD1    H7 2940   0.071   4.660   0.270 -1.2184  1.4991 -1.0165
  190MPD1     C 2941   3.459   3.633  15.205 -0.7500 -0.3959  0.2742
  190MPD1    C1 2942   3.557   3.549  15.161 -0.5629 -0.2732  0.2966
  190MPD1    C2 2943   3.601   3.451  15.248  0.4110 -0.4783 -1.3726
  190MPD1    C3 2944   3.562   3.439  15.379  0.0125 -0.0151 -0.1546
  190MPD1    C4 2945   3.487   3.544  15.427  0.2544  0.5580  0.6022
  190MPD1    C5 2946   3.435   3.635  15.337  0.3060 -0.1338  0.6177
  190MPD1     H 2947   3.670   3.381  15.202  0.6252  0.3012 -2.2327
  190MPD1    H1 2948   3.457   3.559  15.530 -1.3931  1.7000 -0.0542
  190MPD1    H2 2949   3.414   3.703  15.136 -2.0385 -1.0148  0.4869
  190MPD1    H3 2950   3.371   3.710  15.382  0.5117  0.2509  0.2641
  190MPD1     N 2951   3.611   3.338  15.465 -0.0344  0.6300 -0.3539
  190MPD1    H5 2952   3.681   3.284  15.413  0.8527 -1.3609  2.8904
  190MPD1    N1 2953   3.568   3.536  15.021 -0.2293 -0.2125  0.2440
  190MPD1    H6 2954   3.560   3.624  14.972  1.4363  0.4662  1.1871
  190MPD1    H7 2955   3.660   3.499  14.996 -1.2881 -3.8563  1.7511
  191MPD1     C 2956   2.683   4.337  13.391 -0.1611 -0.0789  0.0407
  191MPD1    C1 2957   2.703   4.476  13.403  0.2909  0.3552  0.0014
  191MPD1    C2 2958   2.602   4.553  13.348  0.1530  0.1563  0.2489
  191MPD1    C3 2959   2.482   4.500  13.302 -0.0831  0.0016 -0.2011
  191MPD1    C4 2960   2.461   4.361  13.312  0.0195  1.4297  0.5090
  191MPD1    C5 2961   2.563   4.281  13.353  1.2938 -0.5856  0.1728
  191MPD1     H 2962   2.618   4.660  13.353  0.4189  0.0820  1.0456
  191MPD1    H1 2963   2.364   4.315  13.298 -0.5713  3.2093 -1.2392
  191MPD1    H2 2964   2.748   4.261  13.434 -0.8617 -1.2004 -0.8561
  191MPD1    H3 2965   2.550   4.177  13.378  4.6921 -0.3671  2.9104
  191MPD1     N 2966   2.380   4.591  13.248  0.7756 -0.3271 -0.1620
  191MPD1    H5 2967   2.398   4.690  13.241  0.9709 -0.5496 -2.7269
  191MPD1    N1 2968   2.834   4.528  13.408 -0.1631  0.1908 -0.1487
  191MPD1    H6 2969   2.892   4.461  13.459 -0.8920  0.2972  0.8175
  191MPD1    H7 2970   2.855   4.623  13.437 -0.2275  0.0948  0.2142
  192MPD1     C 2971   1.475   0.395  13.333 -0.5903  0.2160  0.1769
  192MPD1    C1 2972   1.563   0.320  13.405  0.8072 -0.2240  0.3043
  192MPD1    C2 2973   1.671   0.265  13.342 -0.2433  0.6029 -0.4398
  192MPD1    C3 2974   1.685   0.257  13.205 -0.8484  0.2116  0.0131
  192MPD1    C4 2975   1.597   0.325  13.129 -0.6733  0.1053  0.1078
  192MPD1    C5 2976   1.495   0.404  13.194 -0.2664  0.4063  0.4764
  192MPD1     H 2977   1.743   0.206  13.399 -0.7683  0.7138  0.3378
  192MPD1    H1 2978   1.603   0.322  13.021  0.1670  0.5992  0.1415
  192MPD1    H2 2979   1.406   0.468  13.375 -1.9140 -0.1262 -1.4106
  192MPD1    H3 2980   1.431   0.476  13.146 -1.2434 -0.4832  0.4527
  192MPD1     N 2981   1.793   0.190  13.138  0.1407 -0.4001 -0.3908
  192MPD1    H5 2982   1.805   0.211  13.040 -1.3757 -1.0978 -0.7379
  192MPD1    N1 2983   1.559   0.333  13.544  0.0455  0.3462 -0.9065
  192MPD1    H6 2984   1.467   0.351  13.583 -0.4208 -2.9830 -0.4398
  192MPD1    H7 2985   1.604   0.254  13.589 -0.5269 -0.3791 -1.5865
  193MPD1     C 2986   1.687   0.341  16.620 -0.4428 -0.6716  0.1083
  193MPD1    C1 2987   1.764   0.314  16.508  0.5854  0.2744  0.1076
  193MPD1    C2 2988   1.897   0.358  16.499  0.2818  0.6945 -0.3148
  193MPD1    C3 2989   1.948   0.441  16.598  0.7935  0.0842  0.4952
  193MPD1    C4 2990   1.863   0.465  16.706 -0.3151  0.7153 -0.2176
  193MPD1    C5 2991   1.740   0.419  16.716  0.1294  0.3661  0.2028
  193MPD1     H 2992   1.952   0.335  16.408  0.1094  0.0785 -0.2678
  193MPD1    H1 2993   1.903   0.541  16.772 -3.3876  2.2692 -0.1227
  193MPD1    H2 2994   1.587   0.298  16.628 -0.1674 -1.5158 -1.0055
  193MPD1    H3 2995   1.673   0.444  16.798  0.4812  0.5949  0.4201
  193MPD1     N 2996   2.078   0.497  16.590  0.4209 -0.0822 -0.2587
  193MPD1    H5 2997   2.109   0.559  16.663 -0.0999 -0.2101  0.0717
  193MPD1    N1 2998   1.725   0.221  16.410 -0.1944 -1.0157  0.3144
  193MPD1    H6 2999   1.783   0.243  16.329 -0.2077  0.7987  0.8102
  193MPD1    H7 3000   1.631   0.238  16.375  0.2284  1.0185  0.1908
  194MPD1     C 3001   0.988   2.490   0.032  0.1997 -0.0048 -0.1778
  194MPD1    C1 3002   0.990   2.517  17.640  0.4389  0.3139  0.5790
  194MPD1    C2 3003   1.029   2.415  17.557  0.4108 -0.4673  0.5505
  194MPD1    C3 3004   1.034   2.279  17.594 -0.4399 -0.6332  0.2160
  194MPD1    C4 3005   1.018   2.255  17.734  0.2403  0.6110 -0.1183
  194MPD1    C5 3006   0.997   2.359   0.075  0.5367 -0.5686  0.1985
  194MPD1     H 3007   1.043   2.433  17.451 -2.1569  1.7108  0.5975
  194MPD1    H1 3008   1.031   2.156   0.031  0.3011  0.1987 -1.0714
  194MPD1    H2 3009   0.974   2.566   0.109  1.4971 -0.0431  0.0954
  194MPD1    H3 3010   0.987   2.338   0.181 -0.7061  0.6172  0.3106
  194MPD1     N 3011   1.056   2.166  17.515  0.1080  0.6415 -0.0830
  194MPD1    H5 3012   1.043   2.072  17.553 -3.7563  1.3887  0.5195
  194MPD1    N1 3013   0.991   2.652  17.587  0.6764 -0.7341 -0.4086
  194MPD1    H6 3014   0.949   2.661  17.494  0.0028 -0.4535 -0.0741
  194MPD1    H7 3015   0.950   2.730  17.638 -1.4827 -0.9184 -1.8129
  195MPD1     C 3016   2.356   4.561  17.651  0.0096 -0.1412  0.5865
  195MPD1    C1 3017   2.260   4.505  17.738 -0.6803  0.6349 -0.1147
  195MPD1    C2 3018   2.274   4.371   0.023 -0.8476 -0.3483 -0.0827
  195MPD1    C3 3019   2.378   4.288  17.733 -0.0067 -0.5011  0.1841
  195MPD1    C4 3020   2.472   4.344  17.653  0.0229 -0.1775 -0.3863
  195MPD1    C5 3021   2.456   4.481  17.612  1.2995 -0.3692 -0.2970
  195MPD1     H 3022   2.191   4.329   0.079 -1.0648  0.5117  0.2424
  195MPD1    H1 3023   2.539   4.270  17.610 -0.4386 -2.1665  2.3293
  195MPD1    H2 3024   2.362   4.667  17.627  2.4273 -0.8936 -2.1640
  195MPD1    H3 3025   2.525   4.528  17.543  2.4988 -0.2146  1.0077
  195MPD1     N 3026   2.380   4.152   0.019 -0.0571 -0.1174 -0.3068
  195MPD1    H5 3027   2.456   4.095  17.728  1.0471 -0.1450  1.9877
  195MPD1    N1 3028   2.149   4.584   0.039  0.2999 -0.0188  0.2890
  195MPD1    H6 3029   2.103   4.545   0.121 -3.0131  1.7130 -0.7077
  195MPD1    H7 3030   2.177   4.679   0.066 -1.2702 -0.0692  2.1082
  196MPD1     C 3031   1.517   3.093   0.521 -0.2596  0.3348  0.4835
  196MPD1    C1 3032   1.592   3.196   0.473 -0.4875  0.4383 -0.5668
  196MPD1    C2 3033   1.599   3.314   0.542  0.0358  0.7178 -0.0172
  196MPD1    C3 3034   1.533   3.320   0.667  0.0045 -0.6870 -0.3874
  196MPD1    C4 3035   1.464   3.208   0.717 -0.3752 -0.0362  0.3334
  196MPD1    C5 3036   1.453   3.100   0.635  0.4317 -0.5352 -0.0628
  196MPD1     H 3037   1.656   3.397   0.501 -0.3451  1.3335  0.7060
  196MPD1    H1 3038   1.404   3.216   0.807  0.8492 -1.0714  1.2293
  196MPD1    H2 3039   1.503   3.002   0.463 -0.1162  1.1936 -0.8939
  196MPD1    H3 3040   1.388   3.017   0.659  1.8895 -1.3838  0.9653
  196MPD1     N 3041   1.525   3.437   0.743 -0.0845  0.0100  0.5615
  196MPD1    H5 3042   1.459   3.428   0.819  0.8864 -0.3698  1.3581
  196MPD1    N1 3043   1.627   3.195   0.335  0.3332 -0.3251  0.3763
  196MPD1    H6 3044   1.646   3.099   0.307  3.3538  0.4713 -0.2545
  196MPD1    H7 3045   1.709   3.252   0.316 -0.5478  0.9561  0.4110
  197MPD1     C 3046   1.102   0.406  17.420 -0.2404 -0.1028 -0.7202
  197MPD1    C1 3047   1.209   0.476  17.463  0.2028  0.0135  0.3119
  197MPD1    C2 3048   1.249   0.584  17.383  0.3538  0.4723 -1.4031
  197MPD1    C3 3049   1.180   0.603  17.263  0.5400  0.1721 -0.4589
  197MPD1    C4 3050   1.077   0.528  17.221 -0.2729 -0.2303  0.1883
  197MPD1    C5 3051   1.034   0.428  17.301 -0.5654  0.2039 -0.0540
  197MPD1     H 3052   1.331   0.646  17.420 -0.6669  1.1793 -0.3323
  197MPD1    H1 3053   1.030   0.549  17.125 -1.4135 -1.1791  0.5370
  197MPD1    H2 3054   1.070   0.321  17.479 -0.3390 -0.9666 -2.0171
  197MPD1    H3 3055   0.948   0.371  17.267  1.1831 -0.7335 -2.8679
  197MPD1     N 3056   1.223   0.708  17.178  0.0857  0.0229  0.1434
  197MPD1    H5 3057   1.184   0.712  17.084  1.6699  1.5339 -0.4424
  197MPD1    N1 3058   1.258   0.450  17.596 -0.3794 -0.9285  0.3647
  197MPD1    H6 3059   1.233   0.360  17.637 -0.6721 -0.3790  1.3912
  197MPD1    H7 3060   1.359   0.462  17.602 -0.5547  1.1768 -1.2580
  198MPD1     C 3061   2.636   4.084  16.183 -0.2475  0.9652 -0.4491
  198MPD1    C1 3062   2.745   4.030  16.247  0.3785 -0.0259 -0.1576
  198MPD1    C2 3063   2.863   4.071  16.194 -0.1032  0.5570  0.0916
  198MPD1    C3 3064   2.874   4.132  16.068 -0.5680  0.1266  0.1543
  198MPD1    C4 3065   2.759   4.177  16.001  0.4166 -0.3934 -0.9371
  198MPD1    C5 3066   2.638   4.158  16.067  0.4424 -0.1010 -0.3978
  198MPD1     H 3067   2.962   4.053  16.233 -0.1159 -1.2481 -0.7224
  198MPD1    H1 3068   2.751   4.219  15.902 -1.3832 -1.1315 -1.1020
  198MPD1    H2 3069   2.537   4.059  16.219  0.7731 -0.0796  1.6261
  198MPD1    H3 3070   2.541   4.183  16.026  0.2450  1.1436  0.8243
  198MPD1     N 3071   3.003   4.130  16.014  0.3178  0.2675 -0.7170
  198MPD1    H5 3072   3.078   4.093  16.071  0.3748  1.6859  0.1445
  198MPD1    N1 3073   2.728   3.973  16.373 -0.3148  0.4722  0.5031
  198MPD1    H6 3074   2.640   3.929  16.398 -1.2400  3.1555  2.0111
  198MPD1    H7 3075   2.808   3.914  16.398  0.0684  0.7813  0.0075
  199MPD1     C 3076   4.622   1.044  10.098 -0.8023  0.4749 -0.5393
  199MPD1    C1 3077   4.641   1.157  10.020 -0.3392 -0.1430  0.4116
  199MPD1    C2 3078   4.558   1.183   9.914 -0.3985 -0.5669 -0.2908
  199MPD1    C3 3079   4.452   1.097   9.887 -0.0244 -0.1356  0.1240
  199MPD1    C4 3080   4.421   0.999   9.970 -0.5429 -0.1228  0.2806
  199MPD1    C5 3081   4.515   0.969  10.075 -0.4698  0.6177  0.6946
  199MPD1     H 3082   4.579   1.272   9.856  3.2072 -1.0489  0.2320
  199MPD1    H1 3083   4.329   0.941   9.970  0.8921 -2.4131  0.7483
  199MPD1    H2 3084   4.678   1.006  10.183 -0.8081 -1.1501 -1.2803
  199MPD1    H3 3085   4.495   0.889  10.145  0.2573 -0.0032  0.1901
  199MPD1     N 3086   4.367   1.118   9.774 -0.7698  0.5759 -0.4228
  199MPD1    H5 3087   4.304   1.040   9.755 -0.3412 -0.5447  2.7652
  199MPD1    N1 3088   0.004   1.249  10.036 -0.9525  0.0007  0.8285
  199MPD1    H6 3089   0.046   1.248  10.129 -1.0443 -2.1542  0.8385
  199MPD1    H7 3090   4.721   1.340   9.996 -0.1108  1.3880  3.5476
  200MPD1     C 3091   4.545   4.555  13.626  0.4780 -0.0618  0.2582
  200MPD1    C1 3092   4.562   4.594  13.756  0.5972 -0.4435  0.0626
  200MPD1    C2 3093   4.501   4.706  13.804  0.5093 -0.0835  0.2796
  200MPD1    C3 3094   4.423   0.042  13.715  0.5000  0.4629 -0.4505
  200MPD1    C4 3095   4.400   4.731  13.586 -0.9792  0.1996 -0.3814
  200MPD1    C5 3096   4.461   4.618  13.542 -0.0616 -0.9404  0.4045
  200MPD1     H 3097   4.494   4.730  13.910  1.6672  3.9926 -0.5483
  200MPD1    H1 3098   4.325   0.035  13.519 -1.2568 -0.2903 -0.3752
  200MPD1    H2 3099   4.601   4.470  13.590  2.4869  1.3146  0.1851
  200MPD1    H3 3100   4.440   4.581  13.442 -1.1710  1.2017 -0.1717
  200MPD1     N 3101   4.360   0.154  13.768 -0.2571  0.0778 -0.5050
  200MPD1    H5 3102   4.373   0.174  13.867  0.0663 -1.0696 -0.3221
  200MPD1    N1 3103   4.668   4.537  13.824 -0.5537  0.4476 -0.1026
  200MPD1    H6 3104   4.672   4.438  13.801  1.0063  0.4691  0.0878
  200MPD1    H7 3105   4.661   4.548  13.925 -1.2716  0.3692 -0.1471
  201MPD1     C 3106   1.346   4.446  13.653  0.2236 -0.3470 -0.1232
  201MPD1    C1 3107   1.406   4.349  13.735  0.8807  0.1517  0.7264
  201MPD1    C2 3108   1.493   4.266  13.667 -0.3741 -0.1413  0.5376
  201MPD1    C3 3109   1.506   4.265  13.529  0.3043  0.4929  0.1249
  201MPD1    C4 3110   1.428   4.345  13.451 -0.1343 -0.0508  0.0349
  201MPD1    C5 3111   1.353   4.436  13.517 -1.1136 -0.2762  0.0248
  201MPD1     H 3112   1.540   4.196  13.734  0.8720  2.5699  2.5264
  201MPD1    H1 3113   1.436   4.348  13.343  0.2180  1.4392  0.1021
  201MPD1    H2 3114   1.299   4.534  13.695 -0.1551 -1.5872  2.1166
  201MPD1    H3 3115   1.304   4.505  13.449  1.3212  0.7226 -0.7255
  201MPD1     N 3116   1.602   4.172  13.484 -0.6791 -0.6324  0.2524
  201MPD1    H5 3117   1.639   4.103  13.549 -0.8844  0.2667  1.3034
  201MPD1    N1 3118   1.423   4.372  13.873 -0.3619  0.1704 -0.0237
  201MPD1    H6 3119   1.342   4.408  13.923 -1.9079  0.3753 -2.6303
  201MPD1    H7 3120   1.448   4.285  13.919  1.9321  2.0586  2.2687
  202MPD1     C 3121   0.829   3.289   9.343 -0.0008 -0.5414  0.0472
  202MPD1    C1 3122   0.800   3.402   9.267  0.4408 -0.0087 -0.8160
  202MPD1    C2 3123   0.808   3.521   9.339 -0.1957 -0.9657  0.3952
  202MPD1    C3 3124   0.870   3.537   9.462  0.2273  0.2584  0.2794
  202MPD1    C4 3125   0.919   3.422   9.526  0.2660  0.3276  0.4727
  202MPD1    C5 3126   0.901   3.300   9.459 -0.1008  0.2622 -0.0084
  202MPD1     H 3127   0.750   3.607   9.309  2.2558 -0.2183 -2.2256
  202MPD1    H1 3128   0.964   3.421   9.625  0.3462  1.2791  0.4492
  202MPD1    H2 3129   0.799   3.188   9.319 -1.7281 -0.0872  0.3157
  202MPD1    H3 3130   0.922   3.208   9.513 -1.6566 -0.4731 -0.6434
  202MPD1     N 3131   0.875   3.652   9.537  0.5238  0.1176 -0.3376
  202MPD1    H5 3132   0.926   3.635   9.622  0.4512  0.0408 -0.3096
  202MPD1    N1 3133   0.706   3.408   9.161 -0.0040  0.0776  0.3887
  202MPD1    H6 3134   0.739   3.483   9.101 -1.2934  1.5811  1.5533
  202MPD1    H7 3135   0.691   3.322   9.109  2.4298 -0.2169  0.1871
  203MPD1     C 3136   4.091   4.721  12.656  0.7034  0.7760 -0.7103
  203MPD1    C1 3137   4.117   4.603  12.590  0.4063 -0.8248 -0.1576
  203MPD1    C2 3138   4.242   4.553  12.605  0.5711 -0.0827 -0.4935
  203MPD1    C3 3139   4.332   4.601  12.697 -0.1072  0.1966  0.1244
  203MPD1    C4 3140   4.298   4.716  12.760  0.0400  0.3265 -0.1550
  203MPD1    C5 3141   4.180   0.033  12.740  0.2720 -0.2403  0.5831
  203MPD1     H 3142   4.270   4.465  12.547  0.2288 -0.4351 -0.1198
  203MPD1    H1 3143   4.369   0.028  12.825 -0.9973 -0.4019  1.5247
  203MPD1    H2 3144   3.999   0.041  12.649 -0.6628 -1.4036 -0.8393
  203MPD1    H3 3145   4.152   0.128  12.783 -0.0147 -1.1017  2.3264
  203MPD1     N 3146   4.456   4.539  12.703  0.1405  0.6556 -0.3953
  203MPD1    H5 3147   4.469   4.462  12.638  1.6059 -0.6490  1.4506
  203MPD1    N1 3148   4.035   4.533  12.503  0.0520  0.9416 -0.1849
  203MPD1    H6 3149   4.054   4.433  12.509 -1.1984  0.7558  0.8383
  203MPD1    H7 3150   3.937   4.537  12.532  0.5724  1.1355  1.5519
  204MPD1     C 3151   0.510   1.419  17.560 -0.0369  0.2851  0.2383
  204MPD1    C1 3152   0.512   1.395  17.426 -0.4505  0.0218 -0.4060
  204MPD1    C2 3153   0.434   1.290  17.384 -1.2114 -0.0600  0.1280
  204MPD1    C3 3154   0.342   1.227  17.469  1.1828  0.8030  0.8008
  204MPD1    C4 3155   0.340   1.265  17.600 -0.1761  0.1902  0.1666
  204MPD1    C5 3156   0.424   1.362  17.648  0.6335 -0.4457  0.5749
  204MPD1     H 3157   0.448   1.266  17.279  1.3867 -2.0431  0.9545
  204MPD1    H1 3158   0.262   1.230  17.667  1.1426 -0.5340  1.3340
  204MPD1    H2 3159   0.568   1.497  17.608  0.3122 -0.0006  0.2837
  204MPD1    H3 3160   0.423   1.387   0.007 -0.0909 -0.0713  0.4755
  204MPD1     N 3161   0.263   1.126  17.418 -0.5462  0.1602 -0.0370
  204MPD1    H5 3162   0.271   1.101  17.320 -0.0589  1.7774 -0.4133
  204MPD1    N1 3163   0.598   1.459  17.342 -0.0454  0.5916 -0.1544
  204MPD1    H6 3164   0.628   1.552  17.371  0.1035  0.4166  0.2422
  204MPD1    H7 3165   0.577   1.450  17.242  0.2502  2.6123 -0.4087
  205MPD1     C 3166   4.733   4.477  16.300  0.5462 -0.6492 -0.6158
  205MPD1    C1 3167   0.001   4.605  16.348 -0.1030 -0.0636 -0.3556
  205MPD1    C2 3168   0.038   4.619  16.481  0.0911  0.2471 -0.3731
  205MPD1    C3 3169   0.083   4.513  16.560 -0.8062 -0.3047 -0.7058
  205MPD1    C4 3170   0.079   4.383  16.504 -0.1925 -0.2659  0.6415
  205MPD1    C5 3171   0.041   4.370  16.372  0.6643  0.6649  0.1248
  205MPD1     H 3172   0.037   4.720  16.521  0.0517  0.4816 -0.9601
  205MPD1    H1 3173   0.115   4.300  16.562  1.3313 -0.4813 -0.5910
  205MPD1    H2 3174   4.715   4.452  16.197 -0.1010  2.2660 -1.2069
  205MPD1    H3 3175   0.042   4.275  16.321  1.7370  0.7761 -0.0532
  205MPD1     N 3176   0.120   4.523  16.696 -0.4417 -0.0764 -0.6611
  205MPD1    H5 3177   0.154   4.440  16.743  0.7320  0.9882  0.3768
  205MPD1    N1 3178   4.689   4.711  16.269  0.2757  0.4910 -0.3082
  205MPD1    H6 3179   4.696   4.696  16.168  0.3799 -1.4628 -0.0166
  205MPD1    H7 3180   4.712   0.068  16.300  0.6987  0.5307 -0.7514
  206MPD1     C 3181   0.334   2.436  16.763  0.6171  0.4530 -0.7396
  206MPD1    C1 3182   0.441   2.416  16.682  0.6879  0.2643 -0.2057
  206MPD1    C2 3183   0.434   2.455  16.547  0.4309  0.2009  0.0744
  206MPD1    C3 3184   0.312   2.490  16.489 -0.0832 -0.8215 -0.2551
  206MPD1    C4 3185   0.206   2.521  16.575 -0.0193  0.3575 -0.4745
  206MPD1    C5 3186   0.224   2.488  16.702  0.0723 -0.2532 -0.3419
  206MPD1     H 3187   0.524   2.455  16.487 -0.9622 -0.5738 -2.0270
  206MPD1    H1 3188   0.119   2.574  16.538  0.5706  1.5385 -0.1788
  206MPD1    H2 3189   0.332   2.428  16.871  0.9208  1.0387 -0.6850
  206MPD1    H3 3190   0.156   2.536  16.772  0.2096 -0.1515 -0.2785
  206MPD1     N 3191   0.288   2.498  16.350  0.4247  0.1897  0.2113
  206MPD1    H5 3192   0.202   2.541  16.316  1.3433  1.8902  0.0279
  206MPD1    N1 3193   0.566   2.396  16.744  0.6646  0.2627  0.1140
  206MPD1    H6 3194   0.639   2.346  16.694 -1.0090 -0.6414 -1.4518
  206MPD1    H7 3195   0.550   2.340  16.828 -1.5382  3.0348  1.5324
  207MPD1     C 3196   2.139   4.278  10.013 -0.0182 -0.2401  0.4089
  207MPD1    C1 3197   2.072   4.376   9.948  0.5943 -0.1449  0.5586
  207MPD1    C2 3198   2.100   4.510   9.982  0.4128 -0.2175 -0.3533
  207MPD1    C3 3199   2.206   4.540  10.058 -0.1097 -0.1705 -0.1769
  207MPD1    C4 3200   2.288   4.437  10.108 -0.2480  0.2778  0.0043
  207MPD1    C5 3201   2.254   4.307  10.080 -0.5469 -0.0223  0.7825
  207MPD1     H 3202   2.036   4.585   9.938 -1.0356 -1.2817 -0.0588
  207MPD1    H1 3203   2.390   4.457  10.139 -0.5648  2.2037 -0.2026
  207MPD1    H2 3204   2.116   4.173  10.009  1.3547 -0.6202  2.3790
  207MPD1    H3 3205   2.316   4.225  10.115 -1.3826 -1.6553 -1.5847
  207MPD1     N 3206   2.247   4.675  10.068 -0.2825  0.1906 -0.4543
  207MPD1    H5 3207   2.336   4.693  10.113  0.5265 -1.3365 -1.4518
  207MPD1    N1 3208   1.961   4.351   9.859 -0.5313  0.1150  0.0283
  207MPD1    H6 3209   1.935   4.425   9.794  1.1885  0.8949  0.2187
  207MPD1    H7 3210   1.989   4.268   9.807  1.0963  1.5027 -1.3428
  208MPD1     C 3211   1.373   4.067  17.520  0.3949  0.0190 -0.6058
  208MPD1    C1 3212   1.355   3.983  17.620 -0.5272 -0.8663  0.1960
  208MPD1    C2 3213   1.230   3.996  17.678 -0.5254  0.0990 -0.2110
  208MPD1    C3 3214   1.121   4.046  17.621  0.8825 -0.1226  0.0600
  208MPD1    C4 3215   1.141   4.108  17.494 -0.0944  0.6168 -0.2696
  208MPD1    C5 3216   1.271   4.128  17.457  0.4195 -0.2485 -0.7503
  208MPD1     H 3217   1.221   3.950   0.030 -0.5684 -3.9897 -2.1026
  208MPD1    H1 3218   1.062   4.155  17.436 -0.8899 -2.4750 -1.6830
  208MPD1    H2 3219   1.474   4.085  17.487  1.8205 -1.5953  2.8882
  208MPD1    H3 3220   1.292   4.183  17.367  0.4508  2.3039  0.8070
  208MPD1     N 3221   0.991   4.030  17.675  0.0660 -0.8704  0.7100
  208MPD1    H5 3222   0.985   3.972   0.012  1.1572 -1.6098  0.2823
  208MPD1    N1 3223   1.459   3.914  17.685 -0.2008 -0.3018  0.4254
  208MPD1    H6 3224   1.424   3.832  17.734  1.9358 -0.8275  1.0779
  208MPD1    H7 3225   1.538   3.891  17.624  0.7042  1.3266  0.9743
  209MPD1     C 3226   2.457   4.062  10.958 -0.1012 -0.3409 -1.0610
  209MPD1    C1 3227   2.462   4.148  10.853 -0.7435  0.0438  0.1222
  209MPD1    C2 3228   2.521   4.272  10.868 -0.4505 -0.8159 -0.9348
  209MPD1    C3 3229   2.541   4.332  10.991  1.0445  0.3369 -0.0389
  209MPD1    C4 3230   2.497   4.255  11.100  0.3697  0.4359  0.0304
  209MPD1    C5 3231   2.471   4.118  11.081 -0.1134  0.2207 -0.1608
  209MPD1     H 3232   2.524   4.340  10.785 -2.3772 -0.3844 -0.6334
  209MPD1    H1 3233   2.517   4.293  11.200 -1.9165  1.3296  0.1410
  209MPD1    H2 3234   2.429   3.958  10.944  0.1170 -0.3882 -1.1444
  209MPD1    H3 3235   2.452   4.051  11.164 -1.2960  0.5613 -0.1616
  209MPD1     N 3236   2.587   4.466  10.995  0.8851 -0.3727 -0.1349
  209MPD1    H5 3237   2.602   4.508  10.904 -0.4528  1.8971  0.6885
  209MPD1    N1 3238   2.439   4.103  10.732  0.4068  0.4627  0.6138
  209MPD1    H6 3239   2.438   4.173  10.658  0.4124  0.3127  0.4731
  209MPD1    H7 3240   2.356   4.044  10.729  1.7525 -1.3709 -0.2025
  210MPD1     C 3241   2.806   0.638  11.594 -0.4681  0.6508  0.8385
  210MPD1    C1 3242   2.765   0.515  11.630  0.2924 -0.3016  0.5131
  210MPD1    C2 3243   2.735   0.419  11.533  0.1129 -0.2212 -0.0301
  210MPD1    C3 3244   2.753   0.442  11.398  0.0415 -0.1145  0.7329
  210MPD1    C4 3245   2.803   0.567  11.361  0.4230 -0.2228 -0.3991
  210MPD1    C5 3246   2.829   0.659  11.459  0.0972 -0.1253  0.3877
  210MPD1     H 3247   2.713   0.316  11.556  0.8425 -0.3014  0.3117
  210MPD1    H1 3248   2.836   0.584  11.259  2.0075 -2.1823 -0.2261
  210MPD1    H2 3249   2.830   0.716  11.666  2.2761 -0.3609  1.0353
  210MPD1    H3 3250   2.866   0.759  11.441 -1.7063  0.7215  1.3704
  210MPD1     N 3251   2.734   0.347  11.296  0.5379 -0.0706 -0.2677
  210MPD1    H5 3252   2.741   0.384  11.201  1.1829  1.8318  0.5147
  210MPD1    N1 3253   2.723   0.498  11.768  0.0942  0.4123 -0.6880
  210MPD1    H6 3254   2.712   0.402  11.800 -2.5713  0.5721 -1.1216
  210MPD1    H7 3255   2.765   0.557  11.840 -2.6170  1.0669  0.3543
  211MPD1     C 3256   0.284   4.211  16.031 -0.9588 -0.1822 -0.8377
  211MPD1    C1 3257   0.169   4.277  15.993 -0.4592 -0.0139  0.3938
  211MPD1    C2 3258   0.168   4.412  15.983  0.4065  1.1317  0.5447
  211MPD1    C3 3259   0.266   4.493  16.041  0.7422 -0.1289  0.6018
  211MPD1    C4 3260   0.377   4.430  16.081 -1.0049 -0.1313  0.0142
  211MPD1    C5 3261   0.388   4.292  16.074  0.4911  0.2095 -0.6344
  211MPD1     H 3262   0.085   4.454  15.927 -1.0833 -2.7103 -0.0936
  211MPD1    H1 3263   0.471   4.479  16.104 -1.1540 -0.6408  1.6723
  211MPD1    H2 3264   0.300   4.104  16.034  1.0419  0.1880  1.7260
  211MPD1    H3 3265   0.475   4.243  16.116 -0.2633 -0.5353  0.0847
  211MPD1     N 3266   0.243   4.631  16.050  0.5733 -0.2605 -0.3312
  211MPD1    H5 3267   0.151   4.654  16.014  0.7277  0.8526 -0.0258
  211MPD1    N1 3268   0.065   4.195  15.948  0.0367 -0.1285  0.2151
  211MPD1    H6 3269   0.064   4.113  16.008 -3.6426  0.0778  0.4373
  211MPD1    H7 3270   4.710   4.238  15.956  0.6449  1.4688 -1.5665
  212MPD1     C 3271   0.117   2.687   0.052  0.7566 -0.8667 -0.0563
  212MPD1    C1 3272   4.729   2.737   0.061  0.5524  0.0003 -0.2802
  212MPD1    C2 3273   4.644   2.724  17.698  0.2152  0.3870  0.9512
  212MPD1    C3 3274   4.695   2.661  17.581  0.2132  0.5325 -0.3249
  212MPD1    C4 3275   0.080   2.605  17.575  0.1574 -0.6649 -0.1678
  212MPD1    C5 3276   0.164   2.629  17.687 -0.4285  0.3998 -0.4038
  212MPD1     H 3277   4.544   2.765  17.706  0.5822  1.5945 -0.7019
  212MPD1    H1 3278   0.118   2.550  17.489 -1.3334 -0.0150 -1.2306
  212MPD1    H2 3279   0.184   2.700   0.136 -2.1998  1.8698  1.8987
  212MPD1    H3 3280   0.269   2.603  17.685 -1.1233 -2.4633  0.5510
  212MPD1     N 3281   4.618   2.638  17.464 -0.4557 -0.8227  0.0318
  212MPD1    H5 3282   4.662   2.591  17.386  1.3547  0.7540  0.0970
  212MPD1    N1 3283   4.672   2.788   0.179 -0.3258 -0.7979  0.1997
  212MPD1    H6 3284   0.000   2.834   0.242  0.2312 -0.7195 -0.4262
  212MPD1    H7 3285   4.604   2.860   0.156  0.8886 -0.2187 -1.5890
  213MPD1     C 3286   1.646   3.626  15.855 -0.0598  0.9208 -0.0299
  213MPD1    C1 3287   1.599   3.736  15.783  0.5077  0.2736  0.2226
  213MPD1    C2 3288   1.634   3.738  15.650 -0.3824 -0.3374  0.4365
  213MPD1    C3 3289   1.749   3.676  15.600  0.4783  0.1378 -0.4651
  213MPD1    C4 3290   1.809   3.584  15.681  0.9082  0.3160 -0.1688
  213MPD1    C5 3291   1.752   3.560  15.807 -0.0973 -0.5549  0.1205
  213MPD1     H 3292   1.577   3.791  15.574  1.4245 -1.3138 -1.6301
  213MPD1    H1 3293   1.891   3.521  15.648  2.1355  0.1274  3.2169
  213MPD1    H2 3294   1.604   3.623  15.955 -0.8845 -1.1254 -0.4508
  213MPD1    H3 3295   1.801   3.484  15.868 -2.3066 -0.9069  1.4712
  213MPD1     N 3296   1.798   3.709  15.473  0.8444  0.2073 -0.6051
  213MPD1    H5 3297   1.747   3.774  15.413  2.6814  0.5272 -1.8063
  213MPD1    N1 3298   1.469   3.787  15.813 -0.5479 -0.3373 -0.5262
  213MPD1    H6 3299   1.481   3.819  15.909 -0.9307 -1.1019 -0.2216
  213MPD1    H7 3300   1.453   3.870  15.757 -0.3465 -0.1180 -0.2606
  214MPD1     C 3301   1.529   4.230  14.700 -0.4123  0.6889  0.3038
  214MPD1    C1 3302   1.494   4.098  14.728  0.2174  0.1170  0.2914
  214MPD1    C2 3303   1.572   4.037  14.828  0.0328  0.7609 -0.4637
  214MPD1    C3 3304   1.691   4.088  14.886  0.1765  0.6280 -0.4026
  214MPD1    C4 3305   1.728   4.204  14.831 -0.4097 -0.7883  1.0320
  214MPD1    C5 3306   1.649   4.282  14.748 -0.1926  0.1522  0.2155
  214MPD1     H 3307   1.538   3.947  14.879  3.0995 -0.2669 -0.2691
  214MPD1    H1 3308   1.821   4.253  14.856 -0.1486 -1.4386  1.3212
  214MPD1    H2 3309   1.461   4.303  14.657 -1.4004 -0.2467  0.2953
  214MPD1    H3 3310   1.691   4.380  14.733  0.8069 -0.3993 -0.6353
  214MPD1     N 3311   1.770   4.029  14.987  0.1547  0.1247 -0.2408
  214MPD1    H5 3312   1.851   4.084  15.011 -0.3709 -0.5984  3.1559
  214MPD1    N1 3313   1.375   4.043  14.684  0.3990  0.1124 -0.1101
  214MPD1    H6 3314   1.364   4.061  14.584  1.9139  0.2943 -0.2435
  214MPD1    H7 3315   1.373   3.942  14.697  0.4017  0.3577  1.6969
  215MPD1     C 3316   2.120   3.991  10.281  0.3010 -0.3477  0.3665
  215MPD1    C1 3317   2.022   4.088  10.285  0.5186  0.4250  0.1030
  215MPD1    C2 3318   2.050   4.215  10.345  0.2617  0.2152  0.1516
  215MPD1    C3 3319   2.175   4.240  10.407 -0.1270 -0.0306 -0.1599
  215MPD1    C4 3320   2.265   4.137  10.392 -0.2279  0.9383  0.2358
  215MPD1    C5 3321   2.236   4.019  10.336  0.2305 -0.5128  0.7703
  215MPD1     H 3322   1.976   4.294  10.348 -0.1621 -0.2753  2.8027
  215MPD1    H1 3323   2.369   4.149  10.421 -0.4714  0.8713  1.1454
  215MPD1    H2 3324   2.107   3.890  10.243  0.9444 -0.7359  1.1844
  215MPD1    H3 3325   2.316   3.945  10.333 -0.2415 -0.8714 -3.4504
  215MPD1     N 3326   2.197   4.365  10.458  0.0380  0.1747  0.2474
  215MPD1    H5 3327   2.121   4.429  10.440  0.3242  0.1429 -1.0668
  215MPD1    N1 3328   1.894   4.064  10.233  0.4677  0.1719 -0.4497
  215MPD1    H6 3329   1.890   3.976  10.181  3.5435 -1.1843  1.5934
  215MPD1    H7 3330   1.856   4.134  10.170  0.5591  2.0032  1.5195
  216MPD1     C 3331   0.530   3.260   0.134 -0.2561 -0.4818  1.0917
  216MPD1    C1 3332   0.635   3.219   0.062  0.4973 -0.0377 -0.2155
  216MPD1    C2 3333   0.688   3.094   0.082 -0.0456 -0.4840  0.0080
  216MPD1    C3 3334   0.636   3.009   0.170  0.4547  0.8643  0.3245
  216MPD1    C4 3335   0.520   3.043   0.248  0.2172  0.0297  0.3423
  216MPD1    C5 3336   0.464   3.167   0.219 -0.0656 -0.5940  0.7786
  216MPD1     H 3337   0.778   3.065   0.029 -0.6298  0.2885 -1.3938
  216MPD1    H1 3338   0.472   2.974   0.317  0.6951  0.1488  0.8017
  216MPD1    H2 3339   0.482   3.357   0.124 -1.7340 -1.5034 -1.7989
  216MPD1    H3 3340   0.370   3.203   0.260  0.6114  0.6040  1.2950
  216MPD1     N 3341   0.694   2.880   0.168  0.7654  0.0130 -0.0343
  216MPD1    H5 3342   0.766   2.856   0.100 -1.2147  1.9816 -2.8226
  216MPD1    N1 3343   0.707   3.316  17.743  0.1926  0.0305  0.6157
  216MPD1    H6 3344   0.766   3.273  17.672 -0.2264  1.8575 -0.8016
  216MPD1    H7 3345   0.639   3.379  17.702 -0.4029 -1.5142 -0.7615
  217MPD1     C 3346   4.292   3.837   8.327 -0.0520  0.4682  0.0903
  217MPD1    C1 3347   4.425   3.807   8.342  0.6132  0.2847  0.9713
  217MPD1    C2 3348   4.467   3.759   8.459  0.1789 -0.1289 -0.2326
  217MPD1    C3 3349   4.376   3.751   8.569 -0.2183  0.2002 -0.0890
  217MPD1    C4 3350   4.248   3.802   8.553  0.1656  0.3420  0.4364
  217MPD1    C5 3351   4.205   3.848   8.427 -0.0450  0.4786 -0.6306
  217MPD1     H 3352   4.570   3.732   8.474 -0.3540 -2.4948 -0.9195
  217MPD1    H1 3353   4.173   3.792   8.631 -2.1750 -3.2354 -2.2794
  217MPD1    H2 3354   4.257   3.878   8.233  0.2786  1.2194  0.2916
  217MPD1    H3 3355   4.105   3.885   8.406 -0.1544  0.5863  0.0966
  217MPD1     N 3356   4.408   3.700   8.697  0.1017  0.2796  0.2360
  217MPD1    H5 3357   4.333   3.702   8.766 -0.6036 -2.0248 -0.4609
  217MPD1    N1 3358   4.509   3.799   8.229 -0.0405  0.0136 -0.0965
  217MPD1    H6 3359   4.605   3.821   8.257 -0.3618  1.5345 -0.1882
  217MPD1    H7 3360   4.485   3.881   8.174  0.8392 -1.0815 -2.0778
  218MPD1     C 3361   1.953   3.667  11.773 -0.1697  0.8914  0.4472
  218MPD1    C1 3362   1.959   3.806  11.764 -0.3165  0.0336 -0.3887
  218MPD1    C2 3363   2.004   3.881  11.877  0.4906  0.3725 -0.4315
  218MPD1    C3 3364   2.054   3.812  11.990  0.4300 -0.4454 -0.1501
  218MPD1    C4 3365   2.050   3.676  11.988 -0.0431 -0.0085  0.1129
  218MPD1    C5 3366   1.998   3.601  11.883  0.4628 -0.9981 -0.3422
  218MPD1     H 3367   1.990   3.989  11.874 -0.5585  0.2087 -1.4923
  218MPD1    H1 3368   2.072   3.612  12.073  1.3896 -1.1932 -1.1618
  218MPD1    H2 3369   1.907   3.615  11.690  1.3178  1.4342 -0.7166
  218MPD1    H3 3370   1.990   3.493  11.881 -2.2394 -0.8226  2.0572
  218MPD1     N 3371   2.104   3.890  12.099 -0.2575 -0.1710 -0.2971
  218MPD1    H5 3372   2.095   3.991  12.092  0.8416  0.1074  2.3479
  218MPD1    N1 3373   1.903   3.871  11.657  0.7977 -0.1312  0.5161
  218MPD1    H6 3374   1.907   3.809  11.577  2.6102  2.5817 -1.5054
  218MPD1    H7 3375   1.962   3.949  11.629  0.0913  0.3592  0.3793
  219MPD1     C 3376   1.498   4.448  12.246  0.5755 -0.1368  0.2524
  219MPD1    C1 3377   1.589   4.475  12.341  0.8630  0.1215 -0.8495
  219MPD1    C2 3378   1.693   4.388  12.382 -0.5235  0.3217 -0.1618
  219MPD1    C3 3379   1.693   4.254  12.330 -0.2896 -0.3612  0.8886
  219MPD1    C4 3380   1.596   4.228  12.238 -0.7354 -0.2416 -0.3630
  219MPD1    C5 3381   1.507   4.323  12.196 -0.6053 -0.0935 -0.5554
  219MPD1     H 3382   1.768   4.417  12.454 -0.7712 -0.5261  0.4430
  219MPD1    H1 3383   1.572   4.128  12.202  0.2714 -0.5366 -0.2114
  219MPD1    H2 3384   1.420   4.507  12.199  0.7992  0.0045  0.0587
  219MPD1    H3 3385   1.428   4.297  12.126  0.1187 -1.2785 -0.9315
  219MPD1     N 3386   1.790   4.158  12.363  0.4616 -0.0771 -0.2531
  219MPD1    H5 3387   1.788   4.076  12.303 -0.6288 -0.2247 -0.0294
  219MPD1    N1 3388   1.596   4.609  12.373  0.3418 -0.1237  0.0212
  219MPD1    H6 3389   1.511   4.665  12.379 -1.6127 -2.9598 -1.2026
  219MPD1    H7 3390   1.643   4.628  12.462  0.9613  1.5587 -0.6537
  220MPD1     C 3391   1.824   4.192   9.282 -0.4455 -0.3815 -0.6544
  220MPD1    C1 3392   1.690   4.229   9.280  0.0983 -0.5743 -0.5738
  220MPD1    C2 3393   1.653   4.335   9.364  0.3665  0.6619  0.3885
  220MPD1    C3 3394   1.743   4.395   9.452 -0.5600 -0.3354 -0.6972
  220MPD1    C4 3395   1.876   4.350   9.463 -0.1945  0.4659 -0.4442
  220MPD1    C5 3396   1.906   4.253   9.376 -0.4778  0.3189  0.2537
  220MPD1     H 3397   1.550   4.368   9.358  0.6782  1.6016  0.2640
  220MPD1    H1 3398   1.958   4.391   9.521 -1.2052  2.6563 -0.5822
  220MPD1    H2 3399   1.862   4.126   9.205  0.0275 -0.7377 -0.1164
  220MPD1    H3 3400   2.004   4.208   9.382 -0.3749  0.6960  1.4584
  220MPD1     N 3401   1.697   4.509   9.522  0.5404 -0.3403  0.1849
  220MPD1    H5 3402   1.600   4.529   9.501 -0.0871 -4.7804 -1.2768
  220MPD1    N1 3403   1.608   4.187   9.171  0.3540  0.1264 -0.0620
  220MPD1    H6 3404   1.511   4.197   9.203  0.0504 -0.1637 -0.8995
  220MPD1    H7 3405   1.627   4.091   9.144 -0.0688  0.7193 -2.4779
  221MPD1     C 3406   4.379   4.595  15.648 -0.1088  0.8355 -0.3904
  221MPD1    C1 3407   4.387   4.479  15.580 -0.1753  0.1489  0.2627
  221MPD1    C2 3408   4.506   4.412  15.568  0.2047  0.3672  0.3230
  221MPD1    C3 3409   4.618   4.474  15.622 -0.1062  0.0686 -0.0891
  221MPD1    C4 3410   4.604   4.596  15.697 -0.1447  0.0600  0.3624
  221MPD1    C5 3411   4.485   4.655  15.713 -0.6841  0.5842 -0.1725
  221MPD1     H 3412   4.520   4.319  15.513 -1.8814  0.5460 -0.5313
  221MPD1    H1 3413   4.686   4.644  15.749  1.2031 -1.9181  0.1033
  221MPD1    H2 3414   4.287   4.652  15.644 -0.9607 -0.4002  2.0254
  221MPD1    H3 3415   4.471   0.016  15.759 -1.6013 -0.0695  0.9340
  221MPD1     N 3416   0.008   4.411  15.630 -0.1858 -0.4869  0.0639
  221MPD1    H5 3417   0.074   4.477  15.667  0.0245 -1.9480  2.2612
  221MPD1    N1 3418   4.268   4.428  15.515 -0.3712  0.0675 -0.0664
  221MPD1    H6 3419   4.191   4.469  15.568  1.4774  0.8802  1.9529
  221MPD1    H7 3420   4.255   4.327  15.510 -0.7408  0.1212 -0.2035
  222MPD1     C 3421   4.298   2.731   0.085  0.1065 -0.6712 -0.4192
  222MPD1    C1 3422   4.192   2.798   0.027  0.2675 -0.0306  0.2118
  222MPD1    C2 3423   4.115   2.862   0.116 -0.2663  0.0799  0.5575
  222MPD1    C3 3424   4.136   2.865   0.252 -0.0572 -0.3500  0.2744
  222MPD1    C4 3425   4.249   2.803   0.306  0.9043  0.1068 -0.0592
  222MPD1    C5 3426   4.321   2.731   0.217  0.4852  0.1355  0.3884
  222MPD1     H 3427   4.027   2.911   0.076  1.3652  0.0774 -3.0167
  222MPD1    H1 3428   4.266   2.801   0.413 -0.7262 -1.8520  0.1592
  222MPD1    H2 3429   4.362   2.668   0.025  1.5555  0.1514  0.2530
  222MPD1    H3 3430   4.396   2.671   0.268  1.4820  0.2752 -0.9214
  222MPD1     N 3431   4.055   2.940   0.341  0.0221  0.6423 -0.0425
  222MPD1    H5 3432   4.093   2.957   0.433  1.6974 -2.5350 -0.1539
  222MPD1    N1 3433   4.164   2.792  17.638  0.1529 -0.0448 -0.3305
  222MPD1    H6 3434   4.124   2.878  17.602 -0.6239  0.4511  1.7068
  222MPD1    H7 3435   4.251   2.765  17.594  0.3503  2.7911 -1.6621
  223MPD1     C 3436   3.058   3.118   0.347  0.9133 -0.0447 -0.2324
  223MPD1    C1 3437   3.115   3.005   0.300 -0.9066  0.0688 -0.0757
  223MPD1    C2 3438   3.250   2.985   0.325  0.7577 -0.2967  0.4064
  223MPD1    C3 3439   3.313   3.065   0.419 -1.2330  0.5510 -0.0126
  223MPD1    C4 3440   3.250   3.175   0.471  0.0046  0.7282 -0.2208
  223MPD1    C5 3441   3.124   3.200   0.436  0.0015  0.2909 -0.2039
  223MPD1     H 3442   3.300   2.902   0.276 -0.0916  0.4466 -1.7408
  223MPD1    H1 3443   3.310   3.249   0.522  0.7610  1.6067 -2.3880
  223MPD1    H2 3444   2.952   3.136   0.334  0.4543 -1.5247  1.4953
  223MPD1    H3 3445   3.080   3.289   0.479 -1.3572 -0.9413  0.9390
  223MPD1     N 3446   3.448   3.037   0.446  0.3175  0.8383  0.5010
  223MPD1    H5 3447   3.495   2.965   0.392 -2.6344  0.7342 -1.9298
  223MPD1    N1 3448   3.044   2.937   0.201  0.3774  0.0058 -0.4486
  223MPD1    H6 3449   2.944   2.949   0.211  0.4340  1.5067 -1.8207
  223MPD1    H7 3450   3.057   2.836   0.190 -2.7198 -0.3898 -0.3854
  224MPD1     C 3451   4.641   4.141   8.867  0.3893 -0.6561  0.5006
  224MPD1    C1 3452   4.575   4.246   8.923 -0.1831  0.3055 -0.9177
  224MPD1    C2 3453   4.579   4.267   9.062  0.4845  0.0243  0.2304
  224MPD1    C3 3454   4.643   4.170   9.145  0.2931  0.1726  0.7526
  224MPD1    C4 3455   4.697   4.056   9.082  0.3707 -0.4108  0.6839
  224MPD1    C5 3456   4.700   4.047   8.951 -0.0624  0.3013 -0.0486
  224MPD1     H 3457   4.536   4.355   9.108 -1.1058 -0.7904  0.3188
  224MPD1    H1 3458   0.005   3.972   9.135 -1.1839 -0.7490  1.4760
  224MPD1    H2 3459   4.625   4.114   8.763 -1.1149 -2.3069  1.1632
  224MPD1    H3 3460   0.008   3.959   8.907 -1.4242 -0.3500 -0.1292
  224MPD1     N 3461   4.662   4.188   9.286 -0.1557 -0.7444  0.5432
  224MPD1    H5 3462   4.716   4.123   9.342  0.0607 -1.8848 -0.9945
  224MPD1    N1 3463   4.495   4.330   8.839  0.0182  0.1817  0.1749
  224MPD1    H6 3464   4.462   4.307   8.745 -0.2290  1.6817 -0.1086
  224MPD1    H7 3465   4.444   4.407   8.882 -0.1872 -0.6713  1.4630
  225MPD1     C 3466   1.927   1.258  12.225 -0.1053  0.2090  0.6790
  225MPD1    C1 3467   1.815   1.275  12.150 -0.1904 -0.3392  0.0833
  225MPD1    C2 3468   1.703   1.194  12.174 -0.2544  0.3368  0.3235
  225MPD1    C3 3469   1.702   1.094  12.276 -0.2887  0.5965  0.0040
  225MPD1    C4 3470   1.818   1.081  12.348 -0.2711  0.4374  0.3618
  225MPD1    C5 3471   1.925   1.153  12.315  0.7921 -0.3521  0.7569
  225MPD1     H 3472   1.619   1.215  12.109  0.0002  1.7188  0.4490
  225MPD1    H1 3473   1.829   0.997  12.416 -1.6028  0.2927  0.4030
  225MPD1    H2 3474   2.020   1.314  12.217  0.4099 -0.6646  0.5464
  225MPD1    H3 3475   2.017   1.134  12.369  0.1414  0.2338  2.0934
  225MPD1     N 3476   1.595   1.015  12.306  0.1642 -0.1059 -0.6496
  225MPD1    H5 3477   1.604   0.973  12.398  0.3650  1.0253 -0.1396
  225MPD1    N1 3478   1.799   1.381  12.060  0.0077 -0.3691 -0.0775
  225MPD1    H6 3479   1.891   1.411  12.029 -0.6177  1.1814 -0.4235
  225MPD1    H7 3480   1.722   1.380  11.994 -0.4539 -1.1787  0.4666
  226MPD1     C 3481   4.234   1.524   9.058  0.4846  0.0228  0.0198
  226MPD1    C1 3482   4.193   1.415   8.981 -0.2948  0.4251  0.3695
  226MPD1    C2 3483   4.264   1.293   9.004  0.1317  0.5378 -0.2297
  226MPD1    C3 3484   4.356   1.271   9.100 -0.5672  0.7292  0.5730
  226MPD1    C4 3485   4.388   1.384   9.185 -0.3938 -0.1697  0.2624
  226MPD1    C5 3486   4.328   1.503   9.156 -0.1248  0.4054 -0.1324
  226MPD1     H 3487   4.226   1.210   8.945 -1.8732 -1.2461  3.5953
  226MPD1    H1 3488   4.456   1.384   9.269 -1.3616 -0.2276  1.0438
  226MPD1    H2 3489   4.196   1.625   9.048  0.8247  0.1151 -0.3216
  226MPD1    H3 3490   4.358   1.582   9.224 -0.5817 -0.4279  1.0443
  226MPD1     N 3491   4.415   1.143   9.114 -0.0474 -0.3108 -0.5853
  226MPD1    H5 3492   4.382   1.066   9.057  2.2492  0.8114 -3.3894
  226MPD1    N1 3493   4.104   1.430   8.878  0.1569  0.2634  0.1563
  226MPD1    H6 3494   4.038   1.355   8.860 -1.0525  0.6071  3.0436
  226MPD1    H7 3495   4.048   1.515   8.869 -1.8732 -0.9230  1.5252
  227MPD1     C 3496   4.415   0.452   9.950  0.1270  0.4177  0.6757
  227MPD1    C1 3497   4.460   0.376   9.842  0.4963 -0.5658 -0.9714
  227MPD1    C2 3498   4.476   0.441   9.719  0.0894 -0.3309  0.2825
  227MPD1    C3 3499   4.447   0.576   9.703 -0.4744 -0.0180 -0.2566
  227MPD1    C4 3500   4.397   0.647   9.809  0.0800 -0.0111 -0.5696
  227MPD1    C5 3501   4.390   0.585   9.931  1.0283 -0.7104  0.0804
  227MPD1     H 3502   4.522   0.387   9.638  0.1447  0.2834 -0.0986
  227MPD1    H1 3503   4.377   0.751   9.791 -0.5683 -0.3282 -1.6347
  227MPD1    H2 3504   4.407   0.415  10.051  0.4471 -1.9612 -0.1802
  227MPD1    H3 3505   4.363   0.650  10.014  1.3280  0.0798 -0.4452
  227MPD1     N 3506   4.463   0.630   9.568  0.3424 -0.8618 -0.4201
  227MPD1    H5 3507   4.492   0.569   9.493  2.3965  0.3271 -0.5924
  227MPD1    N1 3508   4.502   0.240   9.848  0.1591  0.4598 -0.1900
  227MPD1    H6 3509   4.488   0.182   9.765 -1.0491 -0.5401  0.7140
  227MPD1    H7 3510   4.462   0.191   9.928 -0.2962  2.8518  1.0199
  228MPD1     C 3511   3.926   2.571  13.257  0.2656  0.1600 -0.5721
  228MPD1    C1 3512   3.841   2.562  13.152  0.4890 -0.2213  0.4088
  228MPD1    C2 3513   3.706   2.598  13.161 -0.4842  0.4403 -0.4121
  228MPD1    C3 3514   3.667   2.646  13.279 -0.4458  0.3893 -0.4989
  228MPD1    C4 3515   3.758   2.682  13.377  1.2698  0.3479 -0.0141
  228MPD1    C5 3516   3.887   2.636  13.372  0.3926  0.4801  0.3055
  228MPD1     H 3517   3.634   2.580  13.082 -1.6192 -1.8710  1.1536
  228MPD1    H1 3518   3.727   2.728  13.470  1.4061 -1.4271  0.9094
  228MPD1    H2 3519   4.030   2.540  13.249  0.3058 -0.6799  3.1290
  228MPD1    H3 3520   3.963   2.655  13.447 -1.6677  0.7329  2.3382
  228MPD1     N 3521   3.526   2.671  13.289 -0.0612  0.1756 -0.2310
  228MPD1    H5 3522   3.465   2.637  13.215  1.2538 -0.2049 -1.1428
  228MPD1    N1 3523   3.894   2.544  13.022 -0.3885  0.5251  0.7786
  228MPD1    H6 3524   3.828   2.497  12.960 -0.8891  0.1988  1.5665
  228MPD1    H7 3525   3.984   2.495  13.021 -1.5799 -1.6608  0.4779
  229MPD1     C 3526   2.998   1.565  14.266  0.7417 -0.1502  1.0421
  229MPD1    C1 3527   2.969   1.435  14.237  0.1946 -0.6115  0.5296
  229MPD1    C2 3528   3.016   1.338  14.324  0.3339 -0.6446 -0.0993
  229MPD1    C3 3529   3.096   1.369  14.438  0.1938 -0.4763 -0.2546
  229MPD1    C4 3530   3.135   1.497  14.450  1.4409 -0.4341 -0.2669
  229MPD1    C5 3531   3.089   1.598  14.363 -0.8528  0.5663 -0.0509
  229MPD1     H 3532   2.984   1.235  14.311  0.4542 -0.7588  0.5002
  229MPD1    H1 3533   3.177   1.543  14.539  0.4385  1.2094 -0.6425
  229MPD1    H2 3534   2.971   1.651  14.206  4.0110 -0.1086 -0.3627
  229MPD1    H3 3535   3.116   1.702  14.379  3.2158 -0.4975 -0.1222
  229MPD1     N 3536   3.140   1.275  14.536  0.0833 -0.1312  0.0235
  229MPD1    H5 3537   3.185   1.310  14.620 -0.5417  0.2815  0.1900
  229MPD1    N1 3538   2.891   1.397  14.123  0.5324 -0.3281  0.4695
  229MPD1    H6 3539   2.859   1.463  14.052  2.3722  2.5501  2.3419
  229MPD1    H7 3540   2.824   1.322  14.138 -1.9567  1.3047 -2.5003
  230MPD1     C 3541   3.053   1.476  15.362 -0.6298  0.1866  0.1542
  230MPD1    C1 3542   2.957   1.440  15.272  0.2079 -0.0121  0.1554
  230MPD1    C2 3543   2.989   1.347  15.177  0.2751  0.2750  0.2402
  230MPD1    C3 3544   3.116   1.305  15.160  0.0171 -0.0993 -0.9687
  230MPD1    C4 3545   3.215   1.347  15.241 -0.2034  0.5608  0.3164
  230MPD1    C5 3546   3.180   1.434  15.338  0.1317 -0.8380  0.1454
  230MPD1     H 3547   2.913   1.324  15.104 -0.2024  1.8605  0.2477
  230MPD1    H1 3548   3.321   1.328  15.228 -0.4261 -0.2982 -0.2228
  230MPD1    H2 3549   3.043   1.531  15.455 -0.4662 -1.0273  0.8873
  230MPD1    H3 3550   3.252   1.478  15.406 -1.1721  2.8343 -0.8384
  230MPD1     N 3551   3.140   1.217  15.049 -0.3266 -0.2910  0.3273
  230MPD1    H5 3552   3.065   1.212  14.980  1.3439 -0.3915 -1.4736
  230MPD1    N1 3553   2.826   1.480  15.292 -0.7330  0.7177 -0.2592
  230MPD1    H6 3554   2.776   1.476  15.204 -0.2952 -0.2763 -0.4609
  230MPD1    H7 3555   2.813   1.571  15.336  0.0916  1.0451 -0.7024
  231MPD1     C 3556   2.113   4.461  15.650  0.2374 -0.8503 -0.6376
  231MPD1    C1 3557   2.220   4.549  15.623  0.2743  0.0318  0.1449
  231MPD1    C2 3558   2.257   4.565  15.496 -0.9784  0.5593 -0.3946
  231MPD1    C3 3559   2.209   4.484  15.392 -0.0089 -0.5223 -0.1673
  231MPD1    C4 3560   2.097   4.403  15.424 -0.0532  0.0932 -0.6416
  231MPD1    C5 3561   2.052   4.403  15.550  0.0985  0.2377 -0.4128
  231MPD1     H 3562   2.343   4.628  15.476  1.9164 -3.6050 -0.8864
  231MPD1    H1 3563   2.052   4.349  15.342 -0.2092 -1.1795  0.2928
  231MPD1    H2 3564   2.071   4.462  15.750  0.1725  0.6857 -0.6729
  231MPD1    H3 3565   1.954   4.362  15.573 -0.9865  1.9587 -1.9209
  231MPD1     N 3566   2.264   4.494  15.262 -0.0392  0.2212  0.4581
  231MPD1    H5 3567   2.331   4.569  15.247 -1.9743  1.2799 -2.7835
  231MPD1    N1 3568   2.270   4.631  15.723  0.3720 -0.5342  0.3201
  231MPD1    H6 3569   2.372   4.640  15.721  0.2302  1.2045  0.3939
  231MPD1    H7 3570   2.248   4.606  15.819  2.4065 -0.3426  0.8499
  232MPD1     C 3571   4.173   1.833  17.600  0.2021  0.0448  0.3548
  232MPD1    C1 3572   4.087   1.816  17.490  0.1775  0.2559  0.1915
  232MPD1    C2 3573   3.986   1.723  17.497 -0.4682  0.0779 -0.9152
  232MPD1    C3 3574   3.986   1.635  17.606  0.2442 -0.9372 -0.6961
  232MPD1    C4 3575   4.097   1.628  17.679  0.2378 -0.3256 -0.3929
  232MPD1    C5 3576   4.180   1.738  17.693  0.6155 -0.4106 -0.0195
  232MPD1     H 3577   3.907   1.713  17.423 -1.1718  0.2553 -0.1854
  232MPD1    H1 3578   4.108   1.554   0.011 -1.5768  0.3208  0.4588
  232MPD1    H2 3579   4.249   1.910  17.612  0.1092 -0.4021  3.8625
  232MPD1    H3 3580   4.254   1.736   0.025 -0.5025  2.5430  1.1540
  232MPD1     N 3581   3.893   1.534  17.616  0.0372  0.1302  0.1621
  232MPD1    H5 3582   3.815   1.546  17.553  0.0915  0.4864  0.1651
  232MPD1    N1 3583   4.085   1.914  17.394  0.4611  0.0383  0.1730
  232MPD1    H6 3584   4.024   1.885  17.318  1.4150  0.8238 -0.9005
  232MPD1    H7 3585   4.177   1.941  17.360  1.1702  0.3785  2.3560
  233MPD1     C 3586   4.436   4.353  17.437 -0.5092  0.8059  0.2112
  233MPD1    C1 3587   4.343   4.308  17.528 -0.5182  0.0148  0.7178
  233MPD1    C2 3588   4.384   4.254  17.648 -0.0769  0.4510 -0.4199
  233MPD1    C3 3589   4.518   4.254  17.689  0.0191  0.7449 -0.2313
  233MPD1    C4 3590   4.605   4.312  17.598  0.0047 -0.9590  0.6332
  233MPD1    C5 3591   4.572   4.343  17.467  0.0929 -0.3966 -0.3689
  233MPD1     H 3592   4.313   4.208  17.715  1.1724  1.4376  1.5832
  233MPD1    H1 3593   4.708   4.323  17.629  0.5839  1.1140 -2.0534
  233MPD1    H2 3594   4.409   4.378  17.335 -2.3454  1.1014  0.7701
  233MPD1    H3 3595   4.644   4.375  17.392  1.5921  0.1924  1.3229
  233MPD1     N 3596   4.558   4.208   0.069  0.1007 -0.5033 -0.6484
  233MPD1    H5 3597   4.658   4.215   0.087 -0.0227  3.2912 -1.5328
  233MPD1    N1 3598   4.207   4.295  17.489 -0.1677 -0.2325  0.5353
  233MPD1    H6 3599   4.145   4.303  17.569 -2.8160  2.8144 -1.8289
  233MPD1    H7 3600   4.179   4.368  17.425 -0.3946  0.0410  0.9518
  234MPD1     C 3601   0.754   2.702   9.957 -0.4418  0.6802  0.4841
  234MPD1    C1 3602   0.690   2.695   9.831 -0.1638 -0.0230  0.0197
  234MPD1    C2 3603   0.653   2.818   9.774 -0.8529 -0.3988 -0.3084
  234MPD1    C3 3604   0.710   2.938   9.816  0.0994 -1.1088 -0.0363
  234MPD1    C4 3605   0.789   2.936   9.922  0.6001 -0.0010  0.2153
  234MPD1    C5 3606   0.796   2.822  10.002  0.3694 -0.0642 -0.0144
  234MPD1     H 3607   0.591   2.820   9.685 -1.8889 -0.2350  0.4170
  234MPD1    H1 3608   0.840   3.020   9.968 -0.8532  0.8241  0.3383
  234MPD1    H2 3609   0.777   2.611  10.011  1.4381  2.2333  2.2972
  234MPD1    H3 3610   0.856   2.838  10.090  0.1389 -0.0168  0.1345
  234MPD1     N 3611   0.685   3.065   9.751 -0.0684 -0.1465  0.6862
  234MPD1    H5 3612   0.622   3.050   9.673 -0.2820  0.3417  0.7708
  234MPD1    N1 3613   0.635   2.573   9.779 -0.6980 -0.2065 -0.5681
  234MPD1    H6 3614   0.685   2.489   9.805 -2.3188 -0.5388  1.4977
  234MPD1    H7 3615   0.640   2.582   9.678  0.5372 -2.4852 -0.6961
  235MPD1     C 3616   2.285   1.385  10.703 -0.6354  0.2455 -0.6287
  235MPD1    C1 3617   2.184   1.333  10.622 -0.7629 -0.1398  1.0262
  235MPD1    C2 3618   2.208   1.314  10.486 -0.3250 -0.0096 -0.3746
  235MPD1    C3 3619   2.337   1.335  10.435  0.6160 -1.0413  0.5441
  235MPD1    C4 3620   2.433   1.386  10.521 -0.0775  0.0337  0.1629
  235MPD1    C5 3621   2.412   1.408  10.654  0.0927 -0.1177  0.6754
  235MPD1     H 3622   2.121   1.270  10.439 -0.7517  0.8218 -0.3646
  235MPD1    H1 3623   2.537   1.390  10.491 -0.5845  1.8269 -1.4033
  235MPD1    H2 3624   2.256   1.410  10.804 -0.0969 -0.6666 -0.2520
  235MPD1    H3 3625   2.490   1.424  10.727  0.1644 -0.1736  0.6113
  235MPD1     N 3626   2.353   1.303  10.302  0.0604  0.2429 -0.0295
  235MPD1    H5 3627   2.279   1.277  10.237  0.2838  1.0631 -0.6127
  235MPD1    N1 3628   2.053   1.327  10.666 -0.4352  0.7312 -0.3990
  235MPD1    H6 3629   2.050   1.329  10.768 -0.9087 -1.0537 -0.3716
  235MPD1    H7 3630   2.011   1.241  10.630  0.1109  0.9898 -1.6382
  236MPD1     C 3631   1.281   2.319   9.490 -0.2998 -0.2716  0.0660
  236MPD1    C1 3632   1.400   2.267   9.442 -0.0399 -0.5459  0.1926
  236MPD1    C2 3633   1.494   2.213   9.528  0.5873  0.0713  0.2186
  236MPD1    C3 3634   1.470   2.221   9.666  0.4458 -0.5875  0.0485
  236MPD1    C4 3635   1.365   2.296   9.710  0.8212 -0.2010  0.0595
  236MPD1    C5 3636   1.266   2.342   9.622  0.1951 -0.3266 -0.3546
  236MPD1     H 3637   1.584   2.171   9.485  0.6930  0.1082  0.4055
  236MPD1    H1 3638   1.359   2.324   9.814  0.6490  1.0451 -0.2795
  236MPD1    H2 3639   1.207   2.352   9.418 -1.0207 -2.0304  0.0024
  236MPD1    H3 3640   1.175   2.385   9.662  0.7873  0.8727 -0.2775
  236MPD1     N 3641   1.562   2.170   9.760 -0.4012  0.5559  0.6616
  236MPD1    H5 3642   1.552   2.198   9.857  2.1118 -1.4811  1.5123
  236MPD1    N1 3643   1.428   2.281   9.304 -0.1568  0.4567  0.6628
  236MPD1    H6 3644   1.526   2.303   9.288 -0.5017  0.0796 -1.9731
  236MPD1    H7 3645   1.371   2.349   9.253  0.1326 -0.8136 -1.3498
  237MPD1     C 3646   2.187   0.098  15.122 -0.2899  0.3105 -0.0798
  237MPD1    C1 3647   2.130   0.121  14.997 -0.5633  0.3549  0.8608
  237MPD1    C2 3648   1.994   0.157  14.994 -0.5883 -0.2565 -0.1183
  237MPD1    C3 3649   1.919   0.182  15.110  0.1503  0.0572 -0.6076
  237MPD1    C4 3650   1.982   0.164  15.228  0.3409 -0.5720  0.0117
  237MPD1    C5 3651   2.110   0.118  15.231 -0.0622 -0.3862  0.6689
  237MPD1     H 3652   1.941   0.164  14.899 -0.1000 -0.2196 -0.3917
  237MPD1    H1 3653   1.928   0.178  15.321  1.3523  1.3786  0.2955
  237MPD1    H2 3654   2.291   0.071  15.134  0.1507  2.5635  1.1783
  237MPD1    H3 3655   2.163   0.111  15.325 -0.7991  1.1737  1.1917
  237MPD1     N 3656   1.787   0.226  15.123  0.2193  0.0241 -0.0169
  237MPD1    H5 3657   1.747   0.248  15.213  0.1498 -1.0293  0.2043
  237MPD1    N1 3658   2.210   0.089  14.887 -0.1534  0.4054  0.3154
  237MPD1    H6 3659   2.163   0.125  14.804 -0.7226 -1.2652 -0.1003
  237MPD1    H7 3660   2.306   0.123  14.891 -0.1400  0.5674 -1.1939
  238MPD1     C 3661   3.684   2.948  15.275  0.2364  0.0522 -0.7361
  238MPD1    C1 3662   3.579   2.946  15.362  0.4821 -0.4441 -0.3319
  238MPD1    C2 3663   3.468   3.028  15.334  0.5600 -0.1580 -0.4580
  238MPD1    C3 3664   3.472   3.115  15.226  0.6765 -0.9985 -0.0908
  238MPD1    C4 3665   3.579   3.107  15.138 -0.2772  0.4438 -0.1814
  238MPD1    C5 3666   3.685   3.022  15.158  0.4170 -0.1198 -0.9505
  238MPD1     H 3667   3.386   3.043  15.403 -0.0253  1.5112 -1.5223
  238MPD1    H1 3668   3.588   3.170  15.050  0.1614  0.4753 -0.1117
  238MPD1    H2 3669   3.774   2.891  15.295 -0.4997 -0.1549  1.9208
  238MPD1    H3 3670   3.774   3.028  15.097  1.9542  1.0663  1.3943
  238MPD1     N 3671   3.379   3.219  15.210  0.0893 -0.0418 -0.1372
  238MPD1    H5 3672   3.394   3.286  15.136  0.7412 -0.2101 -0.1602
  238MPD1    N1 3673   3.580   2.858  15.468 -0.0462 -0.5209 -0.8204
  238MPD1    H6 3674   3.667   2.823  15.508  0.2686  1.6862  0.4381
  238MPD1    H7 3675   3.507   2.876  15.536  1.8166 -2.2388  1.6085
  239MPD1     C 3676   3.686   3.739  14.764 -0.3716  0.3771 -0.2977
  239MPD1    C1 3677   3.649   3.845  14.835 -0.3386  0.0162  0.5330
  239MPD1    C2 3678   3.674   3.971  14.783 -0.1882 -0.3212  0.1288
  239MPD1    C3 3679   3.717   3.990  14.652  0.3916 -0.4097  0.1592
  239MPD1    C4 3680   3.738   3.875  14.572 -0.4926 -0.0008 -0.1699
  239MPD1    C5 3681   3.734   3.755  14.636  0.7789  0.1817 -0.1578
  239MPD1     H 3682   3.640   4.057  14.838  1.4792  2.9071 -3.8974
  239MPD1    H1 3683   3.772   3.873  14.469  0.3265  1.7170  0.0732
  239MPD1    H2 3684   3.682   3.640  14.808  0.8858  0.3366 -0.2908
  239MPD1    H3 3685   3.768   3.669  14.580 -2.2302 -0.1086 -1.5624
  239MPD1     N 3686   3.718   4.119  14.585 -0.3056  0.2754  0.1039
  239MPD1    H5 3687   3.743   4.118  14.486 -0.7808  2.5920 -0.0526
  239MPD1    N1 3688   3.566   3.828  14.946  0.6071  0.3643  0.2265
  239MPD1    H6 3689   3.583   3.899  15.017  4.0411  1.2982 -1.5414
  239MPD1    H7 3690   3.469   3.838  14.918  0.0090 -0.8608  1.8373
  240MPD1     C 3691   2.993   4.730  13.921  0.0896 -0.7933  0.1141
  240MPD1    C1 3692   3.002   4.602  13.884 -0.0548 -0.1913 -0.1523
  240MPD1    C2 3693   2.990   4.504  13.984 -0.3717 -0.2257  0.0849
  240MPD1    C3 3694   2.963   4.530  14.115 -0.3119 -0.0183  0.1026
  240MPD1    C4 3695   2.954   4.661  14.151  0.1046 -0.2035 -0.5907
  240MPD1    C5 3696   2.966   0.025  14.054 -0.8375 -0.0040  0.5296
  240MPD1     H 3697   2.988   4.401  13.951  1.4847 -0.0280 -0.6076
  240MPD1    H1 3698   2.934   4.688  14.253  0.8246 -0.7200 -0.3103
  240MPD1    H2 3699   3.000   0.077  13.853  3.0980 -1.0672  0.0576
  240MPD1    H3 3700   2.965   0.125  14.095  0.9386  0.7280 -1.2271
  240MPD1     N 3701   2.980   4.424  14.206  0.0897 -0.1289 -0.5530
  240MPD1    H5 3702   3.000   4.334  14.163  0.0445 -1.2531  1.7963
  240MPD1    N1 3703   3.043   4.580  13.748  0.4647  0.1152 -0.0481
  240MPD1    H6 3704   3.012   4.489  13.712 -0.7437  0.6501 -0.3647
  240MPD1    H7 3705   3.002   4.654  13.691 -1.2691 -1.4230 -0.8231
  241MPD1     C 3706   3.412   4.286  15.095  1.3774  0.3046  0.7341
  241MPD1    C1 3707   3.310   4.191  15.088  0.0419 -0.8353 -0.3672
  241MPD1    C2 3708   3.241   4.174  14.971  0.2678 -0.1643  0.3671
  241MPD1    C3 3709   3.275   4.246  14.852  0.2103 -0.1359  0.8843
  241MPD1    C4 3710   3.382   4.329  14.863 -0.1060 -0.1323 -0.0890
  241MPD1    C5 3711   3.450   4.345  14.984 -0.4337  0.5378  0.2736
  241MPD1     H 3712   3.160   4.102  14.967 -0.2352  0.3137  2.1785
  241MPD1    H1 3713   3.420   4.387  14.780  0.4598  1.6146  1.3853
  241MPD1    H2 3714   3.474   4.302  15.182 -0.7063  0.3988  2.2226
  241MPD1    H3 3715   3.532   4.416  14.987 -1.2735  1.5172 -0.0143
  241MPD1     N 3716   3.210   4.224  14.728 -0.0517  0.6431  0.4421
  241MPD1    H5 3717   3.233   4.291  14.656 -0.8084 -2.4734 -2.6812
  241MPD1    N1 3718   3.270   4.129  15.207 -0.1636 -0.5373  0.0035
  241MPD1    H6 3719   3.347   4.127  15.274  0.3881  0.2647 -0.6021
  241MPD1    H7 3720   3.232   4.037  15.186  0.3842 -0.2894 -2.1430
  242MPD1     C 3721   2.940   2.837  14.947  0.6583 -0.3091  0.5065
  242MPD1    C1 3722   3.008   2.785  15.056  0.5926  0.2651  0.0950
  242MPD1    C2 3723   2.970   2.671  15.119  0.0426  0.2718  0.1340
  242MPD1    C3 3724   2.870   2.596  15.061  1.3083  0.0486 -0.0426
  242MPD1    C4 3725   2.802   2.645  14.955  0.2237  0.0108 -0.2020
  242MPD1    C5 3726   2.837   2.762  14.895 -0.1725 -0.5835  0.7767
  242MPD1     H 3727   3.032   2.630  15.198 -0.7041 -1.0720  0.0154
  242MPD1    H1 3728   2.715   2.592  14.917 -1.2778  1.8141  0.7403
  242MPD1    H2 3729   2.963   2.931  14.898  0.0156 -2.2217 -3.4556
  242MPD1    H3 3730   2.775   2.804  14.816  0.7029  1.1604  1.0169
  242MPD1     N 3731   2.812   2.473  15.102 -0.6559  0.7052 -0.0763
  242MPD1    H5 3732   2.751   2.431  15.032  0.1067  0.2106 -0.4459
  242MPD1    N1 3733   3.110   2.860  15.110  0.3962 -0.0005 -0.1179
  242MPD1    H6 3734   3.164   2.912  15.041  0.6361 -0.4762 -0.2897
  242MPD1    H7 3735   3.168   2.787  15.150  3.7336  1.4065 -2.3808
  243MPD1     C 3736   0.702   2.167  17.446  0.5708 -0.2187 -0.8914
  243MPD1    C1 3737   0.653   2.157  17.312  0.0550  0.3535 -0.5470
  243MPD1    C2 3738   0.566   2.050  17.288  0.4610  0.1986 -0.1299
  243MPD1    C3 3739   0.521   1.961  17.381  0.3678 -0.6181  0.3954
  243MPD1    C4 3740   0.564   1.976  17.505  0.0408 -0.5467 -0.0067
  243MPD1    C5 3741   0.655   2.077  17.535  0.4234  0.0436  0.4313
  243MPD1     H 3742   0.523   2.037  17.189  0.7095 -0.2202 -0.1850
  243MPD1    H1 3743   0.525   1.925  17.592  0.1297 -1.0635 -0.2670
  243MPD1    H2 3744   0.771   2.247  17.469 -2.0359  1.7778 -0.0453
  243MPD1    H3 3745   0.693   2.090  17.636 -0.0351  0.1515  0.5897
  243MPD1     N 3746   0.428   1.861  17.345 -0.7330  0.5444  0.1464
  243MPD1    H5 3747   0.420   1.841  17.246 -0.0564  1.6587 -0.1352
  243MPD1    N1 3748   0.717   2.230  17.210 -0.2083 -0.5430  0.1456
  243MPD1    H6 3749   0.767   2.312  17.244 -0.8331 -0.5771  1.1262
  243MPD1    H7 3750   0.659   2.245  17.128  1.0111  0.5013 -0.5319
  244MPD1     C 3751   4.487   1.209   0.066  0.4330  0.4818 -0.1102
  244MPD1    C1 3752   4.572   1.303   0.127 -0.4142  0.1048 -0.2961
  244MPD1    C2 3753   4.662   1.373   0.045 -0.1767 -0.3274 -0.1151
  244MPD1    C3 3754   4.671   1.348  17.653  0.1932  0.5117  0.0585
  244MPD1    C4 3755   4.582   1.261  17.600  0.6432 -0.1440  0.0991
  244MPD1    C5 3756   4.496   1.192  17.678  0.3118  0.6742 -0.1875
  244MPD1     H 3757   4.728   1.451   0.081 -2.4246  1.0524  1.0166
  244MPD1    H1 3758   4.568   1.251  17.493 -0.4263  1.0482  0.1300
  244MPD1    H2 3759   4.414   1.158   0.128  1.0445 -0.0058  0.2121
  244MPD1    H3 3760   4.427   1.123  17.630  0.0003 -0.4207  1.8537
  244MPD1     N 3761   0.014   1.432  17.570 -0.0720 -0.4674 -0.1442
  244MPD1    H5 3762   0.061   1.503  17.625  4.1421 -0.7003 -3.5065
  244MPD1    N1 3763   4.580   1.301   0.266  0.2521  0.5215  0.1995
  244MPD1    H6 3764   4.606   1.392   0.304 -0.2651  0.8288 -0.1811
  244MPD1    H7 3765   4.487   1.297   0.307 -0.2848 -1.7134 -1.2634
  245MPD1     C 3766   0.417   2.048  14.398  0.7228  0.1191  0.1231
  245MPD1    C1 3767   0.496   2.027  14.284  0.4214  0.0006  0.6837
  245MPD1    C2 3768   0.630   2.011  14.304 -0.0629 -0.1918 -0.0081
  245MPD1    C3 3769   0.688   2.028  14.427 -0.2329 -0.0823  0.2206
  245MPD1    C4 3770   0.608   2.053  14.539 -0.1806  0.7179 -0.2160
  245MPD1    C5 3771   0.475   2.055  14.522 -0.1520 -0.7310 -0.8605
  245MPD1     H 3772   0.695   1.975  14.225 -0.6305  0.2504 -0.6833
  245MPD1    H1 3773   0.652   2.058  14.638 -2.3287  0.8849  0.7183
  245MPD1    H2 3774   0.309   2.055  14.404  0.6746 -0.0635 -0.5171
  245MPD1    H3 3775   0.410   2.063  14.608  0.6383  0.3539 -0.3755
  245MPD1     N 3776   0.828   2.013  14.423 -0.3636  0.5666 -0.5554
  245MPD1    H5 3777   0.867   2.006  14.330  1.2673  0.3892  0.1328
  245MPD1    N1 3778   0.426   2.001  14.162  0.3848  0.8828  0.0415
  245MPD1    H6 3779   0.476   2.021  14.076  0.1936  0.1119 -0.2424
  245MPD1    H7 3780   0.332   2.039  14.156 -0.1692 -0.7434 -1.3539
  246MPD1     C 3781   0.692   3.798   8.602 -0.2821 -0.5058  0.3516
  246MPD1    C1 3782   0.786   3.889   8.636 -0.3054  0.2357  0.0340
  246MPD1    C2 3783   0.872   3.857   8.734  0.1074  0.1254 -0.5846
  246MPD1    C3 3784   0.851   3.753   8.822 -0.2610  0.3868 -0.3946
  246MPD1    C4 3785   0.732   3.687   8.805 -0.2170 -0.3267 -0.2761
  246MPD1    C5 3786   0.665   3.697   8.687  0.3871  0.4472  0.1370
  246MPD1     H 3787   0.962   3.917   8.737  0.4342 -0.2686 -3.1278
  246MPD1    H1 3788   0.699   3.619   8.882 -2.4114  0.9465 -0.0937
  246MPD1    H2 3789   0.615   3.814   8.527  0.1087  2.8029  0.6310
  246MPD1    H3 3790   0.575   3.644   8.656  1.5504 -0.3645 -1.8655
  246MPD1     N 3791   0.945   3.718   8.924 -0.0702 -0.1515 -0.2065
  246MPD1    H5 3792   1.017   3.783   8.954 -0.3849 -0.3878  1.0805
  246MPD1    N1 3793   0.824   3.986   8.545 -0.2881  0.0990 -0.7638
  246MPD1    H6 3794   0.750   4.023   8.486 -0.1589  0.7110 -0.5482
  246MPD1    H7 3795   0.868   4.062   8.597 -2.1372 -2.2834  4.2983
  247MPD1     C 3796   1.292   1.270  16.845 -0.7778 -0.1485  0.0960
  247MPD1    C1 3797   1.369   1.336  16.750 -0.4667  0.2242  0.1607
  247MPD1    C2 3798   1.330   1.322  16.616 -0.3378 -1.0124  0.0826
  247MPD1    C3 3799   1.230   1.234  16.571  0.2414  0.1190  0.1873
  247MPD1    C4 3800   1.165   1.163  16.674  0.7051  0.0348  0.4964
  247MPD1    C5 3801   1.196   1.185  16.802  0.4612  0.3618  0.1853
  247MPD1     H 3802   1.386   1.380  16.543 -0.2004  1.4655  2.1354
  247MPD1    H1 3803   1.088   1.090  16.653  1.4236 -0.5328 -0.1775
  247MPD1    H2 3804   1.324   1.268  16.948 -0.3716  0.0647 -0.0235
  247MPD1    H3 3805   1.146   1.127  16.879  2.0489 -0.3680  0.6758
  247MPD1     N 3806   1.197   1.209  16.434 -0.5685 -1.0695  0.0073
  247MPD1    H5 3807   1.129   1.135  16.418 -3.1918  1.0000  1.7286
  247MPD1    N1 3808   1.473   1.430  16.781 -0.1156 -0.3112 -0.4649
  247MPD1    H6 3809   1.537   1.436  16.702 -0.4145  0.6835 -0.6389
  247MPD1    H7 3810   1.522   1.402  16.865 -0.7272 -1.9232 -0.6392
  248MPD1     C 3811   2.100   1.278  17.542 -0.4146  0.7242  0.2164
  248MPD1    C1 3812   2.010   1.354  17.613 -0.3224  0.1278  0.4224
  248MPD1    C2 3813   1.931   1.282  17.702  0.2363 -0.4820 -0.6507
  248MPD1    C3 3814   1.922   1.145  17.702 -0.2137  0.1578  0.1625
  248MPD1    C4 3815   2.005   1.075  17.614  0.7949  0.2316  0.3950
  248MPD1    C5 3816   2.096   1.143  17.545  0.4501  0.8936 -0.0339
  248MPD1     H 3817   1.861   1.333   0.021 -0.7416 -1.5902 -0.8304
  248MPD1    H1 3818   2.018   0.968  17.613  1.4887  0.2841  3.6410
  248MPD1    H2 3819   2.171   1.332  17.480  0.3678 -0.8949 -0.2973
  248MPD1    H3 3820   2.176   1.099  17.485 -0.7402  0.9885 -1.6804
  248MPD1     N 3821   1.836   1.086   0.050 -0.3809  0.0723 -0.4314
  248MPD1    H5 3822   1.782   1.148   0.110  0.9493  0.9705 -0.1621
  248MPD1    N1 3823   2.019   1.497  17.602 -0.7695 -0.3778 -0.6370
  248MPD1    H6 3824   1.957   1.554  17.661  1.8142 -0.6527  2.3467
  248MPD1    H7 3825   2.037   1.538  17.511 -0.8045 -0.0629 -0.5020
  249MPD1     C 3826   2.559   4.626   9.940 -0.6696  0.0631 -0.0146
  249MPD1    C1 3827   2.501   4.658   9.825 -0.0967 -0.0193 -0.0892
  249MPD1    C2 3828   2.513   0.053   9.784 -0.1003 -0.1512 -0.0112
  249MPD1    C3 3829   2.586   0.150   9.862 -0.7775 -0.3658 -0.3593
  249MPD1    C4 3830   2.657   0.104   9.966 -0.2072  0.2281  0.0182
  249MPD1    C5 3831   2.634   4.715  10.017  0.5661  0.5417 -0.2523
  249MPD1     H 3832   2.450   0.092   9.705 -2.0530 -2.3695  0.4601
  249MPD1    H1 3833   2.738   0.163  10.007  0.1040 -0.3622  0.2503
  249MPD1    H2 3834   2.559   4.521   9.968  0.0485 -0.3253 -1.4249
  249MPD1    H3 3835   2.687   4.688  10.107 -0.8047  0.2040  0.4478
  249MPD1     N 3836   2.599   0.277   9.805 -0.3139 -1.0340  0.3081
  249MPD1    H5 3837   2.552   0.289   9.716 -0.8875 -2.9455  0.3473
  249MPD1    N1 3838   2.444   4.558   9.742  0.0541 -1.1083 -0.3504
  249MPD1    H6 3839   2.396   4.480   9.787 -0.6665 -0.4884 -0.0324
  249MPD1    H7 3840   2.364   4.595   9.692  1.8213  0.1202 -2.2484
  250MPD2     C 3841   4.714   0.357  13.066  0.3643 -0.1350  0.0887
  250MPD2    C1 3842   4.589   0.407  13.103  0.4203  0.6290 -0.6640
  250MPD2    C2 3843   4.482   0.316  13.115  0.4130 -0.0966  0.1914
  250MPD2    C3 3844   4.515   0.183  13.098 -0.1506 -0.3393 -0.1821
  250MPD2    C4 3845   4.641   0.133  13.057  0.6639 -0.4872  0.0202
  250MPD2    C5 3846   0.002   0.222  13.052 -0.7655  0.1560  0.5465
  250MPD2     H 3847   4.386   0.359  13.142 -0.5319 -2.2238  0.2484
  250MPD2    H1 3848   4.675   0.032  13.037  1.5009 -0.0822 -0.5912
  250MPD2    H2 3849   0.061   0.422  13.048  0.6294 -0.6434 -0.5248
  250MPD2    H3 3850   0.103   0.196  13.022 -1.1921  0.1808 -0.9165
  250MPD2     N 3851   4.413   0.085  13.108 -0.6746 -0.6832 -0.2238
  250MPD2    H5 3852   4.436   4.736  13.059 -1.3100 -0.9579 -0.0419
  250MPD2    N1 3853   4.565   0.542  13.120 -0.0167  0.0924  0.1000
  250MPD2    H7 3854   4.645   0.604  13.123 -0.3974  0.5296  1.2993
  251TMC3    C1 3855   4.490   0.747  13.161  0.2785  1.1695  0.5332
  251TMC3    C2 3856   4.433   0.828  13.075  0.0790 -0.5544 -0.0288
  251TMC3    C3 3857   4.515   0.925  13.016 -0.5829  0.4110  0.2763
  251TMC3    C4 3858   4.622   0.761  13.190 -0.4930  0.4984  0.6157
  251TMC3    C5 3859   4.702   0.852  13.124  0.1242 -0.7279 -0.5744
  251TMC3    C6 3860   4.646   0.942  13.035  0.4290  0.9678 -0.1023
  251TMC3     C 3861   4.449   0.610  13.134 -0.1350 -0.5415  0.4372
  251TMC3     O 3862   4.334   0.578  13.109 -0.0641 -0.4032  0.2444
  251TMC3     H 3863   4.327   0.812  13.057 -0.4161 -0.2115  2.5976
  251TMC3    H1 3864   4.657   0.708  13.277 -1.5450 -1.0972  0.0628
  251TMC3    H2 3865   4.695   1.016  12.973 -2.1596  1.7366 -1.2438
  251TMC3    C7 3866   0.085   0.790  13.083  0.2345  0.2235 -0.1305
  251TMC3    C8 3867   4.442   1.046  12.988 -0.3912 -0.1054 -0.1705
  251TMC3    O1 3868   0.084   0.675  13.125  0.4338 -0.1900  0.6108
  251TMC3    O2 3869   4.329   1.030  12.959 -0.1257  0.3166  0.4503
  252TMC3    C1 3870   3.735   2.335   9.093 -0.1717 -0.0116 -0.4584
  252TMC3    C2 3871   3.854   2.372   9.153 -0.0096 -0.2542 -0.2571
  252TMC3    C3 3872   3.928   2.278   9.217 -0.0587  0.4314 -0.2121
  252TMC3    C4 3873   3.688   2.209   9.090  0.3160  0.6423  0.2997
  252TMC3    C5 3874   3.765   2.111   9.150 -0.4786 -0.3695  0.5929
  252TMC3    C6 3875   3.882   2.146   9.212 -0.3713  0.1948  0.3417
  252TMC3     C 3876   3.657   2.429   9.025  0.9656 -0.2491  0.6327
  252TMC3     O 3877   3.594   2.391   8.924  0.3301 -0.2467  0.2668
  252TMC3     H 3878   3.889   2.473   9.169  1.1760 -0.3519 -2.2254
  252TMC3    H1 3879   3.586   2.199   9.054  0.1622 -0.2090  0.9661
  252TMC3    H2 3880   3.952   2.071   9.246  0.0566  0.3991 -0.1036
  252TMC3    C7 3881   3.715   1.975   9.138 -0.4682  0.1478  0.4584
  252TMC3    C8 3882   4.065   2.298   9.243 -0.5138  0.1405 -0.1356
  252TMC3    O1 3883   3.616   1.959   9.070 -0.6013  0.1602  0.1933
  252TMC3    O2 3884   4.131   2.370   9.168  0.6303  0.7006  0.3123
  253MPD2     C 3885   1.278   0.649  15.136  0.3822  0.0052 -0.1634
  253MPD2    C1 3886   1.144   0.610  15.126  0.0661 -0.0335  0.7503
  253MPD2    C2 3887   1.101   0.518  15.222 -0.8996 -0.0467 -0.6268
  253MPD2    C3 3888   1.179   0.481  15.331 -0.7597 -0.0002 -1.0029
  253MPD2    C4 3889   1.308   0.528  15.343  0.2290 -0.2125  0.4312
  253MPD2    C5 3890   1.359   0.600  15.239 -0.2243 -0.1827 -0.0736
  253MPD2     H 3891   1.001   0.480  15.205 -1.0076  0.0722 -0.2555
  253MPD2    H1 3892   1.372   0.484  15.418  1.3357  2.9524  1.3543
  253MPD2    H2 3893   1.327   0.713  15.063 -0.0335  0.6789  0.1443
  253MPD2    H3 3894   1.461   0.636  15.247 -0.3446  0.6528 -2.2456
  253MPD2     N 3895   1.124   0.412  15.447 -0.4422 -1.1979 -0.0260
  253MPD2    H5 3896   1.186   0.391  15.524  0.6423  0.7539 -0.3774
  253MPD2    N1 3897   1.049   0.663  15.036 -0.5671 -0.4411 -0.2255
  253MPD2    H7 3898   0.960   0.615  15.045 -1.0913  0.7129  0.8372
  254TMC3    C1 3899   0.970   0.303  15.587 -0.2918  0.5845  0.0176
  254TMC3    C2 3900   0.843   0.319  15.638 -0.4003  0.1063 -0.0476
  254TMC3    C3 3901   0.815   0.269  15.760 -0.5844 -1.2169  0.4663
  254TMC3    C4 3902   1.074   0.267  15.668  0.3240 -0.1706 -0.3053
  254TMC3    C5 3903   1.041   0.220  15.792 -0.6338 -0.4452 -0.9202
  254TMC3    C6 3904   0.914   0.218  15.838 -0.3124  0.1317 -0.3905
  254TMC3     C 3905   0.995   0.376  15.462 -0.4898  0.0955 -0.5739
  254TMC3     O 3906   0.895   0.414  15.400 -0.7627 -0.1744  0.5492
  254TMC3     H 3907   0.773   0.379  15.581  0.3751  0.7627 -0.3186
  254TMC3    H1 3908   1.171   0.253  15.622  0.6671  2.0086 -0.2156
  254TMC3    H2 3909   0.891   0.183  15.938 -1.7741  1.2471 -0.3529
  254TMC3    C7 3910   1.138   0.183  15.894  0.4107 -0.0405  0.1720
  254TMC3    C8 3911   0.687   0.306  15.822  0.3221  0.2327  0.0929
  254TMC3    O1 3912   1.096   0.113  15.985 -0.2142 -0.2583 -0.0884
  254TMC3    O2 3913   0.672   0.251  15.928  0.4493 -0.3400 -0.2013
  255MPD2     C 3914   3.731   2.824  10.992  0.2163  0.0173  0.3559
  255MPD2    C1 3915   3.857   2.874  10.961  0.8438 -0.4022  0.6784
  255MPD2    C2 3916   3.958   2.789  11.000  0.3847  0.3921 -0.1915
  255MPD2    C3 3917   3.943   2.665  11.057 -1.0002  0.0428 -0.1720
  255MPD2    C4 3918   3.819   2.631  11.101  0.4493 -0.6523 -0.2290
  255MPD2    C5 3919   3.713   2.708  11.062 -0.3222  0.3032  0.2794
  255MPD2     H 3920   4.054   2.812  10.956 -0.9065  1.5729 -2.3824
  255MPD2    H1 3921   3.797   2.542  11.159 -0.7287  0.4348  0.9839
  255MPD2    H2 3922   3.641   2.872  10.954  0.4493 -1.8248 -2.5579
  255MPD2    H3 3923   3.616   2.673  11.095 -0.2351  0.4904  0.7308
  255MPD2     N 3924   4.043   2.566  11.066 -0.2296  0.0691 -0.3396
  255MPD2    H5 3925   4.023   2.487  11.127 -1.0146  1.0943  0.7296
  255MPD2    N1 3926   3.875   2.985  10.873  0.6151  0.1268 -0.2837
  255MPD2    H7 3927   3.786   3.018  10.837  0.0828 -0.8804  0.1013
  256TMC3    C1 3928   3.979   3.149  10.746 -0.2204  0.6300  0.0166
  256TMC3    C2 3929   4.082   3.173  10.657  0.2397  0.3034  0.0509
  256TMC3    C3 3930   4.081   3.281  10.581  0.4395  0.5489  0.0283
  256TMC3    C4 3931   3.878   3.238  10.762 -0.0946  1.0844  0.0889
  256TMC3    C5 3932   3.873   3.345  10.675 -0.1840  0.0618  0.3586
  256TMC3    C6 3933   3.985   3.373  10.599 -0.6441 -0.0193  0.5494
  256TMC3     C 3934   3.990   3.039  10.835 -0.2845  0.8651 -0.2524
  256TMC3     O 3935   4.103   3.008  10.869  0.2426 -0.2062  0.3899
  256TMC3     H 3936   4.159   3.095  10.657 -0.8944 -0.8138 -0.9500
  256TMC3    H1 3937   3.799   3.224  10.835  2.9331 -0.2001  3.1243
  256TMC3    H2 3938   3.972   3.469  10.551  1.6697 -0.9439 -1.9016
  256TMC3    C7 3939   3.749   3.398  10.648 -0.2829  0.3735 -0.3423
  256TMC3    C8 3940   4.154   3.267  10.460  0.0283  0.9884  0.0118
  256TMC3    O1 3941   3.664   3.312  10.630  0.1581 -0.4362  0.2806
  256TMC3    O2 3942   4.228   3.176  10.428  0.1427 -0.2207 -0.5086
  257MPD2     C 3943   3.269   4.664  13.277 -0.7317  0.6650 -0.6986
  257MPD2    C1 3944   3.256   4.591  13.160 -0.2139  0.3395 -0.6145
  257MPD2    C2 3945   3.244   4.453  13.163 -0.7795  0.4731  0.2941
  257MPD2    C3 3946   3.266   4.382  13.284  0.4949  0.2232  0.2906
  257MPD2    C4 3947   3.287   4.458  13.404  0.7040  0.0389  0.2569
  257MPD2    C5 3948   3.287   4.596  13.396  0.3920  0.0995  0.2939
  257MPD2     H 3949   3.239   4.398  13.070 -0.4381 -0.2841  0.7199
  257MPD2    H1 3950   3.310   4.414  13.500  0.4914 -0.1239  0.2346
  257MPD2    H2 3951   3.283   0.035  13.283 -1.9826  0.7193  1.4173
  257MPD2    H3 3952   3.296   4.654  13.488  1.6929 -2.2463  1.6501
  257MPD2     N 3953   3.293   4.241  13.263 -0.0350  0.3992 -0.3052
  257MPD2    H5 3954   3.280   4.206  13.169 -1.3195 -0.3442  0.1585
  257MPD2    N1 3955   3.260   4.650  13.030 -0.0464  0.1010 -0.4847
  257MPD2    H7 3956   3.222   4.595  12.954 -0.8634  1.2696 -0.9090
  258TMC3    C1 3957   3.410   4.044  13.292 -0.1368 -0.3278  0.1180
  258TMC3    C2 3958   3.329   3.981  13.200  0.1027  0.1845 -0.4271
  258TMC3    C3 3959   3.378   3.867  13.146  0.7559 -0.1760 -0.1011
  258TMC3    C4 3960   3.532   3.998  13.332  0.1015  0.6486 -0.0105
  258TMC3    C5 3961   3.590   3.893  13.262 -0.5125 -0.1210  0.4195
  258TMC3    C6 3962   3.513   3.827  13.166  0.1443 -0.2579 -0.0034
  258TMC3     C 3963   3.370   4.173  13.346 -0.5195  0.1829  0.6109
  258TMC3     O 3964   3.422   4.210  13.453 -0.1950  0.0766 -0.7195
  258TMC3     H 3965   3.227   4.012  13.181  0.2581  1.2931  0.5306
  258TMC3    H1 3966   3.578   4.061  13.407 -0.5727 -1.9120  2.5515
  258TMC3    H2 3967   3.553   3.734  13.127 -0.2668 -0.6793  0.5700
  258TMC3    C7 3968   3.702   3.819  13.317  0.6680 -0.3014 -0.1996
  258TMC3    C8 3969   3.342   3.836  13.003 -0.1927  0.1313  0.7752
  258TMC3    O1 3970   3.733   3.713  13.271 -0.0619  0.3050  0.7745
  258TMC3    O2 3971   3.241   3.896  12.971  0.1500  0.2152 -0.1312
  259MPD2     C 3972   2.384   2.087   0.361 -0.3951 -0.0601  0.7590
  259MPD2    C1 3973   2.384   1.959   0.406 -0.0192  0.3230 -0.3706
  259MPD2    C2 3974   2.399   1.851   0.318 -0.4987  0.5243 -0.3752
  259MPD2    C3 3975   2.422   1.871   0.183 -0.1631  0.2677 -0.6289
  259MPD2    C4 3976   2.411   2.001   0.136 -0.0160  0.2173  0.2549
  259MPD2    C5 3977   2.386   2.100   0.227  0.4330  0.1407 -0.2193
  259MPD2     H 3978   2.398   1.754   0.366  1.3631 -0.1166 -1.6109
  259MPD2    H1 3979   2.453   2.036   0.043  0.9107 -0.7566  0.3089
  259MPD2    H2 3980   2.385   2.172   0.428  0.5976  0.0296  0.6267
  259MPD2    H3 3981   2.370   2.203   0.196 -1.1013 -0.8663 -2.7989
  259MPD2     N 3982   2.472   1.763   0.100 -0.4144 -0.0627 -0.0708
  259MPD2    H5 3983   2.485   1.670   0.139 -0.6723 -0.2189 -0.3514
  259MPD2    N1 3984   2.391   1.929   0.540 -0.4622  0.3916  0.0180
  259MPD2    H7 3985   2.371   1.835   0.573 -0.4364  0.7448  1.0417
  260TMC3    C1 3986   2.600   1.669  17.671 -0.3522  0.4100 -0.3111
  260TMC3    C2 3987   2.671   1.679  17.549 -0.5721 -0.0582 -0.4832
  260TMC3    C3 3988   2.755   1.581  17.519 -0.0161 -0.5099 -0.6301
  260TMC3    C4 3989   2.606   1.560   0.002 -0.2590  0.1569  0.3415
  260TMC3    C5 3990   2.692   1.456  17.714  0.2188 -0.3233  0.4035
  260TMC3    C6 3991   2.767   1.470  17.600 -0.1489 -0.4019 -0.3229
  260TMC3     C 3992   2.518   1.781  17.716 -0.8119  0.7693 -0.0035
  260TMC3     O 3993   2.515   1.875  17.638  0.8789 -0.0191 -0.0487
  260TMC3     H 3994   2.661   1.764  17.482 -1.8932  0.1191 -0.0609
  260TMC3    H1 3995   2.548   1.544   0.093  0.0596  0.1149  0.5353
  260TMC3    H2 3996   2.844   1.398  17.576 -0.3549 -1.5114  2.3447
  260TMC3    C7 3997   2.695   1.340   0.047  0.0768  0.0261  0.2040
  260TMC3    C8 3998   2.866   1.613  17.427  0.1144 -0.3925 -0.3356
  260TMC3    O1 3999   2.659   1.347   0.166  0.4622  0.3926  0.0808
  260TMC3    O2 4000   2.844   1.696  17.337  0.0902  0.0379 -0.0327
  261MPD2     C 4001   3.693   4.683  12.832 -0.0628  0.5187 -0.4860
  261MPD2    C1 4002   3.804   0.026  12.856  0.1626 -0.6235  0.3950
  261MPD2    C2 4003   3.813   0.141  12.781  0.1258  0.1386  0.1583
  261MPD2    C3 4004   3.736   0.170  12.670 -0.2991 -0.8772 -0.1568
  261MPD2    C4 4005   3.630   0.086  12.653 -0.0330  0.4459  0.1622
  261MPD2    C5 4006   3.613   4.713  12.730  0.8547 -0.2273  0.1951
  261MPD2     H 4007   3.901   0.198  12.807  0.3350  0.6446 -1.7217
  261MPD2    H1 4008   3.562   0.097  12.569  0.7320  1.6261 -0.3055
  261MPD2    H2 4009   3.673   4.598  12.897 -0.5666  1.2715  0.3394
  261MPD2    H3 4010   3.521   4.657  12.714  0.3150 -0.8672  5.5687
  261MPD2     N 4011   3.769   0.285  12.586  0.0889 -0.3497  0.3858
  261MPD2    H5 4012   3.848   0.343  12.611  0.4078 -1.3331  1.6454
  261MPD2    N1 4013   3.904   4.728  12.956  0.4457  0.3328  0.0089
  261MPD2    H7 4014   3.966   0.070  12.971  0.0698  0.3903  1.2668
  262TMC3    C1 4015   3.815   0.377  12.376 -0.0911 -0.2712  0.0159
  262TMC3    C2 4016   3.772   0.471  12.294 -0.1045 -0.2970  0.1983
  262TMC3    C3 4017   3.847   0.498  12.186 -0.2189  0.2179 -0.1180
  262TMC3    C4 4018   3.923   0.298  12.344 -0.2159  0.3616  0.3596
  262TMC3    C5 4019   3.999   0.325  12.233  0.2466 -0.9305  0.0216
  262TMC3    C6 4020   3.962   0.433  12.157  0.5096  0.0454  0.4075
  262TMC3     C 4021   3.716   0.304  12.459 -0.3217 -0.7236  0.4286
  262TMC3     O 4022   3.630   0.245  12.396  0.0379 -0.2638 -0.3962
  262TMC3     H 4023   3.678   0.520  12.315 -0.7209 -1.7695  0.8423
  262TMC3    H1 4024   3.942   0.203  12.393 -3.9530 -0.2275  0.6357
  262TMC3    H2 4025   4.021   0.468  12.074 -0.3190  0.4372 -0.0156
  262TMC3    C7 4026   4.049   0.206  12.170 -0.1080 -0.2865  0.7164
  262TMC3    C8 4027   3.792   0.584  12.078 -0.5652  0.4593  0.2413
  262TMC3    O1 4028   4.072   0.106  12.233 -0.6760  0.0983  0.1046
  262TMC3    O2 4029   3.867   0.643  12.009 -0.0840 -0.1170  0.3614
  263MPD2     C 4030   4.472   4.252  11.364 -0.1229 -0.5057  0.3355
  263MPD2    C1 4031   4.554   4.361  11.393 -0.3506  0.4285  0.5403
  263MPD2    C2 4032   4.557   4.470  11.311  0.6157  0.1911  0.6303
  263MPD2    C3 4033   4.478   4.467  11.200  0.3517  0.6285  0.1471
  263MPD2    C4 4034   4.397   4.355  11.173 -0.0037 -0.8632 -0.0762
  263MPD2    C5 4035   4.389   4.250  11.259 -0.1211 -0.3766 -0.0906
  263MPD2     H 4036   4.603   4.562  11.347  1.5049 -0.1950  0.4873
  263MPD2    H1 4037   4.323   4.357  11.094 -3.1431 -2.4024  2.8438
  263MPD2    H2 4038   4.449   4.176  11.438 -1.2939  1.5702  2.1270
  263MPD2    H3 4039   4.313   4.176  11.237 -2.0388  1.6884 -0.4873
  263MPD2     N 4040   4.486   4.576  11.105  0.1565  1.1836 -0.5818
  263MPD2    H5 4041   4.540   4.658  11.133  1.9734  0.3900 -1.8043
  263MPD2    N1 4042   4.633   4.345  11.510  0.3616 -0.3346  0.4041
  263MPD2    H7 4043   4.617   4.259  11.562  0.5078 -0.3150  0.4807
  264TMC3    C1 4044   4.458   4.690  10.912  0.6272 -0.1780  0.6587
  264TMC3    C2 4045   4.472   0.073  10.972  0.0628 -0.3616  0.7490
  264TMC3    C3 4046   4.509   0.173  10.882 -0.3151 -1.4351 -0.4034
  264TMC3    C4 4047   4.508   4.662  10.792 -0.6421 -0.2939  1.2136
  264TMC3    C5 4048   4.555   0.025  10.713 -1.3200  0.0846 -0.3378
  264TMC3    C6 4049   4.533   0.158  10.746 -0.3784  0.0998  0.0564
  264TMC3     C 4050   4.440   4.569  10.981  0.0899 -1.3159  0.1065
  264TMC3     O 4051   4.404   4.473  10.915 -0.1462  0.4939 -0.3477
  264TMC3     H 4052   4.448   0.092  11.076 -1.9743  2.0398 -0.1588
  264TMC3    H1 4053   4.538   4.560  10.771 -2.3609 -0.4022 -0.6999
  264TMC3    H2 4054   4.566   0.240  10.683  0.6084  0.3359  0.8854
  264TMC3    C7 4055   4.679   4.736  10.655 -0.4610 -0.2927 -0.2308
  264TMC3    C8 4056   4.561   0.293  10.948 -0.2478  0.0518  0.4094
  264TMC3    O1 4057   4.702   4.634  10.598  0.0034  0.1568  0.1361
  264TMC3    O2 4058   4.657   0.337  10.883 -0.1147  0.1831  0.0251
  265MPD2     C 4059   2.841   4.662  15.735 -1.0062 -0.2328  0.3449
  265MPD2    C1 4060   2.766   4.725  15.644 -0.1658  0.5737 -0.9149
  265MPD2    C2 4061   2.785   4.694  15.507  0.3382  0.0249  0.2078
  265MPD2    C3 4062   2.870   4.594  15.464 -0.1332 -0.7544 -0.0215
  265MPD2    C4 4063   2.945   4.531  15.559 -0.9550  0.1818 -0.2886
  265MPD2    C5 4064   2.935   4.574  15.687  0.8402 -0.0969 -0.8691
  265MPD2     H 4065   2.716   0.005  15.439 -2.2808  0.6801  3.2647
  265MPD2    H1 4066   3.033   4.469  15.545  0.0584  1.2785  1.2828
  265MPD2    H2 4067   2.834   4.693  15.838  0.1826  1.6856 -0.1606
  265MPD2    H3 4068   3.001   4.525  15.758  0.4835 -1.6721 -1.6292
  265MPD2     N 4069   2.884   4.560  15.325 -0.1926 -0.0812 -0.3609
  265MPD2    H5 4070   2.950   4.487  15.301 -0.5566 -0.8647  1.0266
  265MPD2    N1 4071   2.667   0.068  15.696 -0.5294 -0.2155  0.2306
  265MPD2    H7 4072   2.677   0.089  15.794  2.5989  1.0264 -0.3734
  266TMC3    C1 4073   2.476   0.200  15.706  0.1531  0.3959  0.3949
  266TMC3    C2 4074   2.526   0.273  15.808 -0.2545 -0.4250  0.6282
  266TMC3    C3 4075   2.444   0.366  15.860  0.4812 -0.0290  0.3598
  266TMC3    C4 4076   2.342   0.203  15.676  0.0594 -0.9420 -0.4438
  266TMC3    C5 4077   2.263   0.287  15.739 -0.2911 -0.1171 -0.2833
  266TMC3    C6 4078   2.312   0.377  15.821  0.0627 -0.5085  0.7816
  266TMC3     C 4079   2.564   0.121  15.622 -0.4042 -0.1716 -0.0483
  266TMC3     O 4080   2.525   0.110  15.504  0.4424  0.2655  0.1942
  266TMC3     H 4081   2.632   0.270  15.831  0.1934 -1.1699 -1.5138
  266TMC3    H1 4082   2.300   0.130  15.608 -2.5257  2.1179 -2.1026
  266TMC3    H2 4083   2.243   0.433  15.884 -0.6904 -0.2545 -0.2773
  266TMC3    C7 4084   2.119   0.283  15.724  0.3145  0.4776 -0.6896
  266TMC3    C8 4085   2.492   0.455  15.957 -0.0030 -0.3148  0.1814
  266TMC3    O1 4086   2.054   0.378  15.767 -0.3623  0.4582 -0.2556
  266TMC3    O2 4087   2.584   0.408  16.021 -0.5524  0.1228 -0.0972
  267MPD2     C 4088   0.606   2.014   0.687  1.4579  0.3497 -0.0689
  267MPD2    C1 4089   0.682   1.984   0.573  0.1155 -0.4436  0.1384
  267MPD2    C2 4090   0.694   2.087   0.481  0.5257  0.0000 -0.3303
  267MPD2    C3 4091   0.621   2.207   0.486  0.0407 -0.2202  0.0619
  267MPD2    C4 4092   0.539   2.224   0.591  0.1452 -0.6656 -0.0198
  267MPD2    C5 4093   0.544   2.135   0.690 -0.5070 -0.3968 -0.4601
  267MPD2     H 4094   0.779   2.084   0.413 -1.1766 -2.5804 -2.3627
  267MPD2    H1 4095   0.476   2.312   0.602 -1.7338 -1.8091 -1.7010
  267MPD2    H2 4096   0.579   1.940   0.762  1.6563 -1.6789 -2.0107
  267MPD2    H3 4097   0.476   2.158   0.772 -0.4622  0.8974 -0.7845
  267MPD2     N 4098   0.632   2.311   0.393  0.1844 -0.1897  0.3090
  267MPD2    H5 4099   0.588   2.401   0.408  0.7609  0.7138 -3.5254
  267MPD2    N1 4100   0.749   1.854   0.572 -0.7507  0.1756 -0.3542
  267MPD2    H7 4101   0.751   1.794   0.654  0.6317  0.1774 -0.3892
  268TMC3    C1 4102   0.874   1.668   0.483  0.4813 -0.1386  0.0539
  268TMC3    C2 4103   0.966   1.622   0.397 -0.3774 -0.0303 -0.8452
  268TMC3    C3 4104   1.010   1.494   0.406  0.8270 -1.2777  0.2465
  268TMC3    C4 4105   0.849   1.599   0.604 -0.1783  0.5077 -0.2204
  268TMC3    C5 4106   0.903   1.474   0.611 -0.4412  0.2581 -0.0056
  268TMC3    C6 4107   0.990   1.418   0.522 -0.6521  0.4804  0.5936
  268TMC3     C 4108   0.812   1.803   0.459 -0.7164 -0.3241 -0.6991
  268TMC3     O 4109   0.816   1.852   0.345 -0.4145 -0.5823  0.5288
  268TMC3     H 4110   0.984   1.686   0.311 -0.0702  0.6733 -0.2508
  268TMC3    H1 4111   0.786   1.632   0.686 -0.1364 -1.6865  0.6799
  268TMC3    H2 4112   1.040   1.323   0.525  0.4391  1.0659  0.8219
  268TMC3    C7 4113   0.907   1.397   0.729  0.4330  0.7379 -0.2066
  268TMC3    C8 4114   1.075   1.428   0.292  0.6319  0.4483  0.3992
  268TMC3    O1 4115   0.947   1.282   0.721  0.1657  0.2184 -0.6791
  268TMC3    O2 4116   1.083   1.303   0.297  0.1912 -0.6866  0.3092
  269MPD2     C 4117   0.288   0.528  15.327  0.0504 -0.7775 -0.1446
  269MPD2    C1 4118   0.154   0.557  15.342  0.2212  0.2363  0.4982
  269MPD2    C2 4119   0.116   0.687  15.347 -0.6384  0.2827  0.2857
  269MPD2    C3 4120   0.207   0.789  15.354  0.7118 -0.2828  0.3481
  269MPD2    C4 4121   0.344   0.757  15.363  0.4139 -0.1084  1.0737
  269MPD2    C5 4122   0.379   0.628  15.339  0.5631  0.0450 -0.3276
  269MPD2     H 4123   0.012   0.710  15.364 -1.0808  0.7136 -3.0590
  269MPD2    H1 4124   0.420   0.833  15.375 -0.5247  1.1861 -1.1828
  269MPD2    H2 4125   0.307   0.422  15.321 -0.5524 -0.7852 -1.8983
  269MPD2    H3 4126   0.483   0.599  15.352  1.2665  3.2546  1.2027
  269MPD2     N 4127   0.161   0.925  15.372  0.3713  0.3424 -0.3794
  269MPD2    H5 4128   0.061   0.933  15.386  0.5027  1.7154 -0.2398
  269MPD2    N1 4129   0.067   0.446  15.344  0.2724 -0.5378  0.0143
  269MPD2    H7 4130   0.110   0.356  15.325  1.4285 -0.1414  0.7476
  270TMC3    C1 4131   4.618   0.306  15.347 -0.2912 -0.2531  0.6677
  270TMC3    C2 4132   4.498   0.282  15.299 -0.7747 -0.6304  0.2852
  270TMC3    C3 4133   4.438   0.157  15.318  0.7578  0.2470 -0.6880
  270TMC3    C4 4134   4.691   0.202  15.396  1.2105 -0.0778 -0.5895
  270TMC3    C5 4135   4.641   0.076  15.402  1.0453 -0.0469  0.6455
  270TMC3    C6 4136   4.509   0.056  15.369 -0.2575  0.1484 -0.0271
  270TMC3     C 4137   4.667   0.440  15.353 -0.1027  0.2185 -0.4328
  270TMC3     O 4138   4.592   0.536  15.372 -0.0594 -0.0873 -0.1403
  270TMC3     H 4139   4.430   0.363  15.274 -0.6363 -0.2491  1.1709
  270TMC3    H1 4140   0.053   0.215  15.436  1.3508 -0.9822 -0.6469
  270TMC3    H2 4141   4.455   4.701  15.388 -1.0996  0.2142 -2.0778
  270TMC3    C7 4142   4.734   4.720  15.344 -0.1812  0.5569  0.2104
  270TMC3    C8 4143   4.361   0.111  15.203 -0.3765 -0.5788 -0.1520
  270TMC3    O1 4144   0.107   0.028  15.310 -0.8601 -0.7464 -0.2713
  270TMC3    O2 4145   4.255   0.055  15.214 -0.2562 -0.0583 -0.4803
  271MPD2     C 4146   4.108   4.552  13.619 -0.1140 -0.7448 -0.6948
  271MPD2    C1 4147   4.088   4.619  13.738  0.1817  0.1099 -0.1304
  271MPD2    C2 4148   4.005   4.722  13.731 -0.3433 -0.0706 -0.4222
  271MPD2    C3 4149   3.947   0.042  13.619  0.0880  0.6494 -0.2062
  271MPD2    C4 4150   3.970   4.716  13.501  0.7174  0.3318  0.4982
  271MPD2    C5 4151   4.043   4.601  13.506 -0.3981 -1.0078 -0.5518
  271MPD2     H 4152   4.000   0.043  13.823 -0.4094 -1.0980  0.2127
  271MPD2    H1 4153   3.936   0.013  13.404  1.0055 -0.9434 -0.0500
  271MPD2    H2 4154   4.178   4.470  13.613  1.0767  0.2581 -0.4478
  271MPD2    H3 4155   4.052   4.548  13.411  2.4387  1.1529 -1.4847
  271MPD2     N 4156   3.875   0.167  13.620  0.8403 -0.0312 -0.1475
  271MPD2    H5 4157   3.847   0.207  13.531 -1.4689  0.9890  1.0492
  271MPD2    N1 4158   4.140   4.579  13.866  0.0088 -0.3150  0.9217
  271MPD2    H7 4159   4.137   4.640  13.947 -0.7248 -0.4383  0.9884
  272TMC3    C1 4160   4.245   4.448  14.028  0.1321  0.1441  0.2546
  272TMC3    C2 4161   4.367   4.406  14.056  0.0674  0.2130 -0.4554
  272TMC3    C3 4162   4.413   4.411  14.181  0.3995 -0.1932 -0.6260
  272TMC3    C4 4163   4.170   4.502  14.124 -1.3237 -0.4431  0.4496
  272TMC3    C5 4164   4.224   4.516  14.249  0.6505 -0.0681 -0.4573
  272TMC3    C6 4165   4.340   4.460  14.284 -0.1845  0.1619 -0.7093
  272TMC3     C 4166   4.215   4.463  13.884 -0.4033 -0.0600  0.2435
  272TMC3     O 4167   4.241   4.374  13.804 -0.1976 -0.0785 -0.0315
  272TMC3     H 4168   4.431   4.369  13.977  0.2445 -0.8666  0.1921
  272TMC3    H1 4169   4.069   4.532  14.097 -0.5692  0.9788 -0.7953
  272TMC3    H2 4170   4.378   4.474  14.384  0.1385  3.4743 -1.2984
  272TMC3    C7 4171   4.136   4.601  14.335 -0.1464 -0.1312 -0.0157
  272TMC3    C8 4172   4.559   4.414  14.189 -0.0717 -0.1886 -0.0168
  272TMC3    O1 4173   4.021   4.629  14.301  0.3249 -0.5997  0.2544
  272TMC3    O2 4174   4.626   4.445  14.094 -0.2593  0.6245  0.2068
  273MPD2     C 4175   0.109   2.990  11.534 -0.0254  0.0403  0.1718
  273MPD2    C1 4176   0.240   3.019  11.567 -0.5912  0.1154 -0.8606
  273MPD2    C2 4177   0.315   3.084  11.476 -0.4956  0.2250  1.2164
  273MPD2    C3 4178   0.260   3.129  11.353 -0.3610 -0.1567  0.7613
  273MPD2    C4 4179   0.129   3.095  11.327  0.4455  0.2773  0.2313
  273MPD2    C5 4180   0.057   3.016  11.411 -0.3926 -0.0956 -0.3724
  273MPD2     H 4181   0.421   3.104  11.489 -0.6329  0.8039  1.4121
  273MPD2    H1 4182   0.086   3.142  11.239  0.0040 -0.7401 -0.0966
  273MPD2    H2 4183   0.036   2.953  11.605  0.1104  0.4427  0.5219
  273MPD2    H3 4184   4.693   2.988  11.386 -0.0960 -0.6433 -0.9397
  273MPD2     N 4185   0.322   3.221  11.259 -0.5043 -0.3223 -0.6440
  273MPD2    H5 4186   0.259   3.259  11.188  0.1918  0.3008 -0.9268
  273MPD2    N1 4187   0.294   2.957  11.683 -0.0876  0.4474  0.0049
  273MPD2    H7 4188   0.229   2.909  11.744 -1.0109  0.2472 -1.1225
  274TMC3    C1 4189   0.471   3.382  11.187  0.3339  0.6648 -0.7135
  274TMC3    C2 4190   0.411   3.389  11.060 -0.0522  0.6315 -0.2668
  274TMC3    C3 4191   0.445   3.501  10.986  0.1387  0.3342  0.5261
  274TMC3    C4 4192   0.571   3.468  11.216 -0.2571  0.5033 -0.1659
  274TMC3    C5 4193   0.613   3.565  11.135 -0.0817  0.7956 -0.4205
  274TMC3    C6 4194   0.549   3.586  11.017 -0.1113 -0.1763 -0.3763
  274TMC3     C 4195   0.439   3.285  11.287 -0.7975  0.2625  0.1920
  274TMC3     O 4196   0.510   3.284  11.388  0.3116  0.8359 -0.8320
  274TMC3     H 4197   0.326   3.324  11.042  0.1054  0.1456  0.7137
  274TMC3    H1 4198   0.616   3.454  11.314 -0.7119  0.4371  0.0357
  274TMC3    H2 4199   0.585   3.664  10.952 -0.3664 -1.4896 -2.1143
  274TMC3    C7 4200   0.682   3.683  11.187 -0.2343  0.1194  0.1061
  274TMC3    C8 4201   0.375   3.510  10.853  0.3906  0.6884  0.5298
  274TMC3    O1 4202   0.780   3.723  11.129  0.6748  0.6657  0.5269
  274TMC3    O2 4203   0.275   3.440  10.832 -0.3586  0.0667 -0.0783
  275MPD2     C 4204   0.710   1.340  14.277  0.3299  0.1295  0.5274
  275MPD2    C1 4205   0.602   1.402  14.329 -0.3901  0.2649 -0.1005
  275MPD2    C2 4206   0.476   1.350  14.304 -0.6215 -0.0484  0.0948
  275MPD2    C3 4207   0.465   1.228  14.239  0.1281 -0.4243 -0.3238
  275MPD2    C4 4208   0.575   1.163  14.192  0.0905  0.8958 -0.3070
  275MPD2    C5 4209   0.699   1.225  14.208  0.6395 -0.1528  0.3415
  275MPD2     H 4210   0.381   1.398  14.323  0.0154  1.3189 -0.1668
  275MPD2    H1 4211   0.575   1.067  14.142 -3.9637  0.6551  0.2016
  275MPD2    H2 4212   0.812   1.366  14.302 -0.0199  0.6047  1.4557
  275MPD2    H3 4213   0.781   1.172  14.160 -0.2364 -1.8528  0.7370
  275MPD2     N 4214   0.342   1.167  14.204  0.3768 -0.7330  0.0323
  275MPD2    H5 4215   0.343   1.082  14.149 -0.0439 -0.6833 -0.0555
  275MPD2    N1 4216   0.611   1.520  14.412  0.5305  0.1615 -0.6616
  275MPD2    H7 4217   0.528   1.550  14.461  0.0954 -2.2130  0.0624
  276TMC3    C1 4218   0.719   1.679  14.546 -0.4748 -0.1818 -0.0298
  276TMC3    C2 4219   0.602   1.700  14.613 -0.2459  0.1855 -0.0750
  276TMC3    C3 4220   0.611   1.726  14.752  0.1210 -0.0551  0.2175
  276TMC3    C4 4221   0.839   1.699  14.603 -0.5056  0.3025  0.3258
  276TMC3    C5 4222   0.848   1.727  14.739 -0.3741 -0.3328  0.1708
  276TMC3    C6 4223   0.731   1.736  14.817  0.1103 -0.3470 -0.1399
  276TMC3     C 4224   0.725   1.583  14.432  0.3791 -0.0013 -0.6070
  276TMC3     O 4225   0.832   1.574  14.380  0.0755 -0.0359  0.4307
  276TMC3     H 4226   0.506   1.689  14.565  1.0117 -2.3140 -1.9803
  276TMC3    H1 4227   0.930   1.668  14.554  0.1797 -0.6695  2.2164
  276TMC3    H2 4228   0.720   1.751  14.923 -0.0916  1.4548 -0.4106
  276TMC3    C7 4229   0.974   1.759  14.802  0.8097  0.1590 -0.5272
  276TMC3    C8 4230   0.510   1.654  14.820 -0.0310 -0.1328 -0.3737
  276TMC3    O1 4231   0.974   1.818  14.908 -0.0074 -0.0849 -0.7615
  276TMC3    O2 4232   0.393   1.671  14.781 -0.7596 -0.0279  0.2892
  277MPD2     C 4233   2.735   0.336  13.176  0.5441  0.2307 -0.3504
  277MPD2    C1 4234   2.610   0.340  13.236 -0.0819 -0.2711  0.2742
  277MPD2    C2 4235   2.605   0.288  13.358 -0.2298  0.1151  0.2178
  277MPD2    C3 4236   2.704   0.219  13.420 -0.0681 -0.6681 -0.1264
  277MPD2    C4 4237   2.821   0.210  13.356  0.1449 -0.3127 -0.0507
  277MPD2    C5 4238   2.829   0.266  13.232 -0.1119 -0.0160 -0.6825
  277MPD2     H 4239   2.505   0.301  13.397 -0.5408 -1.5912 -0.0054
  277MPD2    H1 4240   2.909   0.160  13.395 -0.6194 -0.6459  1.2636
  277MPD2    H2 4241   2.753   0.369  13.074  1.6032  1.2785  0.1736
  277MPD2    H3 4242   2.921   0.251  13.176  1.3078  0.7720  1.4355
  277MPD2     N 4243   2.681   0.162  13.545  0.1861  0.1668  0.3022
  277MPD2    H5 4244   2.588   0.182  13.580  1.0141  2.0088  1.4327
  277MPD2    N1 4245   2.500   0.409  13.175  0.1509 -0.4340 -0.2326
  277MPD2    H7 4246   2.521   0.476  13.101  0.3011 -0.8045 -0.5262
  278TMC3    C1 4247   2.687   0.035  13.726  0.7287 -0.3489 -0.4796
  278TMC3    C2 4248   2.669   4.638  13.731  0.4884 -0.0421 -0.1770
  278TMC3    C3 4249   2.545   4.583  13.753 -0.3857 -1.0246  0.3619
  278TMC3    C4 4250   2.590   0.113  13.767 -0.9216  0.0303 -0.2628
  278TMC3    C5 4251   2.462   0.061  13.799 -0.1126 -0.4480  0.4013
  278TMC3    C6 4252   2.436   4.662  13.795  0.0572 -0.2646  0.1634
  278TMC3     C 4253   2.766   0.081  13.617 -0.0933 -0.4499 -0.5121
  278TMC3     O 4254   2.858   0.014  13.573 -0.0895  0.0206 -0.1753
  278TMC3     H 4255   2.744   4.587  13.672 -0.4596  0.3267 -1.6800
  278TMC3    H1 4256   2.598   0.221  13.765  0.3886 -0.0468  0.9573
  278TMC3    H2 4257   2.336   4.621  13.789  0.0620 -0.5263  2.1553
  278TMC3    C7 4258   2.360   0.151  13.763  0.1712  0.1464  0.0589
  278TMC3    C8 4259   2.532   4.438  13.754  0.4090  0.0810 -0.3759
  278TMC3    O1 4260   2.385   0.227  13.673  0.3145 -0.1264 -0.5823
  278TMC3    O2 4261   2.638   4.379  13.759 -0.3315 -0.1317  0.4775
  279MPD2     C 4262   1.911   0.539   0.294 -0.4938  0.3652  0.0149
  279MPD2    C1 4263   1.865   0.426   0.235 -0.1468  0.2789  0.6224
  279MPD2    C2 4264   1.881   0.406   0.094 -0.0536 -0.2858  0.0782
  279MPD2    C3 4265   1.929   0.517   0.022  0.6285  0.0322  0.3810
  279MPD2    C4 4266   1.969   0.628   0.088 -0.4915 -0.0297  0.0759
  279MPD2    C5 4267   1.961   0.643   0.226  0.5322  1.1497 -0.4972
  279MPD2     H 4268   1.840   0.322   0.038 -0.9005 -1.4227  2.4025
  279MPD2    H1 4269   2.006   0.709   0.027  1.3478 -0.0784  1.1339
  279MPD2    H2 4270   1.896   0.562   0.399 -2.1279 -0.7309  0.0150
  279MPD2    H3 4271   1.979   0.739   0.274  0.1829  2.4150 -2.9370
  279MPD2     N 4272   1.929   0.528  17.626  0.0622 -1.3884 -0.2242
  279MPD2    H5 4273   1.932   0.622  17.590  1.3657 -1.3458 -0.0034
  279MPD2    N1 4274   1.826   0.309   0.309 -0.0036 -0.1521  0.0844
  279MPD2    H7 4275   1.794   0.231   0.252 -2.4119 -0.8460  2.3747
  280TMC3    C1 4276   1.706   0.209   0.473 -0.4853  0.5160 -0.3544
  280TMC3    C2 4277   1.678   0.114   0.378 -0.4757  0.5432  0.0382
  280TMC3    C3 4278   1.548   0.098   0.339 -0.1877  0.1206  0.4049
  280TMC3    C4 4279   1.600   0.278   0.531  0.5534 -0.2352 -0.1815
  280TMC3    C5 4280   1.475   0.253   0.495 -0.6806  0.0579  0.1115
  280TMC3    C6 4281   1.448   0.162   0.396  0.0866  0.5675 -0.3045
  280TMC3     C 4282   1.817   0.296   0.449  0.0993 -0.1673 -0.2481
  280TMC3     O 4283   1.851   0.382   0.532  0.2502 -0.1549 -0.5255
  280TMC3     H 4284   1.761   0.052   0.347 -0.1303  0.1394  1.7621
  280TMC3    H1 4285   1.613   0.369   0.588 -2.2654 -0.2282  0.4775
  280TMC3    H2 4286   1.345   0.129   0.382 -0.3126  2.2640 -1.4233
  280TMC3    C7 4287   1.375   0.366   0.510  0.0319  0.2411  0.5385
  280TMC3    C8 4288   1.512   4.733   0.242 -0.8228  0.2546  0.9566
  280TMC3    O1 4289   1.387   0.430   0.615  0.2318 -0.2651 -0.0726
  280TMC3    O2 4290   1.389   4.725   0.211 -0.0904  0.1763  0.0549
  281TMC3    C1 4291   0.606   0.300  13.295 -0.1275 -0.1693  0.7560
  281TMC3    C2 4292   0.593   0.349  13.166  0.1594 -0.1731  0.5314
  281TMC3    C3 4293   0.496   0.289  13.088  0.1513 -0.6285 -0.3921
  281TMC3    C4 4294   0.525   0.201  13.345  1.0407 -0.1851  0.0549
  281TMC3    C5 4295   0.433   0.143  13.265 -0.0900 -0.0363 -0.0100
  281TMC3    C6 4296   0.423   0.187  13.137 -0.3584 -0.2006  0.6485
  281TMC3     C 4297   0.624   0.402  13.402 -0.7182  0.3747 -0.5327
  281TMC3     O 4298   0.723   0.381  13.474 -0.1067  0.5728  0.1961
  281TMC3     H 4299   0.644   0.440  13.137  0.4646 -0.4180  0.3023
  281TMC3    H1 4300   0.529   0.174  13.449 -1.2825 -0.6651  0.0099
  281TMC3    H2 4301   0.352   0.138  13.072  1.1779 -1.4437 -0.1005
  281TMC3    C7 4302   0.350   0.026  13.306 -0.3990 -0.7456  0.6402
  281TMC3    C8 4303   0.422   0.380  13.005  0.3394 -0.1980 -0.1501
  281TMC3    O1 4304   0.283   4.697  13.227 -0.5709 -0.6545 -0.8769
  281TMC3    O2 4305   0.304   0.362  13.017  0.0104  0.2943  0.0770
  282MPD2     C 4306   2.309   1.515  14.770  0.2853  0.2371  0.3299
  282MPD2    C1 4307   2.192   1.585  14.773 -0.1222  0.2832 -0.2457
  282MPD2    C2 4308   2.103   1.568  14.671 -0.1287  0.2207  0.6723
  282MPD2    C3 4309   2.125   1.485  14.566  0.1264 -0.1837 -0.0612
  282MPD2    C4 4310   2.246   1.418  14.562  0.7045  0.3091 -0.0544
  282MPD2    C5 4311   2.340   1.433  14.665  0.2242 -0.3163  0.5368
  282MPD2     H 4312   2.012   1.627  14.674  0.3189  0.8986  1.0012
  282MPD2    H1 4313   2.281   1.348  14.487 -0.9258 -1.4430  0.8204
  282MPD2    H2 4314   2.388   1.527  14.844  0.0048 -3.1486  1.1862
  282MPD2    H3 4315   2.436   1.388  14.641  0.1699  0.9541 -2.0427
  282MPD2     N 4316   2.029   1.476  14.459 -0.0564 -0.5074 -0.0250
  282MPD2    H5 4317   1.952   1.542  14.460 -0.0823 -0.6061  3.6399
  282MPD2    N1 4318   2.159   1.668  14.882  0.1453 -0.3141  0.3286
  282MPD2    H7 4319   2.065   1.698  14.904 -0.3261 -0.8420 -0.9785
  283TMC3    C1 4320   2.209   1.759  15.090 -0.2162 -0.2367  0.0704
  283TMC3    C2 4321   2.294   1.842  15.153  0.0627  0.0283  0.5097
  283TMC3    C3 4322   2.241   1.906  15.267  0.2777 -0.1749  0.2538
  283TMC3    C4 4323   2.089   1.718  15.142 -0.4233 -0.8333 -0.6488
  283TMC3    C5 4324   2.056   1.752  15.269 -0.4674  0.2256 -0.1731
  283TMC3    C6 4325   2.120   1.865  15.323 -0.6629 -0.1007 -0.4615
  283TMC3     C 4326   2.256   1.710  14.973 -0.8294  0.2325 -0.0567
  283TMC3     O 4327   2.378   1.720  14.955 -0.2406 -0.4218  0.1953
  283TMC3     H 4328   2.394   1.870  15.123  0.3757 -2.2106 -0.5266
  283TMC3    H1 4329   2.037   1.634  15.098 -1.3665 -0.5564 -0.0754
  283TMC3    H2 4330   2.088   1.892  15.423 -0.1257  0.5198 -0.4591
  283TMC3    C7 4331   1.956   1.679  15.347 -0.5581 -0.3537  0.0900
  283TMC3    C8 4332   2.330   1.998  15.341 -0.4051  0.8350  1.2305
  283TMC3    O1 4333   1.949   1.705  15.463  0.2565  0.2426  0.0105
  283TMC3    O2 4334   2.441   1.954  15.351 -0.3522 -0.2172 -0.0732
  284MPD2     C 4335   4.385   1.357  11.983  0.3211 -0.1671 -0.7651
  284MPD2    C1 4336   4.491   1.315  11.906 -0.6579 -0.4302  0.1314
  284MPD2    C2 4337   4.539   1.185  11.925  0.1758  0.2741  0.7460
  284MPD2    C3 4338   4.503   1.118  12.042 -0.9494 -0.1790  0.1722
  284MPD2    C4 4339   4.395   1.163  12.119 -0.6731 -0.1602  0.2004
  284MPD2    C5 4340   4.340   1.273  12.086 -0.5776 -0.4570  0.5936
  284MPD2     H 4341   4.613   1.138  11.862 -0.6910 -0.2991  0.1497
  284MPD2    H1 4342   4.353   1.102  12.198  1.1672 -1.4895  0.1596
  284MPD2    H2 4343   4.341   1.455  11.965 -0.4441 -0.3682 -0.0249
  284MPD2    H3 4344   4.267   1.317  12.153 -1.2587  0.5803 -0.8363
  284MPD2     N 4345   4.569   0.998  12.067 -0.2096 -0.6087 -0.4047
  284MPD2    H5 4346   4.648   0.983  12.005  1.4631  1.0965  1.3116
  284MPD2    N1 4347   4.550   1.389  11.810 -1.0336 -0.1141 -0.1510
  284MPD2    H7 4348   4.635   1.345  11.775 -0.1894  0.3554  1.2941
  285TMC3    C1 4349   4.595   1.575  11.661 -0.1990  0.0313  0.7994
  285TMC3    C2 4350   4.704   1.511  11.623 -0.8490  0.0414  0.3823
  285TMC3    C3 4351   0.055   1.581  11.545 -0.1066 -0.4308 -0.3637
  285TMC3    C4 4352   4.569   1.704  11.622 -0.0750  0.3737  0.2543
  285TMC3    C5 4353   4.658   1.765  11.537 -0.2768  0.5354  0.2490
  285TMC3    C6 4354   0.028   1.700  11.491 -0.4268  0.4670 -0.3158
  285TMC3     C 4355   4.506   1.511  11.759 -0.1475 -0.1198  0.3434
  285TMC3     O 4356   4.411   1.580  11.792  0.3339  0.0521 -0.1275
  285TMC3     H 4357   4.733   1.409  11.646 -1.8809 -0.5359 -0.8763
  285TMC3    H1 4358   4.486   1.765  11.656 -0.2627  0.1532  0.1883
  285TMC3    H2 4359   0.103   1.745  11.427 -0.1585 -0.3883 -0.6163
  285TMC3    C7 4360   4.647   1.895  11.484  0.3002  0.6862  0.0294
  285TMC3    C8 4361   0.138   1.489  11.468  0.3684 -0.5251  0.1321
  285TMC3    O1 4362   0.013   1.940  11.430 -0.2841  0.0912  0.1632
  285TMC3    O2 4363   0.113   1.371  11.478  0.0350  0.1973  0.2891
  286MPD2     C 4364   0.675   4.727   1.766 -0.5837  0.2109 -0.5320
  286MPD2    C1 4365   0.665   4.686   1.632  0.5039 -0.5299 -0.1418
  286MPD2    C2 4366   0.777   4.627   1.575  0.0904  0.5008 -0.5250
  286MPD2    C3 4367   0.897   4.595   1.646 -0.4396 -0.2584 -0.3953
  286MPD2    C4 4368   0.904   4.650   1.770  0.2013  0.1953 -0.0912
  286MPD2    C5 4369   0.796   4.710   1.825  0.9663 -0.1742  0.4059
  286MPD2     H 4370   0.764   4.608   1.469  1.2459  0.2007 -0.6155
  286MPD2    H1 4371   0.988   4.630   1.836 -0.0703 -2.6471 -0.5902
  286MPD2    H2 4372   0.587   0.025   1.820 -0.6319  0.2950 -0.6641
  286MPD2    H3 4373   0.809   0.026   1.918 -0.6557  0.5173  0.2484
  286MPD2     N 4374   1.004   4.536   1.578  0.3561 -0.1064  0.2687
  286MPD2    H5 4375   1.094   4.565   1.616  0.2612 -2.3431  2.2082
  286MPD2    N1 4376   0.550   4.698   1.551  0.2174 -0.1491  0.1974
  286MPD2    H7 4377   0.564   4.665   1.456  0.9044  2.5596 -0.6139
  287TMC3    C1 4378   1.116   4.445   1.395  0.0690  0.7859 -0.8116
  287TMC3    C2 4379   1.100   4.402   1.267  0.9116  0.2276 -0.0269
  287TMC3    C3 4380   1.212   4.352   1.203  0.5486  0.9715  0.2797
  287TMC3    C4 4381   1.235   4.408   1.466 -0.5173  0.7491 -0.3198
  287TMC3    C5 4382   1.345   4.371   1.394  0.2994 -0.0693  0.4531
  287TMC3    C6 4383   1.338   4.349   1.261 -0.1693  0.5550  0.0024
  287TMC3     C 4384   0.992   4.473   1.460 -0.3448  0.0991 -0.0720
  287TMC3     O 4385   0.893   4.441   1.392  0.3893 -0.4486  0.1789
  287TMC3     H 4386   1.005   4.405   1.215  0.2494 -0.4836  1.1399
  287TMC3    H1 4387   1.244   4.420   1.573  0.5991  1.5841 -0.5105
  287TMC3    H2 4388   1.426   4.343   1.198 -0.8982  1.5025 -1.1134
  287TMC3    C7 4389   1.473   4.348   1.459 -0.1625  0.6895 -0.6222
  287TMC3    C8 4390   1.192   4.304   1.067 -0.6494  0.7685 -0.6327
  287TMC3    O1 4391   1.474   4.370   1.581  0.1660  0.1938 -0.2351
  287TMC3    O2 4392   1.076   4.283   1.024 -0.3685 -0.0143  0.2757
  288TMC3    C1 4393   3.321   4.584  14.354  0.8313 -0.0803  0.3695
  288TMC3    C2 4394   3.226   4.645  14.425  0.2726  0.1056  0.2796
  288TMC3    C3 4395   3.196   0.036  14.376 -0.3970  0.3155  0.2806
  288TMC3    C4 4396   3.378   4.630  14.237 -0.5905  0.0955  0.3412
  288TMC3    C5 4397   3.342   0.018  14.195  0.4812 -0.6307  0.3878
  288TMC3    C6 4398   3.252   0.092  14.265  0.1275  0.2478  0.0103
  288TMC3     C 4399   3.360   4.448  14.402 -0.4449 -0.4073  0.0064
  288TMC3     O 4400   3.357   4.429  14.521  0.5729 -0.4189 -0.1054
  288TMC3     H 4401   3.200   4.610  14.525 -0.4025 -2.9607 -0.9671
  288TMC3    H1 4402   3.451   4.570  14.183  0.0712  1.4666 -0.2888
  288TMC3    H2 4403   3.233   0.196  14.240  0.3443 -0.0166 -1.2867
  288TMC3    C7 4404   3.387   0.051  14.066 -0.3155  0.1208  0.4455
  288TMC3    C8 4405   3.111   0.115  14.463  0.0335 -0.2320  0.0564
  288TMC3    O1 4406   3.490   0.000  14.036 -0.3265 -0.4367  0.5841
  288TMC3    O2 4407   3.125   0.239  14.464 -0.6130 -0.5865  0.1152
  289MPD2     C 4408   2.644   3.690  14.477 -0.1193 -0.1829 -0.5560
  289MPD2    C1 4409   2.675   3.794  14.394  0.1296  0.4907  0.2819
  289MPD2    C2 4410   2.588   3.796  14.280  0.4198  0.1622 -0.4598
  289MPD2    C3 4411   2.481   3.704  14.258 -0.0571 -0.1124  0.3831
  289MPD2    C4 4412   2.460   3.604  14.352  0.7717  0.6748  0.6005
  289MPD2    C5 4413   2.545   3.599  14.462  0.8965 -0.1059  1.0851
  289MPD2     H 4414   2.617   3.857  14.195 -1.9520  1.3317 -0.4574
  289MPD2    H1 4415   2.382   3.529  14.345  0.8551  0.6642 -0.1337
  289MPD2    H2 4416   2.719   3.672  14.554 -1.0088 -0.8813  0.1393
  289MPD2    H3 4417   2.523   3.512  14.523  1.0507 -0.5440  0.5217
  289MPD2     N 4418   2.382   3.720  14.158  0.2195 -0.4361 -0.4629
  289MPD2    H5 4419   2.311   3.648  14.153 -0.0733 -0.2519  1.0974
  289MPD2    N1 4420   2.788   3.875  14.417  0.9009  0.6944  0.7508
  289MPD2    H7 4421   2.840   3.870  14.504  0.1959 -0.3320  1.1195
  290TMC3    C1 4422   2.255   3.809  13.979  0.4380  0.1909 -0.6314
  290TMC3    C2 4423   2.206   3.925  13.927 -0.4107 -0.0936 -0.5661
  290TMC3    C3 4424   2.098   3.922  13.835 -0.1041 -0.0796  0.2058
  290TMC3    C4 4425   2.208   3.688  13.937  0.3652 -0.1486 -0.1075
  290TMC3    C5 4426   2.099   3.688  13.849  0.2587 -0.1502  0.1077
  290TMC3    C6 4427   2.049   3.799  13.794 -0.2388 -0.1643 -0.2798
  290TMC3     C 4428   2.370   3.825  14.065 -0.6147 -0.6580 -0.4664
  290TMC3     O 4429   2.443   3.920  14.047  0.4531 -0.3538  0.8156
  290TMC3     H 4430   2.242   4.018  13.967 -0.8889 -0.6207  1.0956
  290TMC3    H1 4431   2.253   3.591  13.950  1.0268 -0.0759 -1.7591
  290TMC3    H2 4432   1.965   3.784  13.727 -1.9820  1.3185  1.5731
  290TMC3    C7 4433   2.042   3.565  13.806 -0.0743  0.2992 -0.3016
  290TMC3    C8 4434   2.028   4.048  13.811  0.5584 -0.3197  0.2605
  290TMC3    O1 4435   1.992   3.550  13.693  0.2419 -0.3878 -0.2762
  290TMC3    O2 4436   1.919   4.036  13.751 -0.2125 -0.2068 -1.0312
  291MPD2     C 4437   1.992   3.548   0.737  1.1591  0.2075  0.9750
  291MPD2    C1 4438   2.024   3.457   0.633 -0.1310 -0.6183  0.9807
  291MPD2    C2 4439   2.063   3.509   0.510  0.5625 -0.1369  0.1316
  291MPD2    C3 4440   2.075   3.646   0.494  0.6588  0.3418  0.3840
  291MPD2    C4 4441   2.052   3.733   0.597  0.0239  0.2257  0.1922
  291MPD2    C5 4442   2.013   3.681   0.714  0.5438 -0.2480  0.0668
  291MPD2     H 4443   2.094   3.443   0.430  0.0824  0.1013 -0.2552
  291MPD2    H1 4444   2.077   3.838   0.589  0.9002  0.2633  3.1736
  291MPD2    H2 4445   1.953   3.520   0.834  1.7019  1.0996  1.4474
  291MPD2    H3 4446   1.995   3.754   0.792 -1.3058  0.4230 -0.9887
  291MPD2     N 4447   2.127   3.707   0.377 -0.9791 -0.7457 -0.0527
  291MPD2    H5 4448   2.139   3.806   0.393  0.5779 -0.6257 -1.9650
  291MPD2    N1 4449   1.998   3.321   0.659 -0.2558 -0.2287  0.2752
  291MPD2    H7 4450   1.948   3.304   0.746  0.4133  0.0516  0.7083
  292TMC3    C1 4451   1.952   3.101   0.621 -0.3132 -0.7237  0.1545
  292TMC3    C2 4452   1.868   3.101   0.723 -0.5350  0.3341  0.2646
  292TMC3    C3 4453   1.816   2.983   0.763 -0.5237 -0.5281  0.4706
  292TMC3    C4 4454   1.973   2.992   0.548  0.2925  0.2596  0.1564
  292TMC3    C5 4455   1.931   2.866   0.595  0.6357  0.4864  0.3098
  292TMC3    C6 4456   1.847   2.860   0.702  0.9678  0.7318  0.8496
  292TMC3     C 4457   2.011   3.221   0.569 -0.7171 -0.5632 -0.6035
  292TMC3     O 4458   2.064   3.219   0.459  0.1443  0.1701  0.6874
  292TMC3     H 4459   1.835   3.195   0.768 -1.7430 -0.2384  0.5949
  292TMC3    H1 4460   2.038   2.992   0.462  1.5632  0.1561  1.1050
  292TMC3    H2 4461   1.826   2.765   0.749  2.9191 -0.1649 -0.0767
  292TMC3    C7 4462   1.983   2.755   0.524 -0.1026 -0.0627  0.1520
  292TMC3    C8 4463   1.750   2.981   0.899 -0.2609 -0.3416 -0.7472
  292TMC3    O1 4464   1.992   2.765   0.401 -0.5835  0.0502 -0.0341
  292TMC3    O2 4465   1.753   3.085   0.959  0.8599 -0.0412 -0.4026
  293MPD2     C 4466   3.430   4.190  12.704  0.4130 -0.5075  0.1028
  293MPD2    C1 4467   3.399   4.322  12.700  0.4159  1.1626 -0.4428
  293MPD2    C2 4468   3.437   4.407  12.809  0.6846 -0.0161 -0.2977
  293MPD2    C3 4469   3.491   4.349  12.924  0.1901  0.6813  0.6516
  293MPD2    C4 4470   3.512   4.217  12.924  0.2919 -0.0810 -0.5339
  293MPD2    C5 4471   3.481   4.138  12.817 -0.1147  0.2285  0.0256
  293MPD2     H 4472   3.430   4.515  12.806  0.0634 -0.0020  1.5161
  293MPD2    H1 4473   3.544   4.157  13.008 -0.6657 -1.1597 -0.9367
  293MPD2    H2 4474   3.393   4.127  12.623  0.0818  0.3022 -0.3764
  293MPD2    H3 4475   3.487   4.030  12.817 -1.2018  0.1630 -1.1371
  293MPD2     N 4476   3.534   4.437  13.022  0.4354  0.2983  0.3205
  293MPD2    H5 4477   3.514   4.537  13.016  2.0291  0.7829  2.8195
  293MPD2    N1 4478   3.352   4.369  12.573 -0.5887  0.3979  0.8727
  293MPD2    H7 4479   3.350   4.295  12.504  1.1624 -0.7192  1.9913
  294TMC3    C1 4480   3.244   4.513  12.423  0.1734 -0.0816 -0.8875
  294TMC3    C2 4481   3.220   4.408  12.339  0.2802 -0.6125  0.0410
  294TMC3    C3 4482   3.160   4.440  12.219 -0.1972  0.3007 -0.9374
  294TMC3    C4 4483   3.231   4.646  12.380 -0.5270 -0.3702 -1.2365
  294TMC3    C5 4484   3.175   4.672  12.255 -0.2999 -0.8981  0.0140
  294TMC3    C6 4485   3.146   4.565  12.172 -0.2607  0.2958 -0.0080
  294TMC3     C 4486   3.309   4.496  12.551 -0.5101  0.4532 -0.2607
  294TMC3     O 4487   3.286   4.583  12.633 -0.0011 -0.0157 -0.0595
  294TMC3     H 4488   3.241   4.304  12.363 -1.3889 -0.8581  0.4730
  294TMC3    H1 4489   3.257   4.731  12.442  2.8464 -0.7112 -2.1448
  294TMC3    H2 4490   3.079   4.584  12.089  1.5553 -1.1652 -1.8003
  294TMC3    C7 4491   3.157   0.076  12.218  0.6280 -0.1531 -0.3182
  294TMC3    C8 4492   3.090   4.332  12.157 -0.5456 -0.0493  0.1634
  294TMC3    O1 4493   3.170   0.157  12.306 -0.5241  0.5297 -0.2361
  294TMC3    O2 4494   3.071   4.227  12.221  0.4838 -0.0921 -0.1824
  295MPD2     C 4495   4.047   4.275   1.414 -0.7961 -0.2214  0.4527
  295MPD2    C1 4496   4.004   4.156   1.360  0.0071  0.8771  0.7896
  295MPD2    C2 4497   3.876   4.115   1.389  0.0774  0.3523 -0.3131
  295MPD2    C3 4498   3.787   4.192   1.461 -0.0440  0.4634  0.8853
  295MPD2    C4 4499   3.833   4.313   1.507 -0.9947 -0.2700 -0.5856
  295MPD2    C5 4500   3.969   4.345   1.493 -0.0990  0.0209 -0.1207
  295MPD2     H 4501   3.840   4.036   1.324  2.1574 -0.0904 -0.9286
  295MPD2    H1 4502   3.772   4.385   1.560 -0.5567 -0.5737  0.3368
  295MPD2    H2 4503   4.153   4.299   1.402 -0.8628  0.0052  0.2996
  295MPD2    H3 4504   4.010   4.436   1.533 -0.4203 -1.0299  2.5699
  295MPD2     N 4505   3.652   4.153   1.485  0.2986 -0.0226  0.1683
  295MPD2    H5 4506   3.591   4.220   1.532 -2.0931  0.2063 -3.2663
  295MPD2    N1 4507   4.087   4.076   1.274 -0.3230 -0.1482 -0.7573
  295MPD2    H7 4508   4.037   3.994   1.242  0.8886 -0.0067 -3.0763
  296TMC3    C1 4509   3.466   4.003   1.509 -0.2755 -0.5491  0.7421
  296TMC3    C2 4510   3.390   4.104   1.550 -0.6765  0.6726 -0.1729
  296TMC3    C3 4511   3.284   4.075   1.641 -0.7062 -0.4330  0.2695
  296TMC3    C4 4512   3.443   3.869   1.544 -0.5428  0.4542 -0.0858
  296TMC3    C5 4513   3.331   3.849   1.622 -0.1716 -0.4489 -0.2118
  296TMC3    C6 4514   3.251   3.945   1.678 -0.1349 -0.0406  0.0351
  296TMC3     C 4515   3.598   4.029   1.457  0.0572  0.9149 -0.2150
  296TMC3     O 4516   3.645   3.935   1.396 -0.4398  0.6409 -0.3072
  296TMC3     H 4517   3.408   4.201   1.505 -0.9686  1.0305  0.4855
  296TMC3    H1 4518   3.518   3.794   1.522 -0.5157  0.1167  1.1640
  296TMC3    H2 4519   3.175   3.921   1.751 -0.0063  1.8398  0.7740
  296TMC3    C7 4520   3.300   3.717   1.665  0.6158  0.8572  0.6404
  296TMC3    C8 4521   3.192   4.174   1.699  0.2190  0.1634  0.1423
  296TMC3    O1 4522   3.189   3.703   1.720 -0.3659 -0.0771  0.2354
  296TMC3    O2 4523   3.091   4.124   1.757 -0.1346 -0.1392  0.1071
  297MPD2     C 4524   1.319   0.441  16.279  0.3003  0.1608 -0.4307
  297MPD2    C1 4525   1.316   0.502  16.156  0.1845  0.2314 -0.6341
  297MPD2    C2 4526   1.433   0.546  16.096  0.0546 -0.0836  0.0310
  297MPD2    C3 4527   1.552   0.538  16.165 -0.7654  0.5700 -0.1115
  297MPD2    C4 4528   1.550   0.497  16.295  0.3601  0.0640  0.2938
  297MPD2    C5 4529   1.436   0.446  16.345  0.3246 -0.3675  0.2786
  297MPD2     H 4530   1.426   0.608  16.007 -0.1819 -0.3026 -0.1028
  297MPD2    H1 4531   1.639   0.501  16.357 -0.3535  0.5813  1.2962
  297MPD2    H2 4532   1.236   0.410  16.341  1.3502 -0.9524  0.3944
  297MPD2    H3 4533   1.442   0.411  16.448  2.2834 -1.3642 -0.1697
  297MPD2     N 4534   1.673   0.583  16.110 -0.5300  0.3198 -0.3633
  297MPD2    H5 4535   1.755   0.594  16.169 -0.7281  0.1294 -0.0526
  297MPD2    N1 4536   1.190   0.545  16.095  0.3459  0.0435 -0.0624
  297MPD2    H7 4537   1.198   0.601  16.011 -1.0591 -0.0162 -0.2355
  298TMC3    C1 4538   0.965   0.551  16.046  0.0110 -0.2481  0.1412
  298TMC3    C2 4539   1.007   0.576  15.921 -0.5373  0.8983  0.2967
  298TMC3    C3 4540   0.935   0.676  15.848  0.9467  0.0754  0.0429
  298TMC3    C4 4541   0.856   0.617  16.105 -0.2875  0.0781  0.0480
  298TMC3    C5 4542   0.787   0.700  16.030  0.2030  0.0904 -0.0733
  298TMC3    C6 4543   0.824   0.736  15.901 -0.4485 -0.0233  0.0995
  298TMC3     C 4544   1.069   0.502  16.125 -0.1138 -0.5745 -0.5004
  298TMC3     O 4545   1.033   0.436  16.225 -0.2484  0.0618  0.3039
  298TMC3     H 4546   1.070   0.502  15.874  2.6881  4.1384 -0.4468
  298TMC3    H1 4547   0.827   0.596  16.207  1.8533 -2.1136  0.2171
  298TMC3    H2 4548   0.791   0.829  15.857  1.9509  1.1110  0.6726
  298TMC3    C7 4549   0.721   0.805  16.103 -0.3430 -0.0935  0.3746
  298TMC3    C8 4550   0.983   0.723  15.719 -0.1135  0.7119  0.3130
  298TMC3    O1 4551   0.759   0.807  16.219  0.3613  0.6878  0.0769
  298TMC3    O2 4552   1.097   0.698  15.697  0.2454  0.0849  0.1776
  299MPD2     C 4553   1.277   0.526  10.362 -0.6588 -0.5790 -0.3092
  299MPD2    C1 4554   1.303   0.656  10.312 -0.3598  0.5399  0.3223
  299MPD2    C2 4555   1.208   0.706  10.220 -0.2943  1.0689  0.5380
  299MPD2    C3 4556   1.104   0.633  10.170  0.1504  0.6960  0.1273
  299MPD2    C4 4557   1.096   0.502  10.213  0.0481  0.2883  0.0445
  299MPD2    C5 4558   1.181   0.447  10.309  0.1106 -0.4475  0.3799
  299MPD2     H 4559   1.221   0.809  10.189 -2.3016  1.1952  0.1146
  299MPD2    H1 4560   1.022   0.426  10.193  0.3791  0.4380 -1.7530
  299MPD2    H2 4561   1.342   0.486  10.439  0.4317  1.3848 -0.2013
  299MPD2    H3 4562   1.166   0.345  10.344  0.1918 -1.2943 -2.0611
  299MPD2     N 4563   1.008   0.689  10.088 -0.0690 -0.1469 -0.1363
  299MPD2    H5 4564   0.946   0.621  10.045 -0.7992  0.8148 -0.6041
  299MPD2    N1 4565   1.417   0.737  10.353  0.4264  0.1070 -0.7376
  299MPD2    H7 4566   1.484   0.692  10.415 -0.8374 -1.2141 -0.3400
  300TMC3    C1 4567   0.853   0.840  10.011 -0.0811  0.2064 -1.2746
  300TMC3    C2 4568   0.820   0.970   9.989 -0.8674  0.7347 -0.2845
  300TMC3    C3 4569   0.702   1.024  10.017  0.1279 -0.3777  0.7333
  300TMC3    C4 4570   0.748   0.754  10.035  0.4145 -0.0264  0.1956
  300TMC3    C5 4571   0.629   0.811  10.064  0.4064  0.0039  0.5166
  300TMC3    C6 4572   0.609   0.945  10.073 -0.8036 -0.0080  0.1174
  300TMC3     C 4573   0.991   0.815  10.040  0.2293  0.2944 -0.3281
  300TMC3     O 4574   1.065   0.912  10.057 -0.1681  0.5184 -0.2889
  300TMC3     H 4575   0.900   1.031   9.950  1.2234 -2.6219 -1.2094
  300TMC3    H1 4576   0.763   0.648  10.050 -1.4960  0.2453  3.9323
  300TMC3    H2 4577   0.513   0.980  10.108 -0.5805  0.8330 -0.1263
  300TMC3    C7 4578   0.536   0.724  10.138 -0.3002  0.7960 -0.8677
  300TMC3    C8 4579   0.705   1.165  10.057  0.5584 -0.1803  0.8348
  300TMC3    O1 4580   0.500   0.620  10.083  0.1042  0.7446  0.3402
  300TMC3    O2 4581   0.816   1.207  10.081  0.0939 -0.1094  0.3695
  301MPD2     C 4582   4.534   2.219   0.827 -0.4822  0.1287  0.3775
  301MPD2    C1 4583   4.418   2.165   0.776 -1.0397 -0.2479  0.5033
  301MPD2    C2 4584   4.403   2.030   0.781  0.0886  0.3709 -0.2146
  301MPD2    C3 4585   4.500   1.951   0.843  0.0654 -0.9780 -0.3751
  301MPD2    C4 4586   4.610   2.004   0.888  0.0499 -0.2552 -0.0048
  301MPD2    C5 4587   4.630   2.136   0.890  0.2637 -0.3709 -0.2653
  301MPD2     H 4588   4.311   1.986   0.744 -0.1162 -0.6119  1.4525
  301MPD2    H1 4589   4.688   1.944   0.934 -0.9946 -0.4044  1.5662
  301MPD2    H2 4590   4.553   2.326   0.829 -0.8611  0.1222  4.0856
  301MPD2    H3 4591   4.717   2.180   0.936  1.4725 -0.8724 -2.0691
  301MPD2     N 4592   4.484   1.815   0.876 -0.2388 -0.1041 -0.2338
  301MPD2    H5 4593   4.569   1.766   0.901 -0.0865  0.1689 -0.2208
  301MPD2    N1 4594   4.310   2.237   0.721 -0.4909  0.4238  0.3417
  301MPD2    H7 4595   4.236   2.176   0.688 -0.8852  1.0064  0.1271
  302TMC3    C1 4596   4.375   1.611   0.888  0.0502  0.4476  0.3389
  302TMC3    C2 4597   4.464   1.556   0.982 -0.1664 -0.3123  0.3200
  302TMC3    C3 4598   4.429   1.434   1.035  0.3407  0.4416  0.1291
  302TMC3    C4 4599   4.259   1.551   0.855 -0.0800  0.4184 -0.6330
  302TMC3    C5 4600   4.235   1.425   0.902 -0.1860 -0.2642 -0.6225
  302TMC3    C6 4601   4.320   1.363   0.990  0.4573 -0.2935 -0.0135
  302TMC3     C 4602   4.364   1.752   0.871 -0.1935  1.0222 -0.5485
  302TMC3     O 4603   4.251   1.797   0.873 -0.0407  0.6677  0.0752
  302TMC3     H 4604   4.553   1.611   1.007  0.3872 -1.0828  0.0517
  302TMC3    H1 4605   4.188   1.606   0.794 -0.5564  0.3206 -0.1609
  302TMC3    H2 4606   4.294   1.263   1.023 -0.6501 -0.8196 -2.5376
  302TMC3    C7 4607   4.136   1.347   0.833 -0.8524  0.0949  0.2810
  302TMC3    C8 4608   4.532   1.351   1.089  0.4323  0.8673 -0.4871
  302TMC3    O1 4609   4.114   1.237   0.884  0.4927 -0.4614  0.1878
  302TMC3    O2 4610   4.510   1.233   1.075  0.1261 -0.4539  0.0856
  303MPD2     C 4611   3.840   0.575  10.470 -0.3538 -0.5165 -0.6195
  303MPD2    C1 4612   3.850   0.621  10.337  0.0873  0.0572 -0.4952
  303MPD2    C2 4613   3.914   0.549  10.234 -0.1299  0.4807  0.3607
  303MPD2    C3 4614   3.943   0.421  10.269  0.5143 -0.4436 -0.2303
  303MPD2    C4 4615   3.916   0.364  10.396  0.5792 -0.2351  0.4712
  303MPD2    C5 4616   3.868   0.443  10.491 -0.3589 -0.6226 -0.2001
  303MPD2     H 4617   3.923   0.583  10.132 -0.7224  2.0568  0.8330
  303MPD2    H1 4618   3.948   0.266  10.429 -0.5043 -0.2229  1.6057
  303MPD2    H2 4619   3.811   0.637  10.555  1.6342  0.8852 -0.9586
  303MPD2    H3 4620   3.841   0.401  10.587 -0.0104  1.1342  0.6678
  303MPD2     N 4621   3.987   0.324  10.174 -0.3360 -0.4564  0.2617
  303MPD2    H5 4622   3.976   0.227  10.203 -0.6377 -0.7699 -0.9017
  303MPD2    N1 4623   3.774   0.731  10.317 -0.6086 -0.0077 -0.3809
  303MPD2    H7 4624   3.718   0.763  10.395 -0.6324 -0.6766 -0.1232
  304TMC3    C1 4625   3.650   0.897  10.196 -0.0911 -0.0655 -0.1015
  304TMC3    C2 4626   3.657   0.985  10.088 -0.0712  0.2780 -0.0561
  304TMC3    C3 4627   3.540   1.029  10.037 -0.7329  0.3176 -0.1387
  304TMC3    C4 4628   3.532   0.863  10.254  0.8804 -0.0675 -0.6663
  304TMC3    C5 4629   3.419   0.917  10.205  0.7344  0.1006 -0.3739
  304TMC3    C6 4630   3.419   0.996  10.095  0.2936  0.6144  0.4121
  304TMC3     C 4631   3.759   0.800  10.199 -0.0672  0.9408 -0.4466
  304TMC3     O 4632   3.811   0.771  10.090 -0.3567  0.1109  0.7353
  304TMC3     H 4633   3.752   0.998  10.038 -0.4437 -1.2145 -1.1587
  304TMC3    H1 4634   3.513   0.798  10.338  1.8751  0.8617  0.2885
  304TMC3    H2 4635   3.333   1.054  10.065  0.1094  0.2350  0.2233
  304TMC3    C7 4636   3.308   0.827  10.201  0.1497  0.0464  0.7447
  304TMC3    C8 4637   3.523   1.004   9.901  0.2356  0.1535  1.1199
  304TMC3    O1 4638   3.290   0.743  10.289 -0.2867  0.2287  0.6742
  304TMC3    O2 4639   3.412   0.973   9.863 -0.0138  0.0895  0.0618
  305MPD2     C 4640   1.676   1.787  14.169 -0.2246  0.0588  0.0021
  305MPD2    C1 4641   1.797   1.788  14.104 -0.9063  0.1711 -0.3012
  305MPD2    C2 4642   1.789   1.758  13.969  0.8123  0.2675 -0.4433
  305MPD2    C3 4643   1.674   1.710  13.905  0.0743 -0.2301 -0.3110
  305MPD2    C4 4644   1.557   1.715  13.974  0.9074 -0.0969  0.2583
  305MPD2    C5 4645   1.557   1.756  14.103  0.5279  0.1924  0.9368
  305MPD2     H 4646   1.883   1.760  13.915 -0.5137  0.0942 -2.7834
  305MPD2    H1 4647   1.468   1.680  13.921  1.9386 -1.3218 -0.6708
  305MPD2    H2 4648   1.679   1.815  14.273  1.0988  0.1383 -0.0664
  305MPD2    H3 4649   1.470   1.770  14.166 -0.5485 -1.5424 -0.1646
  305MPD2     N 4650   1.669   1.674  13.767  0.8089  0.5641 -0.0822
  305MPD2    H5 4651   1.577   1.654  13.728  0.9040  1.8376 -0.9536
  305MPD2    N1 4652   1.915   1.813  14.177  0.3325  0.1144 -1.0241
  305MPD2    H7 4653   1.901   1.838  14.275 -1.0639  4.6105 -2.4003
  306TMC3    C1 4654   2.140   1.819  14.237 -0.4954  1.2254 -0.4733
  306TMC3    C2 4655   2.273   1.825  14.194 -0.2428 -0.1945  0.2596
  306TMC3    C3 4656   2.363   1.871  14.293 -0.0627  0.5509  0.4779
  306TMC3    C4 4657   2.099   1.868  14.362  0.7733  0.0575  0.1934
  306TMC3    C5 4658   2.196   1.913  14.452 -0.5816  0.6489 -0.5635
  306TMC3    C6 4659   2.323   1.914  14.421  1.0164  0.2368  0.1748
  306TMC3     C 4660   2.039   1.793  14.134  0.3851 -0.1047 -0.5149
  306TMC3     O 4661   2.075   1.751  14.025 -0.6481  0.5330 -0.0680
  306TMC3     H 4662   2.304   1.810  14.092  0.3676 -0.1840  0.4463
  306TMC3    H1 4663   1.994   1.875  14.387  0.5401  0.7968 -0.9610
  306TMC3    H2 4664   2.406   1.942  14.484  1.9180  1.9720 -1.7657
  306TMC3    C7 4665   2.154   2.010  14.554  0.7858  0.2881 -0.5951
  306TMC3    C8 4666   2.502   1.880  14.240  0.4967 -0.6481 -0.5381
  306TMC3    O1 4667   2.043   2.052  14.537  0.4721  0.4867  0.1043
  306TMC3    O2 4668   2.522   1.845  14.123  0.0700  0.0883  0.3784
  307MPD2     C 4669   0.705   0.647   0.059 -0.2850 -0.1985 -0.0153
  307MPD2    C1 4670   0.742   0.715   0.174  0.6461 -0.6352  0.3607
  307MPD2    C2 4671   0.726   0.654   0.293 -0.2451 -0.3714  0.3935
  307MPD2    C3 4672   0.673   0.529   0.300  0.1838 -0.5108 -0.6586
  307MPD2    C4 4673   0.618   0.463   0.192 -0.0220  0.4588  0.5349
  307MPD2    C5 4674   0.645   0.525   0.072  0.7475 -0.1478  0.0261
  307MPD2     H 4675   0.748   0.701   0.388  0.9818 -3.6516  1.7151
  307MPD2    H1 4676   0.565   0.369   0.201  1.4789 -0.2430  2.0879
  307MPD2    H2 4677   0.710   0.687  17.705 -0.7472 -1.6641 -0.6259
  307MPD2    H3 4678   0.604   0.470  17.735  1.0707 -1.5054  0.7560
  307MPD2     N 4679   0.654   0.469   0.426 -0.0070 -0.9688 -0.0523
  307MPD2    H5 4680   0.680   0.525   0.507  1.9909 -2.7341  0.5159
  307MPD2    N1 4681   0.794   0.846   0.170 -0.1656  0.8782  0.0285
  307MPD2    H7 4682   0.821   0.890   0.258  0.3933 -2.4774  1.5283
  308TMC3    C1 4683   0.374   0.272   0.710 -0.5615  0.7393 -0.9271
  308TMC3    C2 4684   0.376   0.391   0.762 -0.4613 -0.1528  0.1892
  308TMC3    C3 4685   0.484   0.477   0.740 -0.1229  0.1656 -0.2065
  308TMC3    C4 4686   0.474   0.236   0.622 -0.5497  0.0878  0.1186
  308TMC3    C5 4687   0.573   0.324   0.586  0.5259 -0.5245  0.2753
  308TMC3    C6 4688   0.583   0.448   0.652  0.0480  0.0781 -0.1139
  308TMC3     C 4689   0.258   0.193   0.697  0.2402  0.0392  0.3947
  308TMC3     O 4690   0.276   0.075   0.688 -0.0382 -0.1548 -0.4645
  308TMC3     H 4691   0.317   0.402   0.852  1.3803  0.2801  1.3458
  308TMC3    H1 4692   0.475   0.145   0.564 -2.1796  0.1500 -0.0216
  308TMC3    H2 4693   0.663   0.520   0.657  0.0089  0.0969  0.3101
  308TMC3    C7 4694   0.611   0.338   0.453  0.9211 -0.1102  0.7019
  308TMC3    C8 4695   0.519   0.568   0.845  0.1694  0.1389  0.7006
  308TMC3    O1 4696   0.586   0.248   0.376 -0.0086  0.2291  0.6878
  308TMC3    O2 4697   0.632   0.558   0.891  0.6048 -0.3094  0.0190
  309MPD2     C 4698   4.301   0.987  17.255 -0.1866  0.6504 -0.3154
  309MPD2    C1 4699   4.204   0.946  17.164  0.0761 -0.4650  0.2324
  309MPD2    C2 4700   4.076   0.910  17.219 -0.4310 -0.0421  0.6246
  309MPD2    C3 4701   4.043   0.942  17.349  0.0199  0.6851  0.3096
  309MPD2    C4 4702   4.141   0.983  17.434 -0.4146 -0.0788  0.1914
  309MPD2    C5 4703   4.264   1.015  17.382  0.4890  0.8912 -0.7193
  309MPD2     H 4704   3.992   0.880  17.157  0.2890 -1.0970  0.1658
  309MPD2    H1 4705   4.119   1.012  17.536  3.1235 -0.5209  1.0659
  309MPD2    H2 4706   4.404   1.003  17.227  0.1617 -0.7735  0.1591
  309MPD2    H3 4707   4.337   1.071  17.440  0.4083  0.1105  0.1533
  309MPD2     N 4708   3.913   0.923  17.396  0.2401 -0.0271 -0.2138
  309MPD2    H5 4709   3.898   0.919  17.497 -1.7160  1.2045 -0.4530
  309MPD2    N1 4710   4.236   0.922  17.022  0.3591 -0.1553 -0.7583
  309MPD2    H7 4711   4.163   0.883  16.963  0.1547  0.2225 -0.7522
  310TMC3    C1 4712   4.366   0.914  16.827 -0.6145  0.1446 -0.6057
  310TMC3    C2 4713   4.272   0.973  16.749 -0.3836  0.3890 -0.2582
  310TMC3    C3 4714   4.307   0.990  16.621  0.3264  0.3912  0.0588
  310TMC3    C4 4715   4.497   0.894  16.793 -0.7224  0.0362  0.0664
  310TMC3    C5 4716   4.529   0.917  16.655 -0.0850 -1.3443 -0.8801
  310TMC3    C6 4717   4.434   0.961  16.570  0.1827  0.0836 -0.3819
  310TMC3     C 4718   4.354   0.941  16.967 -0.4026 -0.1849  0.4783
  310TMC3     O 4719   4.462   0.981  17.013 -0.1145  0.1234  0.3697
  310TMC3     H 4720   4.175   1.006  16.783 -1.2933 -1.2573 -1.2638
  310TMC3    H1 4721   4.563   0.861  16.872 -1.0951  0.0746  0.3912
  310TMC3    H2 4722   4.463   0.969  16.466  1.3120  0.2080 -0.0542
  310TMC3    C7 4723   4.611   0.813  16.596 -0.0175 -0.2821 -0.7023
  310TMC3    C8 4724   4.196   1.001  16.528  0.1167  0.2864  0.0653
  310TMC3    O1 4725   4.620   0.815  16.478  0.8737 -0.9079 -0.7296
  310TMC3    O2 4726   4.090   0.953  16.562 -0.1182  0.1471  0.0675
  311MPD2     C 4727   0.924   2.071  12.998  0.1571  0.2843  0.6201
  311MPD2    C1 4728   0.996   1.954  12.976  0.2267 -0.1834 -0.0601
  311MPD2    C2 4729   0.931   1.834  12.974  0.1797  0.2020  0.2582
  311MPD2    C3 4730   0.793   1.833  12.986  0.4397 -0.2861  0.3951
  311MPD2    C4 4731   0.721   1.946  12.998 -0.1950  0.0438  0.4603
  311MPD2    C5 4732   0.788   2.065  12.998  0.1389  0.4413 -0.4177
  311MPD2     H 4733   0.985   1.740  12.967  1.6316  1.0632 -0.1037
  311MPD2    H1 4734   0.613   1.946  13.000 -0.1942 -1.6247  0.0484
  311MPD2    H2 4735   0.959   2.174  13.000 -2.0511  1.0045  2.1909
  311MPD2    H3 4736   0.729   2.156  13.007 -1.1365 -0.6076  1.6221
  311MPD2     N 4737   0.732   1.710  12.977  0.1909  0.5228  0.0079
  311MPD2    H5 4738   0.791   1.628  12.977  1.0438  1.1448  1.8929
  311MPD2    N1 4739   1.130   1.962  12.986  0.2892  0.4925  0.0686
  311MPD2    H7 4740   1.164   2.053  13.015  2.9067 -0.2451 -0.6508
  312TMC3    C1 4741   0.576   1.539  12.951  0.0788  0.1555 -0.8205
  312TMC3    C2 4742   0.520   1.500  12.838 -0.1943  0.2418 -0.2633
  312TMC3    C3 4743   0.492   1.365  12.818 -0.1464 -0.4094  0.3526
  312TMC3    C4 4744   0.622   1.458  13.049  0.8397 -0.1039  0.4910
  312TMC3    C5 4745   0.583   1.322  13.027 -0.9378 -0.0974  0.7175
  312TMC3    C6 4746   0.521   1.275  12.916 -0.3465  0.2131 -0.0148
  312TMC3     C 4747   0.597   1.686  12.963  0.7897  0.3209 -0.5150
  312TMC3     O 4748   0.495   1.753  12.936 -0.0770 -0.2175 -0.3243
  312TMC3     H 4749   0.496   1.574  12.763  0.8750  1.0730  0.2250
  312TMC3    H1 4750   0.651   1.491  13.148 -1.5470  2.5974  0.2770
  312TMC3    H2 4751   0.470   1.179  12.921 -0.9705  0.5060 -0.8423
  312TMC3    C7 4752   0.642   1.229  13.115 -0.3916 -1.3113  0.0461
  312TMC3    C8 4753   0.395   1.323  12.720 -0.4826 -0.0147  0.3658
  312TMC3    O1 4754   0.599   1.113  13.115 -0.4793 -0.2174 -0.3952
  312TMC3    O2 4755   0.366   1.202  12.718  0.4898  0.0568 -0.7126
  313MPD2     C 4756   4.401   1.484  11.416  0.6539 -0.2501  0.2646
  313MPD2    C1 4757   4.483   1.498  11.309  0.4911 -0.5293  0.2209
  313MPD2    C2 4758   4.549   1.391  11.249 -0.2838  0.3711  0.0524
  313MPD2    C3 4759   4.545   1.266  11.311  0.3433 -0.4648 -0.0009
  313MPD2    C4 4760   4.469   1.258  11.424  0.0614  0.3897 -0.1734
  313MPD2    C5 4761   4.396   1.363  11.472 -0.0295  0.0243 -0.3940
  313MPD2     H 4762   4.589   1.411  11.151 -0.3177  0.8221  0.1307
  313MPD2    H1 4763   4.459   1.164  11.478  0.8280  1.4171  1.7358
  313MPD2    H2 4764   4.342   1.565  11.458  1.5794  1.2895 -1.4269
  313MPD2    H3 4765   4.357   1.348  11.572 -1.6777 -1.2695 -1.2205
  313MPD2     N 4766   4.599   1.158  11.236  0.5249 -0.6138 -0.0631
  313MPD2    H5 4767   4.639   1.185  11.147 -2.8073 -0.1826 -1.4012
  313MPD2    N1 4768   4.506   1.621  11.236  0.1506  0.0743 -0.0238
  313MPD2    H7 4769   4.582   1.623  11.169 -0.8293 -0.7583 -1.1577
  314TMC3    C1 4770   4.479   1.839  11.149 -1.0583 -0.7515 -0.0840
  314TMC3    C2 4771   4.615   1.856  11.131 -0.2229 -0.2900 -0.2255
  314TMC3    C3 4772   4.651   1.954  11.048  0.2786 -0.4705 -0.4208
  314TMC3    C4 4773   4.379   1.912  11.088 -1.3506 -0.3722 -0.3774
  314TMC3    C5 4774   4.417   2.001  10.997  0.2542  0.6516  0.1011
  314TMC3    C6 4775   4.552   2.015  10.972 -0.7001  0.8572  0.3241
  314TMC3     C 4776   4.430   1.734  11.238  0.1547 -0.5243  0.2077
  314TMC3     O 4777   4.321   1.749  11.295 -0.1064  0.3144  0.0213
  314TMC3     H 4778   4.693   1.799  11.180 -0.4328  0.2901  0.7843
  314TMC3    H1 4779   4.276   1.894  11.117 -0.7485 -0.4899  1.6753
  314TMC3    H2 4780   4.580   2.094  10.903 -2.2319  1.4972  0.4485
  314TMC3    C7 4781   4.331   2.034  10.894 -0.0223 -0.5757 -0.5381
  314TMC3    C8 4782   0.048   2.004  11.050  0.5798  0.4764  0.3350
  314TMC3    O1 4783   4.213   2.063  10.926 -0.2531 -0.1355  0.1419
  314TMC3    O2 4784   0.078   2.054  10.940 -0.1247 -0.3554 -0.0586
  315MPD2     C 4785   0.572   0.170  17.475  0.3529  0.4856  0.4358
  315MPD2    C1 4786   0.670   0.171  17.568  0.0867 -0.7810  0.0795
  315MPD2    C2 4787   0.746   0.282  17.566  0.1018  0.2463  0.0949
  315MPD2    C3 4788   0.724   0.401  17.489  0.4801  0.8947 -0.2038
  315MPD2    C4 4789   0.614   0.398  17.405 -0.1258 -0.5704  0.3145
  315MPD2    C5 4790   0.536   0.280  17.396 -0.5086  0.1080 -0.3085
  315MPD2     H 4791   0.834   0.286  17.628 -0.6031  1.1937  1.0249
  315MPD2    H1 4792   0.579   0.489  17.357 -0.5149  0.3208  2.2891
  315MPD2    H2 4793   0.509   0.082  17.463 -2.5938  2.9097 -1.8224
  315MPD2    H3 4794   0.444   0.270  17.339 -0.8162  1.1184  0.0197
  315MPD2     N 4795   0.801   0.518  17.505 -0.1216  0.0109  0.3654
  315MPD2    H5 4796   0.877   0.509  17.572 -0.2919  0.1737  0.5836
  315MPD2    N1 4797   0.718   0.055  17.642 -0.5332  0.1618 -0.1566
  315MPD2    H7 4798   0.797   0.073  17.703 -1.0241 -3.4214  1.5462
  316TMC3    C1 4799   0.910   0.720  17.447 -0.4514  0.2436 -0.3971
  316TMC3    C2 4800   0.977   0.714  17.569 -0.1967 -0.3976 -0.1102
  316TMC3    C3 4801   1.069   0.809  17.596 -0.2049  0.8783 -0.4224
  316TMC3    C4 4802   0.943   0.814  17.358 -0.7984 -0.6227  0.2259
  316TMC3    C5 4803   1.019   0.923  17.395 -0.4108 -0.8779 -0.0735
  316TMC3    C6 4804   1.084   0.921  17.519  0.3411  0.6743 -0.1379
  316TMC3     C 4805   0.794   0.629  17.424  0.9011 -0.3684  0.2474
  316TMC3     O 4806   0.719   0.650  17.329  0.1484  0.4457  0.7874
  316TMC3     H 4807   0.968   0.623  17.627 -0.5935 -0.5286 -0.3732
  316TMC3    H1 4808   0.907   0.812  17.256 -1.4440  1.1745  0.4135
  316TMC3    H2 4809   1.141   1.007  17.553  0.8262  0.8340 -1.3398
  316TMC3    C7 4810   1.015   1.041  17.308  0.3975  0.1771  0.0143
  316TMC3    C8 4811   1.115   0.811  17.729  0.0292  0.0669 -0.6433
  316TMC3    O1 4812   1.088   1.130  17.351 -0.7168 -0.4841 -0.2618
  316TMC3    O2 4813   1.126   0.921   0.036 -0.3316  0.1836 -0.4922
  317MPD2     C 4814   2.648   3.512  12.816 -0.2075  0.0455 -1.1085
  317MPD2    C1 4815   2.727   3.398  12.828  0.4050 -0.5024 -0.7751
  317MPD2    C2 4816   2.777   3.361  12.957 -0.3333  0.1926 -0.0013
  317MPD2    C3 4817   2.740   3.440  13.068  0.4462 -0.0368  0.2875
  317MPD2    C4 4818   2.650   3.542  13.049  0.1711 -0.2641 -0.4350
  317MPD2    C5 4819   2.601   3.576  12.926  0.2425  0.3160  0.0220
  317MPD2     H 4820   2.833   3.271  12.974  1.4657  1.3461  0.1560
  317MPD2    H1 4821   2.623   3.609  13.130  2.2815 -0.0951  0.1288
  317MPD2    H2 4822   2.606   3.546  12.722 -3.0201  0.7307  0.3991
  317MPD2    H3 4823   2.531   3.658  12.917 -0.6488 -0.4237  0.1493
  317MPD2     N 4824   2.793   3.409  13.194  0.1620  0.2647 -0.3713
  317MPD2    H5 4825   2.843   3.321  13.201  0.4519  0.4744  0.2171
  317MPD2    N1 4826   2.770   3.319  12.711  0.0825  0.0056 -0.7983
  317MPD2    H7 4827   2.836   3.245  12.732 -0.3654  0.2605  1.4999
  318TMC3    C1 4828   2.818   3.396  13.420  0.1282  0.0553 -0.3620
  318TMC3    C2 4829   2.737   3.290  13.433 -0.4170 -0.5798 -0.6242
  318TMC3    C3 4830   2.736   3.229  13.551 -0.1790 -0.1257  0.0214
  318TMC3    C4 4831   2.879   3.458  13.525  0.5197  0.2674 -0.4051
  318TMC3    C5 4832   2.864   3.408  13.646  0.0484  0.4049  0.8110
  318TMC3    C6 4833   2.805   3.285  13.656 -0.2764  0.1808 -0.3405
  318TMC3     C 4834   2.790   3.486  13.308  0.4280 -0.5091 -0.2796
  318TMC3     O 4835   2.749   3.603  13.321  0.1118  0.2688 -0.2603
  318TMC3     H 4836   2.682   3.244  13.352  1.5583 -0.9141 -1.7761
  318TMC3    H1 4837   2.942   3.545  13.518  0.3276  0.4305 -0.1121
  318TMC3    H2 4838   2.793   3.255  13.760  1.1788  0.7440 -0.0125
  318TMC3    C7 4839   2.980   3.451  13.724 -0.3455  0.5475 -0.2544
  318TMC3    C8 4840   2.654   3.112  13.585  0.7173  0.5916 -0.0471
  318TMC3    O1 4841   2.996   3.571  13.740 -0.1215  0.0075 -0.1231
  318TMC3    O2 4842   2.673   3.043  13.682  0.0189 -0.7568 -0.5058
  319MPD2     C 4843   3.900   0.211  16.517  0.3229  0.1432  0.0768
  319MPD2    C1 4844   3.808   0.142  16.598 -0.3545  0.4217  0.1401
  319MPD2    C2 4845   3.726   0.045  16.539  0.5886  0.1148  0.3860
  319MPD2    C3 4846   3.722   0.023  16.402  0.4930  0.1409 -0.2958
  319MPD2    C4 4847   3.806   0.095  16.330 -0.5632 -0.0193  0.1215
  319MPD2    C5 4848   3.889   0.195  16.382 -0.4333  0.9871  1.0605
  319MPD2     H 4849   3.657   4.719  16.594 -1.6838  2.0543 -0.1951
  319MPD2    H1 4850   3.808   0.081  16.223 -0.1626 -0.4594  0.1847
  319MPD2    H2 4851   3.963   0.295  16.542 -0.1350  0.0886  1.4118
  319MPD2    H3 4852   3.948   0.258  16.316  0.0729  0.2963  0.8491
  319MPD2     N 4853   3.632   4.672  16.330  0.2877 -0.9260 -0.3705
  319MPD2    H5 4854   3.632   4.668  16.229  0.2891  1.3051 -0.4522
  319MPD2    N1 4855   3.803   0.147  16.736 -0.2282  0.3260 -0.0532
  319MPD2    H7 4856   3.733   0.085  16.777 -1.6256  1.5295 -0.6084
  320TMC3    C1 4857   3.449   4.519  16.305 -0.1785  0.2922  1.0062
  320TMC3    C2 4858   3.402   4.594  16.192 -0.1764  0.1809 -0.0854
  320TMC3    C3 4859   3.282   4.554  16.144  0.3398 -0.5913  0.2162
  320TMC3    C4 4860   3.382   4.410  16.360 -0.4126 -0.0605  0.1328
  320TMC3    C5 4861   3.255   4.392  16.309 -0.3269 -0.1100  0.4836
  320TMC3    C6 4862   3.204   4.456  16.200  0.0232  0.1427 -0.6526
  320TMC3     C 4863   3.547   4.587  16.395  0.3602  0.1187  0.3348
  320TMC3     O 4864   3.543   4.553  16.511 -0.0771 -0.0016  0.2229
  320TMC3     H 4865   3.465   4.669  16.146 -0.6503  1.1802  0.9133
  320TMC3    H1 4866   3.423   4.366  16.450  2.6658  2.1811 -0.1473
  320TMC3    H2 4867   3.102   4.439  16.167 -0.6405 -1.8991  2.4404
  320TMC3    C7 4868   3.179   4.283  16.356 -0.2779 -0.1426  0.1309
  320TMC3    C8 4869   3.229   4.637  16.040 -0.1736  0.2342  0.0849
  320TMC3    O1 4870   3.110   4.221  16.274  0.1557 -0.1997 -0.1622
  320TMC3    O2 4871   3.107   4.641  16.026 -0.2814  0.7231 -0.5340
  321TMC3    C1 4872   3.841   0.230  16.962  0.0461  0.5709  0.0350
  321TMC3    C2 4873   3.764   0.130  17.010 -0.6614 -0.4073  0.2796
  321TMC3    C3 4874   3.723   0.138  17.145  0.8593 -0.9522 -0.3269
  321TMC3    C4 4875   3.890   0.328  17.040 -0.7399 -0.0798 -0.1803
  321TMC3    C5 4876   3.856   0.325  17.175  0.3805 -0.0680  0.0984
  321TMC3    C6 4877   3.760   0.239  17.224 -0.2899 -0.4449 -0.6668
  321TMC3     C 4878   3.864   0.248  16.818 -0.1648 -1.1549 -1.0217
  321TMC3     O 4879   3.942   0.341  16.794 -0.4292  0.3726  0.5466
  321TMC3     H 4880   3.731   0.047  16.948 -2.7960 -0.4366  1.4845
  321TMC3    H1 4881   3.940   0.417  17.002  1.1629 -1.1947 -0.3276
  321TMC3    H2 4882   3.729   0.250  17.328 -1.2902 -0.4555 -0.9625
  321TMC3    C7 4883   3.968   0.310  17.268  0.4332 -0.3867 -0.4764
  321TMC3    C8 4884   3.696   0.009  17.213 -0.3084 -0.4723 -0.2599
  321TMC3    O1 4885   3.953   0.216  17.348 -0.6278 -0.0722  0.9842
  321TMC3    O2 4886   3.654   4.653  17.144 -0.4794  0.2792  0.0566
  322MPD2     C 4887   2.294   1.327  13.441 -0.3821  0.1394  0.4948
  322MPD2    C1 4888   2.357   1.282  13.554  0.0581  0.2211 -0.5330
  322MPD2    C2 4889   2.421   1.156  13.546  0.3840  1.0329  0.8246
  322MPD2    C3 4890   2.410   1.075  13.428  0.1451  0.4022  0.2906
  322MPD2    C4 4891   2.346   1.127  13.320  0.2203 -0.1458 -0.3593
  322MPD2    C5 4892   2.290   1.250  13.327 -0.0379 -0.5104  0.4038
  322MPD2     H 4893   2.474   1.107  13.627  2.2005 -1.1357 -1.6650
  322MPD2    H1 4894   2.335   1.074  13.226 -0.6480 -1.1869  0.3377
  322MPD2    H2 4895   2.239   1.420  13.432 -0.4394  0.0188 -0.4824
  322MPD2    H3 4896   2.238   1.293  13.242 -0.4218 -0.3680  0.7107
  322MPD2     N 4897   2.473   0.946  13.421 -0.0104  0.3434  0.6314
  322MPD2    H5 4898   2.501   0.913  13.512 -0.7569  1.4878  1.2710
  322MPD2    N1 4899   2.346   1.360  13.673 -0.0118 -0.5087  0.1608
  322MPD2    H7 4900   2.301   1.451  13.676  3.1066  1.0058  0.7830
  323TMC3    C1 4901   2.390   1.412  13.896 -0.9256  0.6267 -0.7226
  323TMC3    C2 4902   2.447   1.527  13.860 -0.1840 -0.7571 -0.4915
  323TMC3    C3 4903   2.538   1.589  13.943  0.5339  0.1165 -0.9124
  323TMC3    C4 4904   2.421   1.359  14.015  0.4884 -0.6122  0.0420
  323TMC3    C5 4905   2.502   1.426  14.103  0.7484  0.7045 -0.7079
  323TMC3    C6 4906   2.574   1.537  14.063  0.4022  0.4335  0.4410
  323TMC3     C 4907   2.383   1.316  13.797  0.2958 -0.2045  0.4029
  323TMC3     O 4908   2.422   1.204  13.831  0.1768  0.8490  0.3446
  323TMC3     H 4909   2.432   1.568  13.760 -0.4468 -0.3457 -0.2821
  323TMC3    H1 4910   2.375   1.265  14.045 -2.5974  0.8712 -0.0059
  323TMC3    H2 4911   2.647   1.589  14.125  1.0078 -1.2819  1.1494
  323TMC3    C7 4912   2.531   1.361  14.237 -0.1906 -0.4364 -0.2988
  323TMC3    C8 4913   2.652   1.653  13.885  0.0443 -0.0167 -0.1125
  323TMC3    O1 4914   2.506   1.244  14.259 -0.9325 -0.4380 -0.6663
  323TMC3    O2 4915   2.758   1.626  13.938 -0.2041  0.2569 -0.1239
  324MPD2     C 4916   3.997   2.305  14.691 -0.0452 -0.4115 -0.5500
  324MPD2    C1 4917   4.013   2.424  14.620  0.5906 -0.7673 -0.5732
  324MPD2    C2 4918   3.901   2.497  14.591 -0.1715  0.6690 -0.3515
  324MPD2    C3 4919   3.775   2.452  14.630 -0.1308 -0.0819 -0.2485
  324MPD2    C4 4920   3.759   2.329  14.694 -0.5557 -0.5220 -0.3035
  324MPD2    C5 4921   3.869   2.258  14.721 -0.3815  0.2269  1.1290
  324MPD2     H 4922   3.920   2.590  14.538  0.9264  0.6825  0.0817
  324MPD2    H1 4923   3.665   2.294  14.737 -1.3749  2.7303  0.5875
  324MPD2    H2 4924   4.077   2.235  14.714 -0.9956 -1.6921 -1.1529
  324MPD2    H3 4925   3.879   2.164  14.774  1.9734  0.7529  1.6402
  324MPD2     N 4926   3.660   2.530  14.620  0.1182 -0.0508  0.3675
  324MPD2    H5 4927   3.585   2.472  14.657  1.4289 -1.9391  0.0679
  324MPD2    N1 4928   4.138   2.473  14.575 -0.1569 -0.3809  0.2463
  324MPD2    H7 4929   4.134   2.563  14.527  0.2973  0.2947  1.4711
  325TMC3    C1 4930   3.510   2.712  14.581 -0.2519  0.5876 -0.5371
  325TMC3    C2 4931   3.411   2.624  14.570  0.1545  0.0854 -0.0941
  325TMC3    C3 4932   3.298   2.668  14.503 -0.5679 -0.1998  0.1634
  325TMC3    C4 4933   3.508   2.837  14.520 -0.3869  0.2811  0.3782
  325TMC3    C5 4934   3.384   2.877  14.468  0.1275  0.6114 -0.2069
  325TMC3    C6 4935   3.277   2.790  14.458  0.4703 -0.2287  0.4960
  325TMC3     C 4936   3.647   2.667  14.591  0.0580  0.7756 -0.1088
  325TMC3     O 4937   3.739   2.744  14.562  0.1440 -0.4931 -0.2266
  325TMC3     H 4938   3.408   2.517  14.590 -1.7922  0.3299  0.9325
  325TMC3    H1 4939   3.580   2.913  14.548  0.5422 -0.0213 -1.1764
  325TMC3    H2 4940   3.180   2.811  14.415  2.0293  1.1927 -2.3563
  325TMC3    C7 4941   3.346   3.005  14.514 -0.3196 -0.3191 -0.1353
  325TMC3    C8 4942   3.192   2.576  14.485  0.1753  0.1926 -0.7490
  325TMC3    O1 4943   3.404   3.053  14.607 -0.5278 -0.4395 -0.1788
  325TMC3    O2 4944   3.214   2.455  14.468  0.1095 -0.1853 -0.1627
  326MPD2     C 4945   4.507   3.923  11.234  0.0603 -0.6409  0.7402
  326MPD2    C1 4946   4.577   3.930  11.112 -0.2608 -0.7603 -0.3691
  326MPD2    C2 4947   4.718   3.939  11.116 -0.5420  0.1752  0.1341
  326MPD2    C3 4948   0.045   3.962  11.238 -0.3399  0.4098 -0.6168
  326MPD2    C4 4949   4.707   3.975  11.353 -0.5218  0.6666 -0.8375
  326MPD2    C5 4950   4.572   3.945  11.349  0.4146 -0.1577 -0.1556
  326MPD2     H 4951   0.029   3.934  11.019 -1.0538  0.5232 -0.1381
  326MPD2    H1 4952   0.020   3.996  11.446 -2.1106 -2.1518  0.6610
  326MPD2    H2 4953   4.401   3.898  11.234 -0.1811  0.3837  1.3841
  326MPD2    H3 4954   4.517   3.941  11.442 -1.5417 -0.4692 -1.3297
  326MPD2     N 4955   0.180   3.979  11.244  0.2924 -0.3994 -0.1185
  326MPD2    H5 4956   0.224   4.018  11.326 -0.4530  0.7265 -0.2525
  326MPD2    N1 4957   4.532   3.912  10.982  0.3397  0.4976  0.5597
  326MPD2    H7 4958   4.604   3.923  10.911 -0.0508  0.9773  0.2409
  327TMC3    C1 4959   4.394   3.862  10.803  0.0413 -0.3443 -0.5041
  327TMC3    C2 4960   4.282   3.909  10.733 -0.2233 -0.1651  0.3017
  327TMC3    C3 4961   4.288   3.921  10.601  0.9404  0.5785  0.7326
  327TMC3    C4 4962   4.511   3.838  10.734  0.0724  0.2373  0.3599
  327TMC3    C5 4963   4.521   3.855  10.598  0.0824  0.3978  0.2736
  327TMC3    C6 4964   4.405   3.907  10.532  0.2274  0.5137  0.3533
  327TMC3     C 4965   4.402   3.898  10.947 -0.4951  0.5503  0.4011
  327TMC3     O 4966   4.301   3.864  11.016 -0.2118 -0.1124  0.4403
  327TMC3     H 4967   4.189   3.930  10.785 -1.8635  0.7190 -3.0276
  327TMC3    H1 4968   4.596   3.803  10.791  0.4153 -0.5325 -0.6240
  327TMC3    H2 4969   4.409   3.913  10.424 -2.4788  3.1976  0.4193
  327TMC3    C7 4970   4.648   3.851  10.532  0.5166 -0.4282  0.3235
  327TMC3    C8 4971   4.175   3.972  10.514 -0.2860 -0.0587  0.2504
  327TMC3    O1 4972   4.666   3.934  10.441 -0.1310  0.1113 -0.1498
  327TMC3    O2 4973   4.189   3.963  10.395  0.1628 -0.4579 -0.2524
  328MPD2     C 4974   2.917   3.091  17.454 -0.6434 -0.9143 -0.4689
  328MPD2    C1 4975   2.836   3.017  17.374  0.1577 -0.5132 -0.2183
  328MPD2    C2 4976   2.828   3.035  17.236  0.3281  0.5570 -0.2457
  328MPD2    C3 4977   2.885   3.154  17.184 -0.3624  0.4099  0.4948
  328MPD2    C4 4978   2.948   3.235  17.275 -0.3301  0.1441  0.6266
  328MPD2    C5 4979   2.978   3.201  17.410 -0.0579 -0.2087 -0.3675
  328MPD2     H 4980   2.773   2.969  17.170  0.0462  0.9424 -0.3966
  328MPD2    H1 4981   2.989   3.327  17.235  2.8300 -1.1556  0.9091
  328MPD2    H2 4982   2.936   3.067  17.558  0.1718  0.4651 -0.3034
  328MPD2    H3 4983   3.029   3.267  17.479  2.9289 -1.0578 -1.7710
  328MPD2     N 4984   2.862   3.203  17.056 -0.1106  0.1304 -0.0330
  328MPD2    H5 4985   2.873   3.303  17.045  1.3106 -0.1918 -1.5994
  328MPD2    N1 4986   2.766   2.909  17.440 -0.7902 -0.4089 -0.0784
  328MPD2    H7 4987   2.765   2.912  17.541  1.0954  0.7936 -0.1006
  329TMC3    C1 4988   2.561   2.786  17.434 -0.0740  0.5798  0.0355
  329TMC3    C2 4989   2.484   2.900  17.463  0.3172 -0.4420  0.0670
  329TMC3    C3 4990   2.350   2.882  17.434 -0.0540  0.1043  0.0097
  329TMC3    C4 4991   2.515   2.669  17.380 -0.4060 -0.2198  0.5251
  329TMC3    C5 4992   2.386   2.668  17.342 -0.7125 -0.2501  0.1366
  329TMC3    C6 4993   2.309   2.775  17.366 -0.5250 -0.0834  0.2747
  329TMC3     C 4994   2.688   2.821  17.364 -0.1833  0.3411 -0.2824
  329TMC3     O 4995   2.717   2.771  17.257 -0.0216 -0.1844  0.1594
  329TMC3     H 4996   2.534   2.995  17.477 -0.6677 -0.0629  0.9906
  329TMC3    H1 4997   2.591   2.601  17.343 -0.1456  0.1830  0.3148
  329TMC3    H2 4998   2.203   2.775  17.344 -0.2819  0.7066 -0.9210
  329TMC3    C7 4999   2.368   2.599  17.214  0.4229 -0.1586  0.5248
  329TMC3    C8 5000   2.275   3.002  17.400  0.2185 -0.0112 -0.9521
  329TMC3    O1 5001   2.469   2.558  17.157  0.3509  0.4737  0.0964
  329TMC3    O2 5002   2.192   3.003  17.305 -0.3553 -0.3477 -0.0277
  330TMC3    C1 5003   3.980   2.733   8.681 -0.6741  0.2929  0.6744
  330TMC3    C2 5004   4.059   2.783   8.784 -0.1074 -0.0648 -0.4725
  330TMC3    C3 5005   4.068   2.703   8.902 -0.4375 -0.6779 -0.1225
  330TMC3    C4 5006   3.936   2.605   8.676 -0.2137 -0.1850  0.0749
  330TMC3    C5 5007   3.980   2.517   8.770  0.8289  0.7548 -0.3563
  330TMC3    C6 5008   4.037   2.568   8.885  0.1001 -0.1925  0.6693
  330TMC3     C 5009   3.891   2.834   8.635  0.0397 -0.2788 -0.0209
  330TMC3     O 5010   3.849   2.809   8.524  0.0171  0.5523 -0.2472
  330TMC3     H 5011   4.093   2.885   8.797 -0.8361  0.0620  0.4287
  330TMC3    H1 5012   3.864   2.573   8.603  2.4203 -0.0683 -2.6025
  330TMC3    H2 5013   4.041   2.510   8.977  0.3540 -0.9946  0.1510
  330TMC3    C7 5014   3.959   2.375   8.763 -0.4837 -0.5975 -0.3829
  330TMC3    C8 5015   4.028   2.761   9.024 -0.2386 -0.1989 -0.2809
  330TMC3    O1 5016   3.879   2.332   8.684  0.4374  0.2741 -0.6254
  330TMC3    O2 5017   3.961   2.863   9.012  0.0564 -0.0002  1.0023
  331MPD2     C 5018   2.971   1.655  12.810 -0.6300 -0.2602 -0.3268
  331MPD2    C1 5019   2.988   1.628  12.667  0.4561 -0.9120 -0.4993
  331MPD2    C2 5020   3.038   1.504  12.636 -0.0060 -0.2389  0.7290
  331MPD2    C3 5021   3.063   1.400  12.722  0.4750  0.1537  0.1569
  331MPD2    C4 5022   3.058   1.441  12.854  0.3595  0.0826  0.9313
  331MPD2    C5 5023   3.008   1.561  12.897 -0.0823  0.5201 -0.5059
  331MPD2     H 5024   3.068   1.496  12.532  1.5294 -0.1626  1.1788
  331MPD2    H1 5025   3.076   1.363  12.927  1.0476 -1.0157 -0.4207
  331MPD2    H2 5026   2.931   1.750  12.846  2.2883  0.5519  0.7983
  331MPD2    H3 5027   2.999   1.576  13.004 -2.3046 -1.7301 -0.3816
  331MPD2     N 5028   3.096   1.269  12.677  0.0191  0.5770  0.3956
  331MPD2    H5 5029   3.094   1.256  12.576 -1.4398 -0.0758  0.5062
  331MPD2    N1 5030   2.955   1.723  12.572 -0.7631  0.2725 -0.2982
  331MPD2    H7 5031   2.949   1.818  12.608  0.0393 -0.2366  1.1883
  332TMC3    C1 5032   3.219   1.079  12.646 -0.0779 -0.1037 -0.0988
  332TMC3    C2 5033   3.177   1.086  12.516  0.1639 -0.5347 -0.5386
  332TMC3    C3 5034   3.266   1.081  12.415 -0.1735  0.2143 -0.3846
  332TMC3    C4 5035   3.343   1.056  12.684  0.4680 -1.4433  1.0642
  332TMC3    C5 5036   3.432   1.061  12.586  0.2626  0.3750  0.0773
  332TMC3    C6 5037   3.397   1.078  12.457 -0.0175  0.9839 -0.4340
  332TMC3     C 5038   3.159   1.170  12.742 -0.0261  0.5644  0.2640
  332TMC3     O 5039   3.189   1.157  12.860  0.5698  0.5872  0.6604
  332TMC3     H 5040   3.070   1.098  12.501 -0.1923 -1.1507  1.4699
  332TMC3    H1 5041   3.377   1.085  12.783  3.2230  0.6069 -0.5149
  332TMC3    H2 5042   3.470   1.086  12.377  0.5481 -2.2586 -0.2490
  332TMC3    C7 5043   3.574   1.079  12.619  0.3789  0.0704 -0.1381
  332TMC3    C8 5044   3.231   1.105  12.279  0.3684 -0.1627  0.6460
  332TMC3    O1 5045   3.650   1.133  12.536  0.4609 -0.3347  0.0787
  332TMC3    O2 5046   3.325   1.118  12.204  0.2551 -0.2859 -0.0699
  333MPD2     C 5047   3.045   2.273  11.165  0.0398 -0.0793  0.3837
  333MPD2    C1 5048   3.154   2.191  11.148 -0.4470 -0.4566 -0.7613
  333MPD2    C2 5049   3.145   2.064  11.176  0.1074 -0.6263  0.5079
  333MPD2    C3 5050   3.026   2.002  11.219 -0.8442  1.0303 -0.3800
  333MPD2    C4 5051   2.919   2.084  11.238 -0.5025 -0.3095  0.4770
  333MPD2    C5 5052   2.928   2.215  11.206  0.5061  0.0038 -0.7803
  333MPD2     H 5053   3.231   2.002  11.154  1.1150  0.6202  1.0040
  333MPD2    H1 5054   2.817   2.057  11.265 -1.2812  2.9456  0.8772
  333MPD2    H2 5055   3.046   2.377  11.135 -0.0189 -0.2201 -0.1076
  333MPD2    H3 5056   2.833   2.267  11.211 -0.1498 -1.2881  0.5108
  333MPD2     N 5057   3.013   1.860  11.246 -0.0261  0.1686  0.1175
  333MPD2    H5 5058   3.075   1.791  11.204 -1.0475 -0.8889  0.3631
  333MPD2    N1 5059   3.265   2.263  11.097  0.6557  0.3913  0.0574
  333MPD2    H7 5060   3.253   2.363  11.088  1.7914  0.4106 -1.4238
  334TMC3    C1 5061   3.464   2.312  10.975 -0.4206  0.4803 -0.1106
  334TMC3    C2 5062   3.596   2.293  10.942 -0.6726  0.1735 -0.3153
  334TMC3    C3 5063   3.666   2.396  10.877 -0.1850  0.5545 -0.1230
  334TMC3    C4 5064   3.407   2.430  10.940  0.1802  0.4934  0.5267
  334TMC3    C5 5065   3.476   2.531  10.870  0.8404  0.5535 -0.1739
  334TMC3    C6 5066   3.604   2.508  10.838 -0.3068  0.1437 -0.3233
  334TMC3     C 5067   3.394   2.216  11.054 -0.1111 -0.1012  0.3337
  334TMC3     O 5068   3.429   2.101  11.048  0.2809 -0.7555  0.1164
  334TMC3     H 5069   3.657   2.217  10.989  0.1713  0.1491 -1.4495
  334TMC3    H1 5070   3.306   2.453  10.969 -0.3386 -0.0099 -0.8793
  334TMC3    H2 5071   3.658   2.587  10.787 -1.2891  2.1352  1.7511
  334TMC3    C7 5072   3.419   2.665  10.838  0.0012 -0.2561  0.2165
  334TMC3    C8 5073   3.779   2.354  10.793  0.2188  0.0277 -0.3969
  334TMC3    O1 5074   3.494   2.748  10.789  0.0094 -0.4281 -0.4335
  334TMC3    O2 5075   3.867   2.281  10.842 -0.1540 -0.5893 -0.2484
  335TMC3    C1 5076   3.498   3.469   0.338  0.4490  0.0464  0.2917
  335TMC3    C2 5077   3.407   3.503   0.241  0.4511 -0.0636  0.0008
  335TMC3    C3 5078   3.436   3.469   0.113  0.1835 -0.3008  0.1285
  335TMC3    C4 5079   3.615   3.400   0.309  0.3545  0.0243 -1.1019
  335TMC3    C5 5080   3.642   3.368   0.178 -0.6288  0.1466 -0.5783
  335TMC3    C6 5081   3.552   3.403   0.082 -0.1551  0.7331  0.0237
  335TMC3     C 5082   3.468   3.491   0.479  0.0706  0.1201  0.2044
  335TMC3     O 5083   3.349   3.507   0.501 -0.4367 -0.6394 -0.4545
  335TMC3     H 5084   3.314   3.557   0.258  0.1826 -1.0839  1.7523
  335TMC3    H1 5085   3.671   3.352   0.389  0.0162  3.2196  1.0355
  335TMC3    H2 5086   3.579   3.382  17.725  0.6590 -1.1086  0.5985
  335TMC3    C7 5087   3.765   3.319   0.130  0.5563 -0.6920  0.1192
  335TMC3    C8 5088   3.352   3.524   0.010 -0.2278  0.0684  0.1074
  335TMC3    O1 5089   3.777   3.273   0.015 -0.2831  0.2427  0.7712
  335TMC3    O2 5090   3.274   3.611   0.043 -0.1703 -0.1693  0.0728
  336MPD2     C 5091   3.308   1.095  16.155 -0.7061 -0.4176 -0.3987
  336MPD2    C1 5092   3.272   1.040  16.032  0.1335  0.0723  1.2111
  336MPD2    C2 5093   3.283   0.900  16.016 -0.1181  0.2116 -0.1064
  336MPD2    C3 5094   3.314   0.820  16.126  0.2376  0.0794  0.4796
  336MPD2    C4 5095   3.355   0.877  16.248  0.5817 -0.1757 -0.1037
  336MPD2    C5 5096   3.353   1.015  16.258 -0.1228 -0.1713 -0.4952
  336MPD2     H 5097   3.253   0.865  15.917 -0.9820  1.8391 -0.4168
  336MPD2    H1 5098   3.397   0.825  16.333  0.2830  0.3961  0.3967
  336MPD2    H2 5099   3.294   1.200  16.181  0.1141 -0.6450  0.9133
  336MPD2    H3 5100   3.374   1.066  16.352 -0.8611  0.3458 -0.6075
  336MPD2     N 5101   3.329   0.679  16.110  0.7351 -0.0446 -0.2109
  336MPD2    H5 5102   3.348   0.627  16.196  0.4408 -1.2202 -0.8605
  336MPD2    N1 5103   3.232   1.121  15.915 -0.4426  0.3534  0.4323
  336MPD2    H7 5104   3.212   1.072  15.828 -0.7047 -0.2406  0.8223
  337TMC3    C1 5105   3.111   1.291  15.805  0.6596 -0.6663 -0.0738
  337TMC3    C2 5106   3.054   1.205  15.717 -0.2264  0.3165 -0.0026
  337TMC3    C3 5107   2.969   1.254  15.622 -0.5796 -0.2114  0.6123
  337TMC3    C4 5108   3.057   1.417  15.811 -0.8180 -0.0646 -0.3963
  337TMC3    C5 5109   2.957   1.457  15.724  0.3631  0.0526 -0.0734
  337TMC3    C6 5110   2.913   1.373  15.627 -0.7008 -0.9555  0.2647
  337TMC3     C 5111   3.190   1.247  15.925  0.8432 -0.6219  0.0266
  337TMC3     O 5112   3.207   1.332  16.011  0.1660  0.4092  0.5098
  337TMC3     H 5113   3.083   1.101  15.711  0.8582  0.5608  1.1731
  337TMC3    H1 5114   3.103   1.491  15.876 -1.8973  1.5332 -1.4449
  337TMC3    H2 5115   2.831   1.410  15.566  0.0148  0.8670  0.4149
  337TMC3    C7 5116   2.865   1.568  15.752 -0.3898 -0.7094  0.4758
  337TMC3    C8 5117   2.892   1.155  15.556 -0.3507 -0.1990 -0.0130
  337TMC3    O1 5118   2.774   1.593  15.674  0.2971 -0.1372 -0.4369
  337TMC3    O2 5119   2.900   1.045  15.616  0.1446 -0.1365  0.3194
  338MPD2     C 5120   4.046   0.850   1.026  0.0358 -1.0414  0.0438
  338MPD2    C1 5121   3.986   0.857   0.903  0.0556  0.1864  0.3565
  338MPD2    C2 5122   3.853   0.899   0.895 -0.2623 -0.0534 -1.0234
  338MPD2    C3 5123   3.789   0.940   1.009  0.0586  0.8138  0.3498
  338MPD2    C4 5124   3.854   0.937   1.133 -0.1453 -0.4497 -0.2608
  338MPD2    C5 5125   3.987   0.890   1.137 -0.2310  0.1970 -0.4299
  338MPD2     H 5126   3.814   0.897   0.793 -2.2934  0.1349 -0.2472
  338MPD2    H1 5127   3.793   0.972   1.216 -1.3090 -0.9105 -0.9155
  338MPD2    H2 5128   4.150   0.823   1.036  0.0514 -0.6346  1.0158
  338MPD2    H3 5129   4.037   0.885   1.233  0.3633 -0.4923 -0.7788
  338MPD2     N 5130   3.659   1.002   0.988  0.2672  0.4812 -0.3657
  338MPD2    H5 5131   3.635   1.020   0.891 -1.8024 -2.2349 -0.3730
  338MPD2    N1 5132   4.053   0.827   0.781  0.0719 -0.5431  0.4002
  338MPD2    H7 5133   3.999   0.839   0.696  0.6643 -0.2884  0.0565
  339TMC3    C1 5134   3.446   1.079   1.015  0.1836  0.1880 -0.1771
  339TMC3    C2 5135   3.334   1.032   1.068 -0.5747 -0.1255  0.1577
  339TMC3    C3 5136   3.222   1.020   0.990  0.0618  1.0657 -0.4429
  339TMC3    C4 5137   3.459   1.118   0.887  0.8665 -0.2705 -0.0517
  339TMC3    C5 5138   3.349   1.098   0.813  1.2891 -0.1429  0.4765
  339TMC3    C6 5139   3.233   1.042   0.859  0.3359  0.6459 -0.1608
  339TMC3     C 5140   3.566   1.026   1.078  0.1046 -0.0750  0.4236
  339TMC3     O 5141   3.561   0.998   1.196  0.2639 -0.2298 -0.3216
  339TMC3     H 5142   3.335   0.988   1.167  1.1743  0.9354  0.6086
  339TMC3    H1 5143   3.544   1.163   0.837  0.0614 -0.6967 -1.8277
  339TMC3    H2 5144   3.149   1.028   0.792  1.1923 -0.7725 -0.9416
  339TMC3    C7 5145   3.379   1.098   0.677 -0.3540  0.8702  0.1917
  339TMC3    C8 5146   3.101   0.946   1.034  0.7195  0.7151 -0.3404
  339TMC3    O1 5147   3.438   1.197   0.638 -0.0754  0.7884 -0.3375
  339TMC3    O2 5148   3.024   0.904   0.946  0.7050  0.1975 -0.3099
  340MPD2     C 5149   3.470   3.787  10.458 -0.5753 -0.6358 -0.3163
  340MPD2    C1 5150   3.448   3.647  10.457  0.5694 -0.6064 -0.1341
  340MPD2    C2 5151   3.535   3.564  10.521  0.1138  0.2436  0.5131
  340MPD2    C3 5152   3.646   3.618  10.579 -0.7029  0.1759 -0.7558
  340MPD2    C4 5153   3.669   3.754  10.573  0.5040  0.5924  1.1374
  340MPD2    C5 5154   3.578   3.832  10.525  0.0304 -0.1181  0.3879
  340MPD2     H 5155   3.524   3.457  10.515 -2.6154  0.5578 -0.2373
  340MPD2    H1 5156   3.757   3.793  10.623  0.7407 -1.9844  2.7389
  340MPD2    H2 5157   3.402   3.853  10.405 -0.7939 -0.7919 -0.2290
  340MPD2    H3 5158   3.584   3.940  10.528  0.0942 -0.1498  1.3808
  340MPD2     N 5159   3.743   3.539  10.654  0.2106 -0.0196 -0.0119
  340MPD2    H5 5160   3.826   3.590  10.681 -0.2186 -0.2546  1.7482
  340MPD2    N1 5161   3.340   3.595  10.378 -0.0514  0.0377  0.3306
  340MPD2    H7 5162   3.287   3.662  10.323 -0.9348 -1.0600 -0.1511
  341TMC3    C1 5163   3.202   3.433  10.279 -0.9960  0.2125  0.4964
  341TMC3    C2 5164   3.137   3.307  10.296  0.3604  0.2967  0.8476
  341TMC3    C3 5165   3.110   3.240  10.176 -0.5896 -0.0056 -0.0084
  341TMC3    C4 5166   3.243   3.481  10.153  0.2696 -0.4728 -0.2628
  341TMC3    C5 5167   3.200   3.416  10.042 -0.5908  0.1604 -0.6399
  341TMC3    C6 5168   3.126   3.295  10.048  0.5208 -0.7878  0.2136
  341TMC3     C 5169   3.295   3.468  10.383  0.3269 -1.2275 -0.1367
  341TMC3     O 5170   3.329   3.371  10.448  0.1330 -0.1537  0.4426
  341TMC3     H 5171   3.123   3.264  10.394 -1.3977 -0.7828  0.1127
  341TMC3    H1 5172   3.298   3.573  10.143 -0.7489  0.3639  1.8407
  341TMC3    H2 5173   3.108   3.231   9.963 -1.3817  0.0458 -0.0205
  341TMC3    C7 5174   3.317   3.410   9.963 -0.3953  0.3713 -0.0462
  341TMC3    C8 5175   3.058   3.101  10.182 -0.2084 -0.6440 -0.1065
  341TMC3    O1 5176   3.360   3.300   9.927  0.1359 -0.0684 -0.0243
  341TMC3    O2 5177   3.018   3.050  10.075  0.3010  0.5335 -0.1464
  342MPD2     C 5178   1.577   1.562  17.662 -0.0916  0.3876  0.1901
  342MPD2    C1 5179   1.666   1.582  17.558  0.1136 -1.1433  0.0346
  342MPD2    C2 5180   1.729   1.706  17.546  0.4290  0.1165 -0.1231
  342MPD2    C3 5181   1.697   1.812  17.625 -0.3943  0.0279  0.3192
  342MPD2    C4 5182   1.600   1.796  17.721 -0.8084  0.7410 -0.2644
  342MPD2    C5 5183   1.544   1.672  17.734 -0.2721 -0.5097  0.5821
  342MPD2     H 5184   1.808   1.702  17.471  0.3599 -0.2131 -0.1810
  342MPD2    H1 5185   1.569   1.874   0.043 -3.6468 -0.1718 -0.4971
  342MPD2    H2 5186   1.531   1.467  17.686 -2.9908  1.5586 -0.6458
  342MPD2    H3 5187   1.467   1.653   0.062 -1.4687  0.9324 -0.2818
  342MPD2     N 5188   1.773   1.930  17.625 -0.2390  0.3079  0.1545
  342MPD2    H5 5189   1.746   1.999  17.694  0.5451 -0.1300  0.9073
  342MPD2    N1 5190   1.718   1.475  17.486 -0.2119 -0.5089 -0.1684
  342MPD2    H7 5191   1.780   1.493  17.408 -0.1816 -0.9462 -0.2448
  343TMC3    C1 5192   1.757   1.250  17.410  0.0809  0.3540 -0.3285
  343TMC3    C2 5193   1.851   1.292  17.321  0.0082 -0.2882 -0.1752
  343TMC3    C3 5194   1.905   1.195  17.237  0.6131 -0.3074 -0.3221
  343TMC3    C4 5195   1.711   1.118  17.415 -0.7837  0.6182  0.3974
  343TMC3    C5 5196   1.768   1.026  17.329 -0.1095  0.0926  0.1410
  343TMC3    C6 5197   1.864   1.059  17.233 -0.5881  0.0180 -1.0579
  343TMC3     C 5198   1.678   1.344  17.492 -0.5920 -0.5522  0.1122
  343TMC3     O 5199   1.586   1.298  17.555 -0.3344 -0.2935  0.0800
  343TMC3     H 5200   1.880   1.396  17.316 -0.2087 -0.2551 -0.7366
  343TMC3    H1 5201   1.642   1.086  17.492 -1.5898  0.1001 -0.5497
  343TMC3    H2 5202   1.928   0.981  17.194  0.5730  1.4803 -2.1177
  343TMC3    C7 5203   1.733   0.881  17.317 -0.1180  0.2835 -0.1984
  343TMC3    C8 5204   2.007   1.247  17.153  0.0493  0.0003 -0.3129
  343TMC3    O1 5205   1.752   0.842  17.201 -0.5008  0.2898  0.0886
  343TMC3    O2 5206   2.050   1.362  17.167  0.2612  0.2434  0.1568
  344MPD2     C 5207   1.825   1.229   9.992  0.3235  0.3950 -0.3426
  344MPD2    C1 5208   1.837   1.269  10.118 -0.2757  0.2959 -0.4423
  344MPD2    C2 5209   1.910   1.379  10.150 -1.0573 -0.5971 -0.2293
  344MPD2    C3 5210   1.985   1.445  10.054 -0.4907 -0.2285 -0.4218
  344MPD2    C4 5211   1.976   1.406   9.919  0.4308 -0.4140 -0.3590
  344MPD2    C5 5212   1.892   1.296   9.893 -0.8996  0.1169 -0.0595
  344MPD2     H 5213   1.915   1.413  10.253  0.8129 -0.6238 -0.3066
  344MPD2    H1 5214   2.018   1.471   9.843  1.4656 -1.3579 -0.5994
  344MPD2    H2 5215   1.765   1.145   9.958 -0.6522 -0.3316  3.1493
  344MPD2    H3 5216   1.880   1.254   9.794  0.4099  3.6571 -1.7198
  344MPD2     N 5217   2.078   1.545  10.078  0.4023  0.4716 -0.1287
  344MPD2    H5 5218   2.124   1.591   9.999 -0.9198 -0.8401 -1.6509
  344MPD2    N1 5219   1.766   1.191  10.215 -0.2005  0.6552 -0.0309
  344MPD2    H7 5220   1.719   1.109  10.178 -0.4350  0.9878 -0.4733
  345TMC3    C1 5221   2.224   1.685  10.193 -0.4972  0.0919 -0.5026
  345TMC3    C2 5222   2.316   1.692  10.300 -0.9027 -0.1825  0.5874
  345TMC3    C3 5223   2.393   1.809  10.302 -0.2794  0.4013 -0.1330
  345TMC3    C4 5224   2.221   1.777  10.094 -0.4570 -0.5677  0.8070
  345TMC3    C5 5225   2.294   1.893  10.096  0.5708 -0.1080  0.1694
  345TMC3    C6 5226   2.382   1.903  10.202  0.1113  0.2825 -0.4990
  345TMC3     C 5227   2.126   1.576  10.197  0.0943  0.2142  0.5361
  345TMC3     O 5228   2.092   1.534  10.304 -0.6193 -0.7199 -0.6104
  345TMC3     H 5229   2.312   1.617  10.377 -3.4657 -0.5348  0.1164
  345TMC3    H1 5230   2.146   1.772  10.016  1.1551 -1.1302 -0.6913
  345TMC3    H2 5231   2.444   1.992  10.207 -0.4462  0.6271  0.1650
  345TMC3    C7 5232   2.234   2.013  10.046  0.9511 -0.2070  0.2279
  345TMC3    C8 5233   2.426   1.865  10.430 -0.2874 -0.0000  0.1638
  345TMC3    O1 5234   2.266   2.121  10.102 -0.3318  0.0455 -0.2265
  345TMC3    O2 5235   2.513   1.950  10.438  0.3463  0.0150  0.1667
  346MPD2     C 5236   2.224   3.192  14.607  0.5008  0.4369 -0.1581
  346MPD2    C1 5237   2.353   3.166  14.570  0.4065  0.4203  0.1529
  346MPD2    C2 5238   2.456   3.181  14.657  0.5623  0.1055  0.1814
  346MPD2    C3 5239   2.440   3.207  14.793  0.0966 -0.0196 -0.8122
  346MPD2    C4 5240   2.312   3.222  14.832 -1.0989  0.2448  0.4917
  346MPD2    C5 5241   2.208   3.211  14.741 -0.5733 -0.0393  0.2175
  346MPD2     H 5242   2.555   3.145  14.629  0.5521 -0.4023  0.8002
  346MPD2    H1 5243   2.292   3.249  14.935 -1.7479  0.2476  0.3633
  346MPD2    H2 5244   2.149   3.190  14.528  1.8037  1.5265 -1.4207
  346MPD2    H3 5245   2.107   3.224  14.781 -0.3494 -1.4176  1.2461
  346MPD2     N 5246   2.560   3.212  14.868 -0.8185  0.0265 -0.3291
  346MPD2    H5 5247   2.651   3.180  14.836 -0.5839 -1.7154  2.0765
  346MPD2    N1 5248   2.381   3.107  14.442 -0.1164  0.8089 -0.1360
  346MPD2    H7 5249   2.474   3.069  14.428 -0.0809  0.1390  1.9319
  347TMC3    C1 5250   2.691   3.225  15.056 -0.0290  0.9707  0.6261
  347TMC3    C2 5251   2.794   3.247  14.979  0.1657  0.8517  0.3884
  347TMC3    C3 5252   2.916   3.216  15.013 -0.2780 -0.1317  0.3510
  347TMC3    C4 5253   2.711   3.175  15.181  0.5931 -0.6841 -0.0408
  347TMC3    C5 5254   2.831   3.123  15.210 -0.5145  0.6363  0.1952
  347TMC3    C6 5255   2.940   3.144  15.127 -0.3258  0.6037  0.2566
  347TMC3     C 5256   2.556   3.228  15.004 -0.2692 -0.2307 -0.3606
  347TMC3     O 5257   2.469   3.239  15.091  0.2473  0.1991  0.2016
  347TMC3     H 5258   2.769   3.314  14.897 -1.1540 -0.1467 -0.0304
  347TMC3    H1 5259   2.627   3.150  15.244  1.7477 -1.4830  1.1869
  347TMC3    H2 5260   3.040   3.119  15.160 -0.0985  2.3295  0.8702
  347TMC3    C7 5261   2.846   3.064  15.348 -0.2294  0.0106 -0.1245
  347TMC3    C8 5262   3.019   3.225  14.908 -0.0710 -1.1237  0.2859
  347TMC3    O1 5263   2.758   3.089  15.425  0.2320  0.6875 -0.2697
  347TMC3    O2 5264   3.120   3.162  14.934 -0.3848 -0.4522  0.6314
  348MPD2     C 5265   0.289   2.524  11.718 -0.2157 -1.0938 -0.2965
  348MPD2    C1 5266   0.427   2.539  11.707 -0.1868  0.2836  0.8519
  348MPD2    C2 5267   0.474   2.616  11.604  0.4221  0.6393  0.6520
  348MPD2    C3 5268   0.390   2.680  11.515  0.5392  0.0573 -0.2325
  348MPD2    C4 5269   0.257   2.677  11.533  0.1490  0.2664 -0.5743
  348MPD2    C5 5270   0.205   2.600  11.637 -0.5072  0.1176  0.5785
  348MPD2     H 5271   0.580   2.620  11.580  0.9205  2.3390  3.1124
  348MPD2    H1 5272   0.184   2.741  11.485  0.0778  0.2329 -0.5112
  348MPD2    H2 5273   0.237   2.467  11.794 -0.1540 -0.9798 -0.1694
  348MPD2    H3 5274   0.099   2.608  11.659 -0.0926 -0.3755  2.7020
  348MPD2     N 5275   0.448   2.760  11.415  0.3283  0.2959 -0.2527
  348MPD2    H5 5276   0.546   2.784  11.427 -0.2839  1.9750  1.4388
  348MPD2    N1 5277   0.516   2.468  11.791  0.4989 -0.1072 -0.3576
  348MPD2    H7 5278   0.614   2.493  11.782  1.0858 -2.4729 -0.6784
  349TMC3    C1 5279   0.612   2.311  11.932  0.1966  0.5201 -0.4653
  349TMC3    C2 5280   0.597   2.181  11.971  0.4722  0.1111 -0.1149
  349TMC3    C3 5281   0.697   2.093  11.934  0.1483  0.1371  0.1071
  349TMC3    C4 5282   0.729   2.350  11.868 -0.3967  0.2228  0.1764
  349TMC3    C5 5283   0.827   2.265  11.832 -0.5802 -0.0796 -0.7188
  349TMC3    C6 5284   0.816   2.137  11.875 -0.3017 -0.0696  0.4206
  349TMC3     C 5285   0.487   2.376  11.889  0.2951  0.1961 -0.3575
  349TMC3     O 5286   0.377   2.320  11.911 -0.0755  0.4791  0.5582
  349TMC3     H 5287   0.508   2.153  12.027  0.8139  2.1664  1.4867
  349TMC3    H1 5288   0.748   2.455  11.846 -0.1311  0.7644  2.9288
  349TMC3    H2 5289   0.890   2.061  11.852 -0.4546 -0.7060  2.0384
  349TMC3    C7 5290   0.860   2.278  11.691 -0.2692  0.4219  0.5190
  349TMC3    C8 5291   0.717   1.984  12.030  0.7282  0.3319 -0.1454
  349TMC3    O1 5292   0.980   2.275  11.649 -0.9742  0.5991 -0.2475
  349TMC3    O2 5293   0.832   1.952  12.064  0.3736  0.3702 -0.1733
  350MPD2     C 5294   0.237   0.953  10.341 -0.0697 -0.3052 -0.7653
  350MPD2    C1 5295   0.124   0.872  10.352  0.4540  0.0943 -0.8135
  350MPD2    C2 5296   0.046   0.863  10.470  0.0249 -0.7397 -0.0653
  350MPD2    C3 5297   0.085   0.932  10.585 -0.0545  0.6633  0.3591
  350MPD2    C4 5298   0.195   1.014  10.577 -0.2627  0.7168  0.0366
  350MPD2    C5 5299   0.272   1.024  10.460  0.2444  0.1444 -0.1378
  350MPD2     H 5300   4.696   0.799  10.478  0.3345 -1.1651 -0.1520
  350MPD2    H1 5301   0.234   1.062  10.665 -2.5338  0.4757  1.1565
  350MPD2    H2 5302   0.294   0.970  10.251  1.4320  0.7453  0.3856
  350MPD2    H3 5303   0.368   1.074  10.454  0.2563  0.3544  1.8996
  350MPD2     N 5304   0.001   0.924  10.697 -0.1266 -0.2293 -0.5125
  350MPD2    H5 5305   4.654   0.867  10.692  1.4130 -2.5584 -0.0203
  350MPD2    N1 5306   0.079   0.792  10.245 -0.5552  0.3767 -0.5751
  350MPD2    H7 5307   0.004   0.728  10.272 -0.8920  0.5992 -0.9834
  351TMC3    C1 5308   0.113   0.663  10.051 -0.4827  0.7036  0.2209
  351TMC3    C2 5309   0.074   0.551  10.121  0.1887  0.6520 -0.0717
  351TMC3    C3 5310   0.043   0.440  10.055 -0.0683  0.5895 -0.3713
  351TMC3    C4 5311   0.132   0.665   9.921 -0.1615  0.0221 -0.3676
  351TMC3    C5 5312   0.109   0.547   9.854 -0.4403  0.0806 -0.2611
  351TMC3    C6 5313   0.062   0.436   9.920  0.2338  0.8520  0.1565
  351TMC3     C 5314   0.146   0.783  10.122 -0.6201 -0.2573 -0.0541
  351TMC3     O 5315   0.213   0.867  10.065  0.2765  0.0025  0.9235
  351TMC3     H 5316   0.053   0.564  10.227 -0.5622 -1.1738 -0.0035
  351TMC3    H1 5317   0.164   0.755   9.870 -1.4054 -0.1827 -1.5205
  351TMC3    H2 5318   0.022   0.353   9.864 -0.2216 -0.2884  2.1686
  351TMC3    C7 5319   0.116   0.547   9.708  0.4323 -0.3542  0.0085
  351TMC3    C8 5320   0.042   0.313  10.125 -0.1962  0.0934 -0.0031
  351TMC3    O1 5321   0.116   0.439   9.652  0.4702 -0.0296  0.0743
  351TMC3    O2 5322   0.093   0.326  10.236 -0.2626  0.1950  0.0616
  352MPD2     C 5323   3.729   2.975   0.977 -0.3165 -0.0883 -0.8743
  352MPD2    C1 5324   3.674   2.894   0.872  0.0017 -0.3408  0.2498
  352MPD2    C2 5325   3.752   2.811   0.791  0.0084  0.1715  0.1320
  352MPD2    C3 5326   3.892   2.822   0.811 -0.3238 -0.1591 -0.7443
  352MPD2    C4 5327   3.941   2.897   0.914  0.0304  0.0131  0.5813
  352MPD2    C5 5328   3.864   2.970   0.999  0.3406 -0.5050 -0.5547
  352MPD2     H 5329   3.708   2.751   0.711  0.3540 -1.5813  1.2548
  352MPD2    H1 5330   4.047   2.900   0.936  0.4313  1.0281 -1.4662
  352MPD2    H2 5331   3.663   3.043   1.031 -1.0659  0.4866 -2.4859
  352MPD2    H3 5332   3.909   3.026   1.080  0.4690 -1.2578 -0.1028
  352MPD2     N 5333   3.992   2.761   0.729 -0.6488 -0.0731 -0.8804
  352MPD2    H5 5334   4.088   2.757   0.762 -1.6965 -1.7129  1.9118
  352MPD2    N1 5335   3.532   2.894   0.867  0.9511 -0.4044  0.1465
  352MPD2    H7 5336   3.491   2.964   0.929  2.5197  1.5994 -1.0746
  353TMC3    C1 5337   4.063   2.608   0.554 -0.2665 -0.2354 -0.4067
  353TMC3    C2 5338   4.149   2.548   0.646 -0.3166 -0.4917 -0.0089
  353TMC3    C3 5339   4.186   2.417   0.624 -0.3875 -0.2343 -0.2632
  353TMC3    C4 5340   4.020   2.537   0.447  0.1195 -0.0380 -0.7154
  353TMC3    C5 5341   4.057   2.401   0.431 -0.1226  0.1659 -0.4513
  353TMC3    C6 5342   4.144   2.336   0.520 -0.4466  0.3182 -0.3931
  353TMC3     C 5343   3.965   2.697   0.609  0.1165  0.0547 -0.2263
  353TMC3     O 5344   3.858   2.699   0.550  0.7147 -0.7520 -0.1464
  353TMC3     H 5345   4.185   2.601   0.733 -1.0290 -0.5512  0.3228
  353TMC3    H1 5346   3.949   2.585   0.381  0.1983  0.8914 -0.1219
  353TMC3    H2 5347   4.182   2.238   0.495  0.4875  0.6589 -0.3229
  353TMC3    C7 5348   3.972   2.315   0.348  0.6754  0.5064  0.3116
  353TMC3    C8 5349   4.303   2.374   0.708  0.1809 -0.5895 -0.3572
  353TMC3    O1 5350   3.989   2.194   0.344 -0.0672  0.3286  0.0579
  353TMC3    O2 5351   4.375   2.459   0.758 -0.0096  0.2367  0.1951
  354TMC3    C1 5352   0.264   3.471  13.481  0.7497 -0.1748 -0.2411
  354TMC3    C2 5353   0.250   3.597  13.438  0.3959  0.4151 -0.4514
  354TMC3    C3 5354   0.211   3.616  13.313  0.5272  0.1066  0.4099
  354TMC3    C4 5355   0.244   3.364  13.404 -0.0227 -0.4709  0.1635
  354TMC3    C5 5356   0.241   3.387  13.271  0.8369 -0.1967 -0.1160
  354TMC3    C6 5357   0.218   3.515  13.222  0.3618  0.2433  0.1453
  354TMC3     C 5358   0.315   3.446  13.617  0.1598 -0.6910 -0.7242
  354TMC3     O 5359   0.264   3.360  13.686  0.1471  0.2338  0.4082
  354TMC3     H 5360   0.255   3.680  13.507  1.4570  0.7460 -0.9185
  354TMC3    H1 5361   0.285   3.270  13.441 -2.5506 -1.4311  0.5570
  354TMC3    H2 5362   0.173   3.532  13.125 -2.2289 -0.3009  1.2357
  354TMC3    C7 5363   0.272   3.283  13.176 -0.5512  0.6353 -0.1045
  354TMC3    C8 5364   0.170   3.751  13.270  0.1065 -0.2841  0.6700
  354TMC3    O1 5365   0.276   3.166  13.222  0.0875  0.6251 -0.6098
  354TMC3    O2 5366   0.138   3.773  13.155 -0.3631  0.1242 -0.2524
  355MPD2     C 5367   4.705   0.015  11.679 -0.4327  0.3282 -0.8504
  355MPD2    C1 5368   0.024   0.061  11.565 -0.4619  0.6227 -0.6199
  355MPD2    C2 5369   0.164   0.078  11.562  0.3304 -0.6054 -0.3387
  355MPD2    C3 5370   0.240   0.075  11.681  0.3473 -0.0295  0.0375
  355MPD2    C4 5371   0.174   0.037  11.798 -0.0297  0.1535 -0.1475
  355MPD2    C5 5372   0.042   4.732  11.794 -0.0771 -1.0760 -0.7197
  355MPD2     H 5373   0.220   0.107  11.474 -1.0346 -1.1638 -1.3937
  355MPD2    H1 5374   0.226   0.030  11.893  3.0410 -1.4415 -1.9390
  355MPD2    H2 5375   4.603   4.715  11.686 -0.8492  1.9848  1.9235
  355MPD2    H3 5376   0.006   4.690  11.887 -1.8361 -0.0313 -0.9251
  355MPD2     N 5377   0.374   0.118  11.689  0.2083  0.0229 -0.2167
  355MPD2    H5 5378   0.406   0.134  11.784  1.1390  0.7623 -0.6652
  355MPD2    N1 5379   4.679   0.065  11.457  0.5774 -0.1188 -0.0021
  355MPD2    H7 5380   4.588   0.022  11.475  0.4306 -0.3130 -1.2152
  356TMC3    C1 5381   0.596   0.204  11.636  0.1405  0.7160 -0.2190
  356TMC3    C2 5382   0.640   0.313  11.571  0.5550  0.0177  0.4624
  356TMC3    C3 5383   0.744   0.387  11.621 -0.5846  0.3047  0.0271
  356TMC3    C4 5384   0.658   0.159  11.752 -0.7863  0.0340 -0.0489
  356TMC3    C5 5385   0.767   0.229  11.789  0.0301  0.5531 -0.9486
  356TMC3    C6 5386   0.818   0.338  11.728 -0.4880 -0.7220  0.1197
  356TMC3     C 5387   0.458   0.162  11.588 -0.1414  0.0486  0.2328
  356TMC3     O 5388   0.438   0.177  11.467 -0.7622 -0.4833 -0.4110
  356TMC3     H 5389   0.600   0.350  11.477  1.4071  0.3677  0.2392
  356TMC3    H1 5390   0.627   0.066  11.798 -2.5370  0.3570 -0.5721
  356TMC3    H2 5391   0.913   0.382  11.756 -0.8099 -1.2028  2.0055
  356TMC3    C7 5392   0.829   0.188  11.909  0.1817 -0.2745  0.6286
  356TMC3    C8 5393   0.805   0.494  11.541 -0.9018 -0.5151 -0.0940
  356TMC3    O1 5394   0.805   0.076  11.948 -0.6565  0.1432 -0.1244
  356TMC3    O2 5395   0.785   0.486  11.420  0.0468  0.1872  0.9742
  357MPD2     C 5396   0.605   4.350   0.346  0.3882  0.8476  0.2913
  357MPD2    C1 5397   0.545   4.338   0.467  0.1259 -0.2444  0.5975
  357MPD2    C2 5398   0.414   4.300   0.458  0.3257 -0.3722  0.0095
  357MPD2    C3 5399   0.346   4.279   0.340 -0.2365  0.1884 -1.1379
  357MPD2    C4 5400   0.422   4.279   0.223  0.3051  0.6404  0.1647
  357MPD2    C5 5401   0.552   4.304   0.233 -0.3822 -0.1487 -0.1918
  357MPD2     H 5402   0.354   4.290   0.547 -1.2050 -2.6649 -1.2921
  357MPD2    H1 5403   0.379   4.265   0.124 -3.0149 -1.5150  1.9243
  357MPD2    H2 5404   0.707   4.383   0.331  0.4937  1.2565  1.9529
  357MPD2    H3 5405   0.615   4.300   0.146 -0.7613 -2.9447 -0.3346
  357MPD2     N 5406   0.213   4.231   0.341 -0.1088  0.1244  0.1468
  357MPD2    H5 5407   0.176   4.214   0.248  0.5479 -2.7378  0.3892
  357MPD2    N1 5408   0.610   4.382   0.585 -0.4828  0.6491  0.3804
  357MPD2    H7 5409   0.711   4.388   0.583 -0.5372  1.6473  0.3303
  358TMC3    C1 5410   0.619   4.380   0.817 -0.1647  0.4966  0.0482
  358TMC3    C2 5411   0.730   4.308   0.804  0.4393 -0.3732 -0.0453
  358TMC3    C3 5412   0.771   4.220   0.904 -0.5783 -0.8560  0.6624
  358TMC3    C4 5413   0.543   4.383   0.932 -0.0940  0.4753  0.2101
  358TMC3    C5 5414   0.593   4.299   1.037  0.9899 -0.0890  0.4344
  358TMC3    C6 5415   0.695   4.210   1.019  0.3397  0.1416 -0.2366
  358TMC3     C 5416   0.541   4.406   0.698  0.0786  0.7049  0.0771
  358TMC3     O 5417   0.422   4.432   0.718 -0.6828  0.5941 -0.3666
  358TMC3     H 5418   0.782   4.307   0.709 -1.2326 -0.1690 -0.9721
  358TMC3    H1 5419   0.459   4.451   0.939 -0.7790 -0.1589 -1.8184
  358TMC3    H2 5420   0.717   4.150   1.106  0.5069  2.2549  1.1920
  358TMC3    C7 5421   0.521   4.288   1.163  0.7340  0.5036  0.0166
  358TMC3    C8 5422   0.810   4.096   0.843 -0.0754  0.6411  0.0431
  358TMC3    O1 5423   0.563   4.207   1.245  0.3651  0.0239 -0.0732
  358TMC3    O2 5424   0.901   4.094   0.764  0.0917  0.6476 -0.1217
  359MPD2     C 5425   0.109   2.776  12.366 -0.1725 -0.0397 -0.7012
  359MPD2    C1 5426   0.089   2.829  12.238  0.0789  0.0715  0.4371
  359MPD2    C2 5427   4.701   2.874  12.200 -0.5614 -0.0151 -0.4236
  359MPD2    C3 5428   4.591   2.875  12.290  0.6465  0.1181 -0.2590
  359MPD2    C4 5429   4.620   2.817  12.415 -0.0950 -0.2015  0.3588
  359MPD2    C5 5430   0.006   2.770  12.448 -0.1841  0.3223 -0.3275
  359MPD2     H 5431   4.687   2.916  12.101 -1.1995  0.5983 -0.0762
  359MPD2    H1 5432   4.544   2.819  12.494 -0.0215 -1.0834  0.4543
  359MPD2    H2 5433   0.203   2.732  12.398 -1.1667 -1.1561  0.7271
  359MPD2    H3 5434   0.017   2.730  12.548  3.3406 -0.7475 -1.1708
  359MPD2     N 5435   4.464   2.928  12.263  0.3364 -0.6496 -0.7634
  359MPD2    H5 5436   4.401   2.926  12.342 -0.6583  0.6755 -1.5340
  359MPD2    N1 5437   0.189   2.825  12.139  0.3218 -0.8090 -0.2033
  359MPD2    H7 5438   0.150   2.851  12.049  1.3132  0.4107 -0.2875
  360TMC3    C1 5439   0.415   2.820  12.053  0.2029  0.2698 -0.0716
  360TMC3    C2 5440   0.537   2.761  12.058  0.2048  0.1212  0.4764
  360TMC3    C3 5441   0.618   2.769  11.954  0.1861 -0.2516 -0.3093
  360TMC3    C4 5442   0.362   2.864  11.930 -0.2894 -0.4610  0.3205
  360TMC3    C5 5443   0.453   2.877  11.828 -0.1612  0.6877 -0.2186
  360TMC3    C6 5444   0.576   2.823  11.833  0.4812  0.6740 -0.3713
  360TMC3     C 5445   0.324   2.796  12.163 -0.2808 -0.1594 -0.1187
  360TMC3     O 5446   0.372   2.738  12.257  0.0231 -0.4418  0.1702
  360TMC3     H 5447   0.575   2.717  12.150 -1.5110 -0.1383  1.0581
  360TMC3    H1 5448   0.283   2.937  11.933 -1.4486 -1.6418 -1.8571
  360TMC3    H2 5449   0.638   2.825  11.744  0.8463  0.0643 -0.1309
  360TMC3    C7 5450   0.429   2.956  11.713 -0.2645  0.8570  0.4547
  360TMC3    C8 5451   0.737   2.698  11.959 -0.0818 -0.1926 -0.0464
  360TMC3    O1 5452   0.525   3.003  11.656  0.5182  0.0015 -0.4831
  360TMC3    O2 5453   0.745   2.609  12.038 -0.2401  0.5590 -0.1267
  361MPD2     C 5454   2.701   2.404  16.841  0.0754 -0.1500 -0.6426
  361MPD2    C1 5455   2.642   2.277  16.829  0.7593 -0.5524  0.8030
  361MPD2    C2 5456   2.724   2.168  16.829  0.1833  0.6972 -0.0860
  361MPD2    C3 5457   2.859   2.180  16.832  0.4415  0.3782 -0.3924
  361MPD2    C4 5458   2.912   2.307  16.816  0.1130 -0.0243  0.5405
  361MPD2    C5 5459   2.838   2.418  16.827  0.4687  0.5890 -0.1239
  361MPD2     H 5460   2.675   2.072  16.820  0.0638  0.7310  0.2296
  361MPD2    H1 5461   3.019   2.322  16.806 -0.1771  2.5970  1.5120
  361MPD2    H2 5462   2.637   2.490  16.859 -0.6270 -1.1100  1.4477
  361MPD2    H3 5463   2.883   2.517  16.832  2.3883 -0.3607  1.7303
  361MPD2     N 5464   2.942   2.067  16.845 -0.1160 -0.8514 -0.9576
  361MPD2    H5 5465   3.041   2.089  16.836 -0.3139  1.2979  2.1470
  361MPD2    N1 5466   2.502   2.262  16.815 -0.0872 -0.0859 -0.0143
  361MPD2    H7 5467   2.466   2.168  16.822 -1.1071  0.2062 -1.3650
  362TMC3    C1 5468   2.292   2.290  16.715 -0.5150 -0.2363 -1.1488
  362TMC3    C2 5469   2.215   2.262  16.819  0.1331  0.0117 -0.1928
  362TMC3    C3 5470   2.076   2.271  16.823  0.0084  0.5358  0.2001
  362TMC3    C4 5471   2.223   2.336  16.602  0.2446  0.0144  0.0210
  362TMC3    C5 5472   2.085   2.337  16.605 -0.5832 -0.6311 -0.2927
  362TMC3    C6 5473   2.002   2.305  16.711  0.0505  0.5768  0.1193
  362TMC3     C 5474   2.423   2.343  16.736  0.1826  0.0843 -0.3442
  362TMC3     O 5475   2.460   2.433  16.664  0.3382 -0.1048 -0.1973
  362TMC3     H 5476   2.267   2.232  16.909 -1.1784 -2.8545 -0.3699
  362TMC3    H1 5477   2.285   2.376  16.522  0.7950  1.8249  1.3656
  362TMC3    H2 5478   1.894   2.298  16.708  0.0071  1.0740  0.4857
  362TMC3    C7 5479   2.017   2.387  16.492  0.2852 -0.6455 -0.5380
  362TMC3    C8 5480   2.011   2.220  16.941 -0.2670 -0.1281 -0.5081
  362TMC3    O1 5481   2.079   2.457  16.414 -0.0088 -0.4135  1.1508
  362TMC3    O2 5482   2.049   2.116  16.999 -0.1761 -0.3966  0.5169
  363TMC3    C1 5483   0.082   4.492   9.030 -0.0072  0.1715 -0.1079
  363TMC3    C2 5484   0.142   4.464   9.151  0.8290 -0.1499 -0.2289
  363TMC3    C3 5485   0.089   4.527   9.268 -0.2210 -0.9079 -0.1661
  363TMC3    C4 5486   4.723   4.583   9.017  0.6913  0.3427 -0.6263
  363TMC3    C5 5487   4.672   4.640   9.131 -0.7053  0.1769  0.8358
  363TMC3    C6 5488   4.708   4.599   9.262  0.6084 -0.0554 -0.1380
  363TMC3     C 5489   0.149   4.449   8.908  0.0395  0.1843 -0.3072
  363TMC3     O 5490   0.114   4.508   8.808 -0.0076  0.3452 -0.1125
  363TMC3     H 5491   0.229   4.400   9.152 -0.4220 -1.8065  1.9684
  363TMC3    H1 5492   4.683   4.609   8.920 -2.1898  1.5514  0.8781
  363TMC3    H2 5493   4.660   4.632   9.354  0.7550 -0.5982  0.1335
  363TMC3    C7 5494   4.595   0.023   9.125  0.4512 -0.0424  0.0960
  363TMC3    C8 5495   0.166   4.547   9.389 -0.5051 -0.3235 -0.7655
  363TMC3    O1 5496   4.607   0.100   9.219  0.8246  0.4835  0.2016
  363TMC3    O2 5497   0.118   4.622   9.471  0.1400 -0.1512  0.0957
  364MPD2     C 5498   3.802   4.306  10.411 -0.5593  0.9230  0.5479
  364MPD2    C1 5499   3.915   4.275  10.335 -0.2114  0.6643 -0.1017
  364MPD2    C2 5500   3.994   4.169  10.383 -0.4208 -0.9951  0.0101
  364MPD2    C3 5501   3.982   4.113  10.507  0.5428  0.0984  0.1698
  364MPD2    C4 5502   3.869   4.150  10.571 -0.3417  0.4061 -0.5004
  364MPD2    C5 5503   3.784   4.248  10.530 -0.3841  0.3543  0.9230
  364MPD2     H 5504   4.081   4.154  10.320 -0.6705 -2.3875  0.0112
  364MPD2    H1 5505   3.852   4.107  10.669  0.2967 -0.4077 -0.7521
  364MPD2    H2 5506   3.735   4.384  10.378 -1.5053  0.3344  1.0732
  364MPD2    H3 5507   3.698   4.280  10.588 -0.3357 -0.0542  1.2211
  364MPD2     N 5508   4.062   4.024  10.576 -0.3744 -0.2621  0.0157
  364MPD2    H5 5509   4.038   4.001  10.672 -2.1821  0.4669 -0.2613
  364MPD2    N1 5510   3.932   4.345  10.213  0.0039  0.1892  0.0953
  364MPD2    H7 5511   3.888   4.436  10.206  0.3368  0.3082 -0.3941
  365TMC3    C1 5512   4.042   4.419  10.018 -0.6218  0.7104 -0.2580
  365TMC3    C2 5513   4.073   4.380   9.890  0.2347  0.1094 -0.2284
  365TMC3    C3 5514   4.163   4.448   9.818  0.1435 -0.4528  0.3775
  365TMC3    C4 5515   4.082   4.542  10.064 -1.1011  0.8394  0.4873
  365TMC3    C5 5516   4.173   4.615   9.988 -0.2919  1.0855 -0.8722
  365TMC3    C6 5517   4.212   4.568   9.866  0.2072 -0.7528 -0.0647
  365TMC3     C 5518   4.016   4.313  10.107  0.3454  0.2226  0.7106
  365TMC3     O 5519   4.093   4.220  10.093 -0.4642 -0.0600  0.0594
  365TMC3     H 5520   4.028   4.292   9.845 -0.5285  0.3398  0.0792
  365TMC3    H1 5521   4.067   4.557  10.170  0.2097 -0.6883  0.8953
  365TMC3    H2 5522   4.288   4.622   9.811  0.3147 -0.6371  0.1945
  365TMC3    C7 5523   4.253   4.722  10.056  0.6707 -0.0208 -0.1191
  365TMC3    C8 5524   4.270   4.367   9.779  0.1109  0.0131  0.6854
  365TMC3    O1 5525   4.331   0.048   9.986  0.4634  0.0377 -0.4375
  365TMC3    O2 5526   4.322   4.391   9.669 -0.6479 -0.1976  0.2616
  366MPD2     C 5527   3.206   4.669  15.338 -0.4942  0.4986 -0.0803
  366MPD2    C1 5528   3.190   0.033  15.243  0.6796  0.5144  0.0312
  366MPD2    C2 5529   3.286   0.053  15.149  0.2396 -0.1718 -0.1707
  366MPD2    C3 5530   3.394   4.705  15.138 -0.3396  0.1420 -0.7517
  366MPD2    C4 5531   3.403   4.606  15.223  0.2869  0.1224 -0.2690
  366MPD2    C5 5532   3.315   4.589  15.328  0.3518  0.2996  0.6867
  366MPD2     H 5533   3.287   0.138  15.082 -0.4304 -0.1387 -0.1389
  366MPD2    H1 5534   3.493   4.547  15.234 -0.6343 -0.9455  1.5839
  366MPD2    H2 5535   3.135   4.659  15.419  0.9132 -0.8149  0.9875
  366MPD2    H3 5536   3.336   4.517  15.407  0.2748 -1.1135 -0.5967
  366MPD2     N 5537   3.500   0.018  15.061  1.1443 -0.4591 -0.7311
  366MPD2    H5 5538   3.498   0.115  15.030  2.5703  0.0487  0.7925
  366MPD2    N1 5539   3.094   0.134  15.270  0.2448  0.1037 -0.2782
  366MPD2    H7 5540   3.044   0.153  15.355 -1.1274 -3.7313 -0.2420
  367TMC3    C1 5541   2.993   0.339  15.207 -0.3704  0.1726  0.0007
  367TMC3    C2 5542   3.063   0.421  15.292 -0.2419 -0.4255  0.4748
  367TMC3    C3 5543   3.023   0.550  15.304  0.0029  0.1370 -0.1500
  367TMC3    C4 5544   2.884   0.385  15.137 -0.3615  0.0263  0.6918
  367TMC3    C5 5545   2.839   0.504  15.163  0.7145  0.2455  0.3462
  367TMC3    C6 5546   2.908   0.594  15.244 -0.7269 -0.1228 -0.5819
  367TMC3     C 5547   3.054   0.218  15.169 -0.4895 -0.3138 -0.2995
  367TMC3     O 5548   3.076   0.203  15.055 -0.1369  0.4223 -0.4123
  367TMC3     H 5549   3.160   0.398  15.335  0.7171  0.3928 -1.2140
  367TMC3    H1 5550   2.828   0.319  15.071 -0.2976  0.7230 -0.0412
  367TMC3    H2 5551   2.880   0.699  15.250 -0.2727 -0.0973  1.3968
  367TMC3    C7 5552   2.727   0.564  15.098  0.2488  0.4257 -0.0154
  367TMC3    C8 5553   3.088   0.626  15.410 -0.6926  0.0342  0.9287
  367TMC3    O1 5554   2.720   0.684  15.101 -0.7155  0.1659 -0.0954
  367TMC3    O2 5555   3.134   0.559  15.501 -0.5244 -0.6215  0.7256
  368MPD2     C 5556   4.095   2.191  13.382  0.1549 -0.0445  0.3820
  368MPD2    C1 5557   4.034   2.201  13.262  0.8004 -0.0388  0.0794
  368MPD2    C2 5558   4.119   2.209  13.153 -0.0654  0.2145 -0.2028
  368MPD2    C3 5559   4.256   2.196  13.173 -0.1555 -0.6429  0.9138
  368MPD2    C4 5560   4.312   2.180  13.297 -0.1910  0.2676  0.2604
  368MPD2    C5 5561   4.227   2.180  13.401 -0.2141  0.0096  0.2653
  368MPD2     H 5562   4.080   2.218  13.053  0.0316  1.3623 -0.1450
  368MPD2    H1 5563   4.419   2.171  13.313 -0.1770  1.4493  0.8405
  368MPD2    H2 5564   4.038   2.193  13.475  0.8840  1.9685  0.7879
  368MPD2    H3 5565   4.263   2.165  13.502 -0.8780  1.9980  0.7800
  368MPD2     N 5566   4.348   2.196  13.066 -0.6685 -0.4379  0.6033
  368MPD2    H5 5567   4.446   2.200  13.093 -0.2052 -0.7943 -1.0475
  368MPD2    N1 5568   3.892   2.201  13.247  0.2279  0.0924  0.1851
  368MPD2    H7 5569   3.837   2.196  13.332  1.7437 -0.4311  1.1335
  369TMC3    C1 5570   3.682   2.177  13.135 -0.3377  0.4031  0.4448
  369TMC3    C2 5571   3.638   2.108  13.025  0.0100  0.8127  0.8237
  369TMC3    C3 5572   3.506   2.085  13.007 -0.5405  0.2333 -0.0681
  369TMC3    C4 5573   3.595   2.223  13.227  0.3620 -0.2252 -0.0699
  369TMC3    C5 5574   3.464   2.204  13.199 -0.0081  0.2120  0.0192
  369TMC3    C6 5575   3.416   2.141  13.092  0.2255 -0.4553  0.4239
  369TMC3     C 5576   3.826   2.209  13.129  0.2688  0.2388  0.0989
  369TMC3     O 5577   3.870   2.201  13.014  0.6000  0.1110  0.1555
  369TMC3     H 5578   3.707   2.084  12.945 -1.1263 -0.0206  0.0958
  369TMC3    H1 5579   3.627   2.291  13.305 -0.6464  0.0980  0.0522
  369TMC3    H2 5580   3.313   2.107  13.096  0.7225 -1.9503  0.8937
  369TMC3    C7 5581   3.366   2.265  13.285 -0.3228 -0.3088  0.3542
  369TMC3    C8 5582   3.455   2.064  12.868  0.5814 -0.6672 -0.0670
  369TMC3    O1 5583   3.403   2.292  13.400 -0.2570 -0.0275 -0.5871
  369TMC3    O2 5584   3.353   2.125  12.842  0.0694 -0.0532 -0.2524
  370TMC3    C1 5585   4.043   3.110  16.263 -0.1942  0.5043 -0.8782
  370TMC3    C2 5586   3.962   3.074  16.366 -0.2825 -0.9642 -0.3427
  370TMC3    C3 5587   3.881   2.969  16.347 -0.3066 -0.1980  1.0871
  370TMC3    C4 5588   4.053   3.034  16.147 -0.1408  0.4673 -0.0630
  370TMC3    C5 5589   3.994   2.912  16.147 -0.7527 -0.1822  0.5428
  370TMC3    C6 5590   3.900   2.878  16.249  0.1886  0.4675  0.3961
  370TMC3     C 5591   4.120   3.233  16.284 -0.4950  0.0802 -0.6392
  370TMC3     O 5592   4.147   3.266  16.400  0.2439 -0.0022  0.3562
  370TMC3     H 5593   3.947   3.143  16.448 -2.5025 -0.7134 -0.9709
  370TMC3    H1 5594   4.110   3.069  16.062 -0.7760  3.7654  0.8768
  370TMC3    H2 5595   3.840   2.788  16.244  0.1907  0.6090 -2.3977
  370TMC3    C7 5596   4.015   2.825  16.032 -0.3589 -0.2883 -0.3929
  370TMC3    C8 5597   3.836   2.904  16.473 -0.4477 -0.1347 -0.7915
  370TMC3    O1 5598   4.050   2.877  15.929 -0.3252 -0.2267 -0.4253
  370TMC3    O2 5599   3.873   2.786  16.481  0.1456 -0.4160  0.4667
  371TMC3    C1 5600   0.162   1.158  15.385  0.4559  0.4764 -0.5764
  371TMC3    C2 5601   0.076   1.161  15.491  0.4743 -0.4200  0.0198
  371TMC3    C3 5602   0.028   1.279  15.531 -0.3683 -0.4319 -0.2457
  371TMC3    C4 5603   0.207   1.277  15.331  0.5911 -0.8560  0.0048
  371TMC3    C5 5604   0.151   1.398  15.375 -0.1870 -0.1915 -0.7766
  371TMC3    C6 5605   0.059   1.397  15.475  0.1752  0.5699 -0.1597
  371TMC3     C 5606   0.237   1.039  15.360  0.0634 -0.4631 -0.1156
  371TMC3     O 5607   0.340   1.049  15.293 -0.1240  0.1057  0.0794
  371TMC3     H 5608   0.042   1.069  15.536 -0.3356 -2.3733 -4.6034
  371TMC3    H1 5609   0.279   1.274  15.250 -0.0276  0.0029 -0.5808
  371TMC3    H2 5610   0.031   1.492  15.521  0.6025  0.6931 -0.1583
  371TMC3    C7 5611   0.219   1.523  15.345 -0.2203 -0.1848 -0.2615
  371TMC3    C8 5612   4.724   1.279  15.677  1.2301  0.0788  0.5756
  371TMC3    O1 5613   0.150   1.625  15.342  0.3691  0.1621  0.2173
  371TMC3    O2 5614   0.041   1.193  15.752  0.0036 -0.4158  0.0103
  372MPD2     C 5615   0.170   2.858  13.229  0.6844  0.5122 -0.8880
  372MPD2    C1 5616   0.227   2.837  13.354 -1.1680 -0.2181 -0.6415
  372MPD2    C2 5617   0.209   2.710  13.408 -0.0289 -0.0092 -0.1467
  372MPD2    C3 5618   0.126   2.615  13.341  0.2301  0.2468 -0.6836
  372MPD2    C4 5619   0.077   2.637  13.216 -0.5991 -0.0448  0.1584
  372MPD2    C5 5620   0.098   2.763  13.163  0.2892 -0.3205 -0.3339
  372MPD2     H 5621   0.253   2.685  13.504 -0.7905 -0.8755 -0.0285
  372MPD2    H1 5622   0.034   2.563  13.150 -1.7083  0.1370  0.6866
  372MPD2    H2 5623   0.191   2.954  13.183  0.8396  0.2243 -1.4174
  372MPD2    H3 5624   0.066   2.777  13.060  0.6385 -3.0079 -0.8050
  372MPD2     N 5625   0.109   2.500  13.417 -0.0136  0.4118 -0.1539
  372MPD2    H5 5626   0.148   2.501  13.511 -0.4238 -1.3153  0.0365
  372MPD2    N1 5627   0.313   2.934  13.403 -0.2777  0.1252 -0.2143
  372MPD2    H7 5628   0.317   3.021  13.351 -0.0802  0.2317 -0.0181
  373TMC3    C1 5629   4.733   2.303  13.472 -0.0088  0.8382  0.1995
  373TMC3    C2 5630   4.698   2.357  13.595 -0.8354 -1.1261 -0.2516
  373TMC3    C3 5631   4.661   2.262  13.691 -0.7674 -0.1841 -0.5027
  373TMC3    C4 5632   0.014   2.169  13.441 -0.6346  0.2827 -0.1331
  373TMC3    C5 5633   4.718   2.088  13.540  0.4490 -0.0489  0.4975
  373TMC3    C6 5634   4.681   2.127  13.664 -0.3684 -0.3398  0.3603
  373TMC3     C 5635   0.042   2.393  13.370  0.0219  0.1412  0.6039
  373TMC3     O 5636   0.054   2.351  13.255 -0.4252 -0.3686  0.4054
  373TMC3     H 5637   4.690   2.462  13.617  1.2436 -0.9293 -0.4019
  373TMC3    H1 5638   0.031   2.127  13.342  0.3155 -1.5275  0.7890
  373TMC3    H2 5639   4.670   2.041  13.729  1.7603 -1.8937 -1.3358
  373TMC3    C7 5640   0.034   1.954  13.528 -0.1074 -0.2021 -0.2107
  373TMC3    C8 5641   4.654   2.303  13.831  0.3216  0.5566  0.1431
  373TMC3    O1 5642   0.016   1.898  13.420  0.2501  0.7114  0.0179
  373TMC3    O2 5643   4.726   2.400  13.858  0.7181 -0.3061 -0.2588
  374TMC3    C1 5644   4.438   3.349   9.290  0.0843  0.5165  0.4983
  374TMC3    C2 5645   4.513   3.443   9.345  0.3173  0.0176  0.4052
  374TMC3    C3 5646   4.628   3.413   9.412  0.5616 -0.2464  0.3350
  374TMC3    C4 5647   4.500   3.227   9.271 -0.0950  0.2729  0.0266
  374TMC3    C5 5648   4.612   3.200   9.336 -0.1230  0.5045 -0.0113
  374TMC3    C6 5649   4.683   3.286   9.415  0.3732 -0.0858 -0.2868
  374TMC3     C 5650   4.348   3.384   9.173  0.1084 -0.8599  0.3881
  374TMC3     O 5651   4.361   3.320   9.068  0.4155  0.1105 -0.1464
  374TMC3     H 5652   4.476   3.543   9.325  0.5295 -0.1298 -0.7448
  374TMC3    H1 5653   4.452   3.149   9.213 -0.6435 -0.7749  1.9067
  374TMC3    H2 5654   0.047   3.271   9.450  0.4331 -1.2532 -0.9437
  374TMC3    C7 5655   4.665   3.069   9.311 -1.4959 -0.5448  0.4027
  374TMC3    C8 5656   4.697   3.517   9.486 -0.2541 -0.5409  0.2594
  374TMC3    O1 5657   4.645   3.022   9.201 -0.2774 -0.5815 -0.3601
  374TMC3    O2 5658   4.687   3.635   9.454 -0.0357 -0.3678 -0.4849
  375MPD2     C 5659   0.262   2.856  17.377 -0.7220 -0.4366  0.5411
  375MPD2    C1 5660   0.176   2.907  17.279  0.4457  0.3654 -0.2350
  375MPD2    C2 5661   0.204   2.895  17.144 -0.4912 -0.5076  0.2852
  375MPD2    C3 5662   0.334   2.846  17.111  0.1498 -0.8477 -0.0865
  375MPD2    C4 5663   0.425   2.809  17.209  0.1057 -0.3367  0.3240
  375MPD2    C5 5664   0.390   2.804  17.340 -0.4651  0.1226 -0.1121
  375MPD2     H 5665   0.137   2.930  17.066  1.4965  1.9936 -0.3199
  375MPD2    H1 5666   0.524   2.779  17.176  0.3297  0.2413  0.4722
  375MPD2    H2 5667   0.246   2.870  17.483 -2.0929 -0.2025  0.3098
  375MPD2    H3 5668   0.453   2.767  17.421 -0.3158 -0.0352 -0.2997
  375MPD2     N 5669   0.383   2.832  16.980  0.4359  0.3017 -0.3500
  375MPD2    H5 5670   0.480   2.801  16.978  0.5407  0.5843  0.7748
  375MPD2    N1 5671   0.046   2.955  17.311 -0.3446 -1.0463  0.1543
  375MPD2    H7 5672   4.723   2.968  17.231  1.6332 -2.1742 -1.5338
  376TMC3    C1 5673   0.391   2.839  16.741  0.3623  0.2314 -0.5301
  376TMC3    C2 5674   0.528   2.845  16.739  0.3667  0.1987 -0.3946
  376TMC3    C3 5675   0.591   2.836  16.622  0.2467  0.0953 -0.1156
  376TMC3    C4 5676   0.313   2.823  16.632  0.3423 -0.8639 -0.0497
  376TMC3    C5 5677   0.383   2.823  16.512  0.4937 -0.5627 -0.8458
  376TMC3    C6 5678   0.519   2.836  16.509 -0.2435  0.3658  0.7973
  376TMC3     C 5679   0.310   2.846  16.867  0.4383  0.6388 -0.4698
  376TMC3     O 5680   0.198   2.888  16.855  0.0802 -0.1246 -0.0300
  376TMC3     H 5681   0.589   2.859  16.828 -0.6525  0.7410  0.2150
  376TMC3    H1 5682   0.205   2.816  16.638  0.2627  1.1414  1.1326
  376TMC3    H2 5683   0.571   2.835  16.414 -0.5900  2.0657  0.5783
  376TMC3    C7 5684   0.311   2.846  16.388 -0.2534 -0.2588 -0.0462
  376TMC3    C8 5685   0.727   2.892  16.623  0.0279 -0.9229  0.6937
  376TMC3    O1 5686   0.383   2.833  16.291 -0.0250  0.9167 -0.1489
  376TMC3    O2 5687   0.742   2.996  16.570 -0.7270  0.7058 -0.0997
  377MPD2     C 5688   2.718   2.803  13.090  0.2110  0.3902 -0.0379
  377MPD2    C1 5689   2.699   2.677  13.041 -0.0207  0.5848  0.0359
  377MPD2    C2 5690   2.623   2.589  13.123 -0.2401 -0.1282  0.2620
  377MPD2    C3 5691   2.597   2.622  13.255 -0.1533  0.2447  0.1525
  377MPD2    C4 5692   2.618   2.746  13.295  0.0135 -0.6854 -0.1948
  377MPD2    C5 5693   2.672   2.836  13.215  0.0711 -0.0844 -0.6487
  377MPD2     H 5694   2.611   2.489  13.082 -3.5221  1.1596 -1.9713
  377MPD2    H1 5695   2.585   2.778  13.393 -0.2158  2.9641 -1.4453
  377MPD2    H2 5696   2.770   2.875  13.028 -0.2456  1.2847  0.6192
  377MPD2    H3 5697   2.687   2.931  13.266 -0.0177 -0.3021 -0.2172
  377MPD2     N 5698   2.547   2.533  13.350 -0.5607 -0.3050 -0.6648
  377MPD2    H5 5699   2.522   2.565  13.443 -1.2075 -2.3796 -0.1140
  377MPD2    N1 5700   2.738   2.642  12.907 -0.1452 -0.2554  0.6832
  377MPD2    H7 5701   2.760   2.721  12.846 -0.0072  0.1531  1.2628
  378TMC3    C1 5702   2.753   2.576  12.497 -0.2994 -0.1363  0.0212
  378TMC3    C2 5703   2.732   2.586  12.632 -0.0097  0.3171 -0.1990
  378TMC3    C3 5704   2.807   2.509  12.722 -0.4612 -0.2862  0.2416
  378TMC3    C4 5705   2.832   2.471  12.448  0.6634 -0.2231  0.9237
  378TMC3    C5 5706   2.896   2.391  12.545 -0.3514  0.2544 -0.3190
  378TMC3    C6 5707   2.892   2.406  12.682 -0.1411 -0.2696 -0.2501
  378TMC3     C 5708   2.677   2.665  12.414 -0.0711 -0.2267  0.4914
  378TMC3     O 5709   2.588   2.732  12.466  0.3928 -0.2189 -0.1886
  378TMC3     H 5710   2.666   2.667  12.661 -1.1666 -1.0330  0.9383
  378TMC3    H1 5711   2.826   2.464  12.340  1.4316  0.3951  0.8408
  378TMC3    H2 5712   2.960   2.360  12.753 -1.0951 -0.6779  0.4014
  378TMC3    C7 5713   2.990   2.298  12.510  0.0723  0.0527 -0.2983
  378TMC3    C8 5714   2.759   2.511  12.859 -0.4260 -0.2862  0.6766
  378TMC3    O1 5715   2.993   2.196  12.577  0.5205  0.3546  0.0282
  378TMC3    O2 5716   2.754   2.400  12.913  0.1768 -0.5433  0.3398
  379MPD2     C 5717   4.001   1.244  16.110 -0.3304  0.7734  0.0346
  379MPD2    C1 5718   3.951   1.135  16.177  0.4253  0.4733 -0.2429
  379MPD2    C2 5719   4.023   1.076  16.288 -0.1266  0.0979 -0.4690
  379MPD2    C3 5720   4.144   1.134  16.326 -0.6937 -0.7829 -0.2301
  379MPD2    C4 5721   4.180   1.254  16.264 -0.1071  0.2470 -0.0759
  379MPD2    C5 5722   4.116   1.303  16.152 -0.4016  0.2283 -0.1685
  379MPD2     H 5723   3.975   0.994  16.340  2.1264  0.0352  1.4799
  379MPD2    H1 5724   4.263   1.307  16.308  0.4562 -1.4950  0.9547
  379MPD2    H2 5725   3.946   1.277  16.022 -0.1280  2.0483  0.3939
  379MPD2    H3 5726   4.148   1.397  16.108 -1.2834  0.2954 -0.6692
  379MPD2     N 5727   4.230   1.088  16.429  0.3894  0.3335  0.5800
  379MPD2    H5 5728   4.321   1.132  16.434  0.4432  0.4524 -1.5867
  379MPD2    N1 5729   3.828   1.081  16.129 -0.1038  0.4199 -0.0487
  379MPD2    H7 5730   3.803   1.116  16.037  0.7251 -0.9264 -0.7828
  380TMC3    C1 5731   3.706   0.896  16.067 -0.2214 -0.0250 -0.2236
  380TMC3    C2 5732   3.709   0.762  16.071  0.4363 -0.0769 -0.5660
  380TMC3    C3 5733   3.669   0.694  15.955  0.6122 -0.1733 -0.6735
  380TMC3    C4 5734   3.640   0.966  15.971 -0.0982 -0.3690 -0.6228
  380TMC3    C5 5735   3.599   0.893  15.865 -0.5188  0.6417  0.0103
  380TMC3    C6 5736   3.617   0.758  15.850  0.1524 -0.5682 -0.6301
  380TMC3     C 5737   3.763   0.970  16.177  0.1625  0.3326 -0.0307
  380TMC3     O 5738   3.786   0.899  16.275 -0.0828 -0.0955  0.7590
  380TMC3     H 5739   3.761   0.707  16.147  1.5126  0.6304 -0.7972
  380TMC3    H1 5740   3.619   1.072  15.981  0.8757  0.0031 -2.4714
  380TMC3    H2 5741   3.585   0.704  15.762 -2.4874  1.8531 -1.1948
  380TMC3    C7 5742   3.516   0.967  15.768 -0.5857  0.2599  0.1935
  380TMC3    C8 5743   3.755   0.578  15.929  0.2310  1.4225 -0.0731
  380TMC3    O1 5744   3.542   1.087  15.762 -0.3624  0.1065  0.0925
  380TMC3    O2 5745   3.807   0.519  16.022 -0.6065 -0.4931 -0.0588
  381TMC3    C1 5746   3.856   2.202  16.430  0.2919 -0.5874 -0.0340
  381TMC3    C2 5747   3.953   2.248  16.511  0.5100  0.2800 -0.8931
  381TMC3    C3 5748   3.959   2.384  16.527  0.8974 -0.0227 -0.7669
  381TMC3    C4 5749   3.761   2.284  16.369  0.3528 -0.6282  0.1024
  381TMC3    C5 5750   3.749   2.413  16.419 -0.6278 -0.3699 -0.3125
  381TMC3    C6 5751   3.851   2.463  16.492  0.0033 -0.0920 -0.1408
  381TMC3     C 5752   3.892   2.094  16.336 -0.5059  0.4905  0.6010
  381TMC3     O 5753   3.829   2.095  16.230  0.1446  0.4518 -0.3393
  381TMC3     H 5754   4.039   2.188  16.539 -0.5990 -2.0086 -2.3523
  381TMC3    H1 5755   3.686   2.247  16.301 -0.5060  0.4218  0.4686
  381TMC3    H2 5756   3.849   2.570  16.511 -0.3991 -0.4670  1.9473
  381TMC3    C7 5757   3.637   2.491  16.373  0.2946  0.1872 -0.6631
  381TMC3    C8 5758   4.086   2.435  16.480 -0.6369  0.3448  0.0327
  381TMC3    O1 5759   3.599   2.471  16.257 -0.1344  0.5403  0.4834
  381TMC3    O2 5760   4.157   2.356  16.415 -0.3009  0.2200 -0.1153
  382MPD2     C 5761   3.020   4.150  17.112 -0.0706 -0.3139 -0.1030
  382MPD2    C1 5762   3.036   4.105  17.247  0.4339  0.1984 -0.4519
  382MPD2    C2 5763   2.973   3.992  17.287 -0.2496  0.3712  0.4247
  382MPD2    C3 5764   2.900   3.918  17.194 -0.6454  0.7538  0.6086
  382MPD2    C4 5765   2.882   3.961  17.064 -0.5778  0.7425  0.2508
  382MPD2    C5 5766   2.940   4.079  17.027  0.2385  0.1266  0.3016
  382MPD2     H 5767   2.986   3.956  17.388 -0.5844 -0.7462  0.0676
  382MPD2    H1 5768   2.836   3.897  16.990  0.7600  0.5355 -0.4191
  382MPD2    H2 5769   3.057   4.244  17.074 -2.2313  0.3347 -0.5883
  382MPD2    H3 5770   2.933   4.114  16.924  2.1701 -0.8447 -0.1607
  382MPD2     N 5771   2.839   3.797  17.224  0.7602  0.8053  0.1675
  382MPD2    H5 5772   2.783   3.771  17.143  0.0315  0.1571  0.8783
  382MPD2    N1 5773   3.115   4.163  17.346  0.4475  0.0419 -0.0848
  382MPD2    H7 5774   3.098   4.125  17.439  0.4147 -2.5182 -1.1381
  383TMC3    C1 5775   2.749   3.612  17.347  0.1595 -0.1166  1.2104
  383TMC3    C2 5776   2.671   3.574  17.240 -0.5358 -0.2745  0.0050
  383TMC3    C3 5777   2.622   3.446  17.254 -0.1356 -1.3747 -0.2189
  383TMC3    C4 5778   2.765   3.532  17.459  0.4589  0.1065 -0.0236
  383TMC3    C5 5779   2.718   3.406  17.460 -0.2195  0.7460 -0.2706
  383TMC3    C6 5780   2.658   3.356  17.356 -0.6519 -0.2460  0.4193
  383TMC3     C 5781   2.824   3.738  17.348  0.5372 -0.2291 -0.6702
  383TMC3     O 5782   2.875   3.771  17.453 -0.0962  0.3038 -0.3315
  383TMC3     H 5783   2.652   3.643  17.158 -0.5404  0.8429  0.9649
  383TMC3    H1 5784   2.834   3.568  17.535 -0.4114  0.8575  0.4057
  383TMC3    H2 5785   2.632   3.251  17.367 -1.1245 -0.1317  0.3877
  383TMC3    C7 5786   2.685   3.346  17.589 -0.3766  0.0094  0.7639
  383TMC3    C8 5787   2.538   3.401  17.144 -0.1023  0.1102  0.2736
  383TMC3    O1 5788   2.615   3.243  17.594  0.2923  0.5869 -0.4754
  383TMC3    O2 5789   2.497   3.488  17.069 -0.1794  0.0291 -0.0394
  384MPD2     C 5790   4.079   1.062  11.908 -0.1331  0.4665  0.5788
  384MPD2    C1 5791   4.120   0.984  12.014  0.2311  0.2664 -0.2467
  384MPD2    C2 5792   4.208   0.891  11.983  0.3596  0.1369 -0.1144
  384MPD2    C3 5793   4.264   0.867  11.859 -0.1475  0.5072  0.3162
  384MPD2    C4 5794   4.220   0.943  11.757  0.5333  0.0293  0.2255
  384MPD2    C5 5795   4.129   1.038  11.781 -0.3879  0.4954  0.1735
  384MPD2     H 5796   4.233   0.827  12.066 -0.6132 -0.0844  0.0156
  384MPD2    H1 5797   4.251   0.938  11.653  2.5282 -0.4743  0.8498
  384MPD2    H2 5798   4.011   1.146  11.913  2.7807  2.8881  0.0541
  384MPD2    H3 5799   4.111   1.108  11.700 -1.3444  0.5008  0.3824
  384MPD2     N 5800   4.354   0.758  11.846  0.1416  0.0467  0.1373
  384MPD2    H5 5801   4.376   0.711  11.933 -0.6081 -0.9062 -0.1888
  384MPD2    N1 5802   4.070   0.981  12.142 -0.2008 -0.0540 -0.0531
  384MPD2    H7 5803   4.119   0.923  12.209  0.3470  2.1143  1.4251
  385TMC3    C1 5804   4.485   0.572  11.780 -1.1207  0.2478  0.6357
  385TMC3    C2 5805   4.425   0.461  11.727  0.5097  0.6190  0.1169
  385TMC3    C3 5806   4.401   0.354  11.804 -0.2123  0.0614 -0.2143
  385TMC3    C4 5807   4.519   0.576  11.915  0.1300  0.3648  0.1626
  385TMC3    C5 5808   4.486   0.469  11.992 -0.0426 -0.2325  0.0111
  385TMC3    C6 5809   4.450   0.355  11.934 -0.3207 -0.0080  0.0111
  385TMC3     C 5810   4.406   0.687  11.732  0.3440  0.6034  0.4664
  385TMC3     O 5811   4.404   0.707  11.614  0.6514 -0.5527 -0.0886
  385TMC3     H 5812   4.402   0.463  11.621  1.8749 -0.8636 -0.2146
  385TMC3    H1 5813   4.561   0.667  11.958  0.7797 -0.1499  0.6264
  385TMC3    H2 5814   4.437   0.272  12.002 -1.5968  0.8446  0.8033
  385TMC3    C7 5815   4.408   0.507  12.117 -0.2288 -0.6368  0.1681
  385TMC3    C8 5816   4.382   0.220  11.738  0.3824  1.0201 -0.3610
  385TMC3    O1 5817   4.382   0.627  12.116  0.0005 -0.3260 -0.1998
  385TMC3    O2 5818   4.404   0.123  11.808  0.6026  0.5200  0.0376
  386TMC3    C1 5819   3.968   2.836  11.375  0.7995  1.0653 -0.5362
  386TMC3    C2 5820   3.919   2.952  11.329 -0.0262  0.6858  0.1091
  386TMC3    C3 5821   3.785   2.968  11.320 -0.1038  0.2714  1.0153
  386TMC3    C4 5822   3.880   2.744  11.422  0.8520 -0.4816  0.2031
  386TMC3    C5 5823   3.748   2.753  11.411 -0.1579 -0.2414 -0.3138
  386TMC3    C6 5824   3.703   2.870  11.359  0.1295  0.2161 -0.4161
  386TMC3     C 5825   4.113   2.820  11.353  0.4127 -0.6437  0.6541
  386TMC3     O 5826   4.156   2.918  11.304  0.0899  0.0341  0.3106
  386TMC3     H 5827   3.976   3.039  11.297 -0.1056  0.7136  0.0433
  386TMC3    H1 5828   3.921   2.648  11.451  0.7762 -1.2857 -2.3544
  386TMC3    H2 5829   3.600   2.899  11.373 -0.4107 -2.1137  0.5238
  386TMC3    C7 5830   3.658   2.685  11.502  0.4747 -0.1525  0.2411
  386TMC3    C8 5831   3.721   3.078  11.242  0.1541  0.4393 -0.5494
  386TMC3    O1 5832   3.715   2.617  11.588 -0.4512  0.2299 -0.2359
  386TMC3    O2 5833   3.601   3.067  11.230  0.0271 -0.0460  0.2573
  387MPD2     C 5834   1.713   3.515  10.145 -0.0037 -0.0165  0.9085
  387MPD2    C1 5835   1.778   3.448  10.247  0.7768 -0.5446  0.0268
  387MPD2    C2 5836   1.797   3.308  10.237 -0.3506 -0.7460 -0.3599
  387MPD2    C3 5837   1.759   3.229  10.130 -0.4801  0.3752 -0.4403
  387MPD2    C4 5838   1.694   3.300  10.024 -0.0452 -0.2212  0.0214
  387MPD2    C5 5839   1.671   3.438  10.033  0.1317  0.4351 -0.1773
  387MPD2     H 5840   1.853   3.261  10.317  0.5784 -1.2353 -1.3004
  387MPD2    H1 5841   1.669   3.243   9.935  0.3529  0.0348 -0.2561
  387MPD2    H2 5842   1.679   3.618  10.155 -0.7457 -0.2896  1.1734
  387MPD2    H3 5843   1.628   3.473   9.940 -1.3210 -0.6679  0.0629
  387MPD2     N 5844   1.784   3.087  10.131  0.0613  0.3335  0.1807
  387MPD2    H5 5845   1.830   3.051  10.214 -0.9479  0.2663  0.7010
  387MPD2    N1 5846   1.841   3.504  10.359 -0.4249  0.3547 -0.2849
  387MPD2    H7 5847   1.898   3.439  10.413 -2.1989  0.4781  1.7388
  388TMC3    C1 5848   1.988   3.661  10.463 -0.0424  0.3595 -0.2855
  388TMC3    C2 5849   2.002   3.787  10.522 -1.4938  0.5409  0.3414
  388TMC3    C3 5850   2.114   3.797  10.600 -0.0716 -0.7055 -0.5072
  388TMC3    C4 5851   2.082   3.563  10.461 -0.0852 -0.2393  0.1263
  388TMC3    C5 5852   2.196   3.592  10.525  0.0261  0.2080  0.4949
  388TMC3    C6 5853   2.207   3.701  10.608  0.1979 -0.1081  0.2649
  388TMC3     C 5854   1.867   3.633  10.381 -0.1970  0.8724  0.9045
  388TMC3     O 5855   1.790   3.722  10.352  0.5848 -0.2644  0.1467
  388TMC3     H 5856   1.929   3.866  10.509 -1.8459  0.6854  3.3130
  388TMC3    H1 5857   2.064   3.477  10.397  1.5997 -0.4530 -0.0744
  388TMC3    H2 5858   2.292   3.715  10.675 -1.8939  1.1735  2.6694
  388TMC3    C7 5859   2.285   3.491  10.545  0.2170 -0.1267 -0.3808
  388TMC3    C8 5860   2.130   3.920  10.682 -0.2025  0.7316 -0.1893
  388TMC3    O1 5861   2.358   3.482  10.640  0.6561 -0.1238  0.2994
  388TMC3    O2 5862   2.226   3.924  10.755 -0.0861  0.2972 -1.0680
  389MPD2     C 5863   1.209   1.720  11.224  0.0216  0.0804 -0.1413
  389MPD2    C1 5864   1.104   1.656  11.160  0.3738  0.3454  0.2268
  389MPD2    C2 5865   1.023   1.572  11.236 -0.5595  0.8263 -0.3525
  389MPD2    C3 5866   1.054   1.544  11.372  0.1558 -1.0011  0.1916
  389MPD2    C4 5867   1.142   1.626  11.431  0.1855  0.4785 -0.3459
  389MPD2    C5 5868   1.226   1.705  11.360 -0.0114 -0.1689  0.6688
  389MPD2     H 5869   0.943   1.517  11.187 -0.5440 -0.5167  1.1260
  389MPD2    H1 5870   1.162   1.618  11.537  0.8621 -0.5225 -0.5436
  389MPD2    H2 5871   1.282   1.791  11.185  0.4726 -0.4607 -0.2858
  389MPD2    H3 5872   1.311   1.753  11.408  0.8200 -0.8747 -0.1035
  389MPD2     N 5873   0.986   1.448  11.446  0.0116  0.2300 -0.6038
  389MPD2    H5 5874   0.992   1.456  11.547  2.3375  0.8819 -0.8096
  389MPD2    N1 5875   1.090   1.685  11.029  0.1360 -0.0512  0.6370
  389MPD2    H7 5876   1.159   1.750  10.993 -0.0136  1.6136  3.4335
  390TMC3    C1 5877   0.816   1.279  11.465  0.3891 -0.0479  0.3316
  390TMC3    C2 5878   0.762   1.164  11.407  0.1916 -0.9946 -0.8282
  390TMC3    C3 5879   0.637   1.139  11.443  0.0721 -0.4082  0.1751
  390TMC3    C4 5880   0.753   1.360  11.554  0.2822 -0.3177  0.6913
  390TMC3    C5 5881   0.637   1.309  11.599  0.0597  0.2162  0.1820
  390TMC3    C6 5882   0.570   1.207  11.536 -0.1891  0.7186 -0.2596
  390TMC3     C 5883   0.924   1.339  11.389  0.1737 -0.3317  0.2978
  390TMC3     O 5884   0.942   1.290  11.279  0.2282 -0.7607 -0.3929
  390TMC3     H 5885   0.818   1.101  11.339  1.9440  0.3291 -0.6158
  390TMC3    H1 5886   0.791   1.452  11.594 -0.1557 -0.7798  2.1516
  390TMC3    H2 5887   0.466   1.185  11.562  0.3184 -1.6656 -0.2504
  390TMC3    C7 5888   0.660   1.271  11.738 -0.2499 -0.4387  0.6574
  390TMC3    C8 5889   0.591   0.998  11.428  0.1341  0.2432 -0.2773
  390TMC3    O1 5890   0.775   1.263  11.772  0.0653 -0.0951  0.1588
  390TMC3    O2 5891   0.582   0.954  11.312 -0.6837  0.4353  0.3917
  391MPD2     C 5892   0.440   2.626  10.624  1.5423 -0.2716 -0.3042
  391MPD2    C1 5893   0.532   2.723  10.661 -0.5918 -0.0588 -1.0576
  391MPD2    C2 5894   0.580   2.820  10.565  0.9674 -0.5591  0.2873
  391MPD2    C3 5895   0.518   2.824  10.441 -0.8031  0.3395 -0.3842
  391MPD2    C4 5896   0.421   2.724  10.407  0.1721  0.2346 -0.0412
  391MPD2    C5 5897   0.392   2.619  10.490 -0.2129  0.5314  0.3296
  391MPD2     H 5898   0.644   2.905  10.585 -0.4768  0.1294  1.8957
  391MPD2    H1 5899   0.380   2.721  10.307 -0.7705  1.6168  0.2955
  391MPD2    H2 5900   0.394   2.563  10.699  1.1485  0.0268 -0.2932
  391MPD2    H3 5901   0.314   2.549  10.461  0.3284  0.5763 -1.2199
  391MPD2     N 5902   0.544   2.936  10.357 -0.5491 -0.2259 -0.2326
  391MPD2    H5 5903   0.618   2.995  10.394 -1.1091 -0.4931  1.2904
  391MPD2    N1 5904   0.548   2.736  10.804  0.0736 -0.3598 -0.2881
  391MPD2    H7 5905   0.509   2.668  10.867 -0.2047 -0.7498 -0.8785
  392TMC3    C1 5906   0.548   3.069  10.155 -0.4241  0.8422 -0.0625
  392TMC3    C2 5907   0.456   3.140  10.081 -1.0145 -0.1465  0.3155
  392TMC3    C3 5908   0.464   3.274  10.064 -0.2896 -0.6490 -0.1708
  392TMC3    C4 5909   0.650   3.143  10.207  0.4330  0.0602  1.1217
  392TMC3    C5 5910   0.658   3.279  10.173  0.4594 -0.1439  0.4332
  392TMC3    C6 5911   0.572   3.347  10.096  0.0625  0.4107 -0.4880
  392TMC3     C 5912   0.489   2.955  10.233 -0.2770 -0.1196 -0.1231
  392TMC3     O 5913   0.391   2.905  10.182 -0.0600 -0.1088 -0.2238
  392TMC3     H 5914   0.365   3.085  10.062 -1.3429 -0.1209  1.8434
  392TMC3    H1 5915   0.738   3.111  10.262 -0.1254 -0.6360  1.6061
  392TMC3    H2 5916   0.566   3.455  10.090 -0.8497  0.2885 -1.6603
  392TMC3    C7 5917   0.762   3.355  10.244  0.4516  0.1403 -0.2611
  392TMC3    C8 5918   0.377   3.328   9.959 -0.3117 -0.1026 -0.0858
  392TMC3    O1 5919   0.803   3.309  10.349 -0.1293  0.4929  0.1560
  392TMC3    O2 5920   0.330   3.238   9.891  0.2584 -0.2704 -0.2857
  393TMC3    C1 5921   3.574   0.718  10.715 -0.4504 -0.5912  0.2889
  393TMC3    C2 5922   3.511   0.624  10.637  0.2116  0.1250  0.2486
  393TMC3    C3 5923   3.534   0.492  10.673  0.2455  1.0927 -0.1660
  393TMC3    C4 5924   3.646   0.682  10.823  0.3023  0.0019 -0.0537
  393TMC3    C5 5925   3.651   0.554  10.860  0.4831 -0.0640 -0.6106
  393TMC3    C6 5926   3.605   0.456  10.781  0.1926 -0.0146  0.6071
  393TMC3     C 5927   3.593   0.846  10.658 -0.4629 -0.0002  0.3605
  393TMC3     O 5928   3.599   0.855  10.536 -0.1738  0.1509 -0.4824
  393TMC3     H 5929   3.463   0.650  10.544 -0.0393  4.1778  1.4824
  393TMC3    H1 5930   3.702   0.756  10.880 -0.4492 -0.8982  1.8571
  393TMC3    H2 5931   3.625   0.356  10.818 -0.6726 -0.4646 -0.1344
  393TMC3    C7 5932   3.749   0.512  10.957  0.1698 -0.5044 -0.7062
  393TMC3    C8 5933   3.510   0.399  10.567  0.2932  0.1108 -0.0405
  393TMC3    O1 5934   3.729   0.418  11.025  0.2054  0.7988  0.0396
  393TMC3    O2 5935   3.436   0.428  10.477 -0.1543  0.2502 -0.2434
  394TMC3    C1 5936   0.998   1.676  10.807  0.6082  0.2513 -0.6655
  394TMC3    C2 5937   0.882   1.638  10.746  0.4113  0.1138  0.5009
  394TMC3    C3 5938   0.892   1.599  10.617  0.0656 -0.1795  0.1182
  394TMC3    C4 5939   1.114   1.693  10.738 -0.7085  0.4732  0.3441
  394TMC3    C5 5940   1.115   1.663  10.612  0.3640  0.2586  0.0368
  394TMC3    C6 5941   1.005   1.617  10.542 -0.3822 -0.2443 -0.1116
  394TMC3     C 5942   0.998   1.623  10.943 -0.1243  0.2550  0.2716
  394TMC3     O 5943   0.922   1.526  10.963 -0.3360  0.5358  0.4021
  394TMC3     H 5944   0.796   1.640  10.812 -0.2363 -0.7250 -0.3168
  394TMC3    H1 5945   1.211   1.725  10.775  0.4745 -0.4972 -1.9001
  394TMC3    H2 5946   1.007   1.590  10.437  0.0408 -1.1313  0.1247
  394TMC3    C7 5947   1.239   1.681  10.529 -0.3740  0.3952 -0.4713
  394TMC3    C8 5948   0.779   1.526  10.570  0.1107 -0.4206 -0.6683
  394TMC3    O1 5949   1.319   1.770  10.549  0.2054  0.0783 -0.0570
  394TMC3    O2 5950   0.694   1.501  10.654  0.5889  0.3205  0.3389
  395TMC3    C1 5951   1.665   3.561  14.713  0.2503 -0.7833  0.7933
  395TMC3    C2 5952   1.591   3.561  14.599  0.0166  0.7692 -0.1432
  395TMC3    C3 5953   1.619   3.673  14.522 -0.0153 -0.1728  0.5966
  395TMC3    C4 5954   1.750   3.659  14.762 -0.4098 -0.6550  0.4107
  395TMC3    C5 5955   1.771   3.765  14.680  0.5177 -0.6622  0.5962
  395TMC3    C6 5956   1.716   3.762  14.555  0.8048  0.6603 -0.6490
  395TMC3     C 5957   1.637   3.452  14.803  0.1339  0.1730 -0.1263
  395TMC3     O 5958   1.657   3.475  14.926  0.1825  0.1892  0.0486
  395TMC3     H 5959   1.512   3.491  14.576  1.4478 -0.5390 -1.0786
  395TMC3    H1 5960   1.813   3.636  14.846 -1.0240  0.9921  1.3149
  395TMC3    H2 5961   1.736   3.842  14.485 -1.8437  2.1347  0.2679
  395TMC3    C7 5962   1.900   3.823  14.689 -1.0478 -0.1949  0.7129
  395TMC3    C8 5963   1.545   3.703  14.406 -0.3538 -0.2210  0.4127
  395TMC3    O1 5964   1.943   3.828  14.804 -0.0288  0.6607 -0.2256
  395TMC3    O2 5965   1.541   3.817  14.362  0.5399  0.4113  0.7156
  396MPD2     C 5966   1.052   4.039  16.941 -0.3962 -0.0042 -0.5581
  396MPD2    C1 5967   1.176   4.063  16.994  0.4790  0.1807 -0.6538
  396MPD2    C2 5968   1.256   4.154  16.928 -0.1913 -0.6483 -2.0398
  396MPD2    C3 5969   1.204   4.223  16.820  0.2323 -0.7425 -0.4086
  396MPD2    C4 5970   1.087   4.184  16.760  0.5275  0.3853  0.4216
  396MPD2    C5 5971   1.008   4.094  16.826  0.0022  0.3398  0.2103
  396MPD2     H 5972   1.358   4.169  16.962 -1.0033  0.9051 -0.3502
  396MPD2    H1 5973   1.054   4.234  16.669  1.1436 -0.1356 -0.0938
  396MPD2    H2 5974   0.985   3.970  16.990 -0.3626 -0.9083 -1.7883
  396MPD2    H3 5975   0.914   4.061  16.785  0.2183 -0.0677  0.0432
  396MPD2     N 5976   1.284   4.329  16.765  0.0593  0.2067 -0.0698
  396MPD2    H5 5977   1.372   4.328  16.815  0.8301  0.7044 -1.4405
  396MPD2    N1 5978   1.213   3.988  17.108 -0.2295 -0.3970  0.0045
  396MPD2    H7 5979   1.150   3.918  17.145 -1.0986  0.5440  0.2959
  397TMC3    C1 5980   1.377   3.858  17.215 -0.1249 -0.7331 -0.0997
  397TMC3    C2 5981   1.424   3.790  17.101  0.1458  0.2823 -0.3144
  397TMC3    C3 5982   1.361   3.684  17.046 -0.0285 -0.0704 -0.6615
  397TMC3    C4 5983   1.276   3.808  17.284  0.1384  0.2464 -0.6269
  397TMC3    C5 5984   1.232   3.684  17.247  0.4801  0.1799 -0.3002
  397TMC3    C6 5985   1.265   3.626  17.127  0.2493  0.0845  0.2733
  397TMC3     C 5986   1.343   3.990  17.163 -0.5881 -0.2331 -0.2916
  397TMC3     O 5987   1.436   4.067  17.143 -0.1791  0.0253 -0.3219
  397TMC3     H 5988   1.484   3.848  17.031 -1.3459  1.0112 -0.9840
  397TMC3    H1 5989   1.254   3.856  17.379  1.5149 -0.5047  0.0873
  397TMC3    H2 5990   1.217   3.530  17.110  0.9338 -0.7747  3.1200
  397TMC3    C7 5991   1.119   3.619  17.320 -0.5018  0.0304  0.1987
  397TMC3    C8 5992   1.322   3.715  16.908 -0.3220 -0.3965  0.1221
  397TMC3    O1 5993   1.036   3.548  17.265  0.2522  0.0617  0.1952
  397TMC3    O2 5994   1.411   3.768  16.842 -0.1359 -0.0247  0.3094
  398MPD2     C 5995   4.192   1.062   0.277 -0.3316 -0.3220 -0.5942
  398MPD2    C1 5996   4.298   0.979   0.304 -0.1577 -0.1665  0.2345
  398MPD2    C2 5997   4.383   1.010   0.410 -0.9537 -0.4310  0.2279
  398MPD2    C3 5998   4.377   1.131   0.475  0.5063  0.1962  0.1454
  398MPD2    C4 5999   4.268   1.217   0.445  0.0642  0.0157 -0.4131
  398MPD2    C5 6000   4.174   1.179   0.348  0.4733 -0.2484  0.6188
  398MPD2     H 6001   4.459   0.940   0.442 -0.5078  0.7296  1.7371
  398MPD2    H1 6002   4.241   1.303   0.504 -1.2055 -1.6856  1.4846
  398MPD2    H2 6003   4.125   1.038   0.195  0.0395  0.4750 -1.1325
  398MPD2    H3 6004   4.094   1.244   0.315 -1.7158 -2.1643  2.1488
  398MPD2     N 6005   4.467   1.166   0.577  0.7020 -0.7605 -0.0811
  398MPD2    H5 6006   4.545   1.102   0.593  1.0948 -0.0829  0.7479
  398MPD2    N1 6007   4.313   0.857   0.232 -0.1112  0.3104 -0.0580
  398MPD2    H7 6008   4.392   0.800   0.259  1.1501  2.6448  1.1407
  399TMC3    C1 6009   4.288   0.683   0.085  0.2675 -0.3489 -0.5563
  399TMC3    C2 6010   4.420   0.650   0.114 -0.5168  0.3036  0.7856
  399TMC3    C3 6011   4.457   0.520   0.124 -0.1749  0.4117  0.3134
  399TMC3    C4 6012   4.193   0.591   0.066 -0.5757 -0.3567 -0.2391
  399TMC3    C5 6013   4.231   0.461   0.082  0.1144 -0.2822 -0.5210
  399TMC3    C6 6014   4.361   0.425   0.116 -0.7057  0.1233  0.3290
  399TMC3     C 6015   4.242   0.820   0.119  0.5107 -0.0017 -0.2776
  399TMC3     O 6016   4.153   0.868   0.055 -0.3825 -0.6005  0.7367
  399TMC3     H 6017   4.493   0.728   0.134  0.8956 -0.6970 -0.3988
  399TMC3    H1 6018   4.089   0.608   0.038 -0.0396  0.5515 -1.6754
  399TMC3    H2 6019   4.389   0.321   0.129  0.7514  0.5411  0.5141
  399TMC3    C7 6020   4.141   0.346   0.071 -0.0276 -0.1340 -0.0045
  399TMC3    C8 6021   4.590   0.491   0.177  0.0878 -0.3562  0.3443
  399TMC3    O1 6022   4.172   0.244   0.132  0.0153  0.0873  0.0757
  399TMC3    O2 6023   4.665   0.584   0.215  0.3466  0.2424 -0.1653
  400TMC3    C1 6024   2.778   3.224  16.843 -0.1353  0.6085 -0.0971
  400TMC3    C2 6025   2.685   3.180  16.748 -0.4801 -0.9433 -0.2914
  400TMC3    C3 6026   2.588   3.261  16.700  0.6997 -0.7051  0.3752
  400TMC3    C4 6027   2.785   3.359  16.870  0.2751  0.1709 -0.5465
  400TMC3    C5 6028   2.683   3.440  16.820  0.4730  0.2489  0.2485
  400TMC3    C6 6029   2.583   3.392  16.735  0.7195  0.5721  0.4790
  400TMC3     C 6030   2.794   3.136  16.954  0.2269 -0.4661  0.5126
  400TMC3     O 6031   2.760   3.021  16.945  1.1188 -0.1281  0.3862
  400TMC3     H 6032   2.703   3.081  16.710  0.4401 -1.4348  1.4505
  400TMC3    H1 6033   2.861   3.413  16.926  0.2781  0.9940 -1.3341
  400TMC3    H2 6034   2.490   3.443  16.712 -2.1581 -4.2970  1.2389
  400TMC3    C7 6035   2.684   3.581  16.847  0.0890  0.5255  0.6296
  400TMC3    C8 6036   2.473   3.212  16.632 -1.0184 -0.6974  0.2717
  400TMC3    O1 6037   2.757   3.616  16.939  0.3459 -0.5297 -0.0999
  400TMC3    O2 6038   2.391   3.294  16.593  0.2659 -0.1093 -0.8272
  401MPD2     C 6039   0.924   2.092   1.411 -0.5044 -0.2523 -0.1404
  401MPD2    C1 6040   0.946   2.111   1.277  0.6804  0.6128 -0.1960
  401MPD2    C2 6041   1.009   2.012   1.206  0.0716  0.2275 -0.3094
  401MPD2    C3 6042   1.035   1.888   1.268 -0.2316 -0.0699 -0.2373
  401MPD2    C4 6043   1.010   1.874   1.404 -0.0629  0.5951  0.6937
  401MPD2    C5 6044   0.951   1.972   1.473 -0.3086 -0.0455  0.5218
  401MPD2     H 6045   1.027   2.030   1.101  1.1916 -0.4300 -0.2257
  401MPD2    H1 6046   1.042   1.792   1.467  0.6108  0.9070  0.7648
  401MPD2    H2 6047   0.878   2.169   1.472 -1.9696 -1.9386  0.8619
  401MPD2    H3 6048   0.933   1.954   1.578  0.8642 -0.0853  0.7169
  401MPD2     N 6049   1.110   1.792   1.195 -0.3271 -0.2852 -0.4177
  401MPD2    H5 6050   1.131   1.821   1.101 -0.8996 -0.7591 -0.6893
  401MPD2    N1 6051   0.917   2.223   1.206  0.2607  0.2908 -0.0288
  401MPD2    H7 6052   0.923   2.210   1.105 -0.4007  0.9542 -0.1496
  402TMC3    C1 6053   1.203   1.584   1.141  0.6372 -0.2134 -0.6972
  402TMC3    C2 6054   1.282   1.479   1.188  0.3305  0.1983 -0.7395
  402TMC3    C3 6055   1.334   1.389   1.100 -0.2790  0.3936  0.0953
  402TMC3    C4 6056   1.166   1.582   1.003 -0.4810  0.5137  0.4702
  402TMC3    C5 6057   1.218   1.487   0.917 -0.1945  0.4088  1.1610
  402TMC3    C6 6058   1.304   1.395   0.965 -0.0296 -0.5034  0.5638
  402TMC3     C 6059   1.159   1.671   1.246  0.0384 -0.5394 -0.1145
  402TMC3     O 6060   1.178   1.631   1.364 -0.0184 -0.0069  0.2302
  402TMC3     H 6061   1.306   1.475   1.293  3.3949 -0.5360 -1.4739
  402TMC3    H1 6062   1.105   1.662   0.964 -0.3832  0.2075 -0.3091
  402TMC3    H2 6063   1.347   1.318   0.902 -1.1759  0.6525 -1.6428
  402TMC3    C7 6064   1.219   1.526   0.780  0.6745  0.3030  0.1442
  402TMC3    C8 6065   1.450   1.304   1.140 -0.3680  0.3187  0.1989
  402TMC3    O1 6066   1.200   1.645   0.743  0.0198 -0.1988  0.1426
  402TMC3    O2 6067   1.518   1.280   1.044  0.3550  0.0823 -0.4499
  403MPD2     C 6068   3.653   0.337  13.024  0.4292  0.4564  0.8199
  403MPD2    C1 6069   3.711   0.263  13.121  0.6191  0.5205  0.6575
  403MPD2    C2 6070   3.822   0.320  13.182  0.3219 -0.7140 -0.2792
  403MPD2    C3 6071   3.876   0.436  13.141  0.1928 -0.2899 -0.1470
  403MPD2    C4 6072   3.816   0.507  13.038  0.0191  0.5349  0.0708
  403MPD2    C5 6073   3.711   0.451  12.977  0.3663  0.1381  0.4644
  403MPD2     H 6074   3.874   0.276  13.266  0.5573 -0.7196 -0.4266
  403MPD2    H1 6075   3.846   0.604  13.000  0.6348  0.2670 -0.1226
  403MPD2    H2 6076   3.562   0.310  12.972  2.8723 -2.2589 -1.9926
  403MPD2    H3 6077   3.667   0.499  12.891 -2.4388 -1.1307  1.1883
  403MPD2     N 6078   4.001   0.470  13.206 -0.2189 -0.0452  0.8396
  403MPD2    H5 6079   4.030   0.418  13.288 -1.5691  2.1605  2.7323
  403MPD2    N1 6080   3.653   0.144  13.175  0.3335 -0.1954 -0.2440
  403MPD2    H7 6081   3.575   0.103  13.125  0.0547 -0.2426  0.2359
  404TMC3    C1 6082   3.635   4.702  13.329  0.2197 -0.6944  0.6730
  404TMC3    C2 6083   3.634   4.653  13.459 -0.4814  0.2409 -0.2276
  404TMC3    C3 6084   3.635   4.515  13.479 -0.1630  0.0817 -0.8706
  404TMC3    C4 6085   3.637   4.617  13.218 -0.2828  0.0059  0.0409
  404TMC3    C5 6086   3.624   4.483  13.245 -0.4125  0.5522  0.3301
  404TMC3    C6 6087   3.637   4.431  13.369  0.0959 -0.6094 -0.1247
  404TMC3     C 6088   3.678   0.098  13.303 -0.1283  0.3424 -0.6725
  404TMC3     O 6089   3.708   0.158  13.404 -0.1421  0.5212 -0.2155
  404TMC3     H 6090   3.647   4.717  13.546  0.2472  0.1060 -0.2400
  404TMC3    H1 6091   3.642   4.648  13.115 -0.9222 -0.9043 -0.2676
  404TMC3    H2 6092   3.650   4.323  13.375 -1.0351 -0.6354  1.8988
  404TMC3    C7 6093   3.600   4.391  13.138 -0.0685 -0.1851 -0.6132
  404TMC3    C8 6094   3.652   4.459  13.613 -0.5060 -0.3567 -0.4490
  404TMC3    O1 6095   3.620   4.278  13.178  0.6038  0.3198  0.0731
  404TMC3    O2 6096   3.704   4.527  13.700 -0.0088  0.3710  0.4700
  405MPD2     C 6097   4.302   0.649  14.380  0.0011  0.8634  0.3997
  405MPD2    C1 6098   4.198   0.642  14.294 -0.1341  0.3304  0.0384
  405MPD2    C2 6099   4.072   0.680  14.335  0.3667 -0.7172  0.4037
  405MPD2    C3 6100   4.053   0.724  14.465  0.7498  0.1987  0.1851
  405MPD2    C4 6101   4.161   0.748  14.548 -0.7514  0.6868  0.3014
  405MPD2    C5 6102   4.282   0.699  14.511 -0.4025 -0.1757  0.4874
  405MPD2     H 6103   3.993   0.662  14.262  1.2372 -2.6499 -0.0625
  405MPD2    H1 6104   4.152   0.778  14.651  1.6156 -1.2387  1.0713
  405MPD2    H2 6105   4.403   0.641  14.341 -0.7518 -0.6304 -1.2185
  405MPD2    H3 6106   4.362   0.706  14.584  1.0341 -1.7323 -0.9549
  405MPD2     N 6107   3.926   0.767  14.493  0.2301  0.2163 -0.1305
  405MPD2    H5 6108   3.862   0.735  14.420  1.4408 -2.3739 -0.0738
  405MPD2    N1 6109   4.204   0.593  14.164 -0.6748 -0.3236 -0.9206
  405MPD2    H7 6110   4.111   0.576  14.127 -1.6341 -0.1884  1.3844
  406TMC3    C1 6111   3.584   1.063  14.571  0.8019 -0.1347  1.0119
  406TMC3    C2 6112   3.505   1.003  14.473 -0.1567  0.3116  0.6306
  406TMC3    C3 6113   3.544   0.878  14.431  0.6806 -0.2981  0.3428
  406TMC3    C4 6114   3.705   1.015  14.608 -1.1168  1.5525 -0.6335
  406TMC3    C5 6115   3.743   0.891  14.562  0.8356 -0.4235 -0.0636
  406TMC3    C6 6116   3.671   0.824  14.467 -0.2356 -0.4837 -0.1425
  406TMC3     C 6117   3.576   1.212  14.568  0.3575  0.1781 -0.2553
  406TMC3     O 6118   3.639   1.279  14.649  0.5851 -0.5628 -0.0236
  406TMC3     H 6119   3.405   1.035  14.445  0.4998  1.2683 -0.6139
  406TMC3    H1 6120   3.773   1.065  14.676 -1.8224 -0.6984  1.7404
  406TMC3    H2 6121   3.695   0.719  14.455  0.2436 -0.0021 -3.1998
  406TMC3    C7 6122   3.884   0.847  14.587  0.3084 -0.1556 -0.2793
  406TMC3    C8 6123   3.526   0.869  14.293  0.5890 -0.0117  0.1800
  406TMC3    O1 6124   3.953   0.917  14.662 -0.0092  0.5891 -0.5581
  406TMC3    O2 6125   3.479   0.969  14.240 -0.3424  0.7290  0.3579
  407MPD2     C 6126   1.398   2.651  10.125  0.4745 -0.3992  0.5606
  407MPD2    C1 6127   1.453   2.758  10.055  0.3035  0.9301  0.3097
  407MPD2    C2 6128   1.451   2.889  10.102  0.4397  0.3074  0.3343
  407MPD2    C3 6129   1.396   2.919  10.225 -0.1293  0.0407 -0.2035
  407MPD2    C4 6130   1.345   2.814  10.300 -0.0504  0.6314  0.3767
  407MPD2    C5 6131   1.337   2.688  10.246 -0.1978  0.1298 -0.4317
  407MPD2     H 6132   1.503   2.967  10.048 -0.3153 -0.0829 -0.9451
  407MPD2    H1 6133   1.309   2.832  10.401  1.5545 -0.1555  1.0892
  407MPD2    H2 6134   1.391   2.550  10.085 -2.8620  0.1935 -0.3019
  407MPD2    H3 6135   1.292   2.605  10.299 -1.1813  0.6294 -0.4928
  407MPD2     N 6136   1.391   3.053  10.270  0.1945  0.2513 -0.1378
  407MPD2    H5 6137   1.376   3.066  10.370  1.0785  3.0265 -0.3643
  407MPD2    N1 6138   1.499   2.748   9.923  0.9060 -0.2681 -0.1245
  407MPD2    H7 6139   1.490   2.836   9.874 -1.4682 -0.6288 -0.3672
  408TMC3    C1 6140   1.511   2.639   9.705  0.5312  0.6437 -1.0977
  408TMC3    C2 6141   1.588   2.553   9.630 -0.5074  0.0567 -0.1496
  408TMC3    C3 6142   1.567   2.556   9.494 -0.2076  0.3567  0.1481
  408TMC3    C4 6143   1.420   2.728   9.648 -0.4571  0.5633 -0.0245
  408TMC3    C5 6144   1.396   2.715   9.513  0.4574  0.1210  0.2555
  408TMC3    C6 6145   1.464   2.631   9.436 -0.6841  0.9781 -0.5564
  408TMC3     C 6146   1.521   2.634   9.850  0.0308 -0.1245  0.3653
  408TMC3     O 6147   1.562   2.528   9.898 -0.4063 -0.6512 -0.0097
  408TMC3     H 6148   1.661   2.484   9.671  0.0878  1.7172  1.5806
  408TMC3    H1 6149   1.363   2.797   9.710 -0.7398  0.3808 -0.0840
  408TMC3    H2 6150   1.446   2.633   9.329 -1.4735 -0.7307 -0.4615
  408TMC3    C7 6151   1.304   2.805   9.458  0.0811  0.5774  0.0206
  408TMC3    C8 6152   1.668   2.500   9.411  0.3692 -0.1255 -0.1267
  408TMC3    O1 6153   1.267   2.897   9.530  0.3760  0.4008  0.3151
  408TMC3    O2 6154   1.640   2.455   9.296  0.0258 -0.3643  0.6491
  409MPD2     C 6155   1.159   3.068  16.830 -0.0418  0.1529 -0.1960
  409MPD2    C1 6156   1.280   3.015  16.879 -0.1002 -0.8478 -0.1271
  409MPD2    C2 6157   1.402   3.061  16.839  0.0516  0.3883  0.4707
  409MPD2    C3 6158   1.412   3.162  16.753 -0.0119  0.0963 -0.1233
  409MPD2    C4 6159   1.290   3.217  16.707  0.0091 -0.1761  0.1798
  409MPD2    C5 6160   1.170   3.173  16.747 -0.2669  0.1923 -0.2172
  409MPD2     H 6161   1.483   2.995  16.868  0.7756  2.9692  4.3403
  409MPD2    H1 6162   1.286   3.303  16.642 -1.9492 -0.3365  0.0740
  409MPD2    H2 6163   1.064   3.020  16.849 -0.6207  1.4917  0.2717
  409MPD2    H3 6164   1.081   3.208  16.696 -0.0724  0.8733 -0.0982
  409MPD2     N 6165   1.543   3.225  16.724 -0.2669 -0.5693  0.0695
  409MPD2    H5 6166   1.542   3.298  16.653  1.2507 -0.1662  0.4590
  409MPD2    N1 6167   1.279   2.905  16.967 -0.4070  1.1526  0.5176
  409MPD2    H7 6168   1.367   2.858  16.986 -1.0147 -0.5327 -0.8900
  410TMC3    C1 6169   1.779   3.253  16.707 -0.3011 -0.1013  0.1319
  410TMC3    C2 6170   1.884   3.272  16.793 -0.1627 -0.0129  0.0027
  410TMC3    C3 6171   1.973   3.371  16.772  0.1570 -0.8659 -0.4359
  410TMC3    C4 6172   1.766   3.318  16.587 -0.0768 -1.0865 -0.1153
  410TMC3    C5 6173   1.860   3.413  16.560 -0.4746 -0.9433 -0.7266
  410TMC3    C6 6174   1.966   3.440  16.651 -0.1164  0.0593 -0.2534
  410TMC3     C 6175   1.664   3.189  16.779 -0.1924 -0.8470 -0.5246
  410TMC3     O 6176   1.678   3.104  16.864 -0.5529 -0.6288  0.0452
  410TMC3     H 6177   1.873   3.222  16.889  0.0955 -1.4567 -0.7231
  410TMC3    H1 6178   1.684   3.300  16.518 -1.0998  1.8022  0.3582
  410TMC3    H2 6179   2.047   3.506  16.622 -0.9943  0.6485 -1.3734
  410TMC3    C7 6180   1.873   3.468  16.426 -0.0647 -0.1645 -0.6680
  410TMC3    C8 6181   2.118   3.358  16.812  0.5585 -0.1139  0.1628
  410TMC3    O1 6182   1.818   3.405  16.335  0.2048 -0.0284 -0.1336
  410TMC3    O2 6183   2.196   3.454  16.812  0.1441  0.7338 -0.1635
  411MPD2     C 6184   2.262   4.546  14.521  0.4320  0.1047  0.3241
  411MPD2    C1 6185   2.153   4.497  14.590  0.6237  0.2999 -0.4284
  411MPD2    C2 6186   2.074   4.398  14.536 -0.1064  0.0302 -0.2334
  411MPD2    C3 6187   2.110   4.345  14.417  0.7788 -0.0989  0.2208
  411MPD2    C4 6188   2.228   4.376  14.362  0.3123 -0.8279  0.2019
  411MPD2    C5 6189   2.299   4.484  14.407  0.2008 -0.0921  0.1390
  411MPD2     H 6190   1.988   4.356  14.586  0.6323  0.0358  1.0332
  411MPD2    H1 6191   2.255   4.343  14.262 -1.0489 -0.0901 -0.4007
  411MPD2    H2 6192   2.316   4.630  14.563  0.5568  0.3421 -0.3129
  411MPD2    H3 6193   2.387   4.520  14.355  1.7230 -1.7299  1.5933
  411MPD2     N 6194   2.028   4.256  14.347  0.3390 -0.1334 -0.3048
  411MPD2    H5 6195   2.069   4.201  14.272 -0.0704 -0.3028 -0.4025
  411MPD2    N1 6196   2.125   4.556  14.709  0.0854  0.1094 -0.2157
  411MPD2    H7 6197   2.167   4.643  14.740  0.5797 -0.3131  0.3039
  412TMC3    C1 6198   1.828   4.156  14.274  0.6202  0.6257 -0.3275
  412TMC3    C2 6199   1.709   4.185  14.215  0.0515  0.3698  0.0376
  412TMC3    C3 6200   1.633   4.091  14.154 -0.2194 -0.5255  0.0882
  412TMC3    C4 6201   1.882   4.035  14.256  0.1897  0.0308  0.8603
  412TMC3    C5 6202   1.807   3.939  14.196 -0.7795 -0.3174  0.2429
  412TMC3    C6 6203   1.681   3.963  14.150 -0.6236  0.6019 -0.9366
  412TMC3     C 6204   1.890   4.262  14.354  0.6145  1.0714 -0.0831
  412TMC3     O 6205   1.814   4.341  14.405 -0.7187  1.0107  0.0651
  412TMC3     H 6206   1.673   4.287  14.216  0.7761  0.5909  3.1370
  412TMC3    H1 6207   1.980   4.010  14.295  1.7161  1.1279 -2.2715
  412TMC3    H2 6208   1.613   3.885  14.120  0.1535  0.6284 -2.7826
  412TMC3    C7 6209   1.853   3.800  14.191 -0.1068  0.1168  0.4876
  412TMC3    C8 6210   1.499   4.122  14.102  0.0100 -0.1191  0.1660
  412TMC3    O1 6211   1.916   3.754  14.287 -0.0702  0.2455 -0.2645
  412TMC3    O2 6212   1.440   4.220  14.130  0.4529 -0.2370 -0.0759
  413MPD2     C 6213   2.848   1.653  15.020  0.2497  0.4703  0.1788
  413MPD2    C1 6214   2.944   1.742  15.067  0.3466  0.1996  0.2531
  413MPD2    C2 6215   3.077   1.717  15.052  0.4327 -0.3255 -0.3583
  413MPD2    C3 6216   3.113   1.611  14.962  0.2878  0.0384 -0.5442
  413MPD2    C4 6217   3.018   1.534  14.900  0.2452 -0.3777  0.3828
  413MPD2    C5 6218   2.884   1.548  14.940 -0.0821 -0.2184  0.8109
  413MPD2     H 6219   3.150   1.781  15.100 -0.5858 -0.9036  1.9291
  413MPD2    H1 6220   3.050   1.452  14.837  2.2139 -0.1938  1.1531
  413MPD2    H2 6221   2.744   1.671  15.042 -0.1227  0.0261 -1.2062
  413MPD2    H3 6222   2.810   1.482  14.895  0.2180 -1.0361  1.5183
  413MPD2     N 6223   3.253   1.600  14.940  0.0264  0.5653  0.1365
  413MPD2    H5 6224   3.304   1.675  14.986  1.7147 -0.5147  0.0527
  413MPD2    N1 6225   2.888   1.848  15.145  0.6840 -0.6677  0.3412
  413MPD2    H7 6226   2.789   1.863  15.162  0.3167 -1.5039 -1.0948
  414TMC3    C1 6227   3.464   1.516  14.906  0.0124  0.0637 -0.4528
  414TMC3    C2 6228   3.538   1.400  14.921  0.1280  0.1890 -0.1443
  414TMC3    C3 6229   3.673   1.419  14.943  0.1083 -0.2193 -0.3522
  414TMC3    C4 6230   3.525   1.634  14.874 -0.6268 -0.2763  0.9505
  414TMC3    C5 6231   3.655   1.648  14.891 -0.2040  0.1483 -1.2173
  414TMC3    C6 6232   3.730   1.540  14.929  0.7040 -0.1607 -0.0732
  414TMC3     C 6233   3.323   1.501  14.877  0.1914 -0.2565 -0.1349
  414TMC3     O 6234   3.293   1.405  14.805 -0.0213 -0.6260  0.1026
  414TMC3     H 6235   3.485   1.307  14.939  0.5855 -0.3375 -1.5111
  414TMC3    H1 6236   3.461   1.718  14.848 -1.7867 -1.1253  1.0539
  414TMC3    H2 6237   3.838   1.537  14.925  0.7214 -0.3392  0.6659
  414TMC3    C7 6238   3.724   1.752  14.817 -0.3822  0.2166 -0.1500
  414TMC3    C8 6239   3.734   1.334  15.042 -0.2147 -0.0993 -0.4324
  414TMC3    O1 6240   3.666   1.808  14.724  0.6163 -0.2691 -0.6636
  414TMC3    O2 6241   3.697   1.221  15.063  0.1395 -0.0187 -0.1543
  415TMC3    C1 6242   4.053   0.249   9.950 -0.2822 -0.5553 -0.5481
  415TMC3    C2 6243   4.126   0.278   9.837  0.2538  0.0147 -0.4438
  415TMC3    C3 6244   4.107   0.206   9.718  0.3311 -0.3589  0.4726
  415TMC3    C4 6245   3.964   0.150   9.946  0.0864 -0.3822  0.1671
  415TMC3    C5 6246   3.956   0.070   9.836 -0.0001  0.3684 -0.9617
  415TMC3    C6 6247   4.025   0.096   9.721 -0.2796 -1.0080  0.1110
  415TMC3     C 6248   4.038   0.358  10.050  0.1138 -0.0562 -0.2939
  415TMC3     O 6249   4.084   0.467  10.018 -0.4920 -0.0530  0.2090
  415TMC3     H 6250   4.199   0.358   9.843 -0.0991  0.3001  0.0413
  415TMC3    H1 6251   3.901   0.131  10.032 -0.2766 -0.9848 -0.2317
  415TMC3    H2 6252   3.995   0.034   9.637 -0.8317  0.0903 -0.5083
  415TMC3    C7 6253   3.827   0.004   9.814 -0.3002  1.0524 -0.0030
  415TMC3    C8 6254   4.105   0.273   9.591  0.0574 -0.2359  0.0003
  415TMC3    O1 6255   3.811   4.624   9.848  0.0139  0.3033  0.2136
  415TMC3    O2 6256   4.084   0.200   9.496 -0.2271 -0.8866 -0.5904
  416MPD2     C 6257   0.703   4.088  11.477  0.2406 -0.0661  0.3554
  416MPD2    C1 6258   0.586   4.027  11.515  0.8458 -0.2956  0.5493
  416MPD2    C2 6259   0.558   3.904  11.453 -0.1043 -0.3352 -0.1898
  416MPD2    C3 6260   0.652   3.850  11.362 -0.1595 -0.6349  0.4554
  416MPD2    C4 6261   0.767   3.916  11.332 -0.1707 -0.0076 -0.7012
  416MPD2    C5 6262   0.794   4.029  11.393  0.3512  0.1101  0.3524
  416MPD2     H 6263   0.459   3.860  11.465 -0.1752 -0.0458  0.3010
  416MPD2    H1 6264   0.849   3.868  11.278  1.2900  1.0683  0.5556
  416MPD2    H2 6265   0.725   4.186  11.518  0.4026  0.3130 -0.6365
  416MPD2    H3 6266   0.881   4.089  11.369 -0.5110  0.7436 -1.2089
  416MPD2     N 6267   0.605   3.739  11.289 -0.0692 -0.0104  0.0082
  416MPD2    H5 6268   0.517   3.696  11.315  0.8372 -2.5362 -1.0291
  416MPD2    N1 6269   0.502   4.107  11.594  0.8599  0.6321 -0.2220
  416MPD2    H7 6270   0.540   4.189  11.641  1.2067 -0.9023  2.1961
  417TMC3    C1 6271   0.289   4.213  11.633 -0.1817 -0.4641  0.2569
  417TMC3    C2 6272   0.299   4.226  11.767 -0.3359  0.8196  0.1125
  417TMC3    C3 6273   0.203   4.302  11.831 -0.0108  0.7976 -0.4826
  417TMC3    C4 6274   0.204   4.280  11.554  0.0480 -0.2690 -0.0741
  417TMC3    C5 6275   0.106   4.343  11.623 -0.0017 -0.2241 -0.4673
  417TMC3    C6 6276   0.102   4.358  11.759 -0.1689  0.3337  0.2104
  417TMC3     C 6277   0.366   4.108  11.575 -0.8687 -0.2315  1.2700
  417TMC3     O 6278   0.299   4.040  11.502  0.2943 -0.5278 -0.0124
  417TMC3     H 6279   0.391   4.196  11.816 -0.2315  0.2641 -0.4157
  417TMC3    H1 6280   0.198   4.269  11.446 -2.1080  0.2442 -0.0023
  417TMC3    H2 6281   0.011   4.397  11.804 -0.5720 -0.8520  0.4188
  417TMC3    C7 6282   0.012   4.413  11.534  0.8262  0.1540 -0.2177
  417TMC3    C8 6283   0.190   4.272  11.971 -0.9736  0.1999  0.6042
  417TMC3    O1 6284   0.069   4.481  11.447 -0.2456 -0.2770 -0.5819
  417TMC3    O2 6285   0.103   4.341  12.027  0.3098 -0.1329  0.4022
  418TMC3    C1 6286   0.066   1.440   0.732  0.2600  0.7865  0.1039
  418TMC3    C2 6287   4.673   1.432   0.695  0.5410  0.0144 -0.4861
  418TMC3    C3 6288   4.611   1.308   0.698 -0.0594  0.2029  0.4450
  418TMC3    C4 6289   0.132   1.344   0.812 -0.4527  0.5542  1.0058
  418TMC3    C5 6290   0.064   1.230   0.826 -0.4655  0.8504  0.2866
  418TMC3    C6 6291   4.677   1.209   0.762  0.3464 -0.3969 -0.2464
  418TMC3     C 6292   0.151   1.542   0.667  0.5891  0.0883 -0.1370
  418TMC3     O 6293   0.102   1.652   0.653  0.1817  0.1817 -0.3927
  418TMC3     H 6294   4.643   1.522   0.644  0.2827  0.8083  1.0787
  418TMC3    H1 6295   0.230   1.361   0.854  1.0008 -0.5177 -2.0015
  418TMC3    H2 6296   4.623   1.119   0.789 -0.1347 -0.6668 -2.1185
  418TMC3    C7 6297   0.134   1.107   0.851  0.2688 -0.1994 -0.3837
  418TMC3    C8 6298   4.484   1.295   0.622  0.3572  0.3410  0.1739
  418TMC3    O1 6299   0.085   1.002   0.806 -0.1071  0.0911  0.0073
  418TMC3    O2 6300   4.431   1.398   0.583  0.5891 -0.2996 -0.0451
  419MPD2     C 6301   3.094   3.365  12.410 -0.0834 -0.5856  0.3245
  419MPD2    C1 6302   3.025   3.482  12.393 -0.1965 -0.1501  0.1204
  419MPD2    C2 6303   3.006   3.557  12.508  0.0809  0.2340  0.4133
  419MPD2    C3 6304   3.049   3.515  12.629  0.1129 -0.4276 -0.2075
  419MPD2    C4 6305   3.121   3.395  12.641 -0.1328  0.9066  0.4754
  419MPD2    C5 6306   3.144   3.326  12.528 -0.1493 -0.3926 -0.2573
  419MPD2     H 6307   2.960   3.655  12.508  1.9450  1.0992  1.3043
  419MPD2    H1 6308   3.160   3.360  12.736 -0.3801 -2.2840 -0.6120
  419MPD2    H2 6309   3.134   3.304  12.330 -0.3460  0.7329 -0.8274
  419MPD2    H3 6310   3.197   3.231  12.530  1.7995  0.6889 -0.9446
  419MPD2     N 6311   3.027   3.601  12.742 -0.0716 -0.1910  0.0519
  419MPD2    H5 6312   2.970   3.683  12.725  0.1218 -0.7608 -3.4369
  419MPD2    N1 6313   2.976   3.537  12.274 -0.3584 -0.2199  0.6684
  419MPD2    H7 6314   2.916   3.618  12.287  0.4919  0.5524 -0.2362
  420TMC3    C1 6315   2.999   3.668  12.962  0.0402 -0.0629 -0.5939
  420TMC3    C2 6316   2.903   3.758  12.916  0.2166  0.6041  0.1644
  420TMC3    C3 6317   2.845   3.840  13.004  0.2635  0.1584  0.5418
  420TMC3    C4 6318   3.028   3.650  13.098  0.2112  0.3928  0.4499
  420TMC3    C5 6319   2.961   3.730  13.181 -0.4090  0.3336  0.3970
  420TMC3    C6 6320   2.871   3.830  13.141 -0.6451 -0.0886 -0.3098
  420TMC3     C 6321   3.063   3.574  12.872 -0.4551 -0.1065  0.1786
  420TMC3     O 6322   3.128   3.480  12.921  0.6352  0.3464  0.6455
  420TMC3     H 6323   2.877   3.763  12.810 -2.1582 -0.7580  0.6708
  420TMC3    H1 6324   3.111   3.585  13.123 -0.0061 -0.2056 -0.3593
  420TMC3    H2 6325   2.820   3.885  13.220  1.6087 -0.7058  1.5817
  420TMC3    C7 6326   3.039   3.758  13.301  0.1716 -0.3910 -0.0044
  420TMC3    C8 6327   2.716   3.907  12.958 -0.6454  0.2489 -1.0124
  420TMC3    O1 6328   3.111   3.667  13.345  0.0054 -0.3809 -0.4067
  420TMC3    O2 6329   2.712   3.936  12.836  0.4938  0.1470  0.0790
  421TMC3    C1 6330   4.138   0.630  13.317 -0.9456 -0.5799 -0.2925
  421TMC3    C2 6331   4.135   0.754  13.361 -0.0548  0.3152  0.2225
  421TMC3    C3 6332   4.192   0.780  13.486  0.0117  0.4401 -0.1389
  421TMC3    C4 6333   4.219   0.536  13.372  0.1527  0.1762 -0.2240
  421TMC3    C5 6334   4.299   0.568  13.482  0.5662  0.2189  0.4122
  421TMC3    C6 6335   4.282   0.693  13.539 -0.7266  0.1520  0.0602
  421TMC3     C 6336   4.056   0.598  13.205  0.3259 -0.2326 -0.2782
  421TMC3     O 6337   4.026   0.691  13.128  0.1356 -0.1382  0.3855
  421TMC3     H 6338   4.070   0.828  13.315 -1.0905 -0.8358 -0.1575
  421TMC3    H1 6339   4.231   0.440  13.324 -3.9344  0.4950 -1.8636
  421TMC3    H2 6340   4.333   0.718  13.632  1.7559  0.0029 -1.2411
  421TMC3    C7 6341   4.437   0.544  13.462 -0.1995  0.0903 -0.1824
  421TMC3    C8 6342   4.220   0.916  13.528 -0.2044  0.0325  0.2199
  421TMC3    O1 6343   4.513   0.634  13.485 -0.9896 -0.1288 -0.3632
  421TMC3    O2 6344   4.294   0.939  13.622 -0.0773  0.2048 -0.0536
  422TMC3    C1 6345   1.582   1.847  12.940 -0.1301 -0.4966 -0.4604
  422TMC3    C2 6346   1.614   1.948  13.024 -0.2264 -0.3263  0.0065
  422TMC3    C3 6347   1.522   2.034  13.078  0.1069  0.1387 -0.3359
  422TMC3    C4 6348   1.451   1.814  12.926  0.3305 -0.1228  0.0590
  422TMC3    C5 6349   1.360   1.903  12.975 -0.0311  0.5729  0.1548
  422TMC3    C6 6350   1.393   2.011  13.056  0.0655 -0.0762  0.6023
  422TMC3     C 6351   1.653   1.855  12.817  0.3930 -0.4532 -0.7529
  422TMC3     O 6352   1.772   1.885  12.821  0.2217  0.2615 -0.4874
  422TMC3     H 6353   1.714   1.988  13.022 -1.3908  2.5672  0.7900
  422TMC3    H1 6354   1.425   1.734  12.857 -1.2663 -0.0660  0.6051
  422TMC3    H2 6355   1.319   2.078  13.098  0.9605  2.1564 -1.3643
  422TMC3    C7 6356   1.220   1.867  12.947 -0.0025 -0.0199  0.3015
  422TMC3    C8 6357   1.560   2.176  13.055  0.3014 -0.2182 -0.3785
  422TMC3    O1 6358   1.198   1.773  12.868 -0.5277 -0.1063 -0.0401
  422TMC3    O2 6359   1.659   2.211  13.113  0.2651  0.2672 -0.0837
  423MPD2     C 6360   2.927   2.570   0.357  0.1053 -0.1549 -0.0057
  423MPD2    C1 6361   3.047   2.636   0.358  0.5318 -0.2222 -0.0633
  423MPD2    C2 6362   3.134   2.620   0.252  0.0486 -0.3866  0.0802
  423MPD2    C3 6363   3.109   2.533   0.151 -0.1931 -0.3387 -0.3348
  423MPD2    C4 6364   2.997   2.459   0.151  0.0481  0.0183  0.4346
  423MPD2    C5 6365   2.902   2.483   0.253 -0.0489  0.5081  0.3896
  423MPD2     H 6366   3.229   2.672   0.256  0.0802 -0.3967 -0.5394
  423MPD2    H1 6367   2.980   2.388   0.071  2.2073  0.5765 -0.5371
  423MPD2    H2 6368   2.847   2.564   0.430  0.8500 -2.2918  0.6384
  423MPD2    H3 6369   2.809   2.428   0.260  0.8398 -1.0807 -0.0784
  423MPD2     N 6370   3.195   2.527   0.035 -1.0317  0.4840 -0.5310
  423MPD2    H5 6371   3.186   2.461  17.705  0.1318 -0.3492  0.0470
  423MPD2    N1 6372   3.091   2.722   0.456  0.1760  0.0230 -0.4447
  423MPD2    H7 6373   3.187   2.757   0.451  0.4577 -0.7455 -0.4064
  424TMC3    C1 6374   3.114   2.828   0.652  0.7929 -0.2742  0.2432
  424TMC3    C2 6375   3.257   2.826   0.649 -0.7504 -0.6004 -0.1064
  424TMC3    C3 6376   3.317   2.843   0.772  0.7673 -0.2677 -0.5740
  424TMC3    C4 6377   3.049   2.892   0.755  0.3540 -0.0093  0.0432
  424TMC3    C5 6378   3.115   2.925   0.870  0.2516 -0.0622  0.4800
  424TMC3    C6 6379   3.246   2.900   0.880 -0.3744  0.1032 -0.0653
  424TMC3     C 6380   3.017   2.770   0.560  0.4978 -0.6451 -0.5046
  424TMC3     O 6381   2.897   2.765   0.574 -0.1176  0.5156 -0.0580
  424TMC3     H 6382   3.302   2.773   0.565 -0.3104 -0.1848 -0.1343
  424TMC3    H1 6383   2.940   2.894   0.755  0.3744  1.8342 -2.5775
  424TMC3    H2 6384   3.296   2.921   0.973 -0.2662 -0.5149  0.0192
  424TMC3    C7 6385   3.036   2.967   0.983 -0.0798  0.5103 -0.7484
  424TMC3    C8 6386   3.455   2.816   0.780  0.2333 -0.6259  0.0765
  424TMC3    O1 6387   3.081   2.953   1.098  0.1980 -0.3828  0.3900
  424TMC3    O2 6388   3.494   2.735   0.697 -0.8407  0.5091  0.1220
  425MPD2     C 6389   2.621   2.137  17.175 -0.5260 -0.2220  0.4685
  425MPD2    C1 6390   2.562   2.020  17.222  0.1193 -0.1975  0.4140
  425MPD2    C2 6391   2.457   2.033  17.307  0.1187 -0.3621  0.4587
  425MPD2    C3 6392   2.423   2.150  17.365  0.2567 -0.1793  0.1500
  425MPD2    C4 6393   2.486   2.264  17.328 -0.6425 -0.0034 -0.5229
  425MPD2    C5 6394   2.578   2.258  17.222  0.0406  0.6736  0.2798
  425MPD2     H 6395   2.390   1.951  17.330  0.9567 -0.9456  0.8199
  425MPD2    H1 6396   2.455   2.362  17.362 -1.7581 -0.4720 -0.1601
  425MPD2    H2 6397   2.697   2.142  17.098 -1.3916  2.0406 -0.2543
  425MPD2    H3 6398   2.634   2.343  17.184  1.0813  0.2183  0.8022
  425MPD2     N 6399   2.309   2.145  17.448 -0.1661  0.3401 -0.3401
  425MPD2    H5 6400   2.274   2.054  17.477 -1.1932  1.2643  1.3500
  425MPD2    N1 6401   2.608   1.901  17.166  0.7809 -0.5846 -0.5946
  425MPD2    H7 6402   2.687   1.910  17.103  1.2932 -0.7985  0.0064
  426TMC3    C1 6403   2.606   1.666  17.120  0.2707 -1.1519 -0.4389
  426TMC3    C2 6404   2.604   1.677  16.984  0.1353  0.1714  0.6277
  426TMC3    C3 6405   2.599   1.561  16.909 -0.0048  0.3960  0.0253
  426TMC3    C4 6406   2.601   1.541  17.177  0.0571 -0.3653  0.4275
  426TMC3    C5 6407   2.610   1.430  17.099  0.2569  0.1929 -0.1581
  426TMC3    C6 6408   2.590   1.432  16.964  0.9514  0.2654 -0.6473
  426TMC3     C 6409   2.560   1.776  17.202 -0.2071  1.0327  0.7581
  426TMC3     O 6410   2.494   1.744  17.303 -0.6391  0.5784 -0.0727
  426TMC3     H 6411   2.591   1.777  16.946 -3.2639 -0.1326  1.0286
  426TMC3    H1 6412   2.611   1.534  17.285 -0.0434  1.1451  0.5382
  426TMC3    H2 6413   2.608   1.341  16.908  4.3950 -0.8653  2.2922
  426TMC3    C7 6414   2.611   1.300  17.161 -0.3969  0.3122  0.9626
  426TMC3    C8 6415   2.611   1.574  16.765  0.8083 -0.6172  0.5798
  426TMC3    O1 6416   2.648   1.201  17.096  0.1811  0.4257 -0.0048
  426TMC3    O2 6417   2.628   1.473  16.702 -0.3656 -0.5143 -0.5115
  427MPD2     C 6418   0.877   4.377  15.134 -0.5020 -0.4817  0.6339
  427MPD2    C1 6419   0.857   4.239  15.137  0.6766  0.0037 -0.5323
  427MPD2    C2 6420   0.742   4.182  15.084 -1.1441  0.1493 -0.6654
  427MPD2    C3 6421   0.642   4.257  15.025 -0.3721 -0.6740 -0.5333
  427MPD2    C4 6422   0.669   4.393  15.023  0.2857  0.0240 -0.3668
  427MPD2    C5 6423   0.785   4.450  15.065  0.4746  0.1820 -0.2685
  427MPD2     H 6424   0.728   4.075  15.093  1.8813 -0.3885 -2.2763
  427MPD2    H1 6425   0.593   4.464  14.994  0.2937 -0.5615 -1.8570
  427MPD2    H2 6426   0.960   4.420  15.188 -2.0510  2.9213  0.2825
  427MPD2    H3 6427   0.789   4.558  15.068 -0.0598  0.1853  0.2410
  427MPD2     N 6428   0.521   4.198  14.964  0.2837  0.1160  0.6993
  427MPD2    H5 6429   0.451   4.258  14.921  2.3662  0.2433 -2.4501
  427MPD2    N1 6430   0.955   4.147  15.193  0.4090 -0.6823 -0.1175
  427MPD2    H7 6431   0.939   4.048  15.180 -1.8754  0.0694 -2.8880
  428TMC3    C1 6432   1.139   4.074  15.327  0.4140 -0.4858 -0.3945
  428TMC3    C2 6433   1.072   3.962  15.374  0.0854 -0.3271  0.0553
  428TMC3    C3 6434   1.125   3.892  15.480  0.1729  0.5478  0.3383
  428TMC3    C4 6435   1.255   4.117  15.390 -0.3039  0.5809  0.4910
  428TMC3    C5 6436   1.305   4.040  15.498 -0.5283  0.0771 -0.1989
  428TMC3    C6 6437   1.235   3.934  15.551 -0.3143 -0.6662 -0.2844
  428TMC3     C 6438   1.068   4.181  15.252  0.0344  0.2071  0.2886
  428TMC3     O 6439   1.118   4.292  15.261  0.2087 -0.0031  0.5692
  428TMC3     H 6440   0.983   3.923  15.328  0.0983 -0.6408  0.2991
  428TMC3    H1 6441   1.313   4.191  15.336 -1.0128 -0.2756 -1.4157
  428TMC3    H2 6442   1.276   3.869  15.628  0.9448  2.7388  1.9403
  428TMC3    C7 6443   1.441   4.055  15.542 -0.5409  0.1249  0.0345
  428TMC3    C8 6444   1.065   3.761  15.516  0.0445 -0.0330  0.1530
  428TMC3    O1 6445   1.481   4.008  15.649  0.4117 -0.4278  0.6821
  428TMC3    O2 6446   1.003   3.702  15.424 -0.2490  0.6938  0.2059
  429MPD2     C 6447   1.893   3.903  17.724 -0.2893  0.5810 -0.4390
  429MPD2    C1 6448   1.944   3.824  17.626 -0.1188  0.0886  0.0038
  429MPD2    C2 6449   2.033   3.876  17.536 -0.0803 -0.1931 -0.5866
  429MPD2    C3 6450   2.068   4.013  17.549  0.0644 -0.9387 -0.2500
  429MPD2    C4 6451   1.999   4.096  17.637 -0.3190  0.9741 -0.3793
  429MPD2    C5 6452   1.905   4.042  17.717  0.6171  0.2174  0.3131
  429MPD2     H 6453   2.096   3.812  17.475  2.1240  0.1925  1.2857
  429MPD2    H1 6454   2.021   4.202  17.636  1.5238  0.6187  3.2736
  429MPD2    H2 6455   1.823   3.859   0.049 -0.0385 -0.5698 -0.9026
  429MPD2    H3 6456   1.847   4.107   0.035 -1.5999 -0.1684 -1.3233
  429MPD2     N 6457   2.178   4.058  17.465 -0.0227  0.3146 -0.3140
  429MPD2    H5 6458   2.208   3.994  17.393  1.1071 -0.8322  1.1606
  429MPD2    N1 6459   1.909   3.684  17.612  0.5545  0.2553  0.7063
  429MPD2    H7 6460   1.950   3.635  17.534 -0.1970  1.9999 -0.7872
  430TMC3    C1 6461   2.341   4.193  17.362  0.5222 -0.9199 -0.0117
  430TMC3    C2 6462   2.377   4.315  17.318  0.2910 -0.4477 -0.7835
  430TMC3    C3 6463   2.477   4.329  17.229  1.0125 -0.3614 -0.1386
  430TMC3    C4 6464   2.414   4.077  17.332  0.7857 -0.3626  0.5480
  430TMC3    C5 6465   2.527   4.096  17.257  1.0264 -0.2397 -0.4808
  430TMC3    C6 6466   2.560   4.222  17.213 -0.1651  0.6942 -0.1626
  430TMC3     C 6467   2.218   4.184  17.434 -0.2049 -0.6776  0.2773
  430TMC3     O 6468   2.174   4.292  17.476  0.0757 -1.0251  0.4052
  430TMC3     H 6469   2.318   4.395  17.361 -0.4071 -0.9725 -0.7556
  430TMC3    H1 6470   2.412   3.981  17.382  0.9801 -1.1817 -1.0149
  430TMC3    H2 6471   2.653   4.242  17.160  0.6190 -1.3651  0.4501
  430TMC3    C7 6472   2.565   3.987  17.173  0.3071 -0.4957 -0.4441
  430TMC3    C8 6473   2.429   4.369  17.099 -0.0269  0.1237  0.0732
  430TMC3    O1 6474   2.552   3.868  17.203  0.1909  0.3757 -0.2542
  430TMC3    O2 6475   2.492   4.321  17.006  0.5906  0.5657  0.1053
  431MPD2     C 6476   3.025   4.310  11.799  0.2879 -0.2976 -0.0604
  431MPD2    C1 6477   3.020   4.266  11.932 -0.1143  0.4998 -0.7414
  431MPD2    C2 6478   2.946   4.157  11.967  0.0062 -0.1363  0.2279
  431MPD2    C3 6479   2.884   4.081  11.866 -0.2359 -0.4866 -0.0533
  431MPD2    C4 6480   2.893   4.130  11.739  0.1685  0.1071 -0.7186
  431MPD2    C5 6481   2.965   4.242  11.700 -0.2738  0.4155  0.3420
  431MPD2     H 6482   2.911   4.145  12.069  3.3055  1.5954  1.5805
  431MPD2    H1 6483   2.854   4.061  11.665  1.2043 -1.6178  0.3654
  431MPD2    H2 6484   3.085   4.397  11.775  0.5034 -0.3629  0.2386
  431MPD2    H3 6485   2.977   4.268  11.595  0.5412 -4.2670 -0.7087
  431MPD2     N 6486   2.808   3.957  11.890 -0.1478  0.2556 -0.1124
  431MPD2    H5 6487   2.780   3.904  11.808 -0.4303  1.6913 -0.9399
  431MPD2    N1 6488   3.078   4.349  12.025  0.6957  0.1921 -0.4048
  431MPD2    H7 6489   3.119   4.436  11.992  0.0747  1.3447  1.8669
  432TMC3    C1 6490   2.792   3.750  11.997 -0.2068 -0.1502 -0.7192
  432TMC3    C2 6491   2.786   3.708  11.866  0.0431  0.1601 -0.8950
  432TMC3    C3 6492   2.853   3.596  11.826  0.1712  0.3830 -1.0462
  432TMC3    C4 6493   2.866   3.676  12.089  0.0588 -0.0651 -0.5249
  432TMC3    C5 6494   2.912   3.559  12.049  0.4582  0.4483 -0.8672
  432TMC3    C6 6495   2.907   3.515  11.923 -0.5445 -0.2358 -1.0659
  432TMC3     C 6496   2.793   3.895  12.017 -0.0832  0.0368 -0.3673
  432TMC3     O 6497   2.805   3.949  12.127  0.1317  0.0103  0.1574
  432TMC3     H 6498   2.720   3.748  11.789 -1.0226  0.7802  0.3491
  432TMC3    H1 6499   2.882   3.725  12.185 -0.6691  0.2804 -0.5727
  432TMC3    H2 6500   2.970   3.431  11.899  2.3188  1.3085  0.9700
  432TMC3    C7 6501   2.994   3.484  12.143 -0.1168  0.1380  0.6064
  432TMC3    C8 6502   2.929   3.623  11.708 -0.2540 -0.3699  0.4325
  432TMC3    O1 6503   3.055   3.385  12.107 -0.0474 -0.0691 -0.0900
  432TMC3    O2 6504   2.907   3.562  11.605 -0.1210  0.4715 -0.5713
  433MPD2     C 6505   1.121   2.609  10.575  0.0482  0.6649  0.0007
  433MPD2    C1 6506   1.255   2.604  10.605 -0.5572 -0.8535  0.6850
  433MPD2    C2 6507   1.295   2.692  10.706  0.3924  0.0554  0.6048
  433MPD2    C3 6508   1.210   2.779  10.774 -0.6827 -0.1767  0.2939
  433MPD2    C4 6509   1.081   2.775  10.740 -0.1469  0.6237  0.5211
  433MPD2    C5 6510   1.035   2.685  10.647  0.7470  0.2307 -0.5071
  433MPD2     H 6511   1.397   2.689  10.745  1.0309  0.7580 -1.0184
  433MPD2    H1 6512   1.011   2.849  10.778 -1.5537 -1.0199  1.1417
  433MPD2    H2 6513   1.073   2.537  10.510 -0.9037 -0.0842  1.5251
  433MPD2    H3 6514   0.930   2.686  10.621  0.1266  1.7154  2.0461
  433MPD2     N 6515   1.255   2.850  10.894 -0.5230  0.5613  0.5944
  433MPD2    H5 6516   1.353   2.838  10.916 -0.2136  0.5785 -0.7845
  433MPD2    N1 6517   1.348   2.509  10.550 -0.2010  0.1602 -0.5972
  433MPD2    H7 6518   1.302   2.437  10.494 -1.7444 -0.2627  1.2270
  434TMC3    C1 6519   1.555   2.379  10.549  0.3786  0.1182  0.8065
  434TMC3    C2 6520   1.677   2.363  10.610  0.2092  0.2523  0.3732
  434TMC3    C3 6521   1.737   2.246  10.591  0.3468 -0.2053 -0.5958
  434TMC3    C4 6522   1.502   2.284  10.465 -0.5012 -0.1341 -0.2338
  434TMC3    C5 6523   1.580   2.176  10.435  0.6792  0.0230 -0.3843
  434TMC3    C6 6524   1.699   2.153  10.502  0.1540  0.9051 -0.0845
  434TMC3     C 6525   1.484   2.501  10.579 -0.1464 -0.0792 -0.4243
  434TMC3     O 6526   1.550   2.586  10.634  0.1234 -0.0663 -0.2345
  434TMC3     H 6527   1.718   2.441  10.673 -1.4529  0.1637  1.5491
  434TMC3    H1 6528   1.414   2.319  10.413  0.0545  0.5420 -0.7076
  434TMC3    H2 6529   1.766   2.069  10.485 -0.9867 -0.2880  1.3546
  434TMC3    C7 6530   1.537   2.066  10.347 -0.0034  0.2825 -0.1787
  434TMC3    C8 6531   1.830   2.210  10.690 -0.7065  0.0333  0.2817
  434TMC3    O1 6532   1.605   1.970  10.330 -0.3082 -0.0817 -0.4391
  434TMC3    O2 6533   1.889   2.303  10.741  0.7432 -0.5492 -0.2252
  435MPD2     C 6534   4.206   2.886  15.415  0.2482  0.5197  0.4761
  435MPD2    C1 6535   4.175   2.891  15.548  0.1073 -0.2740  0.7706
  435MPD2    C2 6536   4.239   2.816  15.634 -0.4104 -0.0847 -0.4030
  435MPD2    C3 6537   4.340   2.721  15.599 -0.5484 -0.5503  0.1931
  435MPD2    C4 6538   4.375   2.725  15.462 -0.7060  0.7515 -0.8223
  435MPD2    C5 6539   4.309   2.807  15.371 -0.2347 -0.3547 -0.0562
  435MPD2     H 6540   4.222   2.827  15.741 -0.1332 -1.3267 -0.2292
  435MPD2    H1 6541   4.453   2.656  15.430 -0.0431  1.7199 -1.2736
  435MPD2    H2 6542   4.149   2.949  15.347 -0.0975 -0.6983 -0.3464
  435MPD2    H3 6543   4.339   2.802  15.267  0.7879  1.0482  0.1806
  435MPD2     N 6544   4.409   2.645  15.702  1.0113  0.1250 -0.3700
  435MPD2    H5 6545   4.382   2.669  15.797 -0.9357  0.7110 -1.0553
  435MPD2    N1 6546   4.069   2.973  15.593  0.5057  0.1812  0.0542
  435MPD2    H7 6547   4.055   2.970  15.693  0.2232 -3.6534 -0.1213
  436TMC3    C1 6548   3.794   3.134  15.831  0.0715 -0.2206 -0.5039
  436TMC3    C2 6549   3.899   3.103  15.745 -0.0476 -0.6045 -1.0342
  436TMC3    C3 6550   3.876   3.095  15.608 -0.1285 -0.5388 -0.3781
  436TMC3    C4 6551   3.683   3.185  15.775  0.4616 -0.4221 -0.6030
  436TMC3    C5 6552   3.665   3.193  15.642 -0.1366  0.5528  0.6978
  436TMC3    C6 6553   3.760   3.141  15.551 -0.5029  0.6711 -0.4692
  436TMC3     C 6554   3.832   3.201  15.952  0.1651 -1.8075 -0.3603
  436TMC3     O 6555   3.936   3.261  15.946 -0.6838  0.2940 -0.9013
  436TMC3     H 6556   3.995   3.072  15.785  0.7928  0.9019 -1.8616
  436TMC3    H1 6557   3.608   3.238  15.833  0.8753 -0.5946  0.0864
  436TMC3    H2 6558   3.744   3.154  15.445 -1.0015  0.3463 -0.4336
  436TMC3    C7 6559   3.574   3.302  15.594  0.7938  0.5433 -0.0945
  436TMC3    C8 6560   3.968   3.029  15.522 -0.3777 -0.4066 -0.2529
  436TMC3    O1 6561   3.505   3.373  15.667 -0.5545 -0.0507 -0.2584
  436TMC3    O2 6562   3.951   3.041  15.403 -0.1946  0.5100 -0.3335
  437TMC3    C1 6563   2.191   4.668  13.134 -0.8753  0.1003  0.1762
  437TMC3    C2 6564   2.064   4.684  13.174  0.1414  0.2305 -0.2992
  437TMC3    C3 6565   1.996   0.053  13.119  0.5953  1.6925 -0.5662
  437TMC3    C4 6566   2.257   0.017  13.048  0.1367  0.6691 -0.2796
  437TMC3    C5 6567   2.187   0.127  13.000 -0.2121 -0.2509 -0.1527
  437TMC3    C6 6568   2.056   0.147  13.037 -0.3412  0.4044  0.0711
  437TMC3     C 6569   2.263   4.551  13.184 -0.4608  0.6517 -0.2324
  437TMC3     O 6570   2.203   4.443  13.180 -0.3661  0.1592  0.0564
  437TMC3     H 6571   2.011   4.612  13.236  2.5301 -0.6456  0.7209
  437TMC3    H1 6572   2.353   4.719  13.012 -0.4894 -0.9232 -0.4077
  437TMC3    H2 6573   2.008   0.239  13.006 -0.2562  0.9569  1.5472
  437TMC3    C7 6574   2.236   0.199  12.888 -0.0729 -0.2863  0.0355
  437TMC3    C8 6575   1.874   0.089  13.199  0.0308  0.0462  0.1471
  437TMC3    O1 6576   2.159   0.248  12.808 -0.2314  0.0542 -0.0621
  437TMC3    O2 6577   1.852   0.028  13.304  1.1302 -0.4101  0.5736
  438MPD2     C 6578   0.091   1.123  16.634  0.0825  0.4686  0.2160
  438MPD2    C1 6579   0.171   1.036  16.706  0.1347 -0.5006 -0.2168
  438MPD2    C2 6580   0.154   1.015  16.842  0.4737  0.1946 -0.3284
  438MPD2    C3 6581   0.049   1.083  16.899  0.0982  0.1983 -0.7084
  438MPD2    C4 6582   4.709   1.176  16.832 -0.1780  0.4296 -0.2390
  438MPD2    C5 6583   4.732   1.197  16.703 -0.6706 -0.9010 -0.3014
  438MPD2     H 6584   0.220   0.944  16.892  0.2392 -0.3297 -0.7641
  438MPD2    H1 6585   4.622   1.228  16.870 -0.0202  1.0070 -0.6726
  438MPD2    H2 6586   0.087   1.132  16.526 -0.0413  3.0613  0.4382
  438MPD2    H3 6587   4.668   1.264  16.646 -0.6215  1.0151  1.8588
  438MPD2     N 6588   0.009   1.049  17.032  0.0531 -0.0849  0.0849
  438MPD2    H5 6589   4.671   1.102  17.075  0.9988  0.0519  1.5586
  438MPD2    N1 6590   0.275   0.951  16.641  0.0268 -0.3254 -0.3475
  438MPD2    H7 6591   0.322   0.897  16.712  3.2271  3.5928  0.5501
  439TMC3    C1 6592   0.402   0.830  16.480  0.4282 -0.4063 -0.0505
  439TMC3    C2 6593   0.390   0.750  16.365  0.8256  0.4712 -0.3117
  439TMC3    C3 6594   0.487   0.655  16.339 -0.2266  0.6207 -0.1551
  439TMC3    C4 6595   0.518   0.825  16.554 -0.5272  1.3939  0.8083
  439TMC3    C5 6596   0.614   0.734  16.525  0.7291 -0.3633 -0.4089
  439TMC3    C6 6597   0.599   0.648  16.416 -0.0259  0.5572 -0.0795
  439TMC3     C 6598   0.295   0.920  16.505  0.4465 -0.4979  0.2164
  439TMC3     O 6599   0.225   0.965  16.419 -0.1864  0.3680 -0.0750
  439TMC3     H 6600   0.297   0.762  16.312  0.5438  1.7254  0.4706
  439TMC3    H1 6601   0.533   0.892  16.638 -0.1097  1.8852  0.3443
  439TMC3    H2 6602   0.669   0.566  16.401  0.2187  0.7692 -0.0968
  439TMC3    C7 6603   0.698   0.669  16.626  0.1473  0.1465  0.8857
  439TMC3    C8 6604   0.483   0.582  16.218 -0.0588 -0.2335  0.2232
  439TMC3    O1 6605   0.788   0.603  16.577 -0.9316 -0.0957  0.2495
  439TMC3    O2 6606   0.575   0.501  16.206 -0.0709 -0.0921 -0.5251
  440MPD2     C 6607   3.581   0.574  14.663 -0.0343 -0.2944 -0.8131
  440MPD2    C1 6608   3.585   0.678  14.757 -0.2626  0.0445 -0.2793
  440MPD2    C2 6609   3.702   0.683  14.834  0.4397  0.1865 -0.4894
  440MPD2    C3 6610   3.806   0.589  14.813 -1.1113 -0.1814 -0.6844
  440MPD2    C4 6611   3.796   0.488  14.720  0.4372  0.2474 -0.2445
  440MPD2    C5 6612   3.679   0.481  14.655 -0.6015  0.3043 -0.2113
  440MPD2     H 6613   3.715   0.761  14.908 -0.0531  0.5784 -0.8168
  440MPD2    H1 6614   3.878   0.418  14.709 -0.5921 -1.0090  0.2079
  440MPD2    H2 6615   3.495   0.559  14.597  0.7804 -1.1993 -1.6693
  440MPD2    H3 6616   3.663   0.404  14.581 -0.5479 -1.3868  1.5464
  440MPD2     N 6617   3.924   0.583  14.891  0.3705  0.4077  0.2277
  440MPD2    H5 6618   3.999   0.517  14.874  1.5071  1.6876  0.3629
  440MPD2    N1 6619   3.489   0.786  14.773  0.1590  0.1168  0.8012
  440MPD2    H7 6620   3.523   0.869  14.821 -3.0923  0.8206  1.9442
  441TMC3    C1 6621   4.104   0.668  15.028 -0.2170 -0.7177 -0.5297
  441TMC3    C2 6622   4.151   0.795  15.044 -0.5417  0.1616  0.2949
  441TMC3    C3 6623   4.226   0.821  15.156 -0.0387 -0.2393 -0.1554
  441TMC3    C4 6624   4.126   0.563  15.119 -0.0160 -0.3614 -0.3610
  441TMC3    C5 6625   4.205   0.595  15.229 -0.9030 -0.4173  0.2691
  441TMC3    C6 6626   4.248   0.722  15.254  0.0831 -0.0600 -0.0881
  441TMC3     C 6627   3.965   0.683  14.975  0.3011 -0.0684  0.2584
  441TMC3     O 6628   3.912   0.790  14.998  0.3152  0.1919 -0.4307
  441TMC3     H 6629   4.132   0.874  14.973 -2.3654 -0.7879 -0.2563
  441TMC3    H1 6630   4.087   0.465  15.095 -0.2943 -0.2757 -0.2536
  441TMC3    H2 6631   4.280   0.748  15.354  0.9139 -1.2835 -0.0251
  441TMC3    C7 6632   4.172   0.502  15.332  0.0852 -0.2749 -0.5868
  441TMC3    C8 6633   4.225   0.954  15.217 -0.1380 -0.3335  0.7172
  441TMC3    O1 6634   4.186   0.385  15.305 -0.1247 -0.0059 -0.3461
  441TMC3    O2 6635   4.321   0.976  15.290  0.7561  0.1288  0.2569
  442MPD2     C 6636   2.054   1.516  16.033 -0.3105  0.1072 -0.3715
  442MPD2    C1 6637   2.015   1.436  16.142  1.0986 -0.0253 -0.1917
  442MPD2    C2 6638   2.011   1.295  16.126 -0.1920  0.6066  0.3572
  442MPD2    C3 6639   2.020   1.246  16.002 -0.4724 -0.3118 -0.4788
  442MPD2    C4 6640   2.057   1.324  15.892  0.5560  0.9682 -0.0656
  442MPD2    C5 6641   2.073   1.459  15.909  0.2475 -0.5231 -0.2993
  442MPD2     H 6642   1.986   1.235  16.213 -0.7783 -1.8465 -1.4756
  442MPD2    H1 6643   2.073   1.281  15.794  0.9413  1.2874 -0.1426
  442MPD2    H2 6644   2.074   1.622  16.033  2.2273 -0.3617 -2.3063
  442MPD2    H3 6645   2.101   1.526  15.829  1.6503 -1.2421 -0.4025
  442MPD2     N 6646   2.007   1.108  15.969 -0.3094  0.3219 -0.0854
  442MPD2    H5 6647   2.019   1.074  15.874  0.5133  0.6403 -0.0910
  442MPD2    N1 6648   1.995   1.493  16.272 -0.1244  0.3448 -0.1069
  442MPD2    H7 6649   1.972   1.431  16.349  0.2606 -0.2253 -0.4460
  443TMC3    C1 6650   1.971   1.664  16.441  0.0358  0.1272  0.1357
  443TMC3    C2 6651   1.934   1.794  16.444  0.4109  0.5707  0.0077
  443TMC3    C3 6652   1.876   1.839  16.562  0.1247  0.5463 -0.6905
  443TMC3    C4 6653   1.937   1.580  16.546  0.5870  0.7698 -0.2251
  443TMC3    C5 6654   1.876   1.631  16.659  0.0675 -0.0142 -0.0710
  443TMC3    C6 6655   1.846   1.761  16.671 -0.3752 -0.2386 -0.7197
  443TMC3     C 6656   2.020   1.619  16.309 -0.0597  0.9666  0.1389
  443TMC3     O 6657   2.027   1.711  16.232 -0.3532  0.4275  0.6749
  443TMC3     H 6658   1.947   1.858  16.357 -1.6136 -1.5591 -1.8700
  443TMC3    H1 6659   1.966   1.475  16.544 -2.2815 -0.0393  0.4437
  443TMC3    H2 6660   1.789   1.812  16.747  0.8171 -0.8752  0.6099
  443TMC3    C7 6661   1.812   1.544  16.755 -0.2164 -0.3881 -0.6365
  443TMC3    C8 6662   1.804   1.964  16.554 -0.9391 -0.9707  0.5229
  443TMC3    O1 6663   1.777   1.435  16.714 -0.3240  0.4923  0.1007
  443TMC3    O2 6664   1.878   2.060  16.554 -0.4476 -0.6619  0.0945
  444MPD2     C 6665   2.202   1.275  16.926  0.1167  0.4109  0.0467
  444MPD2    C1 6666   2.124   1.164  16.948  0.4447 -0.3611  0.4857
  444MPD2    C2 6667   2.147   1.051  16.870  0.1296 -0.4002  0.0964
  444MPD2    C3 6668   2.253   1.041  16.781 -0.2103  0.5080 -0.8038
  444MPD2    C4 6669   2.329   1.157  16.750 -0.4149 -1.1707 -0.5027
  444MPD2    C5 6670   2.300   1.266  16.828  0.2598 -0.3128 -0.4412
  444MPD2     H 6671   2.076   0.969  16.881 -0.2841 -0.0694 -0.1283
  444MPD2    H1 6672   2.410   1.161  16.677  1.6259  0.7368  1.8940
  444MPD2    H2 6673   2.196   1.359  16.995  1.3842 -0.4918  1.2763
  444MPD2    H3 6674   2.358   1.357  16.814 -0.6015  0.2647 -0.2759
  444MPD2     N 6675   2.276   0.917  16.719  0.4665  0.0671  0.4025
  444MPD2    H5 6676   2.213   0.841  16.741  0.0273  0.2891 -0.1012
  444MPD2    N1 6677   2.029   1.153  17.052 -0.1190  0.2703 -0.0530
  444MPD2    H7 6678   1.977   1.066  17.064 -1.1280  0.6970 -1.2600
  445TMC3    C1 6679   2.394   0.746  16.599  0.1890  1.1087 -0.2410
  445TMC3    C2 6680   2.284   0.679  16.564  0.2735  0.2770  0.6196
  445TMC3    C3 6681   2.294   0.553  16.517 -0.0967 -0.4935 -0.2085
  445TMC3    C4 6682   2.522   0.695  16.575  0.1839 -0.9195 -0.1285
  445TMC3    C5 6683   2.529   0.577  16.518 -0.0768  0.0322 -0.6571
  445TMC3    C6 6684   2.423   0.496  16.490  0.0469  0.2839 -0.7250
  445TMC3     C 6685   2.384   0.886  16.640 -0.4234  0.2859 -0.3703
  445TMC3     O 6686   2.463   0.964  16.587  0.2320 -0.5858  0.1352
  445TMC3     H 6687   2.186   0.722  16.575  0.7058  1.3670  0.1502
  445TMC3    H1 6688   2.611   0.755  16.586 -1.1411  0.7707  1.5496
  445TMC3    H2 6689   2.432   0.399  16.441  0.2247  0.3191 -0.7592
  445TMC3    C7 6690   2.659   0.534  16.491  0.7553 -0.0788  0.8922
  445TMC3    C8 6691   2.173   0.474  16.497  0.2943 -0.3046  0.3995
  445TMC3    O1 6692   2.734   0.613  16.439  0.2525  0.2163 -0.0376
  445TMC3    O2 6693   2.186   0.382  16.419  0.4408 -0.2434 -0.5707
  446MPD2     C 6694   1.229   2.108  10.716 -0.6538  0.8501  0.2541
  446MPD2    C1 6695   1.172   2.229  10.755 -0.1966 -0.7069 -0.5100
  446MPD2    C2 6696   1.249   2.328  10.816  0.1022  0.4306  0.3541
  446MPD2    C3 6697   1.380   2.298  10.853 -0.0404  0.3125 -0.1148
  446MPD2    C4 6698   1.439   2.178  10.813  0.4573 -0.3758 -0.5911
  446MPD2    C5 6699   1.365   2.092  10.734 -0.2216 -0.2940 -0.1037
  446MPD2     H 6700   1.204   2.421  10.848  0.0632  0.2465  0.8409
  446MPD2    H1 6701   1.544   2.166  10.835 -0.3361 -2.5624  2.0221
  446MPD2    H2 6702   1.172   2.024  10.677  0.0289  0.8763 -0.7814
  446MPD2    H3 6703   1.408   2.001  10.695  0.5575  1.1204 -2.5651
  446MPD2     N 6704   1.455   2.393  10.925  0.4549 -0.7491 -0.2865
  446MPD2    H5 6705   1.411   2.483  10.944 -0.3076 -0.6640 -2.5036
  446MPD2    N1 6706   1.034   2.240  10.733  0.2497 -0.4372  0.0423
  446MPD2    H7 6707   0.986   2.176  10.670 -0.7514 -2.1542  2.5413
  447TMC3    C1 6708   1.640   2.494  11.018  0.9208 -0.6651 -0.0859
  447TMC3    C2 6709   1.597   2.614  10.970 -0.6510 -0.5931 -0.4754
  447TMC3    C3 6710   1.697   2.710  10.949  0.3036  0.2598 -0.6465
  447TMC3    C4 6711   1.782   2.474  11.037  0.0230 -1.2089 -0.2851
  447TMC3    C5 6712   1.866   2.570  11.000 -0.3980 -0.7086  0.9328
  447TMC3    C6 6713   1.828   2.690  10.964 -0.3470 -0.0308 -0.6219
  447TMC3     C 6714   1.567   2.369  10.992  0.1044  0.6415 -0.0079
  447TMC3     O 6715   1.628   2.265  11.010 -0.0160  0.7097  0.4154
  447TMC3     H 6716   1.491   2.637  10.974 -1.0108 -2.0190 -1.9340
  447TMC3    H1 6717   1.818   2.376  11.067 -2.1537 -2.5409 -1.9930
  447TMC3    H2 6718   1.897   2.757  10.913  0.3535  0.5894  1.1645
  447TMC3    C7 6719   2.007   2.543  11.032 -0.3629  0.4459  0.6102
  447TMC3    C8 6720   1.657   2.846  10.910 -0.8716 -0.2610 -0.1178
  447TMC3    O1 6721   2.036   2.425  11.052 -0.3662  0.2297  0.5026
  447TMC3    O2 6722   1.538   2.855  10.862  0.0341 -0.1027 -0.3220
  448TMC3    C1 6723   1.047   2.036  17.323 -1.2251 -0.3828  0.2181
  448TMC3    C2 6724   0.995   2.030  17.196 -0.2987  0.8150  0.7942
  448TMC3    C3 6725   1.009   1.918  17.119  0.2208  0.0762 -0.4619
  448TMC3    C4 6726   1.119   1.935  17.373  0.3574 -0.1701 -0.4705
  448TMC3    C5 6727   1.135   1.825  17.301  0.3676 -0.2779  0.2005
  448TMC3    C6 6728   1.070   1.813  17.183 -0.3776 -0.1846 -0.1037
  448TMC3     C 6729   1.063   2.166  17.377  0.1791 -0.4216  0.0640
  448TMC3     O 6730   1.060   2.264  17.304  0.4481  0.1728  0.1627
  448TMC3     H 6731   0.950   2.118  17.150  0.6508  0.5412 -0.6703
  448TMC3    H1 6732   1.171   1.952  17.467 -0.1790  2.4173 -0.6651
  448TMC3    H2 6733   1.067   1.721  17.126  1.8543  1.2328 -2.5582
  448TMC3    C7 6734   1.177   1.706  17.371 -0.1893 -0.0888 -0.8549
  448TMC3    C8 6735   0.885   1.880  17.050  0.4255 -0.3048  0.4325
  448TMC3    O1 6736   1.233   1.623  17.303 -0.2003  0.2263 -0.0016
  448TMC3    O2 6737   0.838   1.769  17.069 -0.3510 -0.3974 -0.1161
  449MPD2     C 6738   1.608   0.696  14.111  0.7244 -0.1060  0.4473
  449MPD2    C1 6739   1.500   0.753  14.049  0.5905  0.3637 -0.0111
  449MPD2    C2 6740   1.371   0.705  14.076  0.0032 -0.1789  0.2426
  449MPD2    C3 6741   1.354   0.589  14.148  0.3783 -0.0844 -1.2514
  449MPD2    C4 6742   1.463   0.538  14.222  0.0749  0.4847  0.6475
  449MPD2    C5 6743   1.590   0.588  14.197  0.1832  0.1803 -0.3647
  449MPD2     H 6744   1.278   0.753  14.045 -1.0146 -1.3326  1.4911
  449MPD2    H1 6745   1.451   0.467  14.303 -0.6029 -1.6144 -1.2955
  449MPD2    H2 6746   1.706   0.737  14.090  0.8664 -0.8746 -0.3973
  449MPD2    H3 6747   1.672   0.552  14.258  0.0923  1.7359  0.6794
  449MPD2     N 6748   1.217   0.544  14.161  0.4038  0.0699 -0.2523
  449MPD2    H5 6749   1.151   0.575  14.090  1.7980 -2.4488 -2.6499
  449MPD2    N1 6750   1.507   0.872  13.972  0.5700 -0.5240  0.1657
  449MPD2    H7 6751   1.413   0.909  13.963 -0.0302 -1.5445  2.3193
  450TMC3    C1 6752   1.560   1.034  13.818  0.0959 -0.3045  0.2217
  450TMC3    C2 6753   1.571   1.002  13.678 -0.1378 -0.0505  0.4446
  450TMC3    C3 6754   1.465   1.016  13.600 -0.4022  0.6413 -0.3910
  450TMC3    C4 6755   1.447   1.094  13.857 -0.0687  0.0399  0.1308
  450TMC3    C5 6756   1.343   1.114  13.777  0.1540 -0.9017  0.5664
  450TMC3    C6 6757   1.349   1.070  13.646 -0.0133  0.1167  0.1436
  450TMC3     C 6758   1.614   0.936  13.910 -1.0502 -0.2394 -0.1708
  450TMC3     O 6759   1.730   0.899  13.918 -0.3439 -0.2903 -0.6689
  450TMC3     H 6760   1.662   0.973  13.626  0.3282  0.9071  0.7289
  450TMC3    H1 6761   1.449   1.128  13.960  0.3936 -0.6499  0.3522
  450TMC3    H2 6762   1.256   1.073  13.590 -1.1949 -1.2481  2.0592
  450TMC3    C7 6763   1.222   1.079  13.849 -0.5860  0.1498 -0.1691
  450TMC3    C8 6764   1.457   0.969  13.458 -0.6374 -0.1010  0.0024
  450TMC3    O1 6765   1.261   1.005  13.940  0.4279 -0.1794 -0.1238
  450TMC3    O2 6766   1.372   1.023  13.388 -0.2979 -0.5334 -0.1435
  451MPD2     C 6767   2.932   4.173   1.434 -0.5538  0.5308 -0.7278
  451MPD2    C1 6768   3.002   4.266   1.375  1.2018 -0.1055  0.0009
  451MPD2    C2 6769   3.120   4.224   1.306 -1.0753 -0.5529 -0.1978
  451MPD2    C3 6770   3.160   4.090   1.298  0.7334  0.3754  0.0852
  451MPD2    C4 6771   3.079   3.997   1.358  0.5610  0.0928  0.0320
  451MPD2    C5 6772   2.969   4.038   1.426 -0.2987 -0.1759 -0.1815
  451MPD2     H 6773   3.175   4.300   1.250  0.2183 -1.1000  0.3201
  451MPD2    H1 6774   3.094   3.890   1.352  0.2507  0.0674 -0.3252
  451MPD2    H2 6775   2.846   4.188   1.499  0.1194 -0.7092  0.4498
  451MPD2    H3 6776   2.896   3.966   1.461  0.3159 -0.8647 -0.3192
  451MPD2     N 6777   3.270   4.045   1.224 -0.3715 -0.0863 -0.0547
  451MPD2    H5 6778   3.268   3.945   1.209 -2.5068 -0.0966  0.2619
  451MPD2    N1 6779   2.954   4.395   1.381  0.5819  0.0779  0.5587
  451MPD2    H7 6780   2.860   4.414   1.416  0.7502  0.4206  0.8333
  452TMC3    C1 6781   3.462   4.058   1.086  0.1220 -0.2983  0.2065
  452TMC3    C2 6782   3.417   3.947   1.018 -0.2446 -0.0727  0.0369
  452TMC3    C3 6783   3.509   3.871   0.956 -0.5675  0.2402  0.0430
  452TMC3    C4 6784   3.596   4.095   1.092  0.0927  0.1998  0.0452
  452TMC3    C5 6785   3.684   4.000   1.043  0.9795  0.2760  0.0184
  452TMC3    C6 6786   3.641   3.891   0.979  0.0157  0.3223  0.0186
  452TMC3     C 6787   3.370   4.124   1.170 -0.0897  0.4972 -0.2445
  452TMC3     O 6788   3.392   4.240   1.200  0.7705  0.2290  0.4603
  452TMC3     H 6789   3.319   3.952   0.972 -0.9020 -3.4430  1.1037
  452TMC3    H1 6790   3.620   4.197   1.121  1.2480  0.0352 -0.3366
  452TMC3    H2 6791   3.706   3.817   0.935 -0.5945 -0.3294  0.2104
  452TMC3    C7 6792   3.794   4.052   0.960  0.4989  0.1992 -0.2851
  452TMC3    C8 6793   3.456   3.841   0.821  0.0021 -0.3017  0.4266
  452TMC3    O1 6794   3.806   3.995   0.852 -0.3112 -0.0444 -0.4518
  452TMC3    O2 6795   3.343   3.816   0.804  0.0230  0.0374 -1.0881
  453TMC3    C1 6796   3.775   1.382  11.765  0.6558  0.0545  0.3314
  453TMC3    C2 6797   3.706   1.274  11.812 -0.0201 -0.2831 -0.1453
  453TMC3    C3 6798   3.604   1.218  11.729 -0.6699 -0.1023  0.1810
  453TMC3    C4 6799   3.751   1.436  11.642  0.4041  0.1266 -0.4129
  453TMC3    C5 6800   3.662   1.378  11.558  0.6454  0.4722  0.2918
  453TMC3    C6 6801   3.581   1.277  11.607  0.4782  0.0097  0.2775
  453TMC3     C 6802   3.863   1.457  11.849  0.2240 -0.0529  0.0277
  453TMC3     O 6803   3.880   1.571  11.810  0.3899 -0.0153  0.2459
  453TMC3     H 6804   3.729   1.229  11.908 -1.1038  0.4919  0.4857
  453TMC3    H1 6805   3.821   1.508  11.602  1.3322 -0.5290  0.0306
  453TMC3    H2 6806   3.516   1.234  11.531 -0.5663  0.7333  0.7542
  453TMC3    C7 6807   3.656   1.405  11.418 -0.2238 -0.3141  0.0915
  453TMC3    C8 6808   3.540   1.088  11.763 -0.4667  0.2735 -0.2670
  453TMC3    O1 6809   3.555   1.364  11.361 -0.6391 -0.4285 -1.2595
  453TMC3    O2 6810   3.457   1.053  11.678 -0.0574  0.4194  0.3166
  454MPD2     C 6811   2.944   0.965  16.042  0.0544 -0.2710  0.0994
  454MPD2    C1 6812   2.866   0.967  15.925  0.2887  0.4685 -0.6512
  454MPD2    C2 6813   2.787   1.072  15.894 -0.3335  0.4763 -0.1812
  454MPD2    C3 6814   2.776   1.176  15.986  0.2284  0.2614 -0.8453
  454MPD2    C4 6815   2.856   1.171  16.106  0.6726 -0.6124  0.4286
  454MPD2    C5 6816   2.941   1.065  16.130 -0.2517  0.1847 -0.7688
  454MPD2     H 6817   2.734   1.065  15.800 -1.7828  2.7951  0.4599
  454MPD2    H1 6818   2.872   1.249  16.180 -1.7781  0.8732 -0.5998
  454MPD2    H2 6819   3.019   0.889  16.062  0.5268  0.1567 -0.0382
  454MPD2    H3 6820   3.003   1.064  16.218 -0.6365  3.6632 -0.4527
  454MPD2     N 6821   2.688   1.290  15.968  0.1050  0.0925 -0.2205
  454MPD2    H5 6822   2.676   1.346  16.051 -0.9905 -0.2839 -0.1294
  454MPD2    N1 6823   2.868   0.863  15.829 -0.3822 -0.0727 -0.1396
  454MPD2    H7 6824   2.814   0.886  15.746 -0.2699 -0.7708 -0.4075
  455TMC3    C1 6825   2.501   1.393  15.890  0.8220  0.0879 -0.4528
  455TMC3    C2 6826   2.526   1.456  16.014 -0.1091 -0.1580  0.3158
  455TMC3    C3 6827   2.445   1.428  16.118 -0.4838  0.4590  0.3972
  455TMC3    C4 6828   2.395   1.307  15.871 -0.4047  0.2836  0.5288
  455TMC3    C5 6829   2.341   1.255  15.988 -0.1635  0.5123 -0.1647
  455TMC3    C6 6830   2.359   1.324  16.111  0.5831 -0.1638 -0.5314
  455TMC3     C 6831   2.617   1.316  15.854  0.2237  0.2737  0.4150
  455TMC3     O 6832   2.617   1.255  15.747 -0.6931  0.8980 -0.1244
  455TMC3     H 6833   2.609   1.524  16.026  0.4161 -0.9692  1.3144
  455TMC3    H1 6834   2.400   1.247  15.781 -0.5098  0.9583  0.0698
  455TMC3    H2 6835   2.310   1.280  16.197  1.3173 -1.7220 -0.9157
  455TMC3    C7 6836   2.357   1.111  15.984  0.3038  0.1465  0.4645
  455TMC3    C8 6837   2.473   1.486  16.245  0.0903  0.5638 -0.2817
  455TMC3    O1 6838   2.312   1.060  15.888 -0.3377  0.4246 -0.1789
  455TMC3    O2 6839   2.438   1.424  16.345 -0.3176  0.6158 -0.4749
  456MPD2     C 6840   0.438   1.018  16.003 -0.0656  0.2057 -0.1559
  456MPD2    C1 6841   0.538   0.974  16.087  0.1928  0.5305 -0.4804
  456MPD2    C2 6842   0.561   1.030  16.215 -0.1347 -0.0330  0.2563
  456MPD2    C3 6843   0.483   1.138  16.258 -0.3282  0.1662  0.9079
  456MPD2    C4 6844   0.380   1.178  16.174 -0.8046 -0.0792 -0.0834
  456MPD2    C5 6845   0.360   1.120  16.052  0.2445 -0.2599  0.7649
  456MPD2     H 6846   0.639   0.992  16.279  1.1407  2.4540  0.2020
  456MPD2    H1 6847   0.310   1.258  16.196 -1.0608  0.2159 -1.9598
  456MPD2    H2 6848   0.413   0.974  15.907  0.4370 -2.9190  1.1574
  456MPD2    H3 6849   0.287   1.159  15.982 -0.4117  0.8073  2.0247
  456MPD2     N 6850   0.495   1.194  16.384 -0.2794 -0.5557  0.6226
  456MPD2    H5 6851   0.553   1.144  16.450  1.2300 -0.4796 -0.6449
  456MPD2    N1 6852   0.623   0.869  16.032  0.4283  0.2452  0.0656
  456MPD2    H7 6853   0.607   0.844  15.935 -1.3054  0.8993  0.1714
  457TMC3    C1 6854   0.443   1.338  16.563  0.4168 -0.2386  0.0389
  457TMC3    C2 6855   0.430   1.473  16.588  0.3694 -0.1459  0.3719
  457TMC3    C3 6856   0.424   1.503  16.722  0.6646 -0.4892 -0.6744
  457TMC3    C4 6857   0.438   1.238  16.656 -0.3500 -0.0791 -0.1993
  457TMC3    C5 6858   0.436   1.274  16.785 -0.3216  0.2499  0.6020
  457TMC3    C6 6859   0.411   1.403  16.816  0.4248  0.1000 -0.4936
  457TMC3     C 6860   0.422   1.304  16.426  1.2186  0.1014  1.0932
  457TMC3     O 6861   0.353   1.387  16.364  0.1071 -0.0825 -0.1998
  457TMC3     H 6862   0.432   1.554  16.515  1.5730  1.0177  1.7013
  457TMC3    H1 6863   0.441   1.132  16.635 -0.0731  0.5531 -3.4534
  457TMC3    H2 6864   0.389   1.440  16.916 -5.2885  2.4101 -2.6356
  457TMC3    C7 6865   0.537   1.211  16.872 -0.5273 -0.8785 -0.0878
  457TMC3    C8 6866   0.510   1.605  16.776 -0.5787 -0.7545  0.4673
  457TMC3    O1 6867   0.563   1.090  16.867  0.0648 -0.0606  0.0124
  457TMC3    O2 6868   0.550   1.579  16.889 -0.0127 -0.2080 -0.2414
  458MPD2     C 6869   2.641   0.332  12.612  0.4080 -0.2338  0.4454
  458MPD2    C1 6870   2.683   0.264  12.718 -0.5016  0.1480  0.1961
  458MPD2    C2 6871   2.592   0.217  12.808 -0.3621  0.4636  0.7162
  458MPD2    C3 6872   2.462   0.246  12.799  1.1732 -0.3207  0.2020
  458MPD2    C4 6873   2.417   0.318  12.690 -0.3564  0.2631  0.0492
  458MPD2    C5 6874   2.508   0.362  12.598 -0.2235 -0.9911  0.1758
  458MPD2     H 6875   2.628   0.167  12.898 -0.2193 -1.0197 -0.1638
  458MPD2    H1 6876   2.321   0.368  12.684 -1.3629 -1.6325  0.3693
  458MPD2    H2 6877   2.715   0.376  12.546 -1.3516  2.0304 -0.0238
  458MPD2    H3 6878   2.477   0.431  12.520  0.3321  1.2362  1.9303
  458MPD2     N 6879   2.373   0.200  12.900  0.4037  0.2080  0.4120
  458MPD2    H5 6880   2.403   0.137  12.974  0.2002 -1.2150 -0.7148
  458MPD2    N1 6881   2.820   0.240  12.724 -0.2262  0.0521 -0.0560
  458MPD2    H7 6882   2.882   0.259  12.646  0.0379  0.1770  0.1856
  459TMC3    C1 6883   3.037   0.194  12.812 -0.8766 -0.5363 -0.5157
  459TMC3    C2 6884   3.103   0.305  12.763 -0.1496 -0.8909 -0.2687
  459TMC3    C3 6885   3.239   0.313  12.772 -0.2376 -1.1843 -0.1828
  459TMC3    C4 6886   3.107   0.094  12.874 -0.5370  0.1364  0.5164
  459TMC3    C5 6887   3.246   0.104  12.883 -0.2393  0.1298 -0.1551
  459TMC3    C6 6888   3.317   0.214  12.836  0.8343 -0.4482 -0.2919
  459TMC3     C 6889   2.888   0.188  12.831  0.7279 -0.1871  0.7776
  459TMC3     O 6890   2.840   0.138  12.933  0.6817  0.0423  0.0967
  459TMC3     H 6891   3.048   0.392  12.728 -0.5994  0.1834  3.1072
  459TMC3    H1 6892   3.061   0.008  12.920 -1.7959  1.3768  1.5940
  459TMC3    H2 6893   3.425   0.221  12.827  0.6032  1.3442 -1.6964
  459TMC3    C7 6894   3.312   0.034  12.996  0.4726 -0.5485 -0.0745
  459TMC3    C8 6895   3.312   0.402  12.678 -0.7277 -0.4025 -0.6753
  459TMC3    O1 6896   3.408   0.089  13.043  0.2296 -0.0380  0.0419
  459TMC3    O2 6897   3.431   0.417  12.704  0.0087  0.0893 -0.4535
  460MPD2     C 6898   1.803   3.175  10.949 -0.0749  0.4906  0.7959
  460MPD2    C1 6899   1.718   3.084  10.900  0.2487  0.0769  1.1650
  460MPD2    C2 6900   1.628   3.120  10.800  0.5498 -0.5253 -0.2282
  460MPD2    C3 6901   1.614   3.247  10.755 -0.0214 -0.5750 -0.6354
  460MPD2    C4 6902   1.700   3.337  10.812 -0.0059 -0.3439 -0.3224
  460MPD2    C5 6903   1.783   3.305  10.914  0.6675 -0.1076 -0.5879
  460MPD2     H 6904   1.561   3.055  10.744 -0.4778  0.7630 -0.4964
  460MPD2    H1 6905   1.701   3.435  10.766  1.5376 -1.1397 -1.9838
  460MPD2    H2 6906   1.859   3.148  11.038  1.5451 -0.0403 -0.3971
  460MPD2    H3 6907   1.850   3.387  10.938 -0.6215  0.4518  1.1332
  460MPD2     N 6908   1.536   3.274  10.637  0.8999 -0.6725 -0.3271
  460MPD2    H5 6909   1.479   3.198  10.602  0.0308 -0.0380 -0.2962
  460MPD2    N1 6910   1.743   2.952  10.940 -0.3023 -0.5496  0.5182
  460MPD2    H7 6911   1.818   2.933  11.006  1.5371 -0.0306 -1.3856
  461TMC3    C1 6912   1.446   3.392  10.455 -0.8926  0.0922 -0.4413
  461TMC3    C2 6913   1.446   3.279  10.387  0.0461  0.4988  0.5730
  461TMC3    C3 6914   1.400   3.289  10.257  0.6420 -0.4334 -0.0012
  461TMC3    C4 6915   1.404   3.511  10.404 -1.0296 -0.1899 -0.0095
  461TMC3    C5 6916   1.373   3.517  10.271 -0.0845  0.1813  1.1171
  461TMC3    C6 6917   1.360   3.405  10.195 -0.4584 -0.0909 -0.1635
  461TMC3     C 6918   1.515   3.395  10.582  0.0325  0.6825 -0.3161
  461TMC3     O 6919   1.553   3.504  10.623 -0.1636 -0.3827 -0.5979
  461TMC3     H 6920   1.509   3.194  10.411  0.7421  1.1150  0.9229
  461TMC3    H1 6921   1.423   3.602  10.459  1.2075 -2.6341  3.2883
  461TMC3    H2 6922   1.311   3.401  10.098 -1.4033  2.6424  0.2257
  461TMC3    C7 6923   1.362   3.652  10.208  0.7702 -0.2432 -0.2497
  461TMC3    C8 6924   1.401   3.163  10.184 -0.1051 -0.1961 -0.3349
  461TMC3    O1 6925   1.357   3.634  10.087 -0.2940  0.0284  0.3536
  461TMC3    O2 6926   1.380   3.171  10.061 -0.2143  0.0656  0.1345
  462TMC3    C1 6927   2.289   3.942   0.080 -0.3521 -0.3010 -0.4054
  462TMC3    C2 6928   2.373   3.887  17.729 -0.3683  0.1454  0.1856
  462TMC3    C3 6929   2.368   3.753  17.719  0.9070  0.4919  0.7502
  462TMC3    C4 6930   2.208   3.872   0.170  0.5209  0.0244  0.2518
  462TMC3    C5 6931   2.228   3.739   0.169 -0.4193 -0.3259 -0.2628
  462TMC3    C6 6932   2.299   3.675   0.068 -0.4949  0.2075 -0.0072
  462TMC3     C 6933   2.273   4.086   0.083 -0.3232  0.2772  0.1598
  462TMC3     O 6934   2.185   4.133   0.152  0.2493 -0.4247  0.1712
  462TMC3     H 6935   2.414   3.937  17.642 -1.9104  0.0876 -0.5867
  462TMC3    H1 6936   2.170   3.927   0.255  0.2156 -0.6115  0.5245
  462TMC3    H2 6937   2.330   3.574   0.091 -1.0735 -0.5614 -2.6354
  462TMC3    C7 6938   2.156   3.649   0.261  0.5850  0.4307 -0.1081
  462TMC3    C8 6939   2.365   3.698  17.587  0.2949 -0.4611 -0.4703
  462TMC3    O1 6940   2.130   3.536   0.219 -0.1132  0.3150  0.1909
  462TMC3    O2 6941   2.339   3.774  17.489  0.0741 -0.6557 -0.7243
  463MPD2     C 6942   4.052   2.417   0.950  0.4305 -0.0482 -0.0378
  463MPD2    C1 6943   3.926   2.472   0.958  0.0301  0.0714 -0.4532
  463MPD2    C2 6944   3.914   2.573   1.048  1.0817  0.9113 -0.5405
  463MPD2    C3 6945   4.023   2.619   1.123 -0.2247 -0.1340 -0.5322
  463MPD2    C4 6946   4.149   2.568   1.112  0.1870  0.5505 -0.3365
  463MPD2    C5 6947   4.159   2.461   1.023  0.1737 -0.1044  0.0906
  463MPD2     H 6948   3.813   2.610   1.057  0.5256 -0.8447  0.5637
  463MPD2    H1 6949   4.239   2.606   1.158 -0.2959 -0.9648  1.8686
  463MPD2    H2 6950   4.073   2.339   0.877  0.3837  0.8242 -0.9748
  463MPD2    H3 6951   4.256   2.414   1.027  0.8761  1.3666  0.3708
  463MPD2     N 6952   4.006   2.718   1.223 -0.0537  0.1104 -0.4086
  463MPD2    H5 6953   4.094   2.755   1.257  0.4771 -2.5834  1.1305
  463MPD2    N1 6954   3.820   2.438   0.879  0.1605  0.4074  0.1642
  463MPD2    H7 6955   3.735   2.490   0.897  0.3359  0.7151  0.1059
  464TMC3    C1 6956   3.679   2.322   0.728  0.3219  0.8250 -0.1404
  464TMC3    C2 6957   3.594   2.430   0.724  0.5668  0.3223 -0.0258
  464TMC3    C3 6958   3.474   2.415   0.657 -0.0349  0.1226 -0.4091
  464TMC3    C4 6959   3.654   2.211   0.652 -0.0297  0.1420 -0.0064
  464TMC3    C5 6960   3.545   2.213   0.570  0.3104 -0.1864 -0.0496
  464TMC3    C6 6961   3.453   2.313   0.579  0.5130 -0.0830  0.0362
  464TMC3     C 6962   3.814   2.332   0.790 -0.7241 -0.3447  0.0999
  464TMC3     O 6963   3.901   2.255   0.753  0.2773 -0.1483 -0.1871
  464TMC3     H 6964   3.611   2.529   0.763 -0.6498  1.1721 -1.6696
  464TMC3    H1 6965   3.720   2.127   0.669  0.5675  0.3958 -1.0657
  464TMC3    H2 6966   3.364   2.319   0.518 -0.9187 -0.7220  2.0801
  464TMC3    C7 6967   3.498   2.083   0.542 -0.4238 -0.1150  0.7052
  464TMC3    C8 6968   3.343   2.476   0.693  0.1936  0.0020  0.9283
  464TMC3    O1 6969   3.581   1.994   0.535 -0.0889  0.0597  0.0403
  464TMC3    O2 6970   3.273   2.505   0.597 -0.5460  0.5572 -0.7001
  465MPD2     C 6971   0.063   1.646  16.748  0.6257  0.9827 -0.5963
  465MPD2    C1 6972   4.734   1.607  16.861  0.0320  0.1692  0.6540
  465MPD2    C2 6973   4.609   1.550  16.851 -0.0605  0.0219 -0.0086
  465MPD2    C3 6974   4.551   1.531  16.726 -0.2680  0.2500  0.5347
  465MPD2    C4 6975   4.622   1.561  16.615 -0.7411  1.1130 -0.2150
  465MPD2    C5 6976   0.005   1.623  16.629  0.4786 -0.0098 -0.0739
  465MPD2     H 6977   4.561   1.523  16.945 -0.1163 -0.7106 -0.2475
  465MPD2    H1 6978   4.575   1.550  16.518 -2.6852  0.4022  0.7947
  465MPD2    H2 6979   0.160   1.693  16.761  1.8472 -1.5762 -0.3810
  465MPD2    H3 6980   0.053   1.645  16.535  0.8733 -1.0297 -0.1122
  465MPD2     N 6981   4.423   1.471  16.722 -0.0530 -0.3096  0.0959
  465MPD2    H5 6982   4.404   1.432  16.814 -1.9109 -2.2083 -1.0956
  465MPD2    N1 6983   0.051   1.600  16.991  0.8647 -0.0590 -0.0606
  465MPD2    H7 6984   4.732   1.569  17.070 -0.0669 -1.2855 -1.2003
  466TMC3    C1 6985   4.153   1.309  16.886  0.1667  0.8174 -0.0501
  466TMC3    C2 6986   4.033   1.387  16.872 -0.6870 -0.4025  0.5554
  466TMC3    C3 6987   4.014   1.457  16.757  0.5450 -0.0090 -0.9646
  466TMC3    C4 6988   4.235   1.304  16.778 -0.0862  0.4825  0.1541
  466TMC3    C5 6989   4.223   1.381  16.668 -0.2103 -0.4592  0.5753
  466TMC3    C6 6990   4.106   1.451  16.654  0.1172 -0.4454  0.1369
  466TMC3     C 6991   4.234   1.346  16.999  0.0253 -0.4289 -0.2184
  466TMC3     O 6992   4.352   1.380  16.975 -0.0960  0.2512  0.2617
  466TMC3     H 6993   3.955   1.388  16.948 -0.4975 -0.1942  0.7496
  466TMC3    H1 6994   4.328   1.248  16.782 -0.7486 -0.9381 -4.1120
  466TMC3    H2 6995   4.093   1.514  16.566 -1.0553  1.1403  1.4517
  466TMC3    C7 6996   4.341   1.444  16.618  0.7689  0.0792  0.5516
  466TMC3    C8 6997   3.926   1.577  16.767 -0.3491 -0.2416  0.0449
  466TMC3    O1 6998   4.343   1.462  16.500 -0.1453 -0.0974 -0.3394
  466TMC3    O2 6999   3.901   1.620  16.882  0.1328  0.0385 -0.6902
  467TMC3    C1 7000   0.682   4.432  14.168  0.0893  0.3664 -0.2066
  467TMC3    C2 7001   0.663   4.441  14.033 -0.3206  0.2740 -0.0003
  467TMC3    C3 7002   0.556   4.379  13.976  0.2307 -0.5742 -0.3447
  467TMC3    C4 7003   0.589   4.369  14.249  0.0122  0.0416 -0.7050
  467TMC3    C5 7004   0.486   4.307  14.185  0.6271  0.4292 -0.2259
  467TMC3    C6 7005   0.453   4.318  14.049 -0.0553  0.5272 -0.0538
  467TMC3     C 7006   0.764   4.543  14.215 -0.5508 -0.3398 -0.5746
  467TMC3     O 7007   0.850   4.515  14.300 -0.3681 -0.0383 -0.2111
  467TMC3     H 7008   0.737   4.495  13.974  0.8084 -0.8518  0.3905
  467TMC3    H1 7009   0.609   4.359  14.355 -1.1475  1.0201 -0.3892
  467TMC3    H2 7010   0.376   4.252  14.010  0.4190 -0.0362 -0.0313
  467TMC3    C7 7011   0.414   4.198  14.258  0.1849 -0.9806 -0.9882
  467TMC3    C8 7012   0.526   4.446  13.849 -0.4486 -0.4713  0.0688
  467TMC3    O1 7013   0.451   4.176  14.371  0.6494 -0.0839  0.0233
  467TMC3    O2 7014   0.616   4.483  13.775  0.1481  0.4417 -0.0454
  468MPD2     C 7015   3.006   2.978  10.818  0.4627  0.2477  0.7574
  468MPD2    C1 7016   3.142   3.002  10.802  0.0392 -0.1358 -0.2457
  468MPD2    C2 7017   3.240   2.904  10.807  0.2473 -0.5786 -0.3958
  468MPD2    C3 7018   3.190   2.778  10.819  0.3133 -0.3144 -0.1383
  468MPD2    C4 7019   3.053   2.745  10.826  0.3920  0.1699 -0.6759
  468MPD2    C5 7020   2.961   2.847  10.817  0.0519  0.2370  0.2308
  468MPD2     H 7021   3.345   2.928  10.798  0.4060 -1.1525 -0.1114
  468MPD2    H1 7022   3.013   2.646  10.846 -1.3212  1.0202  0.1099
  468MPD2    H2 7023   2.940   3.062  10.832  0.5642  0.6143 -0.8747
  468MPD2    H3 7024   2.855   2.839  10.838 -0.1124  0.3683 -0.5210
  468MPD2     N 7025   3.279   2.664  10.840 -0.9891  0.6357  0.1949
  468MPD2    H5 7026   3.236   2.575  10.863 -1.8701  0.5429 -1.7802
  468MPD2    N1 7027   3.190   3.135  10.791 -0.0836 -0.0888 -0.5801
  468MPD2    H7 7028   3.285   3.155  10.822 -0.2400  2.6975 -1.8578
  469TMC3    C1 7029   3.149   3.376  10.772 -0.5929 -0.3718  0.4165
  469TMC3    C2 7030   3.267   3.398  10.840 -0.8477 -0.1063 -0.2651
  469TMC3    C3 7031   3.311   3.528  10.841  0.2166  0.0430 -1.3823
  469TMC3    C4 7032   3.078   3.476  10.710 -0.2940 -0.0425  0.5960
  469TMC3    C5 7033   3.138   3.604  10.696  0.1913 -0.4193 -0.4862
  469TMC3    C6 7034   3.256   3.624  10.758 -0.2986  0.4128 -0.5348
  469TMC3     C 7035   3.106   3.238  10.741  0.0057 -0.1704  0.0566
  469TMC3     O 7036   3.008   3.225  10.671 -0.2245 -0.1505 -0.3975
  469TMC3     H 7037   3.298   3.315  10.901 -2.4988  0.1575  0.9178
  469TMC3    H1 7038   2.981   3.465  10.662  0.2204 -0.6174 -0.3002
  469TMC3    H2 7039   3.315   3.713  10.737  1.2305 -0.7567 -1.1633
  469TMC3    C7 7040   3.103   3.673  10.574 -0.3185 -0.5573 -0.1992
  469TMC3    C8 7041   3.449   3.549  10.885 -0.1739 -0.3107  0.0867
  469TMC3    O1 7042   3.053   3.602  10.487 -0.9228  0.1763 -0.2489
  469TMC3    O2 7043   3.487   3.666  10.878  0.4365 -0.6885  0.2139
  470TMC3    C1 7044   1.549   3.661   0.810  0.7345  0.5711  0.0253
  470TMC3    C2 7045   1.636   3.759   0.836 -0.3758  0.0197  0.1614
  470TMC3    C3 7046   1.599   3.849   0.928 -0.0587  0.0615 -0.2873
  470TMC3    C4 7047   1.419   3.656   0.865  0.3937  0.9599 -0.6508
  470TMC3    C5 7048   1.386   3.755   0.952  0.7596 -0.4521 -0.0141
  470TMC3    C6 7049   1.472   3.856   0.985 -0.5213  0.3151 -0.3504
  470TMC3     C 7050   1.588   3.557   0.720  0.5918  0.1193  0.2938
  470TMC3     O 7051   1.654   3.591   0.620  0.1719 -0.2319 -0.2944
  470TMC3     H 7052   1.738   3.757   0.800  0.6989 -0.7894  3.3015
  470TMC3    H1 7053   1.344   3.586   0.831  0.4592  0.4888  0.1724
  470TMC3    H2 7054   1.438   3.946   1.036  1.1239 -0.3274  1.8543
  470TMC3    C7 7055   1.249   3.778   0.988  0.1344 -0.7214 -0.3117
  470TMC3    C8 7056   1.681   3.960   0.962  0.4138  0.0065 -0.0407
  470TMC3    O1 7057   1.173   3.728   0.906 -0.2236 -0.7680  0.6438
  470TMC3    O2 7058   1.649   4.007   1.069 -0.2942 -0.2776 -0.2449
  471MPD2     C 7059   2.048   4.478  16.776  0.4234  0.2324  0.2611
  471MPD2    C1 7060   2.177   4.433  16.755 -0.3399 -0.4136 -0.0440
  471MPD2    C2 7061   2.264   4.417  16.857 -0.2482 -0.1799 -0.8677
  471MPD2    C3 7062   2.225   4.438  16.990 -0.1001  0.3310 -0.1870
  471MPD2    C4 7063   2.097   4.473  17.010 -0.2408 -0.4625 -0.0460
  471MPD2    C5 7064   2.007   4.503  16.903  0.2162  0.2028 -0.5008
  471MPD2     H 7065   2.364   4.385  16.827  0.4019 -2.2134  3.5860
  471MPD2    H1 7066   2.058   4.471  17.112  0.9134 -1.8794  0.3575
  471MPD2    H2 7067   1.976   4.495  16.696  0.4106 -0.5654  0.1107
  471MPD2    H3 7068   1.904   4.530  16.923 -0.3986 -1.1983 -1.8028
  471MPD2     N 7069   2.304   4.410  17.104 -0.3983 -0.2072 -0.0616
  471MPD2    H5 7070   2.255   4.424  17.192  0.5786  0.4501  0.3800
  471MPD2    N1 7071   2.231   4.405  16.626  0.3020 -0.2027 -0.5260
  471MPD2    H7 7072   2.322   4.360  16.621  0.0072 -1.2086  2.8748
  472TMC3    C1 7073   2.235   4.372  16.397  0.8070  0.8221  1.0482
  472TMC3    C2 7074   2.182   4.425  16.280  0.1164 -0.2748 -0.0361
  472TMC3    C3 7075   2.152   4.349  16.167  0.2577 -0.0222  0.4707
  472TMC3    C4 7076   2.256   4.234  16.395 -0.8424  0.3376 -0.2175
  472TMC3    C5 7077   2.240   4.159  16.280  0.3406  0.1674  0.0657
  472TMC3    C6 7078   2.187   4.217  16.165  0.1151 -0.3216 -0.4651
  472TMC3     C 7079   2.158   4.422  16.506 -0.2572  0.3997  0.1749
  472TMC3     O 7080   2.057   4.488  16.481  0.2705 -0.0097  0.5683
  472TMC3     H 7081   2.151   4.529  16.287  0.5261  0.0534 -3.2020
  472TMC3    H1 7082   2.296   4.195  16.488 -0.3327  2.1922  0.3395
  472TMC3    H2 7083   2.160   4.171  16.070 -0.2022  0.9978 -1.0192
  472TMC3    C7 7084   2.192   4.023  16.313  0.2044 -0.2750 -0.2942
  472TMC3    C8 7085   2.013   4.353  16.114  0.1314 -0.3111 -0.3873
  472TMC3    O1 7086   2.171   3.992  16.430  0.5277  0.1559 -0.4853
  472TMC3    O2 7087   1.950   4.251  16.113  0.1536  0.0352  0.3088
  473MPD2     C 7088   1.487   2.376  14.877 -0.6786  0.6359 -0.9131
  473MPD2    C1 7089   1.480   2.393  14.742  0.2542  0.3732 -0.5490
  473MPD2    C2 7090   1.544   2.497  14.690  0.3012  0.2539 -0.1597
  473MPD2    C3 7091   1.612   2.590  14.763  0.4428 -0.2626 -0.3859
  473MPD2    C4 7092   1.625   2.571  14.898 -0.5605 -0.1936  0.2456
  473MPD2    C5 7093   1.560   2.462  14.955 -0.0576  0.1362 -0.0357
  473MPD2     H 7094   1.537   2.509  14.583  0.1004 -0.1014 -0.1848
  473MPD2    H1 7095   1.696   2.624  14.961 -2.6800  1.3766  1.3121
  473MPD2    H2 7096   1.446   2.287  14.922 -1.2687  1.3606 -0.0156
  473MPD2    H3 7097   1.558   2.449  15.062 -1.2003  2.0944  0.1890
  473MPD2     N 7098   1.683   2.701  14.700  0.2184  0.1661 -0.6987
  473MPD2    H5 7099   1.739   2.767  14.752  2.5380 -2.7544  0.5140
  473MPD2    N1 7100   1.406   2.306  14.653 -0.1639 -0.0100 -0.7730
  473MPD2    H7 7101   1.418   2.331  14.555  0.5398 -2.4557 -1.3306
  474TMC3    C1 7102   1.762   2.824  14.512  0.2072 -0.8070  0.2863
  474TMC3    C2 7103   1.729   2.885  14.395  1.0425 -0.1435 -0.4046
  474TMC3    C3 7104   1.834   2.922  14.320  0.1554  0.5378  0.8966
  474TMC3    C4 7105   1.890   2.816  14.553 -0.2663 -0.8751 -0.6285
  474TMC3    C5 7106   1.990   2.868  14.473 -0.4309  0.1722 -0.3162
  474TMC3    C6 7107   1.971   2.905  14.347 -0.6289 -0.3644 -0.1564
  474TMC3     C 7108   1.662   2.736  14.565  0.3551 -0.2039 -0.2016
  474TMC3     O 7109   1.566   2.708  14.496 -0.2513 -0.1190  0.9050
  474TMC3     H 7110   1.629   2.922  14.377  0.7776 -0.2846  0.7704
  474TMC3    H1 7111   1.918   2.749  14.633 -0.3636 -0.2588 -0.0790
  474TMC3    H2 7112   2.059   2.939  14.294  0.4901 -0.4262  1.6735
  474TMC3    C7 7113   2.128   2.840  14.521 -0.0033  0.5688 -0.4321
  474TMC3    C8 7114   1.810   2.977  14.192 -0.1067  0.0699  0.1657
  474TMC3    O1 7115   2.208   2.806  14.438  0.2800  0.3410 -0.3479
  474TMC3    O2 7116   1.700   2.949  14.150  0.0553 -0.4792 -0.0140
  475MPD2     C 7117   4.164   0.562  11.223  0.1181  0.3567 -0.0562
  475MPD2    C1 7118   4.195   0.601  11.095  0.3557  0.2647 -0.3917
  475MPD2    C2 7119   4.100   0.603  10.999 -0.2354 -0.1582  1.0814
  475MPD2    C3 7120   3.973   0.567  11.037 -0.4034 -0.0292 -0.6223
  475MPD2    C4 7121   3.943   0.523  11.164  0.0981 -0.2691  0.3982
  475MPD2    C5 7122   4.039   0.528  11.264  0.2238  0.3283  0.1276
  475MPD2     H 7123   4.106   0.641  10.897  1.5174  0.0423  1.2671
  475MPD2    H1 7124   3.839   0.515  11.191  0.8243 -2.1238  2.5842
  475MPD2    H2 7125   4.230   0.576  11.307 -0.7974 -0.5628  0.8169
  475MPD2    H3 7126   4.004   0.506  11.364  1.2891  0.9479  0.6303
  475MPD2     N 7127   3.866   0.583  10.947 -0.7710 -0.0111  0.5436
  475MPD2    H5 7128   3.880   0.637  10.862  1.6600  0.0062  0.9480
  475MPD2    N1 7129   4.322   0.654  11.072 -0.6338 -0.1875 -0.5975
  475MPD2    H7 7130   4.390   0.656  11.148 -3.7306  0.1989  2.1449
  476TMC3    C1 7131   4.496   0.790  11.004  0.0400  0.6462  1.3170
  476TMC3    C2 7132   4.581   0.829  10.907 -0.6161 -0.0626 -0.0460
  476TMC3    C3 7133   4.676   0.928  10.932  0.0064 -1.3716  0.1429
  476TMC3    C4 7134   4.505   0.845  11.131 -1.1557  0.5105 -0.0467
  476TMC3    C5 7135   4.598   0.943  11.145 -0.3707  0.3641 -0.2421
  476TMC3    C6 7136   4.692   0.983  11.051  0.2120  0.5115 -0.1233
  476TMC3     C 7137   4.377   0.716  10.963  0.3453  0.3603  0.1391
  476TMC3     O 7138   4.347   0.716  10.849  0.2471 -0.0720  0.2907
  476TMC3     H 7139   4.546   0.805  10.807 -0.2408  0.9230 -0.4128
  476TMC3    H1 7140   4.437   0.820  11.211  0.6161 -1.4653  0.8480
  476TMC3    H2 7141   0.037   1.052  11.067  2.2172 -1.6461 -0.9790
  476TMC3    C7 7142   4.577   1.028  11.266  0.0779 -0.3047  0.0092
  476TMC3    C8 7143   0.028   0.972  10.823 -0.0022  0.3369  0.1708
  476TMC3    O1 7144   4.518   0.979  11.361  0.0598  0.0109  0.6226
  476TMC3    O2 7145   0.110   1.051  10.858  0.3024  0.8559 -0.2968
  477MPD2     C 7146   2.145   2.324  11.996  0.2328  0.0960 -0.3748
  477MPD2    C1 7147   2.213   2.230  11.927  0.1241 -0.6140 -0.8661
  477MPD2    C2 7148   2.281   2.132  11.998 -0.1257 -0.1455 -0.1757
  477MPD2    C3 7149   2.274   2.126  12.133  0.5546 -0.6297 -0.4568
  477MPD2    C4 7150   2.201   2.221  12.203  0.2202  0.0980 -0.1180
  477MPD2    C5 7151   2.140   2.316  12.125  0.6227 -0.4335  0.6456
  477MPD2     H 7152   2.343   2.056  11.952 -0.3950  0.3078 -1.2670
  477MPD2    H1 7153   2.193   2.234  12.310  3.8389 -0.9515  0.2733
  477MPD2    H2 7154   2.096   2.407  11.946 -1.1189 -0.3543  0.1836
  477MPD2    H3 7155   2.093   2.400  12.175 -1.7910 -0.4674 -1.5773
  477MPD2     N 7156   2.346   2.020  12.203  0.2656 -0.0668 -0.3414
  477MPD2    H5 7157   2.373   1.938  12.149  0.7696  1.9803 -3.1827
  477MPD2    N1 7158   2.225   2.257  11.799 -0.0082  0.7045 -0.7983
  477MPD2    H7 7159   2.177   2.334  11.753 -2.4563 -0.3745 -0.0726
  478TMC3    C1 7160   2.265   2.233  11.573  0.4142  0.2665 -0.7222
  478TMC3    C2 7161   2.227   2.365  11.566  0.4782  0.7134  0.0571
  478TMC3    C3 7162   2.148   2.400  11.460 -0.8014 -0.5868  0.1954
  478TMC3    C4 7163   2.212   2.146  11.485  0.8121  0.4755  0.0387
  478TMC3    C5 7164   2.148   2.186  11.371  0.3249 -0.0432  0.1620
  478TMC3    C6 7165   2.115   2.318  11.357 -0.0199  0.5671  0.2679
  478TMC3     C 7166   2.271   2.173  11.707 -0.0358  0.4197  0.5444
  478TMC3     O 7167   2.308   2.057  11.714 -0.0371 -0.1407 -0.6731
  478TMC3     H 7168   2.269   2.444  11.628  0.2916  0.2073  0.8245
  478TMC3    H1 7169   2.217   2.039  11.501  2.0246  0.6278  0.6866
  478TMC3    H2 7170   2.060   2.353  11.271  1.4285  0.2509 -0.7925
  478TMC3    C7 7171   2.113   2.086  11.272  0.5187  0.2474  0.2913
  478TMC3    C8 7172   2.113   2.537  11.458 -0.1641 -0.0621 -0.0947
  478TMC3    O1 7173   2.142   1.968  11.294 -0.1753 -0.0927  0.5115
  478TMC3    O2 7174   2.149   2.606  11.552 -0.1785 -0.1632 -0.3139
  479MPD2     C 7175   1.718   4.144  15.312 -0.2931  0.7267  0.6200
  479MPD2    C1 7176   1.660   4.078  15.419 -0.2559  1.0034 -0.4418
  479MPD2    C2 7177   1.743   4.044  15.524 -0.2252 -0.0582  0.8119
  479MPD2    C3 7178   1.878   4.061  15.513 -0.1810 -0.1986  0.6571
  479MPD2    C4 7179   1.936   4.103  15.394 -0.7804  0.1650  0.0724
  479MPD2    C5 7180   1.854   4.147  15.297  0.1002 -0.0409 -0.0685
  479MPD2     H 7181   1.709   4.002  15.618  0.2698  1.1583  1.5327
  479MPD2    H1 7182   2.042   4.114  15.374 -0.8770  1.4083  0.2680
  479MPD2    H2 7183   1.656   4.184  15.232  0.0146  0.1370  0.0861
  479MPD2    H3 7184   1.893   4.194  15.207 -0.5918 -1.0468 -0.9043
  479MPD2     N 7185   1.970   4.039  15.623 -0.4458 -0.6930  0.3584
  479MPD2    H5 7186   2.068   4.049  15.602 -0.7085  0.0108 -0.5011
  479MPD2    N1 7187   1.520   4.085  15.433 -0.1513  0.8334 -0.1105
  479MPD2    H7 7188   1.470   4.113  15.349  2.2073  0.5844 -1.5803
  480TMC3    C1 7189   1.661   4.073  15.982 -0.8281 -0.6561 -0.8639
  480TMC3    C2 7190   1.583   4.155  15.916  0.1121  0.5051  0.2184
  480TMC3    C3 7191   1.641   4.228  15.823  0.2064 -0.1368 -0.1825
  480TMC3    C4 7192   1.786   4.038  15.936 -0.4227  0.3613  0.1441
  480TMC3    C5 7193   1.833   4.093  15.822 -0.1865 -0.8885 -0.2456
  480TMC3    C6 7194   1.771   4.205  15.769 -0.2148 -0.0431  0.1621
  480TMC3     C 7195   1.584   3.977  16.064 -0.4846 -0.6999  0.6423
  480TMC3     O 7196   1.470   3.942  16.037  0.3759  0.1549 -0.5724
  480TMC3     H 7197   1.480   4.165  15.950  1.0285 -0.8296  3.4116
  480TMC3    H1 7198   1.839   3.957  15.985  1.6207  1.4117 -0.3687
  480TMC3    H2 7199   1.806   4.263  15.685 -1.0346  0.1328 -0.0554
  480TMC3    C7 7200   1.952   4.025  15.760 -0.1089  0.6772  1.3750
  480TMC3    C8 7201   1.546   4.304  15.745 -0.1467  0.0537  0.0205
  480TMC3    O1 7202   2.043   3.993  15.838 -0.5836  0.3381 -0.1869
  480TMC3    O2 7203   1.431   4.311  15.787  0.7242  0.3613  0.1179
  481MPD2     C 7204   3.426   3.565  14.471 -0.1129  0.1000 -0.4939
  481MPD2    C1 7205   3.294   3.590  14.502  0.6146  0.1017  0.3261
  481MPD2    C2 7206   3.242   3.563  14.627  0.3376  0.7391 -0.1852
  481MPD2    C3 7207   3.326   3.530  14.729  0.0191  0.5563  0.5272
  481MPD2    C4 7208   3.452   3.503  14.706 -0.1583 -0.5713 -0.3601
  481MPD2    C5 7209   3.494   3.515  14.570  0.3172 -0.4217  0.8415
  481MPD2     H 7210   3.136   3.585  14.635  0.0500 -0.0902 -1.7233
  481MPD2    H1 7211   3.514   3.459  14.783 -1.8305 -2.6027 -0.1712
  481MPD2    H2 7212   3.467   3.591  14.374  0.6779  0.6042 -0.0318
  481MPD2    H3 7213   3.597   3.490  14.549  1.3491  3.0086  1.7617
  481MPD2     N 7214   3.284   3.512  14.865 -0.9859 -0.4907 -0.1944
  481MPD2    H5 7215   3.362   3.485  14.924  0.2961  1.2189 -1.1030
  481MPD2    N1 7216   3.208   3.629  14.395 -0.2198  0.4396 -0.1238
  481MPD2    H7 7217   3.247   3.621  14.302 -1.1525 -3.8883 -0.1629
  482TMC3    C1 7218   3.032   3.706  14.259  0.1460 -0.4273  0.2389
  482TMC3    C2 7219   2.904   3.667  14.227  0.2743 -0.2821  0.4873
  482TMC3    C3 7220   2.860   3.686  14.100  0.0107 -0.0852 -0.5588
  482TMC3    C4 7221   3.108   3.761  14.159 -0.5381 -0.4605  0.3908
  482TMC3    C5 7222   3.061   3.776  14.033 -0.5242  1.1065 -0.2975
  482TMC3    C6 7223   2.937   3.746  14.001  0.1906 -0.4542 -0.1979
  482TMC3     C 7224   3.080   3.682  14.390 -0.3636  0.6324  0.1418
  482TMC3     O 7225   3.004   3.710  14.480 -0.3708 -0.5213 -0.3184
  482TMC3     H 7226   2.849   3.618  14.306 -2.3649 -0.1073 -1.2304
  482TMC3    H1 7227   3.206   3.800  14.186 -0.7732 -0.7693  1.6945
  482TMC3    H2 7228   2.896   3.759  13.901 -2.3058 -1.3303  0.7191
  482TMC3    C7 7229   3.124   3.865  13.934 -0.5770 -0.0461 -0.4828
  482TMC3    C8 7230   2.775   3.586  14.061  0.0313 -0.0273 -0.1961
  482TMC3    O1 7231   3.186   3.957  13.981  0.6919  0.6379  0.6876
  482TMC3    O2 7232   2.778   3.488  14.135 -0.8127 -0.2951 -0.0936
  483TMC3    C1 7233   0.868   2.440   1.142  0.5241  0.5384  0.8382
  483TMC3    C2 7234   0.949   2.546   1.170  0.6149 -0.1960 -0.2117
  483TMC3    C3 7235   1.034   2.571   1.070  0.7234  0.0719  0.7001
  483TMC3    C4 7236   0.853   2.383   1.019 -0.2556  0.2566  0.4552
  483TMC3    C5 7237   0.932   2.425   0.916 -0.4323  0.5105 -0.1425
  483TMC3    C6 7238   1.027   2.517   0.952 -0.4617 -0.3883 -0.1030
  483TMC3     C 7239   0.880   2.344   1.251  0.3844  0.5900  0.7073
  483TMC3     O 7240   0.873   2.391   1.364  0.1988 -0.1659  0.4757
  483TMC3     H 7241   0.961   2.582   1.272 -0.4794  2.9634 -1.1793
  483TMC3    H1 7242   0.784   2.301   1.000 -1.4698  0.7836  2.6645
  483TMC3    H2 7243   1.104   2.540   0.878 -1.4836  1.1124 -0.7029
  483TMC3    C7 7244   1.000   2.309   0.862  0.8360 -0.1448  0.9870
  483TMC3    C8 7245   1.143   2.655   1.124 -0.6215  0.4862 -0.3379
  483TMC3    O1 7246   0.983   2.202   0.920  0.0804 -0.2087 -0.0853
  483TMC3    O2 7247   1.124   2.699   1.238 -0.0784  0.0623  0.3937
  484MPD2     C 7248   3.179   0.590  12.390 -0.0666 -0.1638  0.0956
  484MPD2    C1 7249   3.275   0.559  12.484 -0.0458  0.0494 -0.6413
  484MPD2    C2 7250   3.403   0.623  12.481  0.7279 -0.4468 -0.3118
  484MPD2    C3 7251   3.426   0.724  12.385 -0.6977 -0.2957 -0.1391
  484MPD2    C4 7252   3.324   0.759  12.302 -0.2996 -0.2485  0.2154
  484MPD2    C5 7253   3.203   0.697  12.312 -0.2996  0.6832 -0.0092
  484MPD2     H 7254   3.476   0.592  12.555 -0.1862 -1.4565  0.1606
  484MPD2    H1 7255   3.348   0.822  12.217 -1.5529  1.0325  0.8201
  484MPD2    H2 7256   3.083   0.539  12.390  1.4176 -2.9905 -3.2447
  484MPD2    H3 7257   3.122   0.721  12.245 -1.8916 -2.3252  0.8134
  484MPD2     N 7258   3.548   0.792  12.366 -0.3675 -0.1709  0.0362
  484MPD2    H5 7259   3.553   0.855  12.286 -0.5496  0.5880  0.6197
  484MPD2    N1 7260   3.236   0.456  12.575 -0.0148  0.1698  0.4718
  484MPD2    H7 7261   3.143   0.415  12.573 -0.3112  0.8121  1.2068
  485TMC3    C1 7262   3.781   0.852  12.419  0.8670 -0.0678  0.0772
  485TMC3    C2 7263   3.880   0.824  12.509  0.5832  0.2080 -0.0191
  485TMC3    C3 7264   4.000   0.889  12.479 -0.0311  0.6144 -0.3073
  485TMC3    C4 7265   3.791   0.943  12.313 -0.1169 -0.2591  0.3099
  485TMC3    C5 7266   3.909   1.007  12.306  0.2980  0.5839  0.2605
  485TMC3    C6 7267   4.012   0.990  12.392 -0.1513  0.1420  0.1047
  485TMC3     C 7268   3.654   0.780  12.454  0.0653 -0.4354  0.1984
  485TMC3     O 7269   3.669   0.706  12.552 -0.4381 -0.2710 -0.1073
  485TMC3     H 7270   3.869   0.735  12.569 -0.7148 -0.7204 -1.6537
  485TMC3    H1 7271   3.712   0.951  12.239  0.0312 -0.5168  0.1239
  485TMC3    H2 7272   4.106   1.044  12.385  0.1950 -0.3239  1.2461
  485TMC3    C7 7273   3.949   1.043  12.166  0.0765  0.9176  0.5669
  485TMC3    C8 7274   4.106   0.790  12.452 -0.5547  0.5276 -0.5877
  485TMC3    O1 7275   3.859   1.079  12.089  0.3309  0.5108 -0.2308
  485TMC3    O2 7276   4.184   0.819  12.363  0.4617  0.3710 -0.1565
  486MPD2     C 7277   0.557   4.126  12.276  0.1425 -0.0449  0.0806
  486MPD2    C1 7278   0.578   4.124  12.409 -0.3283  0.7674  0.1116
  486MPD2    C2 7279   0.555   4.242  12.483  0.2164  0.8048 -0.0228
  486MPD2    C3 7280   0.509   4.357  12.411  0.1020  0.6131  0.9371
  486MPD2    C4 7281   0.501   4.351  12.277 -0.1350 -0.3893 -0.4167
  486MPD2    C5 7282   0.532   4.238  12.207 -0.4902 -0.8135 -0.5847
  486MPD2     H 7283   0.555   4.237  12.591  1.4283 -1.3487 -0.1365
  486MPD2    H1 7284   0.470   4.435  12.216  1.4711  1.9939  2.0686
  486MPD2    H2 7285   0.567   4.033  12.220  1.2321 -0.3448  0.7869
  486MPD2    H3 7286   0.531   4.226  12.099 -0.9073  3.0249 -0.9944
  486MPD2     N 7287   0.471   4.476  12.488 -0.9989 -0.8888  0.2239
  486MPD2    H5 7288   0.461   4.462  12.588 -1.0834 -0.8805  0.2165
  486MPD2    N1 7289   0.639   4.004  12.464  0.0572  0.1573  0.0863
  486MPD2    H7 7290   0.657   3.928  12.399  0.5517  0.2516  0.1103
  487TMC3    C1 7291   0.743   3.861  12.619 -0.0835 -0.7172 -0.4974
  487TMC3    C2 7292   0.672   3.750  12.575  0.2937 -0.5476 -0.1120
  487TMC3    C3 7293   0.731   3.630  12.617  0.0774 -0.4382  0.4074
  487TMC3    C4 7294   0.866   3.864  12.671 -0.0247  0.0788 -0.7129
  487TMC3    C5 7295   0.927   3.740  12.691 -1.3445 -0.3530 -0.1828
  487TMC3    C6 7296   0.864   3.627  12.652  0.7010  0.0335  0.2703
  487TMC3     C 7297   0.684   3.993  12.593  0.0625  0.0640  0.1257
  487TMC3     O 7298   0.696   4.078  12.681 -0.2176 -0.0538  0.2344
  487TMC3     H 7299   0.568   3.768  12.553  0.9044  0.7540 -1.9197
  487TMC3    H1 7300   0.902   3.952  12.722  0.5375 -1.6549  1.8434
  487TMC3    H2 7301   0.898   3.532  12.690  1.0630 -1.1785 -3.1227
  487TMC3    C7 7302   1.006   3.735  12.815  0.0337 -0.2852  0.3614
  487TMC3    C8 7303   0.634   3.544  12.695  0.7927 -0.1027  0.1731
  487TMC3    O1 7304   0.989   3.633  12.883  0.3263  0.2668  0.0645
  487TMC3    O2 7305   0.523   3.592  12.690  0.0278  0.0615  0.2169
  488MPD2     C 7306   1.432   0.910  16.235 -0.0672 -0.4603  0.8419
  488MPD2    C1 7307   1.512   0.999  16.302 -0.3163 -0.0643  0.5206
  488MPD2    C2 7308   1.513   0.991  16.436 -0.0945  0.1851 -0.6402
  488MPD2    C3 7309   1.445   0.899  16.514 -0.4533 -0.5474  0.0428
  488MPD2    C4 7310   1.375   0.803  16.444 -0.2882  0.1377 -0.2974
  488MPD2    C5 7311   1.365   0.812  16.308  0.1223 -0.0071 -0.6770
  488MPD2     H 7312   1.567   1.070  16.487  1.5915 -2.7723  2.1406
  488MPD2    H1 7313   1.333   0.717  16.495 -0.7267  0.0325 -0.8340
  488MPD2    H2 7314   1.433   0.909  16.127 -0.3762 -2.5760  0.8566
  488MPD2    H3 7315   1.306   0.739  16.255 -1.3635 -0.2719  1.3634
  488MPD2     N 7316   1.464   0.900  16.651  0.1810 -0.6287  0.3615
  488MPD2    H5 7317   1.526   0.971  16.688 -0.4281 -0.2801  0.7139
  488MPD2    N1 7318   1.579   1.107  16.237  0.4041 -0.3770 -0.0401
  488MPD2    H7 7319   1.628   1.179  16.289 -1.1263  0.7514 -0.1890
  489TMC3    C1 7320   1.430   0.878  16.882 -0.6564 -0.1915 -0.3186
  489TMC3    C2 7321   1.530   0.967  16.906  0.5084  0.4530  0.0074
  489TMC3    C3 7322   1.529   1.021  17.032 -0.2053  0.3345  0.2660
  489TMC3    C4 7323   1.347   0.834  16.984 -0.1341 -0.0514  0.0145
  489TMC3    C5 7324   1.356   0.887  17.106 -0.4168  0.2170 -0.1309
  489TMC3    C6 7325   1.437   0.992  17.128  0.6221 -0.5047  0.2573
  489TMC3     C 7326   1.413   0.816  16.748 -0.0522 -0.8087 -0.2327
  489TMC3     O 7327   1.327   0.729  16.729 -0.2863  0.7056  0.5761
  489TMC3     H 7328   1.612   0.972  16.836 -0.1361  1.0991 -0.7053
  489TMC3    H1 7329   1.277   0.754  16.963 -0.6225  0.1581  0.8276
  489TMC3    H2 7330   1.451   1.033  17.227 -3.1393  2.5772 -0.4689
  489TMC3    C7 7331   1.302   0.818  17.220  0.6601 -0.4995 -0.1814
  489TMC3    C8 7332   1.614   1.142  17.040  1.3616 -0.6592  0.4869
  489TMC3    O1 7333   1.335   0.853  17.331  0.2505 -0.0761  0.0206
  489TMC3    O2 7334   1.718   1.141  16.975  0.4705  0.1829  0.1609
  490MPD2     C 7335   2.337   0.837  17.099 -0.2321 -0.5055 -0.0370
  490MPD2    C1 7336   2.335   0.721  17.175  0.0242  0.2849  0.0728
  490MPD2    C2 7337   2.447   0.656  17.208 -0.7351 -0.0161 -0.1565
  490MPD2    C3 7338   2.566   0.703  17.152 -0.2612  0.4937 -0.5623
  490MPD2    C4 7339   2.569   0.814  17.072  0.2783  0.4422 -0.1750
  490MPD2    C5 7340   2.454   0.883  17.050  0.2777  0.2209 -0.3832
  490MPD2     H 7341   2.441   0.577  17.282  3.5322 -0.2428 -0.0314
  490MPD2    H1 7342   2.664   0.840  17.027 -0.3676  0.3287 -1.6205
  490MPD2    H2 7343   2.249   0.898  17.079  1.4785  0.9965 -2.9500
  490MPD2    H3 7344   2.466   0.983  17.010 -1.5573  0.1435 -1.0887
  490MPD2     N 7345   2.685   0.640  17.181 -0.4004  1.0605 -0.1517
  490MPD2    H5 7346   2.770   0.676  17.139 -0.5992  1.4029 -0.2663
  490MPD2    N1 7347   2.215   0.655  17.217  0.7196  0.1148 -0.3866
  490MPD2    H7 7348   2.219   0.572  17.276  1.4639  0.4327  0.0107
  491TMC3    C1 7349   2.003   0.584  17.230  0.1681 -0.0181 -0.0623
  491TMC3    C2 7350   1.991   0.569  17.360  0.3465  1.1141 -0.2705
  491TMC3    C3 7351   1.942   0.445  17.402  0.4962 -0.0425 -0.5259
  491TMC3    C4 7352   1.971   0.496  17.132 -0.5573  0.4601 -0.5279
  491TMC3    C5 7353   1.902   0.386  17.178 -0.0528 -0.5383  0.1763
  491TMC3    C6 7354   1.889   0.356  17.310 -0.0754 -0.2324 -0.5148
  491TMC3     C 7355   2.089   0.687  17.175 -0.7966  0.6827  0.0057
  491TMC3     O 7356   2.053   0.750  17.074  0.2282 -0.5523  0.2951
  491TMC3     H 7357   2.044   0.638  17.424  1.7525 -1.3391  1.1968
  491TMC3    H1 7358   1.981   0.513  17.025 -2.8096  1.8530 -0.4906
  491TMC3    H2 7359   1.841   0.262  17.336 -1.4279  1.0242  1.5675
  491TMC3    C7 7360   1.875   0.282  17.081  0.3066 -0.0130 -0.4060
  491TMC3    C8 7361   1.945   0.414  17.544  0.0618 -0.2950 -0.1766
  491TMC3    O1 7362   1.782   0.206  17.098  0.1501 -0.3557  0.3422
  491TMC3    O2 7363   1.944   0.295  17.563  0.3097 -0.0008 -0.5866
  492MPD2     C 7364   1.704   1.272  10.971  0.1637 -0.1935  1.0238
  492MPD2    C1 7365   1.670   1.144  10.934  0.0910  0.1163 -0.1444
  492MPD2    C2 7366   1.621   1.063  11.033 -0.6973 -0.6456 -0.4626
  492MPD2    C3 7367   1.597   1.112  11.162  0.0553  0.0314  0.2400
  492MPD2    C4 7368   1.630   1.240  11.201  0.1497  0.4985  0.4561
  492MPD2    C5 7369   1.681   1.321  11.104 -0.1604 -0.0765  0.7592
  492MPD2     H 7370   1.592   0.962  11.006  1.7147 -1.4299 -0.1283
  492MPD2    H1 7371   1.600   1.283  11.296 -2.4754 -1.3402  0.4617
  492MPD2    H2 7372   1.745   1.343  10.899 -0.2748  0.2487  1.2068
  492MPD2    H3 7373   1.711   1.424  11.119  2.1643 -0.9025  1.9798
  492MPD2     N 7374   1.542   1.037  11.269  0.2636  0.2315  0.0935
  492MPD2    H5 7375   1.541   1.074  11.363 -0.4437 -0.5822  0.4040
  492MPD2    N1 7376   1.669   1.107  10.800 -0.5978  0.1748  0.6814
  492MPD2    H7 7377   1.713   1.180  10.744 -0.7320  1.1788  1.8897
  493TMC3    C1 7378   1.656   0.986  10.599 -0.3986  0.0737 -0.0408
  493TMC3    C2 7379   1.716   1.092  10.547  0.5801  0.3142  0.2561
  493TMC3    C3 7380   1.677   1.122  10.419  0.0036 -0.6685 -0.6338
  493TMC3    C4 7381   1.575   0.902  10.529  0.3900  0.6609  0.3514
  493TMC3    C5 7382   1.545   0.936  10.401 -0.1912  0.6782 -1.2727
  493TMC3    C6 7383   1.595   1.049  10.340 -0.3227 -0.4446  0.4765
  493TMC3     C 7384   1.637   0.985  10.743  0.3512 -0.4843  0.7349
  493TMC3     O 7385   1.598   0.886  10.797 -0.7904 -0.2445 -0.3051
  493TMC3     H 7386   1.790   1.146  10.604 -0.0351  0.9521  0.4562
  493TMC3    H1 7387   1.513   0.825  10.573  0.7223  0.0418 -0.2609
  493TMC3    H2 7388   1.560   1.076  10.241  0.6817  0.8467  0.4646
  493TMC3    C7 7389   1.433   0.872  10.334  0.9207 -0.1518  0.5729
  493TMC3    C8 7390   1.754   1.217  10.350 -0.1216 -0.3114 -0.4199
  493TMC3    O1 7391   1.365   0.945  10.261 -0.0994  0.1951  0.4708
  493TMC3    O2 7392   1.822   1.282  10.423  0.1706 -0.4557 -0.0304
  494TMC3    C1 7393   2.654   2.304  17.593 -0.6189  0.0744  0.2669
  494TMC3    C2 7394   2.704   2.175  17.591  0.8171 -0.5825  0.2651
  494TMC3    C3 7395   2.817   2.153  17.520 -0.5314 -0.3361  0.0788
  494TMC3    C4 7396   2.732   2.410  17.539  0.6075 -0.2162  0.5508
  494TMC3    C5 7397   2.833   2.376  17.461 -0.1885 -0.9466 -0.4515
  494TMC3    C6 7398   2.884   2.249  17.447  0.9498 -0.4848  0.0031
  494TMC3     C 7399   2.577   2.335  17.714  0.3155 -0.2183 -1.1152
  494TMC3     O 7400   2.615   2.285   0.074  0.1576  0.0760  0.1992
  494TMC3     H 7401   2.626   2.106  17.621 -0.8797  0.4821 -1.6832
  494TMC3    H1 7402   2.695   2.511  17.553  1.6781  0.3895 -1.0460
  494TMC3    H2 7403   2.979   2.229  17.398  1.5052  1.4288  0.2594
  494TMC3    C7 7404   2.919   2.484  17.408  0.6615 -0.0617 -0.0846
  494TMC3    C8 7405   2.894   2.033  17.547 -0.1208  0.3862 -0.1721
  494TMC3    O1 7406   2.970   2.470  17.300  0.8477  0.4010 -0.5926
  494TMC3    O2 7407   2.996   2.004  17.478  0.0899 -0.2109  0.2593
  495TMC3    C1 7408   1.958   4.601  14.862 -0.2331 -1.3014 -0.3107
  495TMC3    C2 7409   1.884   4.681  14.784 -0.4667 -0.2654 -0.0448
  495TMC3    C3 7410   1.753   4.692  14.821  0.2330  0.6575 -0.0089
  495TMC3    C4 7411   1.914   4.543  14.975  0.1444  0.1117  0.1747
  495TMC3    C5 7412   1.788   4.570  15.018 -0.2911 -0.2279  0.1693
  495TMC3    C6 7413   1.707   4.653  14.944 -0.6762 -0.1508  0.2519
  495TMC3     C 7414   2.030   4.501  14.787  0.3241  0.6193  0.7491
  495TMC3     O 7415   1.994   4.384  14.815 -0.0487 -0.0737  0.1402
  495TMC3     H 7416   1.906   4.705  14.680 -1.1772  3.4902  0.6799
  495TMC3    H1 7417   1.968   4.468  15.032  1.0241  0.6179 -0.0026
  495TMC3    H2 7418   1.608   4.685  14.976 -0.3845 -0.4402  1.4477
  495TMC3    C7 7419   1.748   4.522  15.153 -0.1947 -0.3317  0.0738
  495TMC3    C8 7420   1.640   4.695  14.719 -1.1108 -0.5137 -0.2756
  495TMC3    O1 7421   1.835   4.465  15.219 -0.3062 -0.1978 -0.6203
  495TMC3    O2 7422   1.524   4.693  14.756 -0.1153  0.2912 -0.3416
  496MPD2     C 7423   3.724   4.387  15.355 -0.7708  0.2216 -0.1794
  496MPD2    C1 7424   3.674   4.257  15.369  0.3539 -0.1634  0.6706
  496MPD2    C2 7425   3.580   4.224  15.465  0.1225 -0.5143  0.4163
  496MPD2    C3 7426   3.543   4.328  15.547 -1.3105  0.4169 -0.1889
  496MPD2    C4 7427   3.598   4.453  15.543  0.1940  0.1194 -0.4056
  496MPD2    C5 7428   3.680   4.491  15.442  0.0493 -0.8511 -0.3812
  496MPD2     H 7429   3.545   4.124  15.489 -0.6643 -0.5873 -1.0154
  496MPD2    H1 7430   3.550   4.533  15.599 -0.0871  0.1030 -0.6232
  496MPD2    H2 7431   3.780   4.417  15.267  0.2294 -2.5132 -0.4978
  496MPD2    H3 7432   3.711   4.592  15.420 -0.3982 -1.1571 -2.4754
  496MPD2     N 7433   3.447   4.305  15.654  0.0021 -0.7258 -0.1313
  496MPD2    H5 7434   3.405   4.213  15.666 -2.0234  0.6027  2.9804
  496MPD2    N1 7435   3.728   4.163  15.277 -0.3566 -0.5585 -0.4352
  496MPD2    H7 7436   3.800   4.200  15.215  0.0306 -2.0260 -0.8636
  497TMC3    C1 7437   3.363   4.317  15.867  0.0757  0.2128  0.6202
  497TMC3    C2 7438   3.242   4.272  15.817  0.2915  0.8023 -0.0954
  497TMC3    C3 7439   3.177   4.165  15.875 -0.5447 -0.4502 -0.3172
  497TMC3    C4 7440   3.427   4.245  15.966 -0.0776  0.4730  0.2469
  497TMC3    C5 7441   3.367   4.137  16.015  0.1886  0.1305  0.1532
  497TMC3    C6 7442   3.236   4.098  15.978  0.5146 -0.0597  0.4904
  497TMC3     C 7443   3.444   4.382  15.769  0.0783 -0.7466  0.0614
  497TMC3     O 7444   3.497   4.482  15.815  0.2967  0.3110  0.1687
  497TMC3     H 7445   3.192   4.341  15.751  1.2868  0.6161 -1.0567
  497TMC3    H1 7446   3.525   4.284  15.992 -0.0276  1.5954 -1.6401
  497TMC3    H2 7447   3.194   4.005  16.015 -2.0687  1.3268  1.0796
  497TMC3    C7 7448   3.425   4.066  16.136  0.2346  0.5006 -0.1201
  497TMC3    C8 7449   3.038   4.169  15.891  0.4711  0.3510 -0.4304
  497TMC3    O1 7450   3.351   3.993  16.198 -0.0059  0.5532 -0.7129
  497TMC3    O2 7451   2.975   4.233  15.802 -0.3187  0.1042  0.1755
  498MPD2     C 7452   4.086   0.692   9.282 -0.3528  0.3227 -0.1642
  498MPD2    C1 7453   4.117   0.736   9.408  0.1488 -0.1300 -0.5911
  498MPD2    C2 7454   4.125   0.639   9.513  0.3191  0.0544  0.0476
  498MPD2    C3 7455   4.120   0.503   9.486 -0.8330 -0.6150 -0.2318
  498MPD2    C4 7456   4.103   0.463   9.349  0.8860 -0.4562  0.4912
  498MPD2    C5 7457   4.083   0.561   9.255 -0.1880  0.5037 -0.0090
  498MPD2     H 7458   4.153   0.672   9.612  1.4504  0.1963 -0.3191
  498MPD2    H1 7459   4.091   0.357   9.331  2.2052 -0.6994  1.0691
  498MPD2    H2 7460   4.080   0.757   9.196 -1.4018 -1.9134 -1.7607
  498MPD2    H3 7461   4.073   0.526   9.152  3.5168 -2.2391  0.5880
  498MPD2     N 7462   4.123   0.411   9.597  0.4198  0.5639  0.0556
  498MPD2    H5 7463   4.126   0.454   9.689  1.5867  0.1040  0.2275
  498MPD2    N1 7464   4.140   0.872   9.436 -0.5578  0.2189 -0.1305
  498MPD2    H7 7465   4.142   0.896   9.535  1.8191 -0.9952  0.1066
  499TMC3    C1 7466   4.161   1.102   9.415  0.3219 -0.3678 -0.0730
  499TMC3    C2 7467   4.249   1.108   9.522 -0.6784 -0.1387  0.3304
  499TMC3    C3 7468   4.279   1.231   9.579 -0.1080  0.0776 -0.5173
  499TMC3    C4 7469   4.075   1.209   9.382  0.1480  0.1299 -0.2349
  499TMC3    C5 7470   4.095   1.325   9.447 -0.0082 -0.3964 -0.4162
  499TMC3    C6 7471   4.198   1.339   9.544 -0.2092  0.2417  0.4792
  499TMC3     C 7472   4.139   0.979   9.350  0.5461  0.2963 -0.1996
  499TMC3     O 7473   4.106   0.975   9.232  0.1977  0.2803 -0.0230
  499TMC3     H 7474   4.313   1.024   9.546 -0.4480  0.7937  2.9158
  499TMC3    H1 7475   4.032   1.200   9.283 -1.4973 -1.9709  0.6898
  499TMC3    H2 7476   4.212   1.438   9.587 -2.8198  2.0078 -2.7549
  499TMC3    C7 7477   4.036   1.448   9.393  0.4151 -0.3419  0.0060
  499TMC3    C8 7478   4.360   1.238   9.704  0.1047 -0.0076 -0.0731
  499TMC3    O1 7479   4.086   1.555   9.419  0.8635 -0.4566  0.1140
  499TMC3    O2 7480   4.405   1.346   9.733 -0.5994  0.0694 -0.3560
  500MPD2     C 7481   0.407   1.470   9.920 -0.0338  0.0970 -0.1007
  500MPD2    C1 7482   0.362   1.560  10.019 -0.9109  0.6399 -0.0902
  500MPD2    C2 7483   0.224   1.589  10.024  0.0538  0.1897  0.3681
  500MPD2    C3 7484   0.135   1.522   9.940  0.6348 -0.1313 -0.5964
  500MPD2    C4 7485   0.185   1.428   9.848  0.5702  0.1788 -0.8098
  500MPD2    C5 7486   0.316   1.402   9.845 -0.7389  0.2910 -0.1241
  500MPD2     H 7487   0.187   1.663  10.095 -0.8374 -0.3160  0.4210
  500MPD2    H1 7488   0.126   1.377   9.774  0.4425 -0.3847 -0.3210
  500MPD2    H2 7489   0.511   1.440   9.929 -0.0615  0.4885  1.6709
  500MPD2    H3 7490   0.353   1.317   9.788 -0.1643 -0.2589  1.0546
  500MPD2     N 7491   4.736   1.574   9.925  0.4283  0.1502 -0.5589
  500MPD2    H5 7492   4.679   1.558   9.842 -0.5405  1.6978 -0.1939
  500MPD2    N1 7493   0.446   1.633  10.100  0.5633 -0.4300  0.7496
  500MPD2    H7 7494   0.412   1.684  10.181  0.5511  1.0335 -0.1713
  501TMC3    C1 7495   0.647   1.725  10.183  0.0196 -0.7137  0.2387
  501TMC3    C2 7496   0.757   1.794  10.132  0.1037  0.6521  0.1420
  501TMC3    C3 7497   0.789   1.902  10.200 -0.0078 -0.4250  0.3514
  501TMC3    C4 7498   0.581   1.765  10.291  0.1583 -0.5031  0.1955
  501TMC3    C5 7499   0.611   1.880  10.354 -0.6784 -0.1209  0.1971
  501TMC3    C6 7500   0.712   1.953  10.298  0.4463 -0.1879 -0.2001
  501TMC3     C 7501   0.583   1.636  10.083  0.2384  0.3556  0.0944
  501TMC3     O 7502   0.648   1.608   9.985 -0.7657  0.3099 -0.5088
  501TMC3     H 7503   0.813   1.758  10.046 -1.3357 -0.4053 -0.3435
  501TMC3    H1 7504   0.508   1.701  10.340 -0.6657  1.6577  1.8339
  501TMC3    H2 7505   0.747   2.046  10.342  0.8959 -0.1362 -0.6699
  501TMC3    C7 7506   0.611   1.900  10.498 -0.1924 -0.1705  0.2353
  501TMC3    C8 7507   0.920   1.964  10.181  0.3380 -0.5384  0.0958
  501TMC3    O1 7508   0.711   1.970  10.533 -0.5242 -0.0984  0.0827
  501TMC3    O2 7509   0.939   2.067  10.237 -0.0310  0.5093 -0.0311
  502TMC3    C1 7510   0.943   0.787  14.878 -0.2268 -0.1442 -0.0749
  502TMC3    C2 7511   0.895   0.912  14.891 -0.5334 -0.1287 -0.6634
  502TMC3    C3 7512   0.761   0.923  14.908 -0.2302 -0.2629 -0.4700
  502TMC3    C4 7513   0.867   0.668  14.871 -0.3106 -0.2022  0.3094
  502TMC3    C5 7514   0.736   0.688  14.891 -0.3856 -0.2410  0.0533
  502TMC3    C6 7515   0.682   0.815  14.911  0.3147 -0.1364  0.2741
  502TMC3     C 7516   1.066   0.764  14.950 -0.2537 -0.2755  1.1681
  502TMC3     O 7517   1.155   0.845  14.943 -0.0543  0.0155 -0.1459
  502TMC3     H 7518   0.961   0.995  14.913 -0.1742 -0.6035  0.0232
  502TMC3    H1 7519   0.906   0.567  14.863 -1.4893 -0.6866  0.6353
  502TMC3    H2 7520   0.582   0.828  14.952  0.1143  1.0972 -0.6055
  502TMC3    C7 7521   0.660   0.579  14.939  0.4589 -0.1532 -0.1973
  502TMC3    C8 7522   0.711   1.055  14.952 -0.6629 -0.8157  0.3307
  502TMC3    O1 7523   0.731   0.490  14.988  0.2379 -0.9573 -0.2666
  502TMC3    O2 7524   0.795   1.141  14.969 -0.2851  0.4866  0.0205
  503MPD2     C 7525   2.993   1.215  17.080  0.3401 -0.0082  0.9012
  503MPD2    C1 7526   3.107   1.290  17.120  0.1574  0.0023  0.0299
  503MPD2    C2 7527   3.191   1.228  17.205 -0.1427 -1.0527  0.6071
  503MPD2    C3 7528   3.193   1.087  17.216  0.3801  0.0429  0.3242
  503MPD2    C4 7529   3.086   1.015  17.172  0.0475 -0.9890  0.7569
  503MPD2    C5 7530   2.983   1.083  17.108 -0.1461 -0.3612 -0.6752
  503MPD2     H 7531   3.276   1.280  17.249 -0.7236 -0.1387  0.6665
  503MPD2    H1 7532   3.077   0.907  17.175  0.9946 -1.1060 -0.4959
  503MPD2    H2 7533   2.905   1.268  17.044  0.1000  0.6910  2.4881
  503MPD2    H3 7534   2.897   1.029  17.071 -1.7981  1.0416  1.1413
  503MPD2     N 7535   3.292   1.034  17.288 -0.5905  0.4259 -0.6431
  503MPD2    H5 7536   3.376   1.088  17.303 -1.2431  1.2762 -0.0779
  503MPD2    N1 7537   3.125   1.432  17.092 -0.0470  0.1406 -0.6741
  503MPD2    H7 7538   3.190   1.489  17.146  1.6364 -0.6763 -1.8057
  504TMC3    C1 7539   3.439   0.882  17.387  0.2614 -0.1879 -0.1820
  504TMC3    C2 7540   3.437   0.785  17.489  0.2994 -0.1527  0.0359
  504TMC3    C3 7541   3.560   0.751  17.535 -0.8507  0.2501  0.3842
  504TMC3    C4 7542   3.555   0.929  17.331  0.5371 -0.3758 -0.1554
  504TMC3    C5 7543   3.675   0.898  17.389  0.1778  0.3695 -0.6000
  504TMC3    C6 7544   3.680   0.798  17.488 -0.4018  0.6867  0.1403
  504TMC3     C 7545   3.311   0.896  17.318  0.3865  0.6543 -0.3599
  504TMC3     O 7546   3.243   0.796  17.302  0.1182  0.6046 -0.1659
  504TMC3     H 7547   3.338   0.751  17.516  0.4215 -0.0520  0.5950
  504TMC3    H1 7548   3.554   0.997  17.247  0.6042  2.0055  1.7838
  504TMC3    H2 7549   3.778   0.759  17.513 -1.1872 -1.3548  0.0718
  504TMC3    C7 7550   3.799   0.933  17.319 -0.1349 -0.4057 -0.1495
  504TMC3    C8 7551   3.553   0.659  17.644 -0.8238  0.0285 -0.0338
  504TMC3    O1 7552   3.788   0.967  17.201  0.0516  0.0316 -0.0859
  504TMC3    O2 7553   3.459   0.582  17.647  0.2909 -0.1937  0.1663
  505MPD2     C 7554   3.708   0.905   9.432  0.3238  0.0658  1.1279
  505MPD2    C1 7555   3.586   0.877   9.484 -0.3599 -0.3166  0.2514
  505MPD2    C2 7556   3.562   0.925   9.617 -0.4221  0.2279 -0.0249
  505MPD2    C3 7557   3.650   1.002   9.692 -0.8000  0.9126  0.2077
  505MPD2    C4 7558   3.770   1.013   9.644  0.5205  0.0859 -0.2243
  505MPD2    C5 7559   3.787   0.974   9.516  0.3623  0.5712 -0.0034
  505MPD2     H 7560   3.469   0.901   9.666 -0.9855 -1.3116 -1.8491
  505MPD2    H1 7561   3.852   1.067   9.691  0.2157  1.9404 -1.7905
  505MPD2    H2 7562   3.744   0.882   9.332  0.5267  2.2803  0.6947
  505MPD2    H3 7563   3.880   1.012   9.473  2.5003 -0.9060  3.2891
  505MPD2     N 7564   3.636   1.028   9.826  0.1816  0.1383  0.1788
  505MPD2    H5 7565   3.723   1.057   9.870  1.0327 -2.3008  0.0759
  505MPD2    N1 7566   3.490   0.808   9.403 -0.4318 -0.0438  0.2080
  505MPD2    H7 7567   3.516   0.776   9.310 -0.9155  0.9925 -0.2876
  506TMC3    C1 7568   3.305   0.680   9.364 -0.0816  0.7432  0.3248
  506TMC3    C2 7569   3.392   0.579   9.334 -0.4374 -0.3905 -0.3184
  506TMC3    C3 7570   3.345   0.451   9.369  0.0267  0.0354  0.0571
  506TMC3    C4 7571   3.176   0.659   9.416 -0.4023  0.1487 -0.0826
  506TMC3    C5 7572   3.140   0.534   9.454 -0.3771 -0.0609  0.0394
  506TMC3    C6 7573   3.216   0.432   9.421 -0.2900  0.2766 -0.0926
  506TMC3     C 7574   3.360   0.784   9.446  0.2546  0.0492 -0.3689
  506TMC3     O 7575   3.306   0.814   9.553  0.1885 -0.1925 -0.7426
  506TMC3     H 7576   3.495   0.588   9.301 -0.6636 -1.1923 -1.2717
  506TMC3    H1 7577   3.116   0.745   9.442  1.8963  1.2715  1.5243
  506TMC3    H2 7578   3.175   0.332   9.430 -0.1454  0.0988 -1.4361
  506TMC3    C7 7579   3.085   0.513   9.586 -0.2059  0.7497  0.6197
  506TMC3    C8 7580   3.454   0.346   9.399  0.5618 -0.1673  0.4388
  506TMC3    O1 7581   3.012   0.414   9.605  0.4150  0.0553 -0.0743
  506TMC3    O2 7582   3.571   0.381   9.384  0.5367  0.1155  0.3314
  507TMC3    C1 7583   4.229   0.343  13.802 -0.4221 -0.5449 -0.0177
  507TMC3    C2 7584   4.134   0.417  13.742 -0.2673 -0.5811  0.2355
  507TMC3    C3 7585   4.110   0.539  13.799 -0.2546  0.4297  0.9078
  507TMC3    C4 7586   4.304   0.384  13.902  0.4219 -0.1566 -0.1871
  507TMC3    C5 7587   4.279   0.508  13.964  0.8458 -0.2469 -0.4813
  507TMC3    C6 7588   4.180   0.582  13.912 -0.3704 -0.6745  0.5518
  507TMC3     C 7589   4.280   0.245  13.708 -0.0841  0.3302 -0.4814
  507TMC3     O 7590   4.251   0.265  13.591 -0.3672  0.0482 -0.2477
  507TMC3     H 7591   4.079   0.388  13.654 -0.6650  0.5599  0.1049
  507TMC3    H1 7592   4.378   0.322  13.952 -0.6350 -0.3275  1.1637
  507TMC3    H2 7593   4.180   0.685  13.946  0.4008 -0.8532  1.1006
  507TMC3    C7 7594   4.312   0.536  14.101  0.5630  0.3495 -0.0764
  507TMC3    C8 7595   3.986   0.608  13.775  0.2442 -0.0485  0.4411
  507TMC3    O1 7596   4.401   0.474  14.156 -0.4326 -0.0977 -0.3581
  507TMC3    O2 7597   3.939   0.623  13.662  0.2707 -0.3921 -0.5844
  508MPD2     C 7598   4.715   2.981  16.321 -0.5117  0.2510 -0.2553
  508MPD2    C1 7599   0.108   2.945  16.297  0.9683  0.0844  0.2398
  508MPD2    C2 7600   0.157   2.963  16.168 -0.1128 -0.2483 -0.5844
  508MPD2    C3 7601   0.085   3.033  16.071 -0.1924  0.4086  0.5694
  508MPD2    C4 7602   4.697   3.074  16.107 -0.4461  0.3279 -0.4559
  508MPD2    C5 7603   4.643   3.048  16.229  0.2246 -0.3163 -0.2995
  508MPD2     H 7604   0.261   2.936  16.153  0.9739  2.8100  1.6095
  508MPD2    H1 7605   4.639   3.126  16.031 -0.9152 -1.1586 -1.1083
  508MPD2    H2 7606   4.664   2.971  16.416 -1.2434  2.0791 -0.4593
  508MPD2    H3 7607   4.545   3.081  16.261 -0.1526 -0.0445 -1.7556
  508MPD2     N 7608   0.142   3.052  15.945  0.0322 -1.1772  0.8332
  508MPD2    H5 7609   0.230   3.008  15.921  0.1276 -0.1170 -0.8026
  508MPD2    N1 7610   0.186   2.892  16.404  0.5335 -0.2938  0.1295
  508MPD2    H7 7611   0.147   2.887  16.497  1.6528  1.4015  0.6821
  509TMC3    C1 7612   0.242   3.238  15.533 -0.6199  0.8396  1.2842
  509TMC3    C2 7613   0.363   3.296  15.566  0.5774  0.1164  0.0285
  509TMC3    C3 7614   0.397   3.287  15.702  0.1940  0.1844  0.0842
  509TMC3    C4 7615   0.164   3.164  15.628 -0.2622 -0.0555 -0.4108
  509TMC3    C5 7616   0.209   3.167  15.759  0.3102  0.1475  0.2782
  509TMC3    C6 7617   0.325   3.224  15.797  0.0570 -0.0037 -0.0296
  509TMC3     C 7618   0.200   3.225  15.396  0.2644 -0.8522 -0.3076
  509TMC3     O 7619   0.115   3.143  15.364  0.2446  0.0892  0.0893
  509TMC3     H 7620   0.437   3.330  15.494  0.9764 -1.2856 -0.2216
  509TMC3    H1 7621   0.062   3.140  15.600 -0.7519  1.3768  0.1368
  509TMC3    H2 7622   0.339   3.228  15.905  2.5003  0.7596 -0.3725
  509TMC3    C7 7623   0.101   3.149  15.856 -0.1855  0.9923  0.1920
  509TMC3    C8 7624   0.497   3.377  15.755 -0.4758 -0.4146  0.0213
  509TMC3    O1 7625   4.736   3.222  15.856 -0.0074  0.1715  0.0949
  509TMC3    O2 7626   0.552   3.329  15.855 -0.0553 -0.0534 -0.9265
  510MPD2     C 7627   3.282   0.173  14.781  0.0217 -0.1120 -0.3717
  510MPD2    C1 7628   3.260   0.036  14.774 -0.2505 -0.7363 -0.0412
  510MPD2    C2 7629   3.353   4.706  14.702 -0.3005  0.2437 -0.1592
  510MPD2    C3 7630   3.461   0.028  14.649 -0.7007  0.2020 -0.3786
  510MPD2    C4 7631   3.478   0.161  14.648 -0.4733 -0.7687  0.1761
  510MPD2    C5 7632   3.382   0.237  14.712  0.7204  0.1987  0.9561
  510MPD2     H 7633   3.358   4.598  14.708 -0.9949  0.3304  1.8547
  510MPD2    H1 7634   3.567   0.200  14.599 -1.3090 -0.1020 -0.7982
  510MPD2    H2 7635   3.224   0.234  14.850 -0.2910  1.1217 -1.7136
  510MPD2    H3 7636   3.389   0.345  14.712  0.0886  0.2439 -0.1565
  510MPD2     N 7637   3.538   4.669  14.587  0.8795  0.3714 -0.3571
  510MPD2    H5 7638   3.505   4.575  14.604 -0.2957  0.5976 -1.4583
  510MPD2    N1 7639   3.156   4.714  14.849 -0.1708  0.4620 -0.3232
  510MPD2    H7 7640   3.109   0.049  14.903 -1.4648 -0.9935  0.4651
  511TMC3    C1 7641   2.982   4.553  14.894  0.5092  1.0291 -0.1746
  511TMC3    C2 7642   2.939   4.620  15.001  0.3212  0.1585  0.6471
  511TMC3    C3 7643   2.856   4.553  15.090 -0.7382 -0.3021 -0.6930
  511TMC3    C4 7644   2.940   4.424  14.872  0.2760 -0.4979 -0.4683
  511TMC3    C5 7645   2.849   4.366  14.955 -0.2305  0.0748 -0.2377
  511TMC3    C6 7646   2.803   4.432  15.065  0.0245  1.0603 -0.2742
  511TMC3     C 7647   3.103   4.592  14.823 -0.1140 -0.7190 -1.4277
  511TMC3     O 7648   3.152   4.511  14.745 -0.1822  0.3647 -0.0994
  511TMC3     H 7649   2.969   4.723  15.019 -0.2225  0.3103  0.6820
  511TMC3    H1 7650   2.974   4.377  14.780 -1.1352 -1.5173 -0.4661
  511TMC3    H2 7651   2.735   4.386  15.136 -0.5224  0.1626 -1.3879
  511TMC3    C7 7652   2.778   4.245  14.900 -0.2819 -0.1686 -0.3212
  511TMC3    C8 7653   2.837   4.626  15.212  0.0018 -0.8597 -0.5325
  511TMC3    O1 7654   2.818   4.208  14.788  0.2684  0.0310 -0.0100
  511TMC3    O2 7655   2.768   4.730  15.211  0.3709  0.6599  0.5165
  512TMC3    C1 7656   1.734   4.055  13.323 -0.2385  0.0607 -0.1027
  512TMC3    C2 7657   1.836   4.044  13.414  0.1871 -0.3449  0.3031
  512TMC3    C3 7658   1.944   3.963  13.374 -0.3334  0.5757 -0.1200
  512TMC3    C4 7659   1.725   3.983  13.203  0.1958 -0.0339  0.3991
  512TMC3    C5 7660   1.829   3.899  13.174  0.0065  0.4882 -0.2844
  512TMC3    C6 7661   1.938   3.883  13.263  0.2012  0.1351  0.1411
  512TMC3     C 7662   1.628   4.154  13.353  0.1390  0.2036 -0.1205
  512TMC3     O 7663   1.569   4.188  13.249  0.3274 -0.2189 -0.5860
  512TMC3     H 7664   1.834   4.104  13.504  1.6952 -0.6292  0.5382
  512TMC3    H1 7665   1.636   3.987  13.142 -0.1011  2.8241  0.9967
  512TMC3    H2 7666   2.027   3.825  13.241 -0.8081 -1.1514 -0.5848
  512TMC3    C7 7667   1.843   3.834  13.050  0.0523  0.2343  0.8117
  512TMC3    C8 7668   2.077   3.953  13.439  0.6830 -0.4937 -0.2519
  512TMC3    O1 7669   1.787   3.892  12.959 -0.1558 -0.0238  0.0235
  512TMC3    O2 7670   2.146   3.851  13.427 -0.2729 -0.4149  0.1115
  513MPD2     C 7671   3.935   4.233  13.264  0.0733  0.0082  0.2390
  513MPD2    C1 7672   3.964   4.132  13.169  0.0839 -0.3236 -0.7774
  513MPD2    C2 7673   4.067   4.048  13.183  0.0664  0.8375  0.5523
  513MPD2    C3 7674   4.146   4.055  13.297  0.0050 -0.4462  0.4824
  513MPD2    C4 7675   4.118   4.150  13.394 -0.5328  0.3483 -0.1449
  513MPD2    C5 7676   4.015   4.241  13.379 -0.6376  0.8791 -0.4436
  513MPD2     H 7677   4.095   3.971  13.112  0.9353 -0.1331  1.9357
  513MPD2    H1 7678   4.188   4.177  13.473  3.0570 -1.7829 -2.5792
  513MPD2    H2 7679   3.860   4.310  13.251 -1.7028 -1.8286 -0.4120
  513MPD2    H3 7680   3.991   4.320  13.449  0.4457 -0.3408  1.2777
  513MPD2     N 7681   4.261   3.973  13.295  0.9535 -0.0272  0.1098
  513MPD2    H5 7682   4.283   3.923  13.210 -0.9697  0.8789 -0.9411
  513MPD2    N1 7683   3.892   4.127  13.044  0.6406  0.0575  0.0149
  513MPD2    H7 7684   3.821   4.195  13.019 -1.0695 -0.7837  2.5536
  514TMC3    C1 7685   3.806   4.035  12.837 -0.5489  0.1569 -0.9584
  514TMC3    C2 7686   3.793   4.156  12.774 -0.5756 -0.2459  0.3971
  514TMC3    C3 7687   3.786   4.160  12.637 -0.3930  0.4014 -0.6174
  514TMC3    C4 7688   3.806   3.921  12.761 -0.3444  0.1685  0.4799
  514TMC3    C5 7689   3.817   3.933  12.628 -0.2222 -0.5532 -0.8488
  514TMC3    C6 7690   3.796   4.053  12.565  0.2937 -0.4245  0.1361
  514TMC3     C 7691   3.899   4.020  12.951  0.7511 -0.7692 -0.0848
  514TMC3     O 7692   3.949   3.909  12.954  0.0353 -0.7989 -0.3710
  514TMC3     H 7693   3.780   4.251  12.826 -0.1011  0.3773 -0.6034
  514TMC3    H1 7694   3.802   3.826  12.813 -0.2411 -2.2276 -3.8890
  514TMC3    H2 7695   3.837   4.059  12.465 -1.3571  0.0487 -0.5116
  514TMC3    C7 7696   3.928   3.855  12.582 -0.3022  0.5666  0.4490
  514TMC3    C8 7697   3.753   4.286  12.582 -0.4695  0.2487 -0.0669
  514TMC3    O1 7698   3.939   3.836  12.461 -0.7770 -0.3553  0.2317
  514TMC3    O2 7699   3.796   4.373  12.651 -0.0300 -0.6250 -0.1515
  515MPD2     C 7700   1.646   1.446  14.780  0.2799 -0.0710  0.1664
  515MPD2    C1 7701   1.669   1.326  14.727 -0.6769  0.1974  0.5723
  515MPD2    C2 7702   1.786   1.259  14.741 -0.1834  0.4329 -0.4371
  515MPD2    C3 7703   1.885   1.316  14.826  0.6306  0.0114 -0.0602
  515MPD2    C4 7704   1.853   1.434  14.889 -0.0609  0.3398  0.2584
  515MPD2    C5 7705   1.739   1.501  14.865  0.3595  0.6871  0.9127
  515MPD2     H 7706   1.800   1.165  14.689 -2.0125 -0.0889  0.0030
  515MPD2    H1 7707   1.929   1.484  14.948 -1.6471  1.6831  1.1597
  515MPD2    H2 7708   1.554   1.499  14.758  1.0655  1.7067  1.2100
  515MPD2    H3 7709   1.724   1.598  14.913  0.4395  0.7014  0.9102
  515MPD2     N 7710   2.010   1.264  14.856 -0.3446  0.1719 -0.6209
  515MPD2    H5 7711   2.068   1.323  14.915  0.3469 -2.1495  1.0287
  515MPD2    N1 7712   1.582   1.257  14.640 -0.6018 -0.0434  0.0483
  515MPD2    H7 7713   1.608   1.166  14.603  0.7591  0.8771 -1.2654
  516TMC3    C1 7714   1.396   1.202  14.518  0.3254  0.5276 -0.0466
  516TMC3    C2 7715   1.331   1.240  14.411 -0.4763 -0.1963  0.0070
  516TMC3    C3 7716   1.282   1.146  14.321  0.7927  0.5865  0.7425
  516TMC3    C4 7717   1.420   1.071  14.543  0.3718 -0.1489 -0.0041
  516TMC3    C5 7718   1.359   0.981  14.461 -0.4140  0.0937  0.1606
  516TMC3    C6 7719   1.291   1.012  14.344  0.3722  0.4018 -0.7323
  516TMC3     C 7720   1.467   1.311  14.589 -0.0031 -0.0691 -0.1011
  516TMC3     O 7721   1.435   1.430  14.575 -0.1019  0.0375  0.3346
  516TMC3     H 7722   1.322   1.346  14.392 -1.8199 -0.2180  0.5834
  516TMC3    H1 7723   1.454   1.042  14.641  1.2378  0.2502 -0.1888
  516TMC3    H2 7724   1.257   0.936  14.274  0.3587 -1.1144  0.9225
  516TMC3    C7 7725   1.356   0.845  14.512  0.1076 -0.3509 -0.0117
  516TMC3    C8 7726   1.182   1.193  14.226 -0.1391  0.1453 -0.0188
  516TMC3    O1 7727   1.454   0.812  14.578  0.4047  0.3271 -0.4901
  516TMC3    O2 7728   1.073   1.141  14.243  0.3084  0.1125  1.2508
  517MPD2     C 7729   2.110   2.258   0.465  0.1233 -0.1920 -0.0446
  517MPD2    C1 7730   2.072   2.353   0.379 -0.0181  0.5188  0.2188
  517MPD2    C2 7731   2.037   2.486   0.424 -0.4822 -0.1941  0.0808
  517MPD2    C3 7732   2.048   2.516   0.559  0.7490  0.5292  0.2272
  517MPD2    C4 7733   2.093   2.422   0.644 -0.3850 -0.4860 -0.1129
  517MPD2    C5 7734   2.133   2.299   0.595 -0.2224 -0.4010 -0.0704
  517MPD2     H 7735   1.997   2.563   0.359  0.5972 -2.1558 -2.9516
  517MPD2    H1 7736   2.116   2.444   0.748 -2.7550 -0.9371  0.4951
  517MPD2    H2 7737   2.124   2.156   0.431  2.2824 -0.8734  2.8620
  517MPD2    H3 7738   2.162   2.221   0.663  0.3926  0.8349  1.0740
  517MPD2     N 7739   2.013   2.643   0.604  0.8182  0.0605 -0.3565
  517MPD2    H5 7740   2.018   2.651   0.705  0.7087  2.9520 -0.5766
  517MPD2    N1 7741   2.047   2.326   0.240  0.0485  0.3866 -0.2838
  517MPD2    H7 7742   2.012   2.407   0.189 -0.8371  1.6751  2.4078
  518TMC3    C1 7743   2.028   2.210   0.034 -0.0735 -0.4617  0.2671
  518TMC3    C2 7744   1.936   2.126  17.723  0.1228  0.0872  0.1036
  518TMC3    C3 7745   1.953   2.077  17.597  0.2811 -0.6930  0.0739
  518TMC3    C4 7746   2.130   2.267  17.711  0.1933 -0.1754 -0.4646
  518TMC3    C5 7747   2.141   2.214  17.584 -0.5522 -0.8140 -0.6291
  518TMC3    C6 7748   2.054   2.123  17.525  0.2841  0.5052  0.0239
  518TMC3     C 7749   2.045   2.203   0.177  0.3350 -0.0193 -0.4431
  518TMC3     O 7750   2.061   2.091   0.224  0.2143 -0.5293  0.0671
  518TMC3     H 7751   1.873   2.070   0.046 -1.9739  2.0784 -0.2042
  518TMC3    H1 7752   2.203   2.335   0.007  0.3229 -1.9252  2.1083
  518TMC3    H2 7753   2.072   2.086  17.424  2.5011 -1.6879  1.2028
  518TMC3    C7 7754   2.250   2.251  17.506  0.8388 -0.2077  0.1084
  518TMC3    C8 7755   1.886   1.962  17.551  0.1099 -0.3557  0.5407
  518TMC3    O1 7756   2.281   2.369  17.501 -0.4872 -0.2491  0.2257
  518TMC3    O2 7757   1.927   1.906  17.448 -0.1735 -0.0602  0.2769
  519MPD2     C 7758   3.311   0.459  14.361 -0.3623  0.2055  0.1473
  519MPD2    C1 7759   3.289   0.556  14.271  0.2179  0.2691 -0.6392
  519MPD2    C2 7760   3.358   0.565  14.151 -0.3386 -0.3902 -0.0853
  519MPD2    C3 7761   3.449   0.462  14.125 -0.2291 -0.0169  1.3180
  519MPD2    C4 7762   3.480   0.366  14.220 -0.3045 -0.6508 -0.0797
  519MPD2    C5 7763   3.407   0.365  14.339 -0.2460 -0.1369 -0.9933
  519MPD2     H 7764   3.336   0.642  14.077  2.7606 -0.2736 -0.9347
  519MPD2    H1 7765   3.553   0.287  14.202  2.6759  1.2897  3.5529
  519MPD2    H2 7766   3.266   0.450  14.459 -0.4990 -0.8769 -0.0140
  519MPD2    H3 7767   3.432   0.285  14.408  0.3417 -0.7102 -1.8580
  519MPD2     N 7768   3.524   0.446  14.008 -0.2441  0.2210 -0.8604
  519MPD2    H5 7769   3.593   0.372  14.010 -0.3920  0.0778 -1.1699
  519MPD2    N1 7770   3.171   0.639  14.293  0.2438 -0.1802  0.3614
  519MPD2    H7 7771   3.119   0.613  14.376  0.7866  0.9273  1.0486
  520TMC3    C1 7772   3.587   0.483  13.787  1.2829  0.1806 -0.5860
  520TMC3    C2 7773   3.546   0.513  13.661 -0.5884  0.0021  0.4984
  520TMC3    C3 7774   3.629   0.477  13.561  0.6017  0.0827 -0.4888
  520TMC3    C4 7775   3.690   0.403  13.805  0.2391  0.0271  0.2282
  520TMC3    C5 7776   3.773   0.364  13.705 -0.2979  0.4411  0.1546
  520TMC3    C6 7777   3.742   0.400  13.576  0.3615 -0.1085 -0.1205
  520TMC3     C 7778   3.502   0.522  13.899  0.3944  0.3299  0.0572
  520TMC3     O 7779   3.410   0.599  13.875 -0.0750 -0.2780  0.5409
  520TMC3     H 7780   3.484   0.601  13.656  2.2254  2.0183  0.9205
  520TMC3    H1 7781   3.724   0.379  13.905 -1.4555  1.4271  1.1336
  520TMC3    H2 7782   3.802   0.375  13.490 -0.5277  0.3452 -0.8777
  520TMC3    C7 7783   3.851   0.244  13.736  1.2436 -0.9721  0.1326
  520TMC3    C8 7784   3.572   0.487  13.434  0.4671 -0.6125  0.4049
  520TMC3    O1 7785   3.871   0.227  13.853  0.3415  0.0807  0.3846
  520TMC3    O2 7786   3.644   0.489  13.339  0.0309  0.3080  0.4037
  521MPD2     C 7787   4.079   3.353   0.325  0.6314 -0.3337 -0.1269
  521MPD2    C1 7788   3.997   3.307   0.220  0.2333 -0.7269 -0.2767
  521MPD2    C2 7789   4.063   3.244   0.112 -0.4863 -0.5321  0.1404
  521MPD2    C3 7790   4.200   3.211   0.122 -0.3558 -0.0002  0.6344
  521MPD2    C4 7791   4.269   3.245   0.235  0.1145  0.0187  0.4880
  521MPD2    C5 7792   4.211   3.315   0.338  0.4881 -0.9137  0.1770
  521MPD2     H 7793   4.010   3.214   0.022  1.6865 -1.6763 -0.7642
  521MPD2    H1 7794   4.376   3.227   0.238 -0.2293 -2.3092 -1.4516
  521MPD2    H2 7795   4.039   3.397   0.416  2.3936  0.7689  0.1153
  521MPD2    H3 7796   4.266   3.350   0.425 -2.9380  1.4350  1.3981
  521MPD2     N 7797   4.263   3.152   0.007  0.4464 -0.0574 -0.5816
  521MPD2    H5 7798   4.198   3.115  17.684 -1.4784 -1.7374  2.1263
  521MPD2    N1 7799   3.861   3.336   0.225 -0.2082  0.1264 -0.1146
  521MPD2    H7 7800   3.833   3.391   0.306  0.5277 -0.3569  0.4718
  522TMC3    C1 7801   4.435   3.089  17.603  0.2992  0.1521 -0.3590
  522TMC3    C2 7802   4.559   3.032  17.589  0.3246 -0.2975  0.2340
  522TMC3    C3 7803   4.596   2.994  17.458 -0.4352 -0.6072  0.1468
  522TMC3    C4 7804   4.349   3.112  17.494 -0.9703 -0.5840 -0.1788
  522TMC3    C5 7805   4.383   3.057  17.374 -0.0585 -0.1347 -0.4032
  522TMC3    C6 7806   4.505   3.002  17.355 -0.2785 -0.0027  0.2233
  522TMC3     C 7807   4.396   3.133  17.740 -0.5007 -0.0083  0.8710
  522TMC3     O 7808   4.489   3.143   0.073 -0.3303  0.5736  0.1435
  522TMC3     H 7809   4.630   3.013  17.669  0.1609  0.8565  0.6597
  522TMC3    H1 7810   4.248   3.150  17.505 -1.5187 -2.2657  0.5696
  522TMC3    H2 7811   4.527   2.958  17.259 -0.1684  2.2891 -0.8039
  522TMC3    C7 7812   4.314   3.094  17.253 -0.2005 -0.2006 -0.3332
  522TMC3    C8 7813   0.005   2.984  17.438 -0.3333 -0.3847 -0.0652
  522TMC3    O1 7814   4.308   3.008  17.166  0.2784  0.0027  0.1872
  522TMC3    O2 7815   0.078   3.013  17.527 -0.1145 -0.2384 -0.0771
  523MPD2     C 7816   1.353   4.005  10.304 -0.2927  0.4829  0.1368
  523MPD2    C1 7817   1.327   3.890  10.231  0.3847 -0.0733  0.3705
  523MPD2    C2 7818   1.263   3.904  10.107  0.3614 -0.1792  0.2913
  523MPD2    C3 7819   1.212   4.025  10.062  0.0156  0.0903  0.0187
  523MPD2    C4 7820   1.233   4.138  10.144 -0.2343  0.2881  0.3767
  523MPD2    C5 7821   1.314   4.129  10.257  0.3242  0.0585  0.3062
  523MPD2     H 7822   1.234   3.816  10.051  1.1310  0.1712 -0.6594
  523MPD2    H1 7823   1.202   4.237  10.113 -2.6561  0.2260  2.6608
  523MPD2    H2 7824   1.396   3.995  10.403 -0.4447  1.2534  0.2776
  523MPD2    H3 7825   1.339   4.214  10.318 -2.2040  1.7996 -1.1091
  523MPD2     N 7826   1.129   4.039   9.941  0.3069  0.0700 -0.2534
  523MPD2    H5 7827   1.092   4.133   9.927 -0.7376 -0.2969  0.0492
  523MPD2    N1 7828   1.357   3.761  10.285  0.1021 -0.8191 -0.1468
  523MPD2    H7 7829   1.390   3.754  10.381  2.1500  2.7618 -0.5862
  524TMC3    C1 7830   1.005   3.968   9.753 -0.1749 -0.0222 -0.0402
  524TMC3    C2 7831   0.973   3.866   9.678 -0.3911 -0.0489  0.2288
  524TMC3    C3 7832   0.855   3.879   9.603  0.3318 -0.1371 -0.0019
  524TMC3    C4 7833   0.926   4.078   9.770  0.4549  0.5074  0.8457
  524TMC3    C5 7834   0.813   4.089   9.694 -0.6606  0.8673  0.4455
  524TMC3    C6 7835   0.779   3.985   9.609 -0.1430  0.5213 -0.0209
  524TMC3     C 7836   1.094   3.931   9.861  0.0056 -0.1495 -0.5383
  524TMC3     O 7837   1.130   3.817   9.859 -0.2835 -0.7854 -0.4905
  524TMC3     H 7838   1.043   3.794   9.639 -2.3383 -2.0843  0.5229
  524TMC3    H1 7839   0.954   4.169   9.820  2.0406  1.7982 -2.4272
  524TMC3    H2 7840   0.693   3.997   9.543 -0.8349 -1.9562  0.4041
  524TMC3    C7 7841   0.724   4.210   9.712 -0.3969 -0.2188 -0.6058
  524TMC3    C8 7842   0.833   3.779   9.498  0.4115  0.5862 -0.0085
  524TMC3    O1 7843   0.757   4.289   9.802  0.5777 -0.3588 -0.0569
  524TMC3    O2 7844   0.750   3.808   9.410 -0.1653 -0.1575  0.7900
  525MPD2     C 7845   4.681   0.316  13.925 -0.2454  0.5034 -0.8965
  525MPD2    C1 7846   4.736   0.376  14.038  0.0326  0.2087 -0.0393
  525MPD2    C2 7847   0.017   0.515  14.035  0.1289 -0.3190  0.1495
  525MPD2    C3 7848   4.711   0.596  13.933  0.4476  0.0109 -0.2114
  525MPD2    C4 7849   4.647   0.529  13.824  0.0190 -0.8184  0.5110
  525MPD2    C5 7850   4.632   0.389  13.824 -0.0576  0.2208  0.2117
  525MPD2     H 7851   0.053   0.560  14.127 -1.4159  1.0074  0.1166
  525MPD2    H1 7852   4.605   0.591  13.746  3.9558  1.2473  0.0298
  525MPD2    H2 7853   4.666   0.209  13.914 -1.3561  0.4667  0.9637
  525MPD2    H3 7854   4.580   0.338  13.744 -2.5187 -0.7366  2.4115
  525MPD2     N 7855   4.713   0.736  13.945  0.0442  0.1748  0.2805
  525MPD2    H5 7856   4.653   0.792  13.885  0.0784  0.1075  0.1826
  525MPD2    N1 7857   0.032   0.301  14.154  0.1131  0.0416  0.2782
  525MPD2    H7 7858   0.079   0.354  14.227  0.5204 -0.5846  0.4761
  526TMC3    C1 7859   0.010   0.138  14.320 -0.4293  0.2495  0.1516
  526TMC3    C2 7860   4.669   0.036  14.366  0.0753  0.3196 -0.3233
  526TMC3    C3 7861   4.709   4.702  14.469 -0.8806  0.2724  0.1435
  526TMC3    C4 7862   0.124   0.169  14.391  0.1043 -0.9393 -0.2535
  526TMC3    C5 7863   0.158   0.097  14.501  0.2632  0.3004 -0.6369
  526TMC3    C6 7864   0.090   4.720  14.533 -0.5039 -1.0717  0.1241
  526TMC3     C 7865   4.720   0.178  14.186  0.1093  0.3762 -0.1525
  526TMC3     O 7866   4.651   0.101  14.119  0.5909 -0.6125 -0.0633
  526TMC3     H 7867   4.571   0.030  14.320 -1.2428  1.8014  2.3255
  526TMC3    H1 7868   0.194   0.250  14.371  1.4173 -1.4985  2.1407
  526TMC3    H2 7869   0.106   4.656  14.619 -0.8294  1.1487  1.8436
  526TMC3    C7 7870   0.285   0.135  14.558 -0.1273 -0.5016  0.0095
  526TMC3    C8 7871   4.614   4.640  14.553 -0.1390  0.3488 -0.5530
  526TMC3    O1 7872   0.313   0.255  14.558  0.1039  0.2068  0.1464
  526TMC3    O2 7873   4.511   4.600  14.495 -0.1315  0.3518  0.0148
  527MPD2     C 7874   2.584   3.125   1.175 -0.7969  0.2025 -0.0273
  527MPD2    C1 7875   2.599   3.176   1.046 -0.6335 -0.0237 -0.4255
  527MPD2    C2 7876   2.705   3.138   0.967  0.4746  0.0958  0.3135
  527MPD2    C3 7877   2.805   3.054   1.023 -0.4669 -0.3058 -0.1473
  527MPD2    C4 7878   2.792   3.008   1.156  0.0072 -0.2893 -0.0087
  527MPD2    C5 7879   2.674   3.039   1.225  0.4954  0.0674  0.3740
  527MPD2     H 7880   2.728   3.169   0.866  0.6763  0.4834  0.4792
  527MPD2    H1 7881   2.843   2.925   1.204  2.6419  2.0668  1.2315
  527MPD2    H2 7882   2.501   3.155   1.238 -0.6804  0.1805  0.1343
  527MPD2    H3 7883   2.656   2.998   1.324 -0.0768  0.6067  0.4882
  527MPD2     N 7884   2.920   3.030   0.941 -0.0526  0.9922 -0.0223
  527MPD2    H5 7885   2.914   3.056   0.844  3.1460  0.5656 -0.3390
  527MPD2    N1 7886   2.510   3.275   0.994  0.5147 -0.3257 -0.2355
  527MPD2    H7 7887   2.527   3.307   0.899  0.7900 -0.8668 -0.3718
  528TMC3    C1 7888   2.317   3.416   0.971 -0.8269 -0.0104 -0.3012
  528TMC3    C2 7889   2.396   3.499   0.896 -0.4411 -0.5326 -0.0354
  528TMC3    C3 7890   2.363   3.631   0.877 -0.7433 -0.2885 -0.2193
  528TMC3    C4 7891   2.205   3.464   1.025 -0.4522  0.6620  0.9499
  528TMC3    C5 7892   2.179   3.598   1.012  0.1998  0.1667 -0.3547
  528TMC3    C6 7893   2.257   3.680   0.939  0.0089 -0.0636 -0.3021
  528TMC3     C 7894   2.402   3.330   1.061 -0.3623  0.0252  0.0139
  528TMC3     O 7895   2.380   3.338   1.179  0.0842  0.3090  0.7670
  528TMC3     H 7896   2.484   3.456   0.850 -0.4748 -1.6091  0.9086
  528TMC3    H1 7897   2.133   3.410   1.086 -0.2342 -0.2664  0.3885
  528TMC3    H2 7898   2.231   3.785   0.925  0.5295  0.3086  1.5716
  528TMC3    C7 7899   2.072   3.668   1.084  0.9294 -0.8161 -0.4348
  528TMC3    C8 7900   2.426   3.697   0.761 -0.1337 -0.2803  0.1014
  528TMC3    O1 7901   2.071   3.790   1.089 -0.0537 -0.5910 -0.2247
  528TMC3    O2 7902   2.533   3.647   0.732  0.1348  0.0135 -0.1383
  529MPD2     C 7903   0.932   1.380   1.243  0.1465 -0.0531  0.3203
  529MPD2    C1 7904   0.977   1.293   1.150 -0.1458  0.4253  0.0338
  529MPD2    C2 7905   0.947   1.304   1.014  0.0569  0.1246 -0.3761
  529MPD2    C3 7906   0.871   1.417   0.975  0.0249 -0.1412 -0.3919
  529MPD2    C4 7907   0.828   1.506   1.074  1.0817 -0.6946  0.1231
  529MPD2    C5 7908   0.863   1.487   1.201  0.5599  0.1577 -0.6571
  529MPD2     H 7909   0.987   1.234   0.943 -2.6745 -0.8596 -0.9575
  529MPD2    H1 7910   0.762   1.587   1.047  1.2151 -0.9976 -1.1568
  529MPD2    H2 7911   0.954   1.375   1.349  1.1658  0.3138  0.1222
  529MPD2    H3 7912   0.832   1.566   1.269 -1.4397 -0.8771 -0.3753
  529MPD2     N 7913   0.860   1.464   0.843  0.2733 -0.0180  0.1259
  529MPD2    H5 7914   0.836   1.563   0.840  1.4096  0.1175 -4.1760
  529MPD2    N1 7915   1.059   1.179   1.178  0.6303  0.5640  0.4683
  529MPD2    H7 7916   1.065   1.118   1.097  0.4652 -2.8614  3.0331
  530TMC3    C1 7917   1.219   1.034   1.292  0.4953  0.2412  0.2177
  530TMC3    C2 7918   1.332   1.031   1.369  0.0820 -0.2429  0.6296
  530TMC3    C3 7919   1.394   0.902   1.382  0.1472  0.5221  0.1894
  530TMC3    C4 7920   1.171   0.921   1.237 -0.2381 -0.2039  1.0139
  530TMC3    C5 7921   1.231   0.800   1.264 -0.0002  0.0228 -0.5677
  530TMC3    C6 7922   1.341   0.784   1.344 -0.3155 -0.3812 -0.3505
  530TMC3     C 7923   1.141   1.161   1.290 -0.3202  0.1851  0.2159
  530TMC3     O 7924   1.170   1.247   1.376  0.4243  0.0276 -0.4486
  530TMC3     H 7925   1.380   1.124   1.398 -2.8334  2.4934 -3.2995
  530TMC3    H1 7926   1.085   0.927   1.171 -0.2389  0.1470  1.0479
  530TMC3    H2 7927   1.383   0.685   1.355 -0.0527 -0.0951  1.2259
  530TMC3    C7 7928   1.163   0.683   1.236 -0.5059  0.0755 -0.7702
  530TMC3    C8 7929   1.525   0.912   1.434  0.1035  0.2261 -0.1478
  530TMC3    O1 7930   1.228   0.585   1.203  0.2526 -0.1735 -0.2220
  530TMC3    O2 7931   1.548   1.001   1.516 -0.5242  0.3589  0.4262
  531MPD2     C 7932   4.403   3.677  12.674 -0.5313  0.2338  0.8879
  531MPD2    C1 7933   4.351   3.717  12.794  0.0999 -0.0784  0.0395
  531MPD2    C2 7934   4.221   3.762  12.783  0.2148  0.0360  0.6127
  531MPD2    C3 7935   4.142   3.765  12.666 -0.1619 -0.2332  0.2407
  531MPD2    C4 7936   4.197   3.734  12.549  0.8187  1.1240  0.1654
  531MPD2    C5 7937   4.326   3.692  12.559  0.1248 -0.4034 -0.0810
  531MPD2     H 7938   4.162   3.780  12.872 -0.1256 -1.4483  0.6970
  531MPD2    H1 7939   4.143   3.723  12.456 -0.8936  0.1873  1.2768
  531MPD2    H2 7940   4.506   3.647  12.663 -0.2797  1.9280 -1.5117
  531MPD2    H3 7941   4.376   3.664  12.466 -2.4672 -0.2462 -1.5233
  531MPD2     N 7942   4.020   3.829  12.683 -0.1235 -0.1419 -0.0386
  531MPD2    H5 7943   3.998   3.847  12.780 -0.7626 -1.1254 -0.0031
  531MPD2    N1 7944   4.432   3.723  12.909 -0.8182 -0.1071 -0.4640
  531MPD2    H7 7945   4.532   3.704  12.901 -0.3678  1.3089  2.0538
  532TMC3    C1 7946   4.505   3.791  13.119  0.1319  0.3564 -0.0844
  532TMC3    C2 7947   4.472   3.906  13.188  0.5253  0.3453 -0.2037
  532TMC3    C3 7948   4.472   3.904  13.328  0.4419 -0.3487  0.3802
  532TMC3    C4 7949   4.532   3.680  13.185  0.4988 -0.4855  0.1021
  532TMC3    C5 7950   4.545   3.682  13.318 -0.5292 -0.1311 -0.3547
  532TMC3    C6 7951   4.508   3.794  13.390 -0.5282  0.4817  0.1638
  532TMC3     C 7952   4.397   3.775  13.026 -0.0992  0.0267 -0.6481
  532TMC3     O 7953   4.291   3.811  13.069  0.2241  0.0553 -0.0381
  532TMC3     H 7954   4.442   3.991  13.127  0.8530  1.0139  0.5738
  532TMC3    H1 7955   4.574   3.600  13.125  1.1108  0.2206 -0.4130
  532TMC3    H2 7956   4.506   3.796  13.498 -0.4964 -0.9717  0.1918
  532TMC3    C7 7957   4.615   3.579  13.390  0.9385  0.8258  0.4559
  532TMC3    C8 7958   4.364   3.983  13.383  0.7214 -0.0068 -0.4750
  532TMC3    O1 7959   4.661   3.628  13.491  0.4211 -0.2394  0.1681
  532TMC3    O2 7960   4.367   4.025  13.499 -0.0111  0.3207  0.3965
  533TMC3    C1 7961   0.032   0.935  14.065  0.1414 -0.9459  0.0990
  533TMC3    C2 7962   0.139   1.014  14.103  0.6256 -0.2653  0.0642
  533TMC3    C3 7963   0.106   1.110  14.194 -0.1252 -0.4747  0.3877
  533TMC3    C4 7964   4.651   0.944  14.125 -0.2186  0.1165  0.0019
  533TMC3    C5 7965   4.631   1.042  14.212 -0.3863  0.7673 -0.1089
  533TMC3    C6 7966   4.717   1.132  14.245 -0.3284  0.1690 -1.4668
  533TMC3     C 7967   0.065   0.800  14.026  0.3324 -0.2490  0.2414
  533TMC3     O 7968   0.170   0.758  14.074  0.0448  0.2358 -0.2169
  533TMC3     H 7969   0.237   0.992  14.063 -0.0558 -1.4826 -0.9037
  533TMC3    H1 7970   4.572   0.875  14.096  0.7780 -1.2474  0.5450
  533TMC3    H2 7971   4.707   1.219  14.308  1.2596 -0.7337  0.0391
  533TMC3    C7 7972   4.543   0.996  14.323  0.0588  0.3494  0.0017
  533TMC3    C8 7973   0.211   1.205  14.248 -0.0784  0.2351  0.8051
  533TMC3    O1 7974   4.514   0.881  14.336 -0.2289 -0.0646 -0.0585
  533TMC3    O2 7975   0.178   1.294  14.329 -0.1073  0.5221 -0.3763
  534MPD2     C 7976   3.340   1.844   0.495  0.0340 -0.3475 -0.3445
  534MPD2    C1 7977   3.293   1.953   0.567  0.3352  0.1765 -0.1398
  534MPD2    C2 7978   3.161   1.950   0.616 -0.7596 -0.6573  0.4445
  534MPD2    C3 7979   3.085   1.840   0.591 -0.7136  0.8880 -0.4036
  534MPD2    C4 7980   3.140   1.735   0.515  0.1722  0.3551 -0.0986
  534MPD2    C5 7981   3.266   1.736   0.475  0.1263  0.3767 -0.2614
  534MPD2     H 7982   3.129   2.039   0.669  1.5782 -0.7365  2.0080
  534MPD2    H1 7983   3.062   1.662   0.497 -3.1323  2.6763  4.6722
  534MPD2    H2 7984   3.436   1.846   0.444  0.8807  0.4844  1.2899
  534MPD2    H3 7985   3.298   1.658   0.407 -2.1731  0.1817 -1.1091
  534MPD2     N 7986   2.954   1.828   0.642  0.5403  0.0516 -0.7389
  534MPD2    H5 7987   2.906   1.741   0.624  1.5004 -1.0393  2.0048
  534MPD2    N1 7988   3.366   2.068   0.579  0.1300 -0.3334 -0.1430
  534MPD2    H7 7989   3.320   2.149   0.619 -1.6586 -0.8005 -1.2500
  535TMC3    C1 7990   2.757   1.873   0.758  0.0269  0.4859  0.4670
  535TMC3    C2 7991   2.733   1.744   0.786  0.2058  0.5649 -0.7255
  535TMC3    C3 7992   2.596   1.712   0.775  0.2392 -0.1955  0.4832
  535TMC3    C4 7993   2.662   1.967   0.737 -0.6715 -0.3516 -0.0673
  535TMC3    C5 7994   2.529   1.930   0.731 -0.2486  0.1067  0.0871
  535TMC3    C6 7995   2.496   1.798   0.745  0.2691 -0.4112  0.2635
  535TMC3     C 7996   2.895   1.918   0.727  0.1921 -0.6296  0.6265
  535TMC3     O 7997   2.934   2.024   0.769  0.4372 -0.4839  0.3166
  535TMC3     H 7998   2.815   1.675   0.803 -0.8515  0.0808  2.3682
  535TMC3    H1 7999   2.694   2.069   0.717 -2.6077  0.7602  2.5096
  535TMC3    H2 8000   2.392   1.767   0.739  0.0023  0.2119  1.7585
  535TMC3    C7 8001   2.454   2.013   0.635  0.3744 -0.5492  0.9201
  535TMC3    C8 8002   2.562   1.572   0.804 -0.0896  0.0283 -0.0746
  535TMC3    O1 8003   2.504   2.126   0.625 -0.1578  0.1109  0.3338
  535TMC3    O2 8004   2.445   1.544   0.817  0.3828 -0.8652  0.1110
  536MPD2     C 8005   1.608   0.166  16.101  0.0541 -0.0019 -0.4390
  536MPD2    C1 8006   1.493   0.111  16.146  0.3663 -0.1986 -0.1733
  536MPD2    C2 8007   1.377   0.139  16.076 -0.4618 -0.3091 -0.1967
  536MPD2    C3 8008   1.381   0.210  15.955 -0.4892  0.8136  0.3135
  536MPD2    C4 8009   1.499   0.273  15.921  0.2023 -0.8399  0.1629
  536MPD2    C5 8010   1.607   0.247  15.994 -0.2730  0.3101  0.1625
  536MPD2     H 8011   1.283   0.102  16.115  0.7210 -1.6736  1.3630
  536MPD2    H1 8012   1.499   0.342  15.838 -1.3856 -0.1721  0.7065
  536MPD2    H2 8013   1.702   0.149  16.152  0.3092 -4.1252 -2.2362
  536MPD2    H3 8014   1.704   0.283  15.961 -0.7836  1.0262 -0.5328
  536MPD2     N 8015   1.269   0.231  15.869 -0.1088  0.4664 -0.3627
  536MPD2    H5 8016   1.287   0.304  15.801 -0.5720  0.7308 -0.1980
  536MPD2    N1 8017   1.498   0.043  16.270 -0.4770 -0.3038 -0.2824
  536MPD2    H7 8018   1.586   0.047  16.321  0.5571  0.4807 -2.1301
  537TMC3    C1 8019   1.429   4.641  16.448  0.1142 -0.0832 -0.0669
  537TMC3    C2 8020   1.542   4.670  16.519  0.2576  0.5448  0.2636
  537TMC3    C3 8021   1.574   4.589  16.627 -0.3033 -0.1638  0.4900
  537TMC3    C4 8022   1.336   4.544  16.487 -0.5083  0.6766  0.5143
  537TMC3    C5 8023   1.365   4.474  16.600  0.9259  0.2611  0.1715
  537TMC3    C6 8024   1.486   4.496  16.668 -0.0912 -0.1478 -0.0576
  537TMC3     C 8025   1.395   4.706  16.322 -0.4980  0.5292  0.2965
  537TMC3     O 8026   1.290   4.681  16.262  0.2074 -0.4941 -0.0900
  537TMC3     H 8027   1.603   0.017  16.490 -1.4599  2.5319  2.3719
  537TMC3    H1 8028   1.239   4.538  16.439  0.1104  2.4494 -0.9424
  537TMC3    H2 8029   1.512   4.450  16.762 -2.3166  0.0508  0.6434
  537TMC3    C7 8030   1.250   4.403  16.653  0.0690 -0.5570 -0.4096
  537TMC3    C8 8031   1.676   4.645  16.719  0.5365  0.7871 -0.0934
  537TMC3    O1 8032   1.138   4.423  16.604  0.6630 -0.1415  0.5558
  537TMC3    O2 8033   1.658   4.637  16.838 -0.1522  0.0214 -0.2189
  538TMC3    C1 8034   2.299   3.745  11.319  0.3537  0.0750 -0.0941
  538TMC3    C2 8035   2.379   3.629  11.300 -0.8009 -0.2478 -0.2287
  538TMC3    C3 8036   2.364   3.565  11.178  0.0697 -0.1199 -0.5821
  538TMC3    C4 8037   2.220   3.799  11.220 -0.0285 -0.1948 -0.0575
  538TMC3    C5 8038   2.210   3.723  11.107  0.0029  0.0041 -0.1680
  538TMC3    C6 8039   2.278   3.609  11.083  0.0571  0.2239 -0.1023
  538TMC3     C 8040   2.315   3.829  11.431  0.0142  0.3898  0.3041
  538TMC3     O 8041   2.306   3.949  11.413  0.2333 -0.6960  0.4274
  538TMC3     H 8042   2.449   3.589  11.373 -1.9198 -0.6871  0.6130
  538TMC3    H1 8043   2.160   3.885  11.246  1.8429  1.4704 -1.2383
  538TMC3    H2 8044   2.286   3.559  10.987 -0.2561  1.5896 -0.8420
  538TMC3    C7 8045   2.092   3.718  11.025 -0.0269  0.3165 -0.1325
  538TMC3    C8 8046   2.419   3.432  11.167  0.3201 -0.7056 -0.0267
  538TMC3    O1 8047   2.041   3.613  10.994  0.2266 -0.3003 -0.2202
  538TMC3    O2 8048   2.409   3.359  11.265  0.1011  0.7964 -0.4457
  539MPD2     C 8049   2.036   2.818  11.384 -0.6091 -0.2144  0.4659
  539MPD2    C1 8050   1.959   2.706  11.349 -0.4241  0.6005 -0.1232
  539MPD2    C2 8051   1.832   2.727  11.306 -0.0180  0.6111 -0.8749
  539MPD2    C3 8052   1.778   2.859  11.296 -0.1658 -0.6402  0.0212
  539MPD2    C4 8053   1.863   2.966  11.329  0.2316 -0.5582 -0.1423
  539MPD2    C5 8054   1.988   2.949  11.373 -0.2189  0.0326  0.0000
  539MPD2     H 8055   1.773   2.639  11.285  0.0390  0.6163 -1.0598
  539MPD2    H1 8056   1.822   3.066  11.331 -1.3574 -1.2024 -0.1743
  539MPD2    H2 8057   2.136   2.801  11.422 -0.9162 -2.1051  0.4331
  539MPD2    H3 8058   2.048   3.036  11.397 -0.7837  1.1498 -2.5574
  539MPD2     N 8059   1.639   2.886  11.261 -0.8704 -0.5408 -0.5549
  539MPD2    H5 8060   1.608   2.983  11.255 -0.9474 -0.5073  0.3550
  539MPD2    N1 8061   2.008   2.573  11.364  0.3165  0.3921 -0.6433
  539MPD2    H7 8062   1.950   2.495  11.334 -1.2426  1.0205  0.7094
  540TMC3    C1 8063   1.414   2.849  11.255 -0.5604 -0.2591  0.5094
  540TMC3    C2 8064   1.367   2.905  11.137  0.1984 -0.4830 -0.4508
  540TMC3    C3 8065   1.232   2.913  11.120  0.4263 -0.2390 -0.5083
  540TMC3    C4 8066   1.328   2.790  11.344  0.2726 -0.0759  0.4705
  540TMC3    C5 8067   1.194   2.810  11.322 -0.2043  0.3977 -0.0422
  540TMC3    C6 8068   1.143   2.875  11.214 -0.1757  0.1174 -0.4776
  540TMC3     C 8069   1.548   2.785  11.247 -1.1786  0.2284  0.1635
  540TMC3     O 8070   1.555   2.667  11.279  0.2018  0.3387 -0.1690
  540TMC3     H 8071   1.437   2.946  11.065  0.3090 -2.9029 -1.7375
  540TMC3    H1 8072   1.370   2.763  11.440  3.2932 -0.6526 -0.9801
  540TMC3    H2 8073   1.036   2.866  11.202 -0.5866 -0.5637  3.9051
  540TMC3    C7 8074   1.102   2.776  11.425 -0.3193  0.0315  0.2523
  540TMC3    C8 8075   1.173   2.907  10.989  0.2016 -0.5115 -0.3168
  540TMC3    O1 8076   0.989   2.827  11.428 -0.4187  0.0450  0.0535
  540TMC3    O2 8077   1.050   2.917  10.997  0.0572  0.2100  0.2461
  541MPD2     C 8078   0.005   4.015  13.467 -0.2160 -0.5895 -0.3475
  541MPD2    C1 8079   0.074   3.959  13.364 -0.1560  0.5379  0.2680
  541MPD2    C2 8080   0.078   4.038  13.246 -0.2741 -0.0688  0.4518
  541MPD2    C3 8081   0.016   4.159  13.233 -1.1231 -0.5659 -0.0976
  541MPD2    C4 8082   4.690   4.213  13.339 -0.5482  0.1162 -0.0366
  541MPD2    C5 8083   4.681   4.138  13.453  0.0737  0.0003 -0.3020
  541MPD2     H 8084   0.123   3.988  13.162 -0.4836  2.5844 -1.2352
  541MPD2    H1 8085   4.651   4.314  13.334 -0.6646  0.0107 -1.2377
  541MPD2    H2 8086   4.734   3.960  13.561 -1.2196 -1.0607 -0.7160
  541MPD2    H3 8087   4.638   4.187  13.540 -0.0617  0.0332 -0.3883
  541MPD2     N 8088   0.005   4.222  13.112 -0.2484  0.1493 -0.1131
  541MPD2    H5 8089   4.674   4.296  13.100 -0.8623 -0.2352  0.9357
  541MPD2    N1 8090   0.124   3.828  13.375  0.1442  0.0341 -0.4761
  541MPD2    H7 8091   0.119   3.780  13.465  2.9923  1.0362  0.2141
  542TMC3    C1 8092   0.042   4.292  12.884 -0.6208  0.2084  0.4502
  542TMC3    C2 8093   0.099   4.263  12.764 -0.1861 -0.2256 -0.2503
  542TMC3    C3 8094   0.059   4.336  12.650 -1.0112  0.6957 -0.0560
  542TMC3    C4 8095   4.691   4.393  12.903  0.3263  0.5645  0.5240
  542TMC3    C5 8096   4.651   4.460  12.789 -0.3266  0.1106 -0.2101
  542TMC3    C6 8097   4.704   4.432  12.661  0.1226 -0.2759  0.7140
  542TMC3     C 8098   0.079   4.215  12.998 -0.0819  0.7799 -0.2006
  542TMC3     O 8099   0.173   4.131  12.980  0.2826 -0.1574 -0.1822
  542TMC3     H 8100   0.172   4.185  12.748 -0.2502 -0.3235 -0.0580
  542TMC3    H1 8101   4.647   4.417  12.999  0.9192 -2.1127  1.4451
  542TMC3    H2 8102   4.669   4.487  12.574 -1.8323 -1.2680  0.8503
  542TMC3    C7 8103   4.539   4.549  12.808 -0.0059  1.1039  0.1015
  542TMC3    C8 8104   0.089   4.290  12.509  0.4336 -0.5414 -0.6252
  542TMC3    O1 8105   4.523   4.609  12.914 -0.0128 -0.3456  0.0101
  542TMC3    O2 8106   0.029   4.345  12.416 -0.4126  0.0070  0.3080
  543TMC3    C1 8107   4.711   0.927  17.218 -0.7341  0.2858  0.2467
  543TMC3    C2 8108   4.675   0.806  17.256  0.5199 -0.9590 -0.4011
  543TMC3    C3 8109   4.733   0.761  17.370 -0.5510 -0.5382 -0.3208
  543TMC3    C4 8110   0.052   1.007  17.298 -0.3263 -0.0558  0.1297
  543TMC3    C5 8111   0.097   0.957  17.421 -0.4122 -0.9910  0.5519
  543TMC3    C6 8112   0.071   0.830  17.459 -0.5119  0.8598 -0.4582
  543TMC3     C 8113   0.036   0.927  17.090 -0.3171  0.1504  0.3195
  543TMC3     O 8114   0.088   0.824  17.050 -0.3929  0.5290  0.5525
  543TMC3     H 8115   4.619   0.742  17.188  0.7684 -0.5790 -0.9605
  543TMC3    H1 8116   0.066   1.113  17.279 -0.3771 -0.4156 -1.9583
  543TMC3    H2 8117   0.121   0.792  17.547 -1.4886  0.0122 -0.2635
  543TMC3    C7 8118   0.180   1.048  17.496  1.2574  0.1755  0.1121
  543TMC3    C8 8119   0.024   0.617  17.358  0.3140  0.0034  0.4161
  543TMC3    O1 8120   0.199   1.018  17.613  0.0459 -0.0928  0.9837
  543TMC3    O2 8121   0.012   0.561  17.251 -0.4073 -0.5095 -0.4392
  544MPD2     C 8122   0.163   0.156  17.546  0.2865 -0.1276  0.1382
  544MPD2    C1 8123   0.145   0.186  17.413 -0.2154 -1.6103 -0.3187
  544MPD2    C2 8124   0.129   0.319  17.384 -0.2973  0.1670 -0.6354
  544MPD2    C3 8125   0.108   0.416  17.484  0.2622 -0.4869 -0.0417
  544MPD2    C4 8126   0.131   0.376  17.612  0.2195  0.4146  0.0292
  544MPD2    C5 8127   0.146   0.248  17.644  0.7010  0.3943 -0.2213
  544MPD2     H 8128   0.109   0.347  17.281  1.6112  2.3615 -0.4083
  544MPD2    H1 8129   0.109   0.445  17.693  0.9747  1.2075 -0.4551
  544MPD2    H2 8130   0.191   0.060  17.587 -0.5663  0.8988  3.1185
  544MPD2    H3 8131   0.159   0.222   0.002 -0.1447  1.8616  0.2470
  544MPD2     N 8132   0.061   0.555  17.474 -0.1192  0.0919  0.2218
  544MPD2    H5 8133   0.048   0.606  17.561 -0.9138 -2.8132  1.8216
  544MPD2    N1 8134   0.163   0.083  17.321 -0.0985 -0.3608 -0.0479
  544MPD2    H7 8135   0.181   4.725  17.352 -1.8569 -0.4158  0.8082
  545TMC3    C1 8136   0.182   4.714  17.110 -0.8570  0.3253 -0.1737
  545TMC3    C2 8137   0.177   4.724  16.977  0.5584 -0.9925 -0.7379
  545TMC3    C3 8138   0.141   4.619  16.903  0.3354  0.0487  0.5181
  545TMC3    C4 8139   0.162   4.594  17.177  0.2284  0.2218 -0.6705
  545TMC3    C5 8140   0.121   4.489  17.096  0.2341  0.9769  0.3120
  545TMC3    C6 8141   0.116   4.496  16.960  0.1488  1.0783  0.5117
  545TMC3     C 8142   0.185   0.099  17.183  0.6387 -0.3453 -0.1814
  545TMC3     O 8143   0.213   0.206  17.127 -0.5408 -0.6466 -0.3004
  545TMC3     H 8144   0.196   0.085  16.933  2.2258 -1.2860 -0.6600
  545TMC3    H1 8145   0.178   4.582  17.284  0.0231 -1.5189 -0.8372
  545TMC3    H2 8146   0.080   4.407  16.909  2.4204  0.0935  0.6154
  545TMC3    C7 8147   0.086   4.366  17.168  0.1229 -0.2741  0.2621
  545TMC3    C8 8148   0.124   4.639  16.765 -0.0159 -0.4223  0.1000
  545TMC3    O1 8149   4.726   4.306  17.120 -0.3900 -0.2287 -0.3763
  545TMC3    O2 8150   0.118   0.018  16.727  0.1538 -0.2079  0.1050
  546MPD2     C 8151   1.574   0.426  17.470  0.4719 -0.0408 -0.0957
  546MPD2    C1 8152   1.576   0.478  17.347  0.3112 -0.7415 -0.1060
  546MPD2    C2 8153   1.633   0.605  17.339  0.6427 -0.3471 -0.4063
  546MPD2    C3 8154   1.660   0.679  17.448 -0.3738 -0.2048  0.1889
  546MPD2    C4 8155   1.639   0.627  17.569  0.3245 -0.0280  0.3106
  546MPD2    C5 8156   1.606   0.495  17.581  0.1521 -0.0816  0.1185
  546MPD2     H 8157   1.648   0.646  17.240 -1.2256  3.6052  0.9407
  546MPD2    H1 8158   1.660   0.691  17.654  1.1657 -1.6139  1.3048
  546MPD2    H2 8159   1.537   0.326  17.493  0.9992  0.0177  1.0471
  546MPD2    H3 8160   1.597   0.442  17.675 -0.1452  0.7012  0.5263
  546MPD2     N 8161   1.692   0.818  17.437 -0.2640 -0.0417  0.3064
  546MPD2    H5 8162   1.702   0.876  17.521 -1.5444  0.6377 -0.0200
  546MPD2    N1 8163   1.516   0.399  17.246  0.3636 -0.6073  0.0970
  546MPD2    H7 8164   1.467   0.316  17.277 -0.4927 -0.4889 -0.9093
  547TMC3    C1 8165   1.413   0.337  17.046 -0.3403 -0.4049 -0.3731
  547TMC3    C2 8166   1.302   0.398  16.981 -0.0415 -0.2167  0.0686
  547TMC3    C3 8167   1.186   0.325  16.973  0.3811 -0.2516  0.4193
  547TMC3    C4 8168   1.405   0.209  17.099  0.1423 -0.5620  0.6900
  547TMC3    C5 8169   1.292   0.137  17.068  0.0472 -0.3222 -0.4223
  547TMC3    C6 8170   1.184   0.193  17.020  0.2290  0.2976  0.0865
  547TMC3     C 8171   1.494   0.438  17.119 -0.3362 -0.7049  0.2109
  547TMC3     O 8172   1.519   0.541  17.057  0.2159 -0.2650 -0.1314
  547TMC3     H 8173   1.305   0.504  16.958 -2.1017 -0.2148 -0.1551
  547TMC3    H1 8174   1.491   0.153  17.132  0.3245  0.4303  1.9204
  547TMC3    H2 8175   1.092   0.139  17.007 -0.3311  1.3956 -0.5046
  547TMC3    C7 8176   1.267   0.027  17.159  0.6313  0.0466  0.3067
  547TMC3    C8 8177   1.065   0.390  16.920  0.4034 -0.4564 -0.8903
  547TMC3    O1 8178   1.303   0.055  17.271 -0.0013  0.5401 -0.1422
  547TMC3    O2 8179   1.083   0.494  16.859  0.2062  0.0202  0.6338
  548MPD2     C 8180   0.764   1.066  12.789  0.5671 -0.0591 -0.0188
  548MPD2    C1 8181   0.769   1.059  12.648 -0.5362  0.3466 -0.4445
  548MPD2    C2 8182   0.887   1.023  12.585  0.0999 -0.2484  0.5140
  548MPD2    C3 8183   1.000   0.983  12.658 -0.6230  0.7706 -0.0785
  548MPD2    C4 8184   0.998   0.988  12.794  0.2305  0.0042 -0.6048
  548MPD2    C5 8185   0.879   1.031  12.858  0.3554 -0.2680 -0.4145
  548MPD2     H 8186   0.883   1.024  12.477  0.7728  0.1487  0.4926
  548MPD2    H1 8187   1.082   0.959  12.856 -0.9973 -2.4209 -0.0945
  548MPD2    H2 8188   0.668   1.082  12.837 -1.3101 -2.3088 -3.0156
  548MPD2    H3 8189   0.886   1.019  12.966  1.4095  1.0467 -0.3334
  548MPD2     N 8190   1.112   0.934  12.588  0.6602 -0.3294 -0.1170
  548MPD2    H5 8191   1.108   0.933  12.487 -0.8253  1.9391 -0.0703
  548MPD2    N1 8192   0.654   1.083  12.569  0.2272  0.1818 -0.0436
  548MPD2    H7 8193   0.572   1.092  12.629 -1.6138  2.2932 -2.8432
  549TMC3    C1 8194   0.490   1.109  12.396 -0.8426 -0.0670  0.4700
  549TMC3    C2 8195   0.449   1.196  12.300  0.3088  0.5322  0.3893
  549TMC3    C3 8196   0.318   1.186  12.265  0.5730  0.3495  0.0348
  549TMC3    C4 8197   0.410   1.023  12.458  0.5759 -0.4206 -0.6094
  549TMC3    C5 8198   0.278   1.017  12.418 -0.2301 -0.2077 -0.5669
  549TMC3    C6 8199   0.228   1.098  12.316 -0.4031 -0.1345  0.3158
  549TMC3     C 8200   0.634   1.110  12.437 -0.2800 -0.3650 -0.2428
  549TMC3     O 8201   0.714   1.144  12.350  0.1683 -0.2220  0.1217
  549TMC3     H 8202   0.513   1.274  12.261  0.2543 -0.1562 -1.0534
  549TMC3    H1 8203   0.445   0.951  12.531  0.8571 -1.6955 -2.0185
  549TMC3    H2 8204   0.121   1.096  12.299 -0.3538 -1.1832  0.1277
  549TMC3    C7 8205   0.188   0.926  12.485  0.4016 -0.1461 -0.0554
  549TMC3    C8 8206   0.262   1.262  12.152 -0.5338  0.4557  0.2320
  549TMC3    O1 8207   0.071   0.962  12.480 -1.0052  0.1226  0.1617
  549TMC3    O2 8208   0.144   1.237  12.122  0.1460  0.0754 -0.5128
  550TMC3    C1 8209   4.245   3.945  12.153 -0.7642  0.1657  0.3327
  550TMC3    C2 8210   4.236   3.969  12.287  0.1083  0.5365  0.4594
  550TMC3    C3 8211   4.226   4.101  12.325 -0.4222 -0.8181  0.1940
  550TMC3    C4 8212   4.258   4.044  12.059  0.1807  0.0361  0.1761
  550TMC3    C5 8213   4.241   4.174  12.102 -0.2054 -0.4460  0.2349
  550TMC3    C6 8214   4.222   4.199  12.234 -0.1770  0.6057 -0.5990
  550TMC3     C 8215   4.188   3.825  12.103  0.3147 -0.5394  0.2319
  550TMC3     O 8216   4.184   3.727  12.174  0.4041  0.1279 -0.7104
  550TMC3     H 8217   4.232   3.886  12.356  0.9206 -2.2191 -2.8620
  550TMC3    H1 8218   4.291   4.016  11.960 -0.1268  1.1072 -0.2313
  550TMC3    H2 8219   4.205   4.303  12.261 -0.2755  0.6867 -0.9783
  550TMC3    C7 8220   4.176   4.256  12.005 -0.1380  0.2659 -0.6353
  550TMC3    C8 8221   4.207   4.132  12.468  0.2552  0.3703  0.0970
  550TMC3    O1 8222   4.111   4.351  12.047  0.2228  0.1124  0.0542
  550TMC3    O2 8223   4.142   4.228  12.499 -0.5069 -0.5966  0.6174
  551TMC3    C1 8224   1.662   1.606  13.348  0.1123 -0.4871 -0.6188
  551TMC3    C2 8225   1.756   1.526  13.291 -0.3384 -0.2078  0.5338
  551TMC3    C3 8226   1.860   1.501  13.371 -1.0655 -0.6093 -0.6340
  551TMC3    C4 8227   1.649   1.640  13.478  0.3978 -0.1869 -0.0609
  551TMC3    C5 8228   1.756   1.601  13.551 -0.2901  0.4454  0.7472
  551TMC3    C6 8229   1.870   1.537  13.500 -0.4057 -0.3719 -0.6146
  551TMC3     C 8230   1.540   1.618  13.272  0.7914  0.3586  0.3517
  551TMC3     O 8231   1.553   1.612  13.150 -0.6281 -0.7635  0.4786
  551TMC3     H 8232   1.756   1.525  13.183 -0.0911 -0.5218  0.5399
  551TMC3    H1 8233   1.570   1.706  13.510  0.5440 -0.1392  0.2080
  551TMC3    H2 8234   1.955   1.520  13.564 -0.4324  0.4957 -0.3492
  551TMC3    C7 8235   1.777   1.656  13.686 -0.2837 -0.0665 -0.2464
  551TMC3    C8 8236   1.980   1.512  13.295 -0.3264 -0.8856  0.5041
  551TMC3    O1 8237   1.893   1.659  13.722  0.0273  0.6517  0.4434
  551TMC3    O2 8238   1.994   1.443  13.196 -0.2290  0.3604  0.2114
  552MPD2     C 8239   4.456   3.665  13.741 -0.5683  0.4922  0.8499
  552MPD2    C1 8240   4.480   3.555  13.817  0.9738  0.0477  0.1525
  552MPD2    C2 8241   4.554   3.563  13.934 -0.5188 -0.2815 -0.0376
  552MPD2    C3 8242   4.617   3.689  13.969  0.3994 -0.2760  0.1516
  552MPD2    C4 8243   4.604   3.796  13.883 -0.2347 -0.1341 -0.5838
  552MPD2    C5 8244   4.525   3.783  13.769  0.3930  0.0277 -0.2338
  552MPD2     H 8245   4.576   3.468  13.981  3.3264  0.8156  0.3213
  552MPD2    H1 8246   4.648   3.892  13.905  1.4631 -1.1184  0.2617
  552MPD2    H2 8247   4.397   3.665  13.650  2.4180  2.2296 -1.0734
  552MPD2    H3 8248   4.509   3.874  13.713  2.1229  0.9825  0.8393
  552MPD2     N 8249   4.690   3.703  14.089 -0.0378 -0.5588  0.5275
  552MPD2    H5 8250   0.001   3.790  14.104 -0.3278 -0.1615 -0.8652
  552MPD2    N1 8251   4.444   3.422  13.779 -0.3698 -0.0406 -0.3995
  552MPD2    H7 8252   4.455   3.355  13.854  0.3802  0.6394  0.0982
  553TMC3    C1 8253   4.358   3.241  13.666  0.2599  0.4646 -0.0905
  553TMC3    C2 8254   4.262   3.193  13.574 -0.5617 -0.6519  0.0647
  553TMC3    C3 8255   4.247   3.056  13.570  0.0149 -0.5445  0.3895
  553TMC3    C4 8256   4.437   3.161  13.745  0.0117  0.4634 -0.0760
  553TMC3    C5 8257   4.423   3.030  13.731  0.3546  0.2863 -0.3370
  553TMC3    C6 8258   4.335   2.977  13.644  0.0773 -0.2216 -0.1977
  553TMC3     C 8259   4.385   3.383  13.664 -0.0563  0.1530 -0.8891
  553TMC3     O 8260   4.363   3.438  13.557 -0.2226  0.2005 -0.9625
  553TMC3     H 8261   4.205   3.266  13.518  1.0452 -0.7672 -1.7132
  553TMC3    H1 8262   4.523   3.202  13.796 -0.0626  0.7552 -0.1820
  553TMC3    H2 8263   4.335   2.869  13.638 -1.2885 -0.2076 -0.3314
  553TMC3    C7 8264   4.505   2.935  13.800 -0.2567  0.9567  0.7216
  553TMC3    C8 8265   4.203   2.996  13.445 -0.6478 -0.3137 -0.1466
  553TMC3    O1 8266   4.502   2.816  13.770 -1.2001  0.2153  0.1631
  553TMC3    O2 8267   4.212   2.874  13.435 -0.1559 -0.0710  0.1096
  554TMC3    C1 8268   0.490   2.844  11.206  0.1093 -0.2595  0.6885
  554TMC3    C2 8269   0.503   2.795  11.082  0.0858 -0.3055  0.0665
  554TMC3    C3 8270   0.620   2.826  11.008 -1.0285  0.7600 -0.2790
  554TMC3    C4 8271   0.581   2.935  11.258 -0.5940 -0.0644  1.0358
  554TMC3    C5 8272   0.704   2.953  11.186  0.5665 -0.9840  0.1752
  554TMC3    C6 8273   0.720   2.894  11.069  0.2311 -0.5165 -0.0583
  554TMC3     C 8274   0.388   2.782  11.292  0.1536 -0.2281 -0.1848
  554TMC3     O 8275   0.303   2.713  11.248 -0.1978 -0.3742  0.2167
  554TMC3     H 8276   0.432   2.719  11.052  0.6400 -0.6863 -0.2801
  554TMC3    H1 8277   0.569   2.985  11.353 -1.7311 -0.5294  1.1277
  554TMC3    H2 8278   0.814   2.906  11.016 -0.3555  1.0609 -0.7493
  554TMC3    C7 8279   0.766   3.078  11.193  0.1332 -0.0107 -0.9464
  554TMC3    C8 8280   0.627   2.833  10.864 -0.4201  0.8509 -0.0428
  554TMC3    O1 8281   0.756   3.144  11.091  0.0548 -0.0469  0.1734
  554TMC3    O2 8282   0.711   2.904  10.808 -0.0135  0.3189  0.0217
  555TMC3    C1 8283   0.442   2.426  15.252  0.1795 -0.0055 -0.3438
  555TMC3    C2 8284   0.522   2.454  15.360  0.2532 -0.5383 -1.0302
  555TMC3    C3 8285   0.533   2.364  15.459  0.1008  0.0911  0.7209
  555TMC3    C4 8286   0.400   2.298  15.222  0.5782 -0.0214  0.2137
  555TMC3    C5 8287   0.435   2.204  15.318  0.2586  0.7829 -0.3057
  555TMC3    C6 8288   0.500   2.236  15.438  0.2722 -1.1442  0.0570
  555TMC3     C 8289   0.424   2.539  15.163  0.5171 -0.3987  0.3956
  555TMC3     O 8290   0.460   2.650  15.206 -0.1020  0.1052 -0.3561
  555TMC3     H 8291   0.569   2.551  15.370  0.7948 -0.9098  0.0114
  555TMC3    H1 8292   0.346   2.266  15.133 -1.4134  2.0240  0.7056
  555TMC3    H2 8293   0.492   2.168  15.522 -0.3131 -0.1167  0.8252
  555TMC3    C7 8294   0.411   2.061  15.288  0.2331  0.2930  0.9297
  555TMC3    C8 8295   0.611   2.418  15.578 -0.0906  0.7035  0.0308
  555TMC3    O1 8296   0.302   2.035  15.245  0.6581  0.2055 -0.4873
  555TMC3    O2 8297   0.575   2.530  15.602 -0.0992 -0.1484  0.1432
  556MPD2     C 8298   2.699   4.041  10.390  0.3878  0.0099 -0.3844
  556MPD2    C1 8299   2.757   3.969  10.489 -0.4823  0.1393  0.2496
  556MPD2    C2 8300   2.767   3.832  10.484  0.6769  0.0101  0.1283
  556MPD2    C3 8301   2.724   3.765  10.375 -0.6758  0.0854  0.3770
  556MPD2    C4 8302   2.680   3.833  10.266 -0.1989 -0.1426 -0.9984
  556MPD2    C5 8303   2.663   3.973  10.274  0.8628  0.2070 -0.5188
  556MPD2     H 8304   2.799   3.767  10.565  1.3919 -1.6690 -1.4898
  556MPD2    H1 8305   2.652   3.781  10.174  1.6375 -1.2649 -0.9403
  556MPD2    H2 8306   2.676   4.147  10.397 -1.6541 -0.4171 -0.6749
  556MPD2    H3 8307   2.617   4.024  10.190 -0.0393 -1.4707 -1.0439
  556MPD2     N 8308   2.745   3.624  10.372 -0.2638  0.7525 -0.1314
  556MPD2    H5 8309   2.784   3.583  10.457 -0.6045  2.8070  1.0273
  556MPD2    N1 8310   2.799   4.036  10.605 -0.2540 -0.4960 -0.2245
  556MPD2    H7 8311   2.834   3.972  10.676 -2.0326  0.6560  1.7024
  557TMC3    C1 8312   2.817   3.413  10.284 -0.1504  0.3030  0.2885
  557TMC3    C2 8313   2.766   3.318  10.205 -0.6711  0.0650  0.5495
  557TMC3    C3 8314   2.724   3.199  10.263 -0.2128 -0.1112 -0.1261
  557TMC3    C4 8315   2.834   3.387  10.417 -0.0545 -0.2696  0.2917
  557TMC3    C5 8316   2.783   3.273  10.472 -0.2880  1.2326 -0.6745
  557TMC3    C6 8317   2.721   3.172  10.397 -1.2874  0.0458 -0.0598
  557TMC3     C 8318   2.754   3.548  10.256 -0.0918  0.1422  0.4711
  557TMC3     O 8319   2.722   3.565  10.138 -0.2882  0.4278  0.2543
  557TMC3     H 8320   2.732   3.335  10.103  1.6584  1.6430  0.0268
  557TMC3    H1 8321   2.887   3.449  10.489 -0.1352  1.1404 -0.8747
  557TMC3    H2 8322   2.672   3.084  10.437 -1.7627 -0.2956 -1.4189
  557TMC3    C7 8323   2.735   3.300  10.606  1.0209 -0.2304  0.5247
  557TMC3    C8 8324   2.674   3.103  10.164 -0.3501 -0.1302 -0.2494
  557TMC3    O1 8325   2.697   3.415  10.624  0.6019 -0.3511  0.1346
  557TMC3    O2 8326   2.667   3.127  10.041 -0.8096  0.1272  0.2352
  558TMC3    C1 8327   4.559   1.711   9.993  0.4380  0.1213  0.1465
  558TMC3    C2 8328   4.479   1.747  10.098  0.2441 -0.1627 -0.1630
  558TMC3    C3 8329   4.388   1.847  10.057 -0.1915 -0.3960  0.1060
  558TMC3    C4 8330   4.565   1.764   9.871  0.7137 -0.0909 -0.0444
  558TMC3    C5 8331   4.466   1.856   9.842 -0.3319  0.4549 -0.2486
  558TMC3    C6 8332   4.374   1.897   9.931  0.6417 -0.0701  0.3820
  558TMC3     C 8333   4.672   1.636  10.027  0.2075  0.3173  0.2906
  558TMC3     O 8334   4.703   1.646  10.145 -0.2102  0.4571  0.2963
  558TMC3     H 8335   4.495   1.707  10.198 -1.5131 -0.1763  0.1176
  558TMC3    H1 8336   4.631   1.735   9.790  2.6055  1.1255  1.0707
  558TMC3    H2 8337   4.295   1.967   9.907 -0.1218 -0.3545  2.0659
  558TMC3    C7 8338   4.484   1.944   9.727  0.7708 -0.3391 -0.1554
  558TMC3    C8 8339   4.324   1.932  10.165 -0.0748  0.4240 -0.4656
  558TMC3    O1 8340   4.596   1.941   9.681 -0.2900 -0.5513  0.1738
  558TMC3    O2 8341   4.259   2.026  10.124  0.3274 -0.6596  0.0591
  559MPD2     C 8342   0.272   2.507  10.127  0.3711  0.0440 -0.0985
  559MPD2    C1 8343   0.224   2.404  10.202  0.0415 -0.0749 -0.2397
  559MPD2    C2 8344   0.315   2.325  10.278 -0.1126 -0.1866 -0.7148
  559MPD2    C3 8345   0.449   2.350  10.274 -0.4663 -0.1482  0.9116
  559MPD2    C4 8346   0.494   2.452  10.196  0.6445 -0.0407  0.7293
  559MPD2    C5 8347   0.406   2.529  10.120  0.0615 -0.8972 -0.9004
  559MPD2     H 8348   0.274   2.259  10.354  1.8471  2.7396  2.8354
  559MPD2    H1 8349   0.597   2.485  10.205  1.0786 -1.0026 -0.6115
  559MPD2    H2 8350   0.204   2.573  10.073  0.5745  0.9725  0.7717
  559MPD2    H3 8351   0.437   2.608  10.052 -2.5893  1.8319  1.0325
  559MPD2     N 8352   0.533   2.283  10.374  0.2570  0.3752 -0.0666
  559MPD2    H5 8353   0.492   2.208  10.429  0.3347  0.1616 -0.3012
  559MPD2    N1 8354   0.089   2.404  10.230 -0.1197  0.2752  0.2505
  559MPD2    H7 8355   0.029   2.483  10.205  1.4625  0.7746 -1.9143
  560TMC3    C1 8356   0.680   2.267  10.550 -0.1950 -0.6933 -0.3087
  560TMC3    C2 8357   0.577   2.233  10.633 -0.2381  0.1097  0.4244
  560TMC3    C3 8358   0.605   2.247  10.771 -0.6501 -0.1655  0.0934
  560TMC3    C4 8359   0.803   2.306  10.599  0.1786 -0.0017 -0.0806
  560TMC3    C5 8360   0.823   2.324  10.733  0.2097 -0.3235 -0.9278
  560TMC3    C6 8361   0.721   2.304  10.819  0.2729  0.4919  0.5418
  560TMC3     C 8362   0.657   2.322  10.419 -0.3626 -1.6710 -0.7565
  560TMC3     O 8363   0.733   2.413  10.378 -0.5536  0.1589  0.0434
  560TMC3     H 8364   0.483   2.195  10.594  0.9351 -0.9574 -1.3370
  560TMC3    H1 8365   0.888   2.333  10.537 -0.3176  0.7149 -0.4461
  560TMC3    H2 8366   0.720   2.337  10.923 -0.7942 -1.2710  1.0908
  560TMC3    C7 8367   0.959   2.333  10.787 -0.0597 -0.8650 -0.1865
  560TMC3    C8 8368   0.508   2.186  10.857 -0.2558  0.9614 -0.2327
  560TMC3    O1 8369   0.969   2.390  10.897 -0.2060 -0.1708  0.4372
  560TMC3    O2 8370   0.407   2.142  10.803 -0.1120 -0.1830  0.6023
  561TMC3    C1 8371   2.926   1.466  11.263 -0.5303 -0.4878  0.3608
  561TMC3    C2 8372   2.902   1.411  11.382  0.4610  0.2581  0.5037
  561TMC3    C3 8373   2.880   1.496  11.493 -0.0601  0.5065 -0.6195
  561TMC3    C4 8374   2.930   1.603  11.242  1.3492  0.3480  0.6021
  561TMC3    C5 8375   2.913   1.674  11.355 -0.1245  0.6345 -0.1607
  561TMC3    C6 8376   2.887   1.631  11.479  0.0226 -0.4355  0.1783
  561TMC3     C 8377   2.950   1.376  11.155  0.1217 -0.8852  0.2541
  561TMC3     O 8378   2.923   1.255  11.172  0.1672 -0.3447  0.8942
  561TMC3     H 8379   2.895   1.303  11.380 -1.4563  0.4277 -1.5062
  561TMC3    H1 8380   2.904   1.651  11.149 -2.5853 -1.3999  0.8007
  561TMC3    H2 8381   2.879   1.703  11.560  1.4290 -0.4159  0.3087
  561TMC3    C7 8382   2.924   1.818  11.340 -0.4958  0.0308  0.1653
  561TMC3    C8 8383   2.861   1.433  11.620  0.1088  0.1133 -0.4832
  561TMC3    O1 8384   2.861   1.888  11.418 -0.1352  0.3063 -0.0188
  561TMC3    O2 8385   2.913   1.321  11.627  0.3467  0.4596  0.4978
  562TMC3    C1 8386   0.347   2.462  16.130  0.4534 -0.0718 -0.4998
  562TMC3    C2 8387   0.256   2.563  16.098  0.5269 -0.4181 -0.4773
  562TMC3    C3 8388   0.229   2.569  15.965  0.2713 -0.3177 -0.3606
  562TMC3    C4 8389   0.391   2.361  16.045 -0.9831 -0.6673  0.0540
  562TMC3    C5 8390   0.342   2.366  15.919  0.6115 -0.4543 -0.2479
  562TMC3    C6 8391   0.256   2.465  15.873  0.7985 -0.5660 -0.3534
  562TMC3     C 8392   0.379   2.441  16.267 -0.0978  0.1346  0.2653
  562TMC3     O 8393   0.474   2.368  16.291 -0.0819 -0.1427 -0.2482
  562TMC3     H 8394   0.235   2.655  16.150 -0.8921 -1.2365  0.3728
  562TMC3    H1 8395   0.471   2.303  16.089 -1.2578  0.6839  2.3362
  562TMC3    H2 8396   0.207   2.466  15.776 -0.5064  0.6330  0.3184
  562TMC3    C7 8397   0.371   2.266  15.827  0.2028 -0.4426 -0.0967
  562TMC3    C8 8398   0.139   2.674  15.924 -0.0099 -0.2357  0.0467
  562TMC3    O1 8399   0.328   2.275  15.710 -0.1617 -0.3540  0.8136
  562TMC3    O2 8400   0.052   2.697  16.010  0.3092 -0.1992 -0.1848
  563MPD2     C 8401   2.896   3.851  15.758  0.0205 -0.2172  0.2637
  563MPD2    C1 8402   2.881   3.764  15.867  0.4966 -0.4584  0.2681
  563MPD2    C2 8403   2.989   3.716  15.935 -0.1073  0.0870 -0.0504
  563MPD2    C3 8404   3.115   3.760  15.899 -0.2399 -0.3909 -0.0673
  563MPD2    C4 8405   3.136   3.834  15.777  0.4962  0.2943 -0.2585
  563MPD2    C5 8406   3.020   3.878  15.714 -0.1948  0.0883  0.6055
  563MPD2     H 8407   2.977   3.677  16.035 -1.9519  1.0716  0.1124
  563MPD2    H1 8408   3.230   3.875  15.742  0.0714 -0.1758 -1.9488
  563MPD2    H2 8409   2.817   3.907  15.709  1.1966 -0.5956 -2.0912
  563MPD2    H3 8410   3.034   3.938  15.625  2.2197 -0.5585  0.5647
  563MPD2     N 8411   3.216   3.722  15.988  0.1539 -0.0497  0.2666
  563MPD2    H5 8412   3.188   3.656  16.061 -3.1535  1.4796  0.4167
  563MPD2    N1 8413   2.754   3.736  15.922  0.3594  0.2470  0.7899
  563MPD2    H7 8414   2.746   3.677  16.004 -0.2812 -1.2245 -0.3293
  564TMC3    C1 8415   2.540   3.758  16.000 -0.7042 -0.3439 -0.9676
  564TMC3    C2 8416   2.433   3.705  15.943  0.0422  0.4503  0.3389
  564TMC3    C3 8417   2.369   3.616  16.030  0.2537  0.1720  0.6405
  564TMC3    C4 8418   2.592   3.736  16.125  0.2628  0.1398 -0.1662
  564TMC3    C5 8419   2.522   3.652  16.206  0.4586 -0.5723 -0.4816
  564TMC3    C6 8420   2.409   3.595  16.163  0.5289 -0.1715  0.2554
  564TMC3     C 8421   2.634   3.804  15.904  0.6709 -0.1417 -0.5368
  564TMC3     O 8422   2.594   3.870  15.805 -0.5601  0.1890  0.6669
  564TMC3     H 8423   2.409   3.722  15.838 -0.3314  0.5536  0.4415
  564TMC3    H1 8424   2.685   3.779  16.160 -0.5755  2.0802 -0.3364
  564TMC3    H2 8425   2.358   3.527  16.230 -1.0208  1.8073  1.0815
  564TMC3    C7 8426   2.594   3.591  16.314  0.5665 -0.0457  0.5666
  564TMC3    C8 8427   2.286   3.504  15.988 -0.3468  0.0369 -0.2492
  564TMC3    O1 8428   2.673   3.660  16.373  0.0282  0.2552 -0.1104
  564TMC3    O2 8429   2.281   3.408  16.068  0.0027  0.2055  0.2217
  565TMC3    C1 8430   2.315   0.391   9.997  0.3021 -0.1863  0.2253
  565TMC3    C2 8431   2.389   0.399  10.111 -0.2449 -0.0651  0.5366
  565TMC3    C3 8432   2.387   0.298  10.198  0.4578 -0.0222  0.0049
  565TMC3    C4 8433   2.250   0.278   9.953 -0.0842 -0.0718 -0.2885
  565TMC3    C5 8434   2.272   0.164  10.036 -0.1301 -0.3293  0.9011
  565TMC3    C6 8435   2.344   0.172  10.153  0.4832  0.0343 -0.1379
  565TMC3     C 8436   2.315   0.500   9.897 -0.6546  0.4847  0.7834
  565TMC3     O 8437   2.310   0.463   9.780 -0.2791  0.1312 -0.3713
  565TMC3     H 8438   2.431   0.492  10.148 -0.5684 -0.0903  0.9580
  565TMC3    H1 8439   2.184   0.275   9.868  0.5780 -1.7489 -0.7336
  565TMC3    H2 8440   2.322   0.091  10.222 -1.0691 -0.0745 -0.7636
  565TMC3    C7 8441   2.189   0.049  10.013  0.0573  0.5207  0.0861
  565TMC3    C8 8442   2.423   0.308  10.337  0.1300  0.6897 -0.8716
  565TMC3    O1 8443   2.105   0.063   9.924  0.8680 -0.4334 -0.2480
  565TMC3    O2 8444   2.450   0.199  10.384  0.0892  0.0360  0.1389
  566MPD2     C 8445   4.620   2.158  14.320  0.0112  0.4232  0.2902
  566MPD2    C1 8446   4.718   2.235  14.250  0.3520 -0.0236  0.1783
  566MPD2    C2 8447   4.696   2.260  14.114 -0.5295 -0.1578 -0.7239
  566MPD2    C3 8448   4.603   2.191  14.049 -0.3717  1.1304  0.0989
  566MPD2    C4 8449   4.527   2.096  14.110 -0.6852  0.4348 -0.5483
  566MPD2    C5 8450   4.524   2.084  14.244  0.3379 -0.1351 -0.0989
  566MPD2     H 8451   0.030   2.329  14.070 -0.3662 -0.5578 -1.0839
  566MPD2    H1 8452   4.444   2.041  14.067 -1.9558  1.2203  0.8908
  566MPD2    H2 8453   4.621   2.137  14.426 -0.3446  1.1961  0.4476
  566MPD2    H3 8454   4.463   2.006  14.289  0.3395 -0.0716  0.0133
  566MPD2     N 8455   4.586   2.210  13.910 -0.1675 -0.1322 -0.4012
  566MPD2    H5 8456   4.514   2.150  13.871  1.3323 -1.7225 -0.6760
  566MPD2    N1 8457   0.093   2.271  14.326  0.4613 -0.4731  0.3968
  566MPD2    H7 8458   0.087   2.262  14.427  0.1273 -2.6118  0.1866
  567TMC3    C1 8459   0.282   2.429  14.349  0.9894 -0.0718  0.0382
  567TMC3    C2 8460   0.359   2.512  14.276  0.2012  0.0069  0.0148
  567TMC3    C3 8461   0.468   2.569  14.327  0.1432  0.1129  0.3604
  567TMC3    C4 8462   0.320   2.394  14.478  0.6532 -0.5210  0.8121
  567TMC3    C5 8463   0.440   2.446  14.524 -0.6272 -0.2858  0.0788
  567TMC3    C6 8464   0.523   2.533  14.450 -0.1129  0.4136  0.1628
  567TMC3     C 8465   0.199   2.339  14.266 -0.7848 -0.2117 -0.1387
  567TMC3     O 8466   0.240   2.323  14.153  0.8262 -0.1776 -0.0728
  567TMC3     H 8467   0.315   2.545  14.183  2.3466  1.0404 -0.6271
  567TMC3    H1 8468   0.285   2.296  14.508 -0.0725 -0.3743  0.4322
  567TMC3    H2 8469   0.614   2.573  14.492  0.1479  2.5754 -2.4549
  567TMC3    C7 8470   0.492   2.391  14.645  0.8733 -0.6074  0.7609
  567TMC3    C8 8471   0.528   2.663  14.236  0.5158 -0.6751 -0.6759
  567TMC3    O1 8472   0.606   2.408  14.671 -1.0596 -0.1967  0.0997
  567TMC3    O2 8473   0.500   2.661  14.119  0.3320  0.3917  0.2788
  568MPD2     C 8474   1.682   2.293  16.356  0.4899 -0.3808  1.0075
  568MPD2    C1 8475   1.793   2.367  16.374  0.5307 -0.2935 -0.2496
  568MPD2    C2 8476   1.801   2.504  16.322  0.1868  0.3745 -0.0818
  568MPD2    C3 8477   1.691   2.552  16.252 -0.7005 -0.1775  0.8108
  568MPD2    C4 8478   1.584   2.473  16.223 -0.1008 -0.2078 -0.0120
  568MPD2    C5 8479   1.580   2.342  16.272  0.1086  0.2341  0.5570
  568MPD2     H 8480   1.891   2.563  16.337  0.1378 -0.0754  2.0481
  568MPD2    H1 8481   1.499   2.511  16.167 -0.3874  0.1072  0.6352
  568MPD2    H2 8482   1.679   2.194  16.401  1.5150 -1.2989 -0.9364
  568MPD2    H3 8483   1.507   2.271  16.235  0.7828  0.4839 -1.2425
  568MPD2     N 8484   1.696   2.690  16.225 -0.1155  0.1478 -0.1735
  568MPD2    H5 8485   1.762   2.737  16.285  0.3129  0.2578 -0.7329
  568MPD2    N1 8486   1.897   2.327  16.469 -0.1171  0.8584 -0.1326
  568MPD2    H7 8487   1.882   2.234  16.506 -0.6565  0.8703 -0.3168
  569TMC3    C1 8488   1.649   2.892  16.133  0.5613 -0.2894  0.2361
  569TMC3    C2 8489   1.712   2.925  16.252  0.0629 -0.3221 -0.5615
  569TMC3    C3 8490   1.826   2.997  16.250 -0.2024 -0.0591  0.7711
  569TMC3    C4 8491   1.703   2.933  16.014  0.4029  0.3354 -0.7264
  569TMC3    C5 8492   1.809   3.017  16.015  0.2859 -0.1829  0.4873
  569TMC3    C6 8493   1.879   3.045  16.133 -0.3509  0.2677  0.4816
  569TMC3     C 8494   1.612   2.749  16.135  0.6371  0.8585 -0.1249
  569TMC3     O 8495   1.543   2.698  16.046 -0.0462  0.4612 -0.1945
  569TMC3     H 8496   1.666   2.902  16.348  0.6504 -1.4946 -0.5553
  569TMC3    H1 8497   1.652   2.902  15.923  0.7632  2.2037 -1.5608
  569TMC3    H2 8498   1.970   3.105  16.134 -2.0040  2.8043 -1.0519
  569TMC3    C7 8499   1.859   3.066  15.885 -0.4758 -0.2406  0.4461
  569TMC3    C8 8500   1.917   2.946  16.344  0.8163 -0.1517  0.4316
  569TMC3    O1 8501   1.848   3.002  15.779  0.1503 -0.0233 -0.1153
  569TMC3    O2 8502   1.880   2.836  16.390  0.1549 -0.1320 -0.3150
  570TMC3    C1 8503   1.652   1.257  16.076 -0.4460 -0.2164 -0.1091
  570TMC3    C2 8504   1.672   1.283  15.939  0.4106 -0.1279 -0.0200
  570TMC3    C3 8505   1.706   1.411  15.899 -0.3828  0.1180  0.0059
  570TMC3    C4 8506   1.647   1.360  16.168 -0.9016 -0.2561  0.3527
  570TMC3    C5 8507   1.665   1.484  16.115  0.3233 -0.7941 -0.1216
  570TMC3    C6 8508   1.700   1.510  15.985 -0.4144  0.1539 -1.3660
  570TMC3     C 8509   1.589   1.126  16.105  0.0502 -0.4871  0.1871
  570TMC3     O 8510   1.564   1.049  16.011  0.2349  0.6531  0.5139
  570TMC3     H 8511   1.702   1.198  15.879  3.7574 -0.5512  2.2845
  570TMC3    H1 8512   1.619   1.348  16.272 -1.0118  1.4705  0.5172
  570TMC3    H2 8513   1.715   1.613  15.956  2.2428  1.0764  3.2489
  570TMC3    C7 8514   1.648   1.597  16.205  0.1693  0.3080 -0.0415
  570TMC3    C8 8515   1.746   1.441  15.768 -0.6605  0.4123  0.3107
  570TMC3    O1 8516   1.694   1.704  16.172  0.5382  0.6507  0.5156
  570TMC3    O2 8517   1.800   1.546  15.753  0.0091 -0.2407 -0.1489
  571MPD2     C 8518   3.835   3.307   1.064  0.0592 -0.0506 -0.0481
  571MPD2    C1 8519   3.903   3.341   0.947 -1.0375  1.0828  1.0316
  571MPD2    C2 8520   3.969   3.454   0.941 -0.1518  0.6014 -0.5346
  571MPD2    C3 8521   3.992   3.536   1.057  0.2830 -0.0486  0.5291
  571MPD2    C4 8522   3.936   3.491   1.175 -0.4769 -0.6196  0.0556
  571MPD2    C5 8523   3.851   3.382   1.180  0.7694 -0.3037  0.2731
  571MPD2     H 8524   4.005   3.487   0.844 -1.6744  0.2153 -1.2382
  571MPD2    H1 8525   3.940   3.557   1.260 -0.7064 -1.9252  1.0799
  571MPD2    H2 8526   3.783   3.212   1.062 -0.2844  0.1009  1.5589
  571MPD2    H3 8527   3.801   3.360   1.273  1.3977  1.1371  0.9541
  571MPD2     N 8528   4.050   3.664   1.051  0.0378 -0.0838  0.5110
  571MPD2    H5 8529   4.051   3.719   1.137  1.2621  0.3381  0.2404
  571MPD2    N1 8530   3.881   3.252   0.839 -0.1407  0.0235 -0.8311
  571MPD2    H7 8531   3.811   3.182   0.862  0.9400 -1.0547 -0.8165
  572TMC3    C1 8532   4.164   3.859   0.958  0.3708 -0.5685 -0.2086
  572TMC3    C2 8533   4.164   3.909   1.082  0.1771  0.1884 -0.1388
  572TMC3    C3 8534   4.225   4.037   1.099  0.5213 -0.5919 -0.6761
  572TMC3    C4 8535   4.193   3.925   0.841  0.0785  0.8932  0.3576
  572TMC3    C5 8536   4.256   4.048   0.862 -0.4798 -1.1191  0.0416
  572TMC3    C6 8537   4.277   4.103   0.989  0.0566  0.0045  0.2996
  572TMC3     C 8538   4.122   3.715   0.943  0.6929  0.4948 -0.4530
  572TMC3     O 8539   4.143   3.667   0.834 -0.4296  0.3778  0.1851
  572TMC3     H 8540   4.165   3.848   1.171 -1.4007 -2.5310 -1.9925
  572TMC3    H1 8541   4.191   3.876   0.744 -2.6245  0.5106  0.6100
  572TMC3    H2 8542   4.334   4.194   1.005 -0.0015 -0.1274  1.2502
  572TMC3    C7 8543   4.305   4.112   0.741  0.2012 -0.1917  0.0854
  572TMC3    C8 8544   4.205   4.107   1.222  0.0300 -0.3346 -0.2512
  572TMC3    O1 8545   4.255   4.080   0.632  0.5292  0.2948 -0.1635
  572TMC3    O2 8546   4.264   4.215   1.223 -0.2700  0.7149 -0.0225
  573MPD2     C 8547   0.548   3.856   0.800  0.1124 -0.7103  0.5307
  573MPD2    C1 8548   0.657   3.928   0.757  0.2351 -0.5928  0.0455
  573MPD2    C2 8549   0.692   3.934   0.624  0.6799  0.2400  0.7114
  573MPD2    C3 8550   0.611   3.878   0.531  0.1056 -0.6931 -0.7965
  573MPD2    C4 8551   0.501   3.803   0.576 -0.2281 -0.2968 -0.7801
  573MPD2    C5 8552   0.476   3.790   0.708 -0.5995 -0.0445  0.4779
  573MPD2     H 8553   0.770   4.001   0.591 -0.6518  1.2597 -0.3726
  573MPD2    H1 8554   0.435   3.752   0.507 -0.5105 -0.2412 -0.5476
  573MPD2    H2 8555   0.519   3.836   0.903 -1.9649 -0.4748 -0.0048
  573MPD2    H3 8556   0.387   3.729   0.722 -1.8229  1.6038 -0.1470
  573MPD2     N 8557   0.621   3.906   0.393  0.2557 -0.0313 -0.3534
  573MPD2    H5 8558   0.553   3.862   0.331  1.1281 -2.6599  0.5569
  573MPD2    N1 8559   0.712   4.001   0.861 -0.2072 -0.4591 -0.2822
  573MPD2    H7 8560   0.651   4.017   0.941  0.4962 -1.5314  0.4580
  574TMC3    C1 8561   0.703   3.958   0.189 -0.3805  0.7370  0.1055
  574TMC3    C2 8562   0.576   3.962   0.142 -0.3465  0.7321 -0.3468
  574TMC3    C3 8563   0.551   4.031   0.025  0.8179  0.2197  0.0283
  574TMC3    C4 8564   0.807   4.019   0.122 -0.3143  0.2406  0.0944
  574TMC3    C5 8565   0.778   4.084   0.002 -0.2945 -0.2477 -0.6698
  574TMC3    C6 8566   0.653   4.087  17.707  0.5008  0.1870  0.0990
  574TMC3     C 8567   0.722   3.970   0.328  0.2945 -0.1004 -0.0648
  574TMC3     O 8568   0.825   4.017   0.378 -0.4928  0.6028  0.2682
  574TMC3     H 8569   0.504   3.891   0.182  1.7195 -0.8874  0.4367
  574TMC3    H1 8570   0.907   4.006   0.161 -0.0246  0.8309 -0.4410
  574TMC3    H2 8571   0.641   4.128  17.607 -2.0143  0.2582  0.4407
  574TMC3    C7 8572   0.878   4.103  17.644 -0.4635  0.1846 -0.1963
  574TMC3    C8 8573   0.428   4.003  17.694  0.3836 -0.2847  0.5890
  574TMC3    O1 8574   0.868   4.188  17.557  0.4726 -0.0971  0.4042
  574TMC3    O2 8575   0.362   3.907  17.731  0.4120  0.3725  0.0785
  575TMC3    C1 8576   2.685   0.141  11.195  0.1452 -0.0330  0.0522
  575TMC3    C2 8577   2.688   0.005  11.198  0.6127 -0.1661 -0.1919
  575TMC3    C3 8578   2.648   4.671  11.089 -0.9473 -0.2409  0.0492
  575TMC3    C4 8579   2.643   0.212  11.083  0.2249 -0.0764 -0.1806
  575TMC3    C5 8580   2.624   0.139  10.968  0.1224  0.1387  0.2862
  575TMC3    C6 8581   2.619   0.003  10.974  0.0535  0.1049  0.1183
  575TMC3     C 8582   2.710   0.211  11.314 -0.3143  0.3001  0.1723
  575TMC3     O 8583   2.734   0.146  11.415  0.2789  0.2323 -0.0054
  575TMC3     H 8584   2.720   4.683  11.284 -1.9273 -0.5575  0.4963
  575TMC3    H1 8585   2.632   0.320  11.082 -0.7212 -0.1542  1.6777
  575TMC3    H2 8586   2.580   4.680  10.893 -0.9880 -0.5153  1.0804
  575TMC3    C7 8587   2.581   0.204  10.841  0.4017  0.8169 -0.2718
  575TMC3    C8 8588   2.610   4.532  11.110 -0.2048  0.3836  0.5693
  575TMC3    O1 8589   2.533   0.124  10.763  0.9629  0.1395 -0.3836
  575TMC3    O2 8590   2.633   4.486  11.222 -0.2589  0.0345 -0.3659
  576MPD2     C 8591   2.087   1.641  12.852  0.2891 -0.4761  0.0615
  576MPD2    C1 8592   2.175   1.749  12.852  0.0862 -0.0023 -0.7718
  576MPD2    C2 8593   2.156   1.846  12.942 -0.1878 -0.2335  0.6972
  576MPD2    C3 8594   2.054   1.842  13.035 -0.2843 -0.3856 -0.3021
  576MPD2    C4 8595   1.969   1.733  13.041 -0.6877  0.2459 -0.7041
  576MPD2    C5 8596   1.983   1.639  12.940 -0.0400 -1.1391  0.1337
  576MPD2     H 8597   2.232   1.923  12.950  1.5275 -1.7849 -0.9270
  576MPD2    H1 8598   1.893   1.722  13.119 -1.3472 -2.2463 -1.6817
  576MPD2    H2 8599   2.102   1.571  12.771  0.6465  1.1333 -1.2750
  576MPD2    H3 8600   1.913   1.558  12.929 -0.1358 -0.9654 -0.5425
  576MPD2     N 8601   2.050   1.949  13.122 -0.1435  0.2467  0.4888
  576MPD2    H5 8602   2.129   2.012  13.116 -0.7001  1.0433  1.6445
  576MPD2    N1 8603   2.288   1.758  12.759  0.3967 -0.2680  0.4478
  576MPD2    H7 8604   2.322   1.849  12.732 -1.4916  0.1766 -0.4863
  577TMC3    C1 8605   2.394   1.722  12.567  0.5458 -0.3607  0.5283
  577TMC3    C2 8606   2.477   1.639  12.503  0.1808 -0.3073 -0.1851
  577TMC3    C3 8607   2.517   1.681  12.377  0.2899 -0.2923  0.3386
  577TMC3    C4 8608   2.333   1.829  12.514 -0.1353 -0.3683  0.2628
  577TMC3    C5 8609   2.384   1.876  12.397  0.3933 -0.0577 -0.0016
  577TMC3    C6 8610   2.482   1.801  12.331  0.5395  0.4258  0.2192
  577TMC3     C 8611   2.332   1.659  12.679  0.5507 -0.1785  0.1743
  577TMC3     O 8612   2.324   1.537  12.695 -0.4031 -0.2053  0.0070
  577TMC3     H 8613   2.524   1.555  12.555 -0.3853 -0.4845  0.0420
  577TMC3    H1 8614   2.257   1.892  12.558  0.9461  0.8118  0.4616
  577TMC3    H2 8615   2.522   1.836  12.237 -0.1398 -0.1675 -0.2847
  577TMC3    C7 8616   2.338   2.009  12.340 -0.2685  0.1731  0.4378
  577TMC3    C8 8617   2.577   1.581  12.290 -0.1566 -0.6783 -0.5173
  577TMC3    O1 8618   2.290   2.078  12.428  0.0354 -0.1395  0.0375
  577TMC3    O2 8619   2.569   1.468  12.339 -0.3589 -0.9033 -0.1696
  578MPD2     C 8620   1.640   1.323   1.463 -0.5100  0.4599 -0.5723
  578MPD2    C1 8621   1.610   1.284   1.332 -0.3545 -0.5263  0.9183
  578MPD2    C2 8622   1.708   1.216   1.264  0.4515  1.1159 -0.9489
  578MPD2    C3 8623   1.834   1.197   1.320  0.1710 -0.1855  0.6124
  578MPD2    C4 8624   1.862   1.243   1.448 -0.3351 -0.4548  0.0295
  578MPD2    C5 8625   1.766   1.307   1.515 -0.6606 -0.0638 -0.9496
  578MPD2     H 8626   1.696   1.178   1.163  2.0475 -3.1004  0.4555
  578MPD2    H1 8627   1.958   1.229   1.496  0.6086 -2.3841 -2.3905
  578MPD2    H2 8628   1.563   1.373   1.520 -0.4816 -1.5309  1.2055
  578MPD2    H3 8629   1.785   1.344   1.615  0.5831  0.5099 -1.4072
  578MPD2     N 8630   1.925   1.108   1.256  1.2386  0.2920  0.1987
  578MPD2    H5 8631   1.891   1.062   1.173 -0.7380  1.3300  0.4447
  578MPD2    N1 8632   1.487   1.320   1.267  0.4115 -0.1910  0.2653
  578MPD2    H7 8633   1.417   1.363   1.325  0.3258  2.3793 -1.7588
  579TMC3    C1 8634   2.109   0.994   1.194 -0.0156 -0.0282  0.4788
  579TMC3    C2 8635   2.239   1.012   1.146 -0.5559  0.7923  0.8045
  579TMC3    C3 8636   2.290   0.919   1.058 -0.2098  0.1686  0.4098
  579TMC3    C4 8637   2.035   0.886   1.147 -0.6388  0.0286  0.0637
  579TMC3    C5 8638   2.099   0.790   1.072 -0.0967 -0.5494 -0.1378
  579TMC3    C6 8639   2.233   0.802   1.021  0.4040  0.3916  0.2836
  579TMC3     C 8640   2.059   1.090   1.291 -0.8514  0.6717  0.3492
  579TMC3     O 8641   2.133   1.141   1.370 -0.1151  0.4834 -0.3474
  579TMC3     H 8642   2.288   1.095   1.195 -1.1052  0.6629  1.5842
  579TMC3    H1 8643   1.939   0.855   1.186 -0.6821  0.2862  0.1664
  579TMC3    H2 8644   2.275   0.733   0.949  0.2561  0.5292  0.0657
  579TMC3    C7 8645   2.023   0.672   1.034  0.4020 -0.5362 -0.7361
  579TMC3    C8 8646   2.422   0.946   1.003  0.3937 -0.2488  0.0532
  579TMC3    O1 8647   2.099   0.585   0.992 -0.1503 -0.0161  0.1806
  579TMC3    O2 8648   2.492   0.850   0.962  0.3524 -0.1832  0.2128
  580TMC3    C1 8649   4.681   0.839  12.190  0.1761  0.1349 -0.3039
  580TMC3    C2 8650   0.062   0.867  12.125 -0.2941 -0.8972 -0.0550
  580TMC3    C3 8651   0.153   0.759  12.135 -0.5869 -0.4754  0.4677
  580TMC3    C4 8652   4.655   0.730  12.277 -0.3761 -0.0127  0.7862
  580TMC3    C5 8653   0.007   0.627  12.265  0.5468  0.0003  0.3413
  580TMC3    C6 8654   0.125   0.640  12.200  0.6176 -0.2595 -0.5561
  580TMC3     C 8655   4.560   0.924  12.182  0.4201  0.1478  0.2869
  580TMC3     O 8656   4.484   0.936  12.276 -0.4976  0.0405  0.4363
  580TMC3     H 8657   0.084   0.961  12.076  2.7366 -1.9248 -0.6746
  580TMC3    H1 8658   4.557   0.708  12.317 -0.8652  0.6390 -0.0659
  580TMC3    H2 8659   0.200   0.563  12.189 -0.1669 -1.1849  0.5853
  580TMC3    C7 8660   4.730   0.497  12.315 -0.3990  0.6586  0.5252
  580TMC3    C8 8661   0.296   0.788  12.127  0.3761  0.3086 -0.4681
  580TMC3    O1 8662   0.043   0.410  12.246 -0.3195  0.8374 -0.0274
  580TMC3    O2 8663   0.378   0.739  12.202  0.1949  0.3087 -0.5636
  581MPD2     C 8664   3.511   0.679  15.208  0.8451 -0.5841 -0.5778
  581MPD2    C1 8665   3.481   0.586  15.113 -0.3019  0.1652  0.0762
  581MPD2    C2 8666   3.356   0.582  15.040  0.6634 -0.1893 -0.8260
  581MPD2    C3 8667   3.265   0.682  15.078 -0.1547 -0.0199  0.0346
  581MPD2    C4 8668   3.296   0.774  15.178  0.0207 -0.1816 -0.4145
  581MPD2    C5 8669   3.421   0.776  15.235  0.4654  0.0657  0.2767
  581MPD2     H 8670   3.338   0.502  14.970  1.5174 -0.9510 -0.1748
  581MPD2    H1 8671   3.225   0.853  15.201 -0.2654 -0.6777  0.3792
  581MPD2    H2 8672   3.601   0.672  15.269  0.0131  0.5328  0.7820
  581MPD2    H3 8673   3.424   0.842  15.320 -1.6946 -2.6321  2.4337
  581MPD2     N 8674   3.141   0.690  15.009  0.4291 -0.3702 -0.1320
  581MPD2    H5 8675   3.125   0.633  14.926 -0.5875 -0.0573 -0.1501
  581MPD2    N1 8676   3.593   0.497  15.099  0.3054  0.2496  0.1131
  581MPD2    H7 8677   3.682   0.514  15.145  0.3522  1.4946 -0.4295
  582TMC3    C1 8678   3.706   0.295  15.035 -0.0615  0.3580  0.3290
  582TMC3    C2 8679   3.784   0.311  15.149 -0.2497 -0.4924 -0.0013
  582TMC3    C3 8680   3.826   0.204  15.223  0.0297  1.2197  0.0941
  582TMC3    C4 8681   3.689   0.175  14.983  0.3014  0.3988 -0.4453
  582TMC3    C5 8682   3.734   0.064  15.055 -1.0131  0.4447 -0.3064
  582TMC3    C6 8683   3.797   0.077  15.176  0.0819 -0.6697 -0.1557
  582TMC3     C 8684   3.583   0.375  15.025  0.1237  0.1467  0.0974
  582TMC3     O 8685   3.489   0.306  14.994 -0.3631  0.0032  0.9592
  582TMC3     H 8686   3.797   0.408  15.196 -1.3166 -0.2911 -0.1248
  582TMC3    H1 8687   3.618   0.147  14.906 -1.5140  3.4575  0.1273
  582TMC3    H2 8688   3.815   4.725  15.234 -2.6257  0.8875  3.0856
  582TMC3    C7 8689   3.627   4.700  15.061  1.0946 -0.0337 -0.1924
  582TMC3    C8 8690   3.810   0.223  15.361 -0.1922 -0.3339 -0.4218
  582TMC3    O1 8691   3.664   4.584  15.088  0.0308 -0.5615  0.0148
  582TMC3    O2 8692   3.726   0.313  15.384  0.0212  0.3695  0.2078
  583MPD2     C 8693   3.455   2.737  16.325 -0.3421 -0.7261 -0.7295
  583MPD2    C1 8694   3.506   2.695  16.447 -0.6527 -0.1023  0.2728
  583MPD2    C2 8695   3.450   2.751  16.555 -0.3133  0.8889  0.0582
  583MPD2    C3 8696   3.355   2.852  16.553 -0.1207  0.2667  0.2636
  583MPD2    C4 8697   3.306   2.895  16.432 -0.1647 -0.4297  0.5059
  583MPD2    C5 8698   3.360   2.835  16.315 -0.6232 -0.9159 -0.6529
  583MPD2     H 8699   3.490   2.714  16.648  0.0460 -0.2176 -0.5294
  583MPD2    H1 8700   3.245   2.984  16.420 -0.5503 -0.5293  1.7897
  583MPD2    H2 8701   3.501   2.693  16.237  3.2797  0.3634  0.6291
  583MPD2    H3 8702   3.340   2.862  16.212  1.2562  0.3458 -0.6763
  583MPD2     N 8703   3.322   2.908  16.676  0.2329 -0.7790  0.1805
  583MPD2    H5 8704   3.357   2.866  16.761  0.6130  1.5065  1.1700
  583MPD2    N1 8705   3.604   2.587  16.466 -0.3152 -0.1880  0.0041
  583MPD2    H7 8706   3.635   2.569  16.560  3.6838 -0.5349 -1.3832
  584TMC3    C1 8707   3.220   3.029  16.835 -0.0512 -0.2888 -0.4211
  584TMC3    C2 8708   3.201   3.158  16.880 -0.1940  0.3223  0.8662
  584TMC3    C3 8709   3.194   3.184  17.012 -0.1936 -0.9131 -0.9196
  584TMC3    C4 8710   3.236   2.925  16.926 -0.1919 -0.1221  0.0071
  584TMC3    C5 8711   3.219   2.954  17.057  0.1478  0.3070  0.5884
  584TMC3    C6 8712   3.213   3.086  17.107 -0.2282 -0.2114  0.0014
  584TMC3     C 8713   3.226   3.010  16.697  0.5710 -0.4528  0.6889
  584TMC3     O 8714   3.155   3.078  16.626  0.0436 -0.3796  0.1729
  584TMC3     H 8715   3.202   3.236  16.805 -1.7246  1.8360  2.4094
  584TMC3    H1 8716   3.235   2.822  16.893  2.0721  0.0274 -0.5501
  584TMC3    H2 8717   3.179   3.098  17.209  1.8907  0.2240  0.6535
  584TMC3    C7 8718   3.229   2.848  17.147  0.4618  0.7002 -0.4177
  584TMC3    C8 8719   3.197   3.322  17.050 -0.4203  0.5157  0.3226
  584TMC3    O1 8720   3.217   2.735  17.097  0.2631 -0.6816 -0.2651
  584TMC3    O2 8721   3.123   3.401  16.986  0.1890  0.5470  0.5633
  585MPD2     C 8722   2.706   1.058   0.156  0.2275  0.3020 -0.0819
  585MPD2    C1 8723   2.760   1.101   0.035  0.5070 -0.5757  0.2334
  585MPD2    C2 8724   2.816   1.009  17.697 -0.0572 -0.9608  0.1833
  585MPD2    C3 8725   2.825   0.876  17.734 -0.7908  0.1628 -0.3981
  585MPD2    C4 8726   2.779   0.838   0.111  0.0458 -0.0508  0.0383
  585MPD2    C5 8727   2.714   0.928   0.191 -0.5487  0.6823  0.5869
  585MPD2     H 8728   2.853   1.039  17.600 -1.5144  0.5155  0.0759
  585MPD2    H1 8729   2.786   0.736   0.147  0.0073  0.5819  1.8375
  585MPD2    H2 8730   2.661   1.131   0.222  0.8484  0.8511 -0.2577
  585MPD2    H3 8731   2.662   0.893   0.279  2.3037  0.3977  2.1360
  585MPD2     N 8732   2.886   0.777  17.655 -0.5178  0.0373 -0.2699
  585MPD2    H5 8733   2.894   0.683  17.691 -0.5611 -0.5380 -1.7349
  585MPD2    N1 8734   2.761   1.235  17.739 -0.1723 -0.5114  0.3868
  585MPD2    H7 8735   2.789   1.244  17.642  0.5168 -0.1227  0.6268
  586TMC3    C1 8736   2.965   0.671  17.452  0.2597  0.1260 -0.7695
  586TMC3    C2 8737   3.011   0.567  17.531 -0.1922 -0.8486 -0.9165
  586TMC3    C3 8738   2.961   0.441  17.496  0.5956 -0.4515  0.1224
  586TMC3    C4 8739   2.885   0.657  17.345 -0.8525 -1.0393 -0.0613
  586TMC3    C5 8740   2.844   0.537  17.320  0.2068 -0.4445 -0.3208
  586TMC3    C6 8741   2.872   0.426  17.395 -0.3932 -0.7762  0.1260
  586TMC3     C 8742   2.961   0.797  17.533 -0.0162  0.5178 -0.4248
  586TMC3     O 8743   2.974   0.905  17.475  0.6082  0.8332  0.2996
  586TMC3     H 8744   3.075   0.604  17.610 -0.8164 -0.0613 -0.7820
  586TMC3    H1 8745   2.846   0.747  17.299 -1.4378 -0.5183  1.4540
  586TMC3    H2 8746   2.829   0.329  17.371 -1.4326  0.0524 -1.3298
  586TMC3    C7 8747   2.706   0.534  17.269 -0.2168  0.6534 -0.1090
  586TMC3    C8 8748   3.015   0.318  17.545 -0.5201  0.0408  0.1046
  586TMC3    O1 8749   2.633   0.452  17.318  0.0418  0.2053 -0.3869
  586TMC3    O2 8750   2.988   0.211  17.493 -0.7092 -0.0651 -0.6373
  587TMC3    C1 8751   0.088   0.257  16.041 -0.0801  0.6176  0.2285
  587TMC3    C2 8752   0.123   0.339  16.143  0.4329  0.2149 -0.4074
  587TMC3    C3 8753   0.240   0.314  16.204  0.5990  0.4141 -0.0961
  587TMC3    C4 8754   0.169   0.153  15.994  0.2009  0.2211 -0.7965
  587TMC3    C5 8755   0.278   0.128  16.068 -0.0516 -0.2715 -0.3318
  587TMC3    C6 8756   0.318   0.207  16.173 -0.3789  0.1061 -0.0627
  587TMC3     C 8757   4.692   0.261  15.988  0.0549  0.2271 -0.3784
  587TMC3     O 8758   4.673   0.227  15.872  0.1526  0.1567  0.1788
  587TMC3     H 8759   0.045   0.405  16.178 -0.8051  0.2007 -3.1248
  587TMC3    H1 8760   0.132   0.086  15.918  0.2077 -0.3306 -0.3180
  587TMC3    H2 8761   0.411   0.195  16.227 -2.2567 -4.5365  2.1169
  587TMC3    C7 8762   0.335   4.729  16.086  0.1174  0.2196  0.3056
  587TMC3    C8 8763   0.261   0.350  16.351  0.1967  0.3520  0.6499
  587TMC3    O1 8764   0.450   4.723  16.128 -0.0588  0.3727 -0.0747
  587TMC3    O2 8765   0.351   0.298  16.409  0.2912 -0.3523 -0.3231
  588TMC3    C1 8766   1.872   2.893  10.059  0.2295  0.3721  0.3818
  588TMC3    C2 8767   1.862   2.786   9.978 -0.3184 -0.2354 -0.1051
  588TMC3    C3 8768   1.953   2.686   9.991 -0.5443 -0.6770 -0.1860
  588TMC3    C4 8769   1.972   2.905  10.151  0.3580 -1.0076  0.0290
  588TMC3    C5 8770   2.066   2.811  10.153 -0.1134 -0.0267  0.3442
  588TMC3    C6 8771   2.061   2.698  10.073  0.3529 -0.8097  0.4775
  588TMC3     C 8772   1.787   3.010  10.023  0.1390  0.2376  0.3994
  588TMC3     O 8773   1.746   3.021   9.908 -0.1373  0.4127  0.1451
  588TMC3     H 8774   1.783   2.783   9.904  0.5588 -2.9433 -0.9021
  588TMC3    H1 8775   1.973   2.984  10.226 -1.5980 -0.3334 -0.6579
  588TMC3    H2 8776   2.150   2.636  10.074 -0.3415 -1.7876  1.7969
  588TMC3    C7 8777   2.190   2.840  10.227 -0.2539 -0.5770 -0.6178
  588TMC3    C8 8778   1.935   2.571   9.906  0.0376  0.3050  0.0225
  588TMC3    O1 8779   2.268   2.755  10.269  0.6134  0.1643  0.7704
  588TMC3    O2 8780   1.871   2.574   9.804 -0.0378 -0.5859 -0.3263
  589TMC3    C1 8781   1.540   4.720   1.270 -0.3539  0.8205 -0.2357
  589TMC3    C2 8782   1.635   0.047   1.336 -1.1069  0.2308 -0.4182
  589TMC3    C3 8783   1.765   0.000   1.323  0.0046 -0.0694 -0.1894
  589TMC3    C4 8784   1.564   4.622   1.185 -0.0505  0.1559 -0.0102
  589TMC3    C5 8785   1.692   4.590   1.160 -0.2314 -0.2407 -0.4168
  589TMC3    C6 8786   1.796   4.645   1.233  0.7817  0.3447 -0.0165
  589TMC3     C 8787   1.401   0.002   1.308 -0.0497 -0.2393  0.4848
  589TMC3     O 8788   1.325   4.646   1.285 -0.8889  0.1572 -0.1356
  589TMC3     H 8789   1.613   0.126   1.407 -0.6937 -1.0019  1.0914
  589TMC3    H1 8790   1.482   4.576   1.131  0.4256 -1.0856  0.3422
  589TMC3    H2 8791   1.887   4.588   1.221  0.9678  0.2828  1.6563
  589TMC3    C7 8792   1.710   4.473   1.076  0.4362 -0.9015  0.0439
  589TMC3    C8 8793   1.866   0.047   1.422 -0.4830 -0.0255  0.5707
  589TMC3    O1 8794   1.604   4.422   1.031  0.1495  0.3216 -0.1846
  589TMC3    O2 8795   1.824   0.111   1.516  0.9828  0.3195  0.0288
  590MPD2     C 8796   1.030   2.717  16.727 -0.4559 -0.2525  0.1853
  590MPD2    C1 8797   0.953   2.806  16.657  0.1356 -0.2896 -0.7416
  590MPD2    C2 8798   1.016   2.886  16.559 -0.2538  0.0283  0.3048
  590MPD2    C3 8799   1.149   2.864  16.531  0.0234  0.0636  0.4367
  590MPD2    C4 8800   1.221   2.769  16.592 -0.1861  0.0256  0.7469
  590MPD2    C5 8801   1.166   2.702  16.697 -0.0987 -0.1934 -0.3700
  590MPD2     H 8802   0.962   2.960  16.501  1.0307  0.1402 -0.7529
  590MPD2    H1 8803   1.328   2.758  16.575 -0.5343 -1.0097 -0.7640
  590MPD2    H2 8804   0.986   2.667  16.812  0.9463  0.2796  1.2247
  590MPD2    H3 8805   1.227   2.626  16.744  0.1487  0.1587 -0.1179
  590MPD2     N 8806   1.199   2.956  16.432  0.4184 -0.6254  0.2268
  590MPD2    H5 8807   1.153   3.046  16.418 -0.1436 -0.7046  1.4956
  590MPD2    N1 8808   0.814   2.807  16.676  0.1129  0.4851  0.7421
  590MPD2    H7 8809   0.773   2.724  16.717 -0.4393  0.1496 -0.5006
  591TMC3    C1 8810   1.332   3.059  16.269  0.1181 -0.4629  0.1151
  591TMC3    C2 8811   1.361   3.054  16.139  0.2678 -0.6839  0.4001
  591TMC3    C3 8812   1.389   3.166  16.065 -0.0219 -0.5576  0.1842
  591TMC3    C4 8813   1.328   3.176  16.340  0.5934 -0.1287  0.2521
  591TMC3    C5 8814   1.371   3.286  16.270  0.0112 -0.3151 -0.5234
  591TMC3    C6 8815   1.393   3.288  16.135  0.3132 -0.0283 -0.0508
  591TMC3     C 8816   1.306   2.942  16.352 -0.0371 -0.2592  0.0335
  591TMC3     O 8817   1.388   2.850  16.352 -0.0796 -0.0681  0.6387
  591TMC3     H 8818   1.349   2.956  16.095 -1.2335 -0.7276  0.9089
  591TMC3    H1 8819   1.302   3.175  16.445 -2.2907 -0.5905 -0.4573
  591TMC3    H2 8820   1.446   3.366  16.082  2.8866 -0.3468  2.0184
  591TMC3    C7 8821   1.430   3.399  16.349  0.1442  0.1461  0.1046
  591TMC3    C8 8822   1.416   3.157  15.924  0.5129  0.2428  0.1418
  591TMC3    O1 8823   1.474   3.360  16.460  0.1603 -0.2155  0.0250
  591TMC3    O2 8824   1.449   3.051  15.871 -0.8257  0.6475  0.1236
  592MPD2     C 8825   1.020   0.953  11.473 -0.2826  0.1088  0.3447
  592MPD2    C1 8826   1.020   0.918  11.613 -0.7378  0.7020  0.5677
  592MPD2    C2 8827   0.959   0.797  11.652 -0.4901  0.9228 -0.1757
  592MPD2    C3 8828   0.913   0.712  11.562  0.1871  0.4439 -0.0588
  592MPD2    C4 8829   0.903   0.745  11.426  0.0350  0.1983 -0.6689
  592MPD2    C5 8830   0.962   0.865  11.381 -0.7719 -0.2404 -0.0975
  592MPD2     H 8831   0.961   0.761  11.754  2.4905  0.5505 -0.3533
  592MPD2    H1 8832   0.868   0.688  11.341  1.4601 -0.2555 -0.9541
  592MPD2    H2 8833   1.070   1.042  11.436  0.9940 -0.4287  0.7956
  592MPD2    H3 8834   0.964   0.889  11.276 -0.6837  1.3526  0.2666
  592MPD2     N 8835   0.869   0.589  11.615 -1.2494  0.3920 -0.6529
  592MPD2    H5 8836   0.869   0.587  11.716  0.8815 -1.9487 -0.7005
  592MPD2    N1 8837   1.067   1.021  11.697 -0.2525 -0.6486  0.5016
  592MPD2    H7 8838   1.101   1.109  11.659 -1.2043  0.5422  2.4192
  593TMC3    C1 8839   1.098   1.138  11.887  0.1977 -0.0236  0.7756
  593TMC3    C2 8840   1.134   1.131  12.018  0.0435  0.2902  0.5278
  593TMC3    C3 8841   1.165   1.245  12.077 -0.1914  0.1866  0.8255
  593TMC3    C4 8842   1.078   1.250  11.817 -0.3533 -0.0638 -0.6799
  593TMC3    C5 8843   1.128   1.366  11.875  0.0574 -0.3679 -0.4150
  593TMC3    C6 8844   1.153   1.369  12.014 -0.7041 -0.2574  0.3215
  593TMC3     C 8845   1.055   1.017  11.830  0.6690  0.3171  0.1172
  593TMC3     O 8846   1.019   0.924  11.899  0.1551  0.7789  0.1440
  593TMC3     H 8847   1.151   1.034  12.062  1.4427  0.4773  0.4016
  593TMC3    H1 8848   1.028   1.255  11.721 -0.3358 -0.1235 -0.6918
  593TMC3    H2 8849   1.168   1.464  12.063  2.3044  0.7214 -2.5130
  593TMC3    C7 8850   1.095   1.495  11.808  0.2385 -0.3668 -0.0596
  593TMC3    C8 8851   1.186   1.236  12.216 -0.0367  0.4738 -0.7572
  593TMC3    O1 8852   1.010   1.488  11.717 -0.5758 -0.4032 -0.1713
  593TMC3    O2 8853   1.131   1.139  12.271 -0.6419 -0.0279  0.0083
  594MPD2     C 8854   0.557   3.952  13.982  0.3745 -0.3120 -0.1150
  594MPD2    C1 8855   0.542   3.914  14.112 -0.4805 -0.2701 -0.7301
  594MPD2    C2 8856   0.620   3.969  14.208 -0.4321  0.0746  0.3401
  594MPD2    C3 8857   0.722   4.054  14.177  0.4607  0.1028 -0.0087
  594MPD2    C4 8858   0.740   4.098  14.045 -0.8319 -0.1088 -0.3165
  594MPD2    C5 8859   0.664   4.041  13.952 -0.3671 -0.6055 -0.1364
  594MPD2     H 8860   0.586   3.976  14.311 -2.0647  1.5788 -0.3029
  594MPD2    H1 8861   0.809   4.168  14.000 -1.4329 -0.0208 -1.0959
  594MPD2    H2 8862   0.517   3.896  13.898 -1.1512 -0.1528  0.4998
  594MPD2    H3 8863   0.695   4.059  13.850  1.4465 -1.8360  0.2045
  594MPD2     N 8864   0.798   4.100  14.284 -0.0297 -0.2724 -0.2438
  594MPD2    H5 8865   0.769   4.069  14.376 -0.0529  0.6910  0.0773
  594MPD2    N1 8866   0.435   3.827  14.138  0.3986 -0.0652 -0.3832
  594MPD2    H7 8867   0.382   3.792  14.059 -1.1446 -0.0907  0.6688
  595TMC3    C1 8868   1.085   4.365  14.526  0.4853  0.8012  0.0458
  595TMC3    C2 8869   1.059   4.281  14.422 -0.1921  0.0584  0.4519
  595TMC3    C3 8870   0.940   4.226  14.410 -0.4174  0.0204  0.2476
  595TMC3    C4 8871   0.990   4.398  14.615  0.4199 -0.0955  0.0751
  595TMC3    C5 8872   0.868   4.344  14.600  0.2150 -0.4736  0.2376
  595TMC3    C6 8873   0.836   4.267  14.492 -0.0591  0.2194 -0.0096
  595TMC3     C 8874   1.217   4.424  14.536  0.2845 -0.0219  0.7579
  595TMC3     O 8875   1.245   4.471  14.648  0.3156  0.3764 -0.1132
  595TMC3     H 8876   1.148   4.241  14.375  0.5787  1.1123  1.0155
  595TMC3    H1 8877   1.010   4.445  14.711  2.0513  0.1647 -0.3972
  595TMC3    H2 8878   0.739   4.219  14.483  0.8461 -1.7356  0.6810
  595TMC3    C7 8879   0.754   4.413  14.655  0.0418 -0.6263 -0.0893
  595TMC3    C8 8880   0.908   4.184  14.276  0.6183 -0.4928 -0.6201
  595TMC3    O1 8881   0.645   4.370  14.618 -0.9386  0.3224 -0.5828
  595TMC3    O2 8882   0.980   4.204  14.179  0.1355 -0.1971 -0.4550
  596MPD2     C 8883   4.587   2.070  16.991 -0.2618  0.0705 -0.2902
  596MPD2    C1 8884   4.507   2.155  16.925 -0.1270  0.6274 -0.0190
  596MPD2    C2 8885   4.477   2.133  16.793  0.2903  0.3808  0.7685
  596MPD2    C3 8886   4.537   2.029  16.725 -0.9114  0.2563 -0.1107
  596MPD2    C4 8887   4.620   1.934  16.791 -0.1034  0.1418  0.7433
  596MPD2    C5 8888   4.653   1.973  16.917 -0.7071 -0.2517  0.9690
  596MPD2     H 8889   4.407   2.202  16.746  0.1441  0.5330  1.2122
  596MPD2    H1 8890   4.677   1.855  16.743  1.3300 -1.0490  4.3666
  596MPD2    H2 8891   4.607   2.070  17.097 -0.0569  1.6276 -0.3250
  596MPD2    H3 8892   4.721   1.912  16.976  2.2782  0.7312 -1.4231
  596MPD2     N 8893   4.508   2.002  16.586  0.5522  0.5651  0.3817
  596MPD2    H5 8894   4.540   1.911  16.556  0.6374 -0.0407  2.3216
  596MPD2    N1 8895   4.453   2.271  16.992  0.7911  0.5360  0.7351
  596MPD2    H7 8896   4.389   2.323  16.933 -0.0571 -1.3438 -0.0243
  597TMC3    C1 8897   4.436   2.443  17.157 -0.1509 -0.0106  0.2360
  597TMC3    C2 8898   4.492   2.489  17.269 -0.2530  0.1697 -0.5979
  597TMC3    C3 8899   4.438   2.604  17.325  0.0571 -0.1128 -0.3132
  597TMC3    C4 8900   4.321   2.495  17.111  1.3101  0.4322 -0.1499
  597TMC3    C5 8901   4.277   2.613  17.161 -0.0329 -0.1541  0.0255
  597TMC3    C6 8902   4.332   2.669  17.275  0.2145 -0.8825 -0.8976
  597TMC3     C 8903   4.498   2.319  17.112  0.8663 -0.1449 -0.2745
  597TMC3     O 8904   4.597   2.282  17.168  0.0793 -0.5418  0.3908
  597TMC3     H 8905   4.579   2.447  17.318 -2.5079 -2.0853  1.4381
  597TMC3    H1 8906   4.265   2.445  17.032 -1.5212 -0.2433  2.2652
  597TMC3    H2 8907   4.286   2.756  17.321  1.3424 -0.1722 -1.1187
  597TMC3    C7 8908   4.149   2.658  17.111  0.5394  0.6362  0.0288
  597TMC3    C8 8909   4.482   2.649  17.455  0.8815  0.1989  0.8083
  597TMC3    O1 8910   4.086   2.570  17.056  0.9512  0.2418 -0.2363
  597TMC3    O2 8911   4.416   2.713  17.532 -0.3235 -0.4983  0.0526
  598TMC3    C1 8912   1.945   3.729  15.301 -0.5799  0.0902  0.8536
  598TMC3    C2 8913   1.838   3.773  15.225 -0.1769  0.0295  0.0061
  598TMC3    C3 8914   1.861   3.844  15.113 -0.2324  0.1651 -0.6401
  598TMC3    C4 8915   2.069   3.758  15.270  0.3797 -0.0758 -0.3785
  598TMC3    C5 8916   2.090   3.832  15.160 -0.6875  0.2099  0.3753
  598TMC3    C6 8917   1.991   3.879  15.079 -0.4241 -0.2748 -0.0746
  598TMC3     C 8918   1.923   3.687  15.435  0.6233  0.8394 -0.0289
  598TMC3     O 8919   2.022   3.651  15.495  0.3452  0.1699 -0.4781
  598TMC3     H 8920   1.736   3.748  15.253  0.1506 -2.5940 -1.1717
  598TMC3    H1 8921   2.153   3.709  15.317  0.6067  0.3801 -0.3139
  598TMC3    H2 8922   2.012   3.939  14.991  3.6991  2.0713  2.5228
  598TMC3    C7 8923   2.209   3.805  15.086 -0.1915 -0.7328 -0.6480
  598TMC3    C8 8924   1.748   3.904  15.042 -0.1296  0.4627 -0.8291
  598TMC3    O1 8925   2.221   3.706  15.017  0.4160  0.5365 -0.3623
  598TMC3    O2 8926   1.639   3.841  15.052 -0.7611  0.0397 -0.4215
  599MPD2     C 8927   2.336   0.448  15.359  0.0335 -0.1251 -0.6848
  599MPD2    C1 8928   2.390   0.508  15.473 -0.6308 -0.2445  0.4197
  599MPD2    C2 8929   2.307   0.570  15.559 -0.3786  0.0838 -0.0942
  599MPD2    C3 8930   2.175   0.587  15.527 -0.1427  0.7056 -0.0143
  599MPD2    C4 8931   2.129   0.527  15.410  0.0473 -0.0127 -0.3630
  599MPD2    C5 8932   2.210   0.453  15.333 -0.2448  0.2840  0.2977
  599MPD2     H 8933   2.351   0.619  15.645  0.6490 -0.4882 -0.2828
  599MPD2    H1 8934   2.027   0.540  15.374 -0.7986 -0.8870  1.6787
  599MPD2    H2 8935   2.406   0.412  15.285  2.1267  0.0470  1.2113
  599MPD2    H3 8936   2.177   0.407  15.241  0.3009 -0.0654  0.2782
  599MPD2     N 8937   2.079   0.643  15.616  0.2166  0.0594 -0.6792
  599MPD2    H5 8938   1.982   0.647  15.588  0.0409 -1.4933 -0.2811
  599MPD2    N1 8939   2.529   0.507  15.482 -0.4464 -0.3003 -0.0457
  599MPD2    H7 8940   2.580   0.442  15.422 -3.3378 -1.0748 -1.6446
  600TMC3    C1 8941   2.011   0.729  15.834 -0.4442  0.3569  0.4712
  600TMC3    C2 8942   1.901   0.653  15.863  0.6845 -0.6215 -0.2603
  600TMC3    C3 8943   1.817   0.691  15.960  0.3631  0.2430 -0.1517
  600TMC3    C4 8944   2.040   0.841  15.907  0.6603 -0.5712  0.2645
  600TMC3    C5 8945   1.949   0.875  16.007 -0.3448  0.1930 -0.6009
  600TMC3    C6 8946   1.838   0.802  16.040 -0.9361  0.2077 -0.0745
  600TMC3     C 8947   2.114   0.686  15.744  0.9154  0.0580 -0.0540
  600TMC3     O 8948   2.223   0.685  15.800  0.1992 -0.3239  0.0453
  600TMC3     H 8949   1.895   0.559  15.810 -0.9109 -0.2918 -0.6679
  600TMC3    H1 8950   2.130   0.897  15.885  1.3628 -1.5025  0.7647
  600TMC3    H2 8951   1.765   0.841  16.111  0.4903  2.3769  0.2262
  600TMC3    C7 8952   1.966   1.013  16.059  0.1004 -0.4572 -0.6101
  600TMC3    C8 8953   1.692   0.614  15.978  0.0511 -0.2694  0.0092
  600TMC3    O1 8954   1.931   1.031  16.173  0.0306  0.6016 -0.7305
  600TMC3    O2 8955   1.618   0.601  15.880  0.4351  0.6136  0.5176
  601MPD2     C 8956   4.644   4.442   0.529 -0.3223  0.5170  0.2000
  601MPD2    C1 8957   4.517   4.413   0.495  0.3167 -0.1859  0.2863
  601MPD2    C2 8958   4.434   4.335   0.570  0.5635 -0.1850  0.7883
  601MPD2    C3 8959   4.481   4.285   0.688  0.8365  0.6341  0.5464
  601MPD2    C4 8960   4.607   4.324   0.730  0.2653  0.6454 -0.4737
  601MPD2    C5 8961   4.685   4.403   0.650 -0.1272 -0.7652  0.2506
  601MPD2     H 8962   4.330   4.314   0.546  0.8169 -1.3732  0.7285
  601MPD2    H1 8963   4.654   4.295   0.823 -0.8320 -0.4743 -0.2657
  601MPD2    H2 8964   4.715   4.505   0.477  1.3243  0.4417  2.3479
  601MPD2    H3 8965   0.045   4.429   0.690  0.4800 -1.0098 -1.0817
  601MPD2     N 8966   4.417   4.189   0.768  0.1400 -0.4071 -0.5477
  601MPD2    H5 8967   4.471   4.165   0.850  1.3354  0.4569 -1.0938
  601MPD2    N1 8968   4.465   4.444   0.363  0.0452  0.5091 -0.2406
  601MPD2    H7 8969   4.370   4.413   0.350  0.0877  1.0110 -1.7279
  602TMC3    C1 8970   4.441   4.565   0.160 -0.5899  0.4763 -0.0594
  602TMC3    C2 8971   4.472   4.687   0.098  0.4403 -0.2640 -0.4600
  602TMC3    C3 8972   4.371   0.019   0.033 -0.0408  0.1568  0.4388
  602TMC3    C4 8973   4.333   4.494   0.123 -0.5927 -0.1594  0.2163
  602TMC3    C5 8974   4.246   4.567   0.048  1.0135  0.1471  0.5988
  602TMC3    C6 8975   4.249   4.698   0.015  0.2458 -0.3904 -0.1330
  602TMC3     C 8976   4.531   4.519   0.263  0.1523 -0.5187 -0.2618
  602TMC3     O 8977   4.648   4.549   0.263  0.1131 -0.2370 -0.0857
  602TMC3     H 8978   4.569   4.735   0.110  0.3821  0.0957 -1.3784
  602TMC3    H1 8979   4.308   4.397   0.165  1.3122 -0.8701 -0.2897
  602TMC3    H2 8980   4.165   0.019  17.724 -1.0593 -2.4173 -0.3889
  602TMC3    C7 8981   4.136   4.496  17.736  0.4785 -0.3787 -0.0436
  602TMC3    C8 8982   4.413   0.134  17.700  0.3446 -0.4534  0.2628
  602TMC3    O1 8983   4.108   4.389   0.037 -0.3928 -0.4432  0.0785
  602TMC3    O2 8984   4.524   0.183  17.718  0.6573 -0.2512  0.0530
  603TMC3    C1 8985   2.262   4.530  10.607 -0.7973 -0.2795 -0.1709
  603TMC3    C2 8986   2.276   4.536  10.743 -0.8169  0.7854 -0.3484
  603TMC3    C3 8987   2.244   4.665  10.790 -0.4190  0.2258  0.2007
  603TMC3    C4 8988   2.216   4.635  10.530  0.1486  1.2499 -0.3296
  603TMC3    C5 8989   2.165   0.008  10.589  0.2472 -0.3272  0.6028
  603TMC3    C6 8990   2.190   0.031  10.722 -0.0151 -0.5345 -0.4123
  603TMC3     C 8991   2.300   4.403  10.537  0.3822 -0.3494 -0.9802
  603TMC3     O 8992   2.398   4.336  10.568 -0.0572 -0.4677  0.3409
  603TMC3     H 8993   2.328   4.453  10.789 -1.4976  0.9971  0.7942
  603TMC3    H1 8994   2.214   4.626  10.422  3.5316 -2.7237 -0.0732
  603TMC3    H2 8995   2.145   0.120  10.764 -0.6080 -0.4020 -1.3313
  603TMC3    C7 8996   2.132   0.126  10.514 -0.4295 -0.5189  0.5291
  603TMC3    C8 8997   2.261   4.691  10.937  0.0768  0.1228  0.3034
  603TMC3    O1 8998   2.147   0.231  10.575 -0.2642  0.1543 -0.0764
  603TMC3    O2 8999   2.281   4.596  11.013  0.1756 -0.1173  0.1938
  604MPD2     C 9000   3.779   3.438  16.393 -0.3662  0.5600  0.0328
  604MPD2    C1 9001   3.681   3.339  16.385 -0.8899  0.3277 -0.2344
  604MPD2    C2 9002   3.664   3.259  16.273 -0.1899 -0.3357 -0.1003
  604MPD2    C3 9003   3.746   3.287  16.169 -0.6828 -0.4928  0.0554
  604MPD2    C4 9004   3.834   3.395  16.172  0.2401 -0.0054  0.5389
  604MPD2    C5 9005   3.855   3.466  16.285 -0.2742  0.3428  0.0690
  604MPD2     H 9006   3.590   3.184  16.250  0.0817 -0.5655 -0.2222
  604MPD2    H1 9007   3.892   3.430  16.087  0.3837 -0.9076  0.2706
  604MPD2    H2 9008   3.779   3.500  16.482 -2.1911 -2.1752  1.9367
  604MPD2    H3 9009   3.931   3.544  16.281 -0.2702  0.4239  2.1130
  604MPD2     N 9010   3.732   3.202  16.049  0.4249 -0.1631 -0.3199
  604MPD2    H5 9011   3.650   3.142  16.039 -0.4109  0.7544  0.9211
  604MPD2    N1 9012   3.590   3.343  16.490 -0.3691 -0.0008 -0.0667
  604MPD2    H7 9013   3.614   3.404  16.568  0.8344  2.0131 -2.0339
  605TMC3    C1 9014   3.382   3.344  16.587 -0.2287  0.9439 -0.6748
  605TMC3    C2 9015   3.425   3.416  16.693 -0.8579 -0.1784  0.7388
  605TMC3    C3 9016   3.334   3.495  16.760  0.0264 -0.5924 -0.4500
  605TMC3    C4 9017   3.253   3.355  16.543  0.1711  0.5899  0.3439
  605TMC3    C5 9018   3.174   3.440  16.605  0.0618  0.1326 -0.5394
  605TMC3    C6 9019   3.207   3.510  16.718 -0.4491 -0.2793  0.1441
  605TMC3     C 9020   3.468   3.285  16.490 -0.3372  0.4625 -0.4617
  605TMC3     O 9021   3.424   3.192  16.418  0.3803 -0.3009 -0.2218
  605TMC3     H 9022   3.532   3.419  16.711 -0.9310 -0.0986  1.1616
  605TMC3    H1 9023   3.215   3.285  16.469  0.4978 -1.8047  2.4204
  605TMC3    H2 9024   3.137   3.584  16.754 -0.8248 -0.9322  0.7518
  605TMC3    C7 9025   3.030   3.425  16.593 -0.2621  0.0447 -0.0919
  605TMC3    C8 9026   3.392   3.587  16.859  0.3910 -0.0152  0.1999
  605TMC3    O1 9027   2.965   3.514  16.642  0.5937  0.4212  0.0468
  605TMC3    O2 9028   3.506   3.553  16.890  0.3817 -0.4818  0.1442
  606TMC3    C1 9029   0.687   2.649   0.176 -0.2815  0.2310 -0.4191
  606TMC3    C2 9030   0.686   2.538   0.254 -0.6681 -0.2382 -0.3305
  606TMC3    C3 9031   0.660   2.422   0.190  0.5848 -0.4003 -1.0764
  606TMC3    C4 9032   0.645   2.637   0.047 -0.4071  0.0298 -0.1905
  606TMC3    C5 9033   0.611   2.515  17.743  1.1216  0.0311  0.3184
  606TMC3    C6 9034   0.640   2.406   0.055  0.2400 -0.9004 -0.2391
  606TMC3     C 9035   0.656   2.771   0.240 -0.4951 -0.4077  0.1351
  606TMC3     O 9036   0.593   2.767   0.348 -0.1949 -0.1973  0.6742
  606TMC3     H 9037   0.733   2.537   0.352 -0.6368 -0.4840 -0.3499
  606TMC3    H1 9038   0.631   2.718  17.723 -1.2590  1.9534  2.1648
  606TMC3    H2 9039   0.620   2.307   0.015  1.3524 -1.3143  0.2098
  606TMC3    C7 9040   0.566   2.511  17.605  0.2663 -0.7212  0.7976
  606TMC3    C8 9041   0.683   2.301   0.263 -0.2978  0.7950  0.6178
  606TMC3    O1 9042   0.604   2.605  17.535  0.0467  0.1989  0.7485
  606TMC3    O2 9043   0.721   2.200   0.207 -0.4355  0.0498  0.4835
  607MPD2     C 9044   1.122   0.285  11.480 -0.1441 -0.5749  0.3585
  607MPD2    C1 9045   1.187   0.364  11.576 -0.4759  0.1363 -0.1959
  607MPD2    C2 9046   1.222   0.304  11.699 -0.1019  0.3894  0.8013
  607MPD2    C3 9047   1.200   0.175  11.725  1.0226  0.5582  0.0645
  607MPD2    C4 9048   1.120   0.100  11.635  1.1493  0.5278  0.1323
  607MPD2    C5 9049   1.098   0.153  11.508 -0.3997 -0.1583  0.4121
  607MPD2     H 9050   1.275   0.363  11.773 -0.1822  0.2444  0.9750
  607MPD2    H1 9051   1.090   4.735  11.657 -1.9718  1.3769 -0.2496
  607MPD2    H2 9052   1.100   0.321  11.381 -0.8452  0.8162  1.0141
  607MPD2    H3 9053   1.050   0.097  11.428  1.3492 -0.6636 -0.2653
  607MPD2     N 9054   1.250   0.127  11.848  0.1760 -0.3561 -0.0491
  607MPD2    H5 9055   1.285   0.196  11.914 -0.1302 -2.3093  2.1139
  607MPD2    N1 9056   1.220   0.491  11.556 -0.2292  0.0099  0.3312
  607MPD2    H7 9057   1.265   0.532  11.638 -0.0435 -0.6037  0.5333
  608TMC3    C1 9058   1.283   0.688  11.462  0.4168  0.3637  0.3991
  608TMC3    C2 9059   1.320   0.717  11.589 -0.0232  0.0706 -0.0586
  608TMC3    C3 9060   1.409   0.824  11.612  0.5577  0.6861  0.3569
  608TMC3    C4 9061   1.325   0.760  11.358  0.0645 -0.0945  0.1680
  608TMC3    C5 9062   1.416   0.863  11.377 -0.2662 -0.5773 -0.3171
  608TMC3    C6 9063   1.468   0.885  11.509  0.1128  0.1139 -0.0126
  608TMC3     C 9064   1.237   0.553  11.440 -0.6487 -0.2563  0.1349
  608TMC3     O 9065   1.216   0.512  11.325  0.2155 -0.7144 -0.2284
  608TMC3     H 9066   1.249   0.695  11.668 -0.5489  3.2894  0.3842
  608TMC3    H1 9067   1.287   0.740  11.258  2.6085 -1.6923 -0.5029
  608TMC3    H2 9068   1.558   0.944  11.524 -0.3885  0.8925 -0.0666
  608TMC3    C7 9069   1.475   0.917  11.256 -0.9642 -0.1926  0.0392
  608TMC3    C8 9070   1.470   0.846  11.742 -0.0126 -0.3673 -0.6230
  608TMC3    O1 9071   1.477   0.838  11.163 -0.4863  0.4382  0.0550
  608TMC3    O2 9072   1.543   0.944  11.763 -0.6888 -0.5879  0.1397
  609TMC3    C1 9073   4.512   3.797   9.065 -0.2404 -0.0111 -0.2724
  609TMC3    C2 9074   4.472   3.759   8.939  0.6890 -0.1291  0.1687
  609TMC3    C3 9075   4.543   3.660   8.879  0.2484  0.6508  0.3005
  609TMC3    C4 9076   4.617   3.724   9.125  0.0805 -0.1240  0.0734
  609TMC3    C5 9077   4.677   3.623   9.057 -0.3551 -0.2647 -0.5338
  609TMC3    C6 9078   4.641   3.585   8.933 -0.2275  0.2602 -0.6218
  609TMC3     C 9079   4.419   3.840   9.161  0.1344 -0.5634 -0.1176
  609TMC3     O 9080   4.394   3.768   9.252 -0.4170 -0.2099  0.5411
  609TMC3     H 9081   4.374   3.792   8.906  0.0485 -2.9730 -0.7568
  609TMC3    H1 9082   4.645   3.740   9.229  1.9893  1.9976 -0.7499
  609TMC3    H2 9083   4.684   3.504   8.876  2.3886 -0.6613  2.6665
  609TMC3    C7 9084   0.053   3.552   9.118 -0.0925 -0.6081 -0.0245
  609TMC3    C8 9085   4.533   3.662   8.733  1.0441  0.1526 -0.2284
  609TMC3    O1 9086   0.122   3.624   9.183  1.0369  0.9460  0.4294
  609TMC3    O2 9087   4.621   3.629   8.658  0.3575 -0.5457  0.7347
  610TMC3    C1 9088   2.152   3.940  12.320 -0.3524  0.4341 -0.4960
  610TMC3    C2 9089   2.037   4.016  12.328  0.3635 -0.0928  0.7562
  610TMC3    C3 9090   1.992   4.063  12.448  0.5009  0.4180 -0.5696
  610TMC3    C4 9091   2.220   3.921  12.435 -0.6153 -0.1903  1.4095
  610TMC3    C5 9092   2.176   3.973  12.554 -0.1055  0.4631  0.1486
  610TMC3    C6 9093   2.062   4.046  12.564 -0.0432 -0.2119  0.1568
  610TMC3     C 9094   2.152   3.841  12.221  0.3903  0.0323 -0.6806
  610TMC3     O 9095   2.145   3.724  12.261 -0.3566  0.2141  0.2419
  610TMC3     H 9096   1.990   4.050  12.236 -0.2613  0.6385  1.3529
  610TMC3    H1 9097   2.314   3.867  12.425 -0.5387  0.0742  0.6321
  610TMC3    H2 9098   2.040   4.086  12.662 -1.0192 -1.7773  0.5922
  610TMC3    C7 9099   2.273   3.975  12.665  0.5123  0.2528 -0.6619
  610TMC3    C8 9100   1.892   4.167  12.452 -0.5911 -0.5253 -0.2505
  610TMC3    O1 9101   2.388   3.937  12.633  0.9893  0.4914 -0.6093
  610TMC3    O2 9102   1.916   4.255  12.533 -0.4985  0.4246  0.2683
  611MPD2     C 9103   0.866   4.538   9.615 -0.0781  0.1768 -0.0464
  611MPD2    C1 9104   0.900   4.605   9.729 -0.6295 -0.0820 -0.3475
  611MPD2    C2 9105   1.030   4.657   9.743 -0.3576  0.5260 -0.0237
  611MPD2    C3 9106   1.128   4.637   9.642 -0.0397 -0.5432 -0.2061
  611MPD2    C4 9107   1.081   4.573   9.528 -0.0498  0.7090 -0.2636
  611MPD2    C5 9108   0.956   4.520   9.517 -0.4061 -0.0514 -0.1431
  611MPD2     H 9109   1.061   4.702   9.836 -0.8357 -0.6934  0.7285
  611MPD2    H1 9110   1.147   4.543   9.447  0.4659  2.0316 -0.3253
  611MPD2    H2 9111   0.772   4.487   9.600 -0.4566  0.3492  1.8135
  611MPD2    H3 9112   0.933   4.466   9.426 -1.5480  2.5070 -1.3912
  611MPD2     N 9113   1.267   4.682   9.636 -0.0936 -0.5541  0.3069
  611MPD2    H5 9114   1.327   4.643   9.564 -0.3896  0.3758 -0.4421
  611MPD2    N1 9115   0.798   4.604   9.826 -0.1253 -0.5503  0.2876
  611MPD2    H7 9116   0.714   4.549   9.810 -1.2911  2.1842 -2.9210
  612TMC3    C1 9117   1.465   0.031   9.738  0.5723  0.2471 -0.1852
  612TMC3    C2 9118   1.524   0.135   9.802  0.7555  0.3438 -0.0300
  612TMC3    C3 9119   1.654   0.128   9.826  0.6946 -0.1023  0.6892
  612TMC3    C4 9120   1.535   4.665   9.678  0.4934  0.0471  0.1040
  612TMC3    C5 9121   1.674   4.669   9.698 -0.0234  0.1068 -0.2347
  612TMC3    C6 9122   1.732   0.023   9.777  0.4594  0.5548 -0.4699
  612TMC3     C 9123   1.320   0.028   9.735 -0.1491 -0.4253  0.0110
  612TMC3     O 9124   1.268   0.084   9.829 -0.5966  0.2198 -0.1552
  612TMC3     H 9125   1.472   0.217   9.849 -0.8478  0.4822 -2.0343
  612TMC3    H1 9126   1.491   4.581   9.626 -0.7084  1.5832 -1.3449
  612TMC3    H2 9127   1.839   0.019   9.793  0.1844 -0.3036  1.2556
  612TMC3    C7 9128   1.763   4.580   9.619 -0.5811  0.6454  0.1467
  612TMC3    C8 9129   1.691   0.210   9.940  0.0537  0.4062 -0.5969
  612TMC3    O1 9130   1.879   4.562   9.656  0.0828 -0.2276  0.6329
  612TMC3    O2 9131   1.664   0.330   9.938  0.6075 -0.1944  0.3124
  613MPD2     C 9132   1.017   1.628  16.780 -0.5780 -0.0107 -0.6858
  613MPD2    C1 9133   0.984   1.707  16.671 -0.6412 -0.2859  0.0246
  613MPD2    C2 9134   0.889   1.663  16.583  0.4815  0.2091  0.0940
  613MPD2    C3 9135   0.845   1.531  16.588 -0.4856  0.3148 -0.2728
  613MPD2    C4 9136   0.887   1.447  16.691 -0.3952 -0.1792 -0.1142
  613MPD2    C5 9137   0.963   1.499  16.791 -0.8101  0.0458  0.1172
  613MPD2     H 9138   0.856   1.734  16.508 -2.0253  0.5971  1.5637
  613MPD2    H1 9139   0.842   1.348  16.695 -1.7257  0.4541  0.7824
  613MPD2    H2 9140   1.076   1.662  16.864 -1.5267  0.3993 -0.1882
  613MPD2    H3 9141   0.993   1.430  16.869  0.5442  0.7540  0.2319
  613MPD2     N 9142   0.764   1.475  16.485  0.6526 -0.2118 -0.9511
  613MPD2    H5 9143   0.762   1.374  16.485  0.0786 -0.1959  1.4660
  613MPD2    N1 9144   1.039   1.836  16.676  0.0283  0.4462  0.7425
  613MPD2    H7 9145   1.093   1.861  16.758 -1.2011  0.1103  1.6457
  614TMC3    C1 9146   0.999   1.911  16.453  0.0442 -0.2832  0.6668
  614TMC3    C2 9147   1.060   1.810  16.382  0.5609 -0.4700 -0.3508
  614TMC3    C3 9148   1.057   1.830  16.242  0.5532 -0.0799  0.0600
  614TMC3    C4 9149   0.942   2.021  16.392 -0.0858  0.5071  0.3315
  614TMC3    C5 9150   0.936   2.025  16.253  0.1871 -0.2563  0.8086
  614TMC3    C6 9151   0.990   1.928  16.174  0.7783  0.2794  0.1548
  614TMC3     C 9152   1.036   1.940  16.593 -0.1093  0.4522 -0.4242
  614TMC3     O 9153   1.042   2.059  16.623 -0.7105  0.8493 -0.2986
  614TMC3     H 9154   1.141   1.751  16.421 -1.9018 -1.6528  2.9847
  614TMC3    H1 9155   0.893   2.102  16.445 -0.9527  0.5151 -0.4853
  614TMC3    H2 9156   1.017   1.953  16.072  0.3853  0.6362  0.1413
  614TMC3    C7 9157   0.906   2.158  16.198 -0.2604 -0.7378 -0.6118
  614TMC3    C8 9158   1.056   1.699  16.176 -0.4658  0.4818  0.5871
  614TMC3    O1 9159   0.907   2.244  16.280 -0.2245  0.1423 -0.3532
  614TMC3    O2 9160   1.061   1.605  16.251  0.4117  0.1707 -0.3768
  615MPD2     C 9161   0.245   3.724  15.889  0.2686  0.1594 -0.5222
  615MPD2    C1 9162   0.222   3.745  15.750  0.3840 -0.1710  0.2588
  615MPD2    C2 9163   0.137   3.649  15.683 -0.0131 -0.0226  0.0026
  615MPD2    C3 9164   0.091   3.535  15.748 -0.2013  0.1175 -0.6330
  615MPD2    C4 9165   0.122   3.516  15.882 -0.0926 -0.0644  0.7452
  615MPD2    C5 9166   0.199   3.614  15.952  0.3292  0.5962  0.0257
  615MPD2     H 9167   0.105   3.678  15.584  0.4979  2.5793  0.5899
  615MPD2    H1 9168   0.094   3.428  15.940  0.6956 -0.8597 -0.0967
  615MPD2    H2 9169   0.299   3.798  15.947 -1.2557  0.3253  0.6792
  615MPD2    H3 9170   0.214   3.594  16.057  2.2962 -0.4494 -0.4697
  615MPD2     N 9171   0.004   3.439  15.683  0.2130 -0.0226 -0.4239
  615MPD2    H5 9172   4.693   3.363  15.730  3.5773 -2.0507 -0.1989
  615MPD2    N1 9173   0.248   3.870  15.683 -0.6676  1.0493  0.4826
  615MPD2    H7 9174   0.200   3.897  15.598  0.7112 -1.8397 -1.2161
  616TMC3    C1 9175   0.320   4.087  15.667  0.3645 -0.0708  0.3642
  616TMC3    C2 9176   0.418   4.180  15.706 -0.3190  0.5149 -0.0512
  616TMC3    C3 9177   0.388   4.310  15.693 -0.1334 -0.2275 -0.4462
  616TMC3    C4 9178   0.213   4.123  15.593 -0.5116  0.6602  0.2785
  616TMC3    C5 9179   0.184   4.262  15.592  0.4104  0.3721 -0.8013
  616TMC3    C6 9180   0.275   4.355  15.639 -0.3742  0.1175  0.1217
  616TMC3     C 9181   0.325   3.967  15.744 -0.0837 -0.6112 -0.5349
  616TMC3     O 9182   0.396   3.966  15.842  0.3754  0.3141 -0.3865
  616TMC3     H 9183   0.513   4.139  15.737  0.4272  0.6973 -2.0750
  616TMC3    H1 9184   0.132   4.056  15.567  1.5524 -1.4355 -0.8138
  616TMC3    H2 9185   0.254   4.461  15.635  0.8340  0.4834  3.5426
  616TMC3    C7 9186   0.047   4.291  15.567  1.1435  0.7679  0.3892
  616TMC3    C8 9187   0.475   4.414  15.749  0.8336  0.1739 -0.5446
  616TMC3    O1 9188   4.715   4.207  15.512  0.1980 -1.0341 -0.0852
  616TMC3    O2 9189   0.443   4.534  15.755  0.0547 -0.3028 -0.6509
  617MPD2     C 9190   2.861   2.016  13.599  0.7893 -0.4015 -0.5570
  617MPD2    C1 9191   2.916   1.901  13.655  0.6648 -0.4505 -0.1954
  617MPD2    C2 9192   2.835   1.812  13.721  0.2620 -0.0574  0.4943
  617MPD2    C3 9193   2.699   1.839  13.728  0.0572 -0.5060 -0.2217
  617MPD2    C4 9194   2.648   1.960  13.676  0.6982 -0.3724 -0.0002
  617MPD2    C5 9195   2.729   2.046  13.609 -0.4903 -0.0315 -0.2616
  617MPD2     H 9196   2.870   1.715  13.753 -2.2190 -1.1066  0.0867
  617MPD2    H1 9197   2.541   1.973  13.677  0.7164 -0.2288  0.5327
  617MPD2    H2 9198   2.919   2.092  13.548 -0.2309  0.4439 -0.4753
  617MPD2    H3 9199   2.676   2.132  13.568 -1.0361  0.5175  1.5834
  617MPD2     N 9200   2.611   1.751  13.793 -0.8028 -0.0857 -0.3764
  617MPD2    H5 9201   2.515   1.785  13.793 -0.3442  1.1894  1.8225
  617MPD2    N1 9202   3.058   1.871  13.643  0.1730 -0.2001  0.1644
  617MPD2    H7 9203   3.083   1.774  13.661 -2.1449 -1.0111 -0.9072
  618TMC3    C1 9204   3.285   1.902  13.590 -0.1042 -0.0296 -0.0526
  618TMC3    C2 9205   3.393   1.974  13.623  0.2111 -0.1361  0.5421
  618TMC3    C3 9206   3.516   1.916  13.638  0.1692 -0.2123 -0.5325
  618TMC3    C4 9207   3.301   1.773  13.565  0.3230  0.2410 -0.7061
  618TMC3    C5 9208   3.423   1.709  13.585 -0.0297  0.1387 -0.0799
  618TMC3    C6 9209   3.534   1.784  13.627 -0.4189  0.3270  0.3067
  618TMC3     C 9210   3.151   1.963  13.598 -0.1308 -0.2077 -0.1760
  618TMC3     O 9211   3.141   2.080  13.635  0.5997  0.6818 -0.2097
  618TMC3     H 9212   3.367   2.077  13.642  0.2914  0.1493 -0.8963
  618TMC3    H1 9213   3.216   1.718  13.527  2.5917 -4.2420  0.6826
  618TMC3    H2 9214   3.626   1.734  13.654 -0.3392  0.5170  0.3831
  618TMC3    C7 9215   3.431   1.580  13.531 -0.0351  0.4981 -0.2554
  618TMC3    C8 9216   3.617   2.009  13.666  0.0057 -0.0056 -0.1562
  618TMC3    O1 9217   3.327   1.512  13.526 -0.1228 -0.0293  0.5522
  618TMC3    O2 9218   3.584   2.123  13.700  0.1589 -0.1889  0.8969
  619MPD2     C 9219   4.297   2.473  13.722  0.5513 -0.5567 -0.8546
  619MPD2    C1 9220   4.240   2.579  13.657 -0.4306 -0.3751  0.0327
  619MPD2    C2 9221   4.149   2.651  13.723 -0.0843 -0.6718 -1.2118
  619MPD2    C3 9222   4.104   2.624  13.852 -0.0705 -0.7319 -0.4488
  619MPD2    C4 9223   4.161   2.513  13.913 -0.0502  0.2057 -0.1077
  619MPD2    C5 9224   4.253   2.435  13.844 -0.4308 -0.3461 -0.2649
  619MPD2     H 9225   4.108   2.740  13.677 -0.0407 -0.3552 -0.6436
  619MPD2    H1 9226   4.113   2.484  14.006  1.0576 -0.2316  0.3315
  619MPD2    H2 9227   4.379   2.417  13.681  0.9221 -1.8474  1.6457
  619MPD2    H3 9228   4.283   2.340  13.886 -1.5755 -0.8492 -0.5622
  619MPD2     N 9229   4.002   2.694  13.908  0.4331 -0.4109 -0.1150
  619MPD2    H5 9230   3.974   2.664  14.000 -0.4879 -3.4878 -1.3911
  619MPD2    N1 9231   4.273   2.615  13.525  0.1993  0.4246 -0.1138
  619MPD2    H7 9232   4.242   2.705  13.492 -0.6875  0.4058  0.6721
  620TMC3    C1 9233   4.390   2.610  13.324 -0.7940 -0.5142 -0.2009
  620TMC3    C2 9234   4.310   2.590  13.217  0.4053 -0.8109 -0.3189
  620TMC3    C3 9235   4.324   2.678  13.115 -0.3840  0.1201  0.3806
  620TMC3    C4 9236   4.473   2.717  13.345  1.0368  0.7899 -0.7563
  620TMC3    C5 9237   4.483   2.808  13.240 -0.4181 -0.4127 -0.4434
  620TMC3    C6 9238   4.415   2.784  13.122  0.5047  0.1181 -0.0748
  620TMC3     C 9239   4.359   2.530  13.445 -0.3889 -0.1809  0.3917
  620TMC3     O 9240   4.407   2.417  13.457  0.0285  0.2497  0.1467
  620TMC3     H 9241   4.235   2.512  13.222  0.1487 -0.4362  1.4347
  620TMC3    H1 9242   4.534   2.726  13.434  1.3253  0.1698 -0.8959
  620TMC3    H2 9243   4.433   2.848  13.036 -0.9325 -0.5954 -0.9129
  620TMC3    C7 9244   4.537   2.940  13.260 -0.1159  0.2003  0.2861
  620TMC3    C8 9245   4.233   2.664  13.004  0.0643  0.3870 -1.0063
  620TMC3    O1 9246   4.513   3.011  13.161 -0.6324  0.3546 -0.0366
  620TMC3    O2 9247   4.214   2.547  12.969 -0.3763 -0.1795 -0.5043
  621MPD2     C 9248   4.382   3.218  10.880 -0.2343  0.0289 -0.1329
  621MPD2    C1 9249   4.422   3.147  10.762  0.5335 -0.0955  0.4499
  621MPD2    C2 9250   4.446   3.219  10.648  0.0676 -0.2311 -0.1664
  621MPD2    C3 9251   4.418   3.350  10.638  0.0083  0.0367  0.6796
  621MPD2    C4 9252   4.385   3.412  10.750 -0.0862 -0.1790 -0.1949
  621MPD2    C5 9253   4.365   3.353  10.874  0.4446 -0.2351 -0.1571
  621MPD2     H 9254   4.471   3.157  10.563 -2.1098 -1.3660  0.0284
  621MPD2    H1 9255   4.362   3.518  10.744 -0.8475 -0.4046 -1.1920
  621MPD2    H2 9256   4.356   3.163  10.970 -1.2931 -0.5451 -0.7921
  621MPD2    H3 9257   4.322   3.403  10.960 -0.2933 -2.0972  0.5531
  621MPD2     N 9258   4.440   3.419  10.516 -0.1594  0.0919  0.6073
  621MPD2    H5 9259   4.491   3.360  10.450  2.3634  1.9068  0.9218
  621MPD2    N1 9260   4.423   3.007  10.747  0.1496  0.0731 -0.2418
  621MPD2    H7 9261   4.429   2.973  10.652  0.5251  1.2896 -0.6474
  622TMC3    C1 9262   4.369   2.783  10.804  0.3079  0.3762 -0.0964
  622TMC3    C2 9263   4.331   2.712  10.912  0.3781 -0.0655  0.3396
  622TMC3    C3 9264   4.212   2.643  10.906 -0.6338 -0.2343 -0.4722
  622TMC3    C4 9265   4.285   2.774  10.692 -0.6129  0.1786  0.3289
  622TMC3    C5 9266   4.164   2.704  10.692 -0.1914 -0.0884 -0.7358
  622TMC3    C6 9267   4.130   2.632  10.799 -0.3287 -0.4395  0.1184
  622TMC3     C 9268   4.402   2.916  10.850 -0.1891 -0.0837 -0.3417
  622TMC3     O 9269   4.411   2.934  10.971  0.2324  0.2902 -0.1663
  622TMC3     H 9270   4.387   2.722  11.004  0.0969 -1.0834  0.6303
  622TMC3    H1 9271   4.295   2.843  10.610  2.2004 -0.7091 -0.1005
  622TMC3    H2 9272   4.040   2.572  10.802 -1.3893  1.2094  1.3919
  622TMC3    C7 9273   4.041   2.750  10.612 -0.1987 -0.6189  0.0853
  622TMC3    C8 9274   4.169   2.552  11.014 -0.6885 -0.3779 -0.2807
  622TMC3    O1 9275   3.930   2.724  10.654 -0.2453  0.2142  0.2596
  622TMC3    O2 9276   4.242   2.457  11.029 -0.2446 -0.4843  0.3509
  623MPD2     C 9277   4.045   3.887  16.290 -0.3934  0.0389 -0.0034
  623MPD2    C1 9278   3.939   3.861  16.373  0.1475 -0.2871  0.0545
  623MPD2    C2 9279   3.950   3.883  16.511  0.0497 -0.3422 -0.3682
  623MPD2    C3 9280   4.054   3.946  16.569 -0.1684 -0.4392  0.1800
  623MPD2    C4 9281   4.165   3.968  16.490  0.2956 -0.3586 -0.2980
  623MPD2    C5 9282   4.159   3.935  16.354 -0.5558 -0.2127 -0.0247
  623MPD2     H 9283   3.858   3.877  16.569  2.9162 -0.1323  4.1827
  623MPD2    H1 9284   4.260   4.007  16.525 -0.6946 -0.7673  2.8319
  623MPD2    H2 9285   4.051   3.876  16.182 -0.9143 -0.4061  0.0143
  623MPD2    H3 9286   4.250   3.954  16.297 -0.2678 -1.4274  0.0319
  623MPD2     N 9287   4.047   3.980  16.708 -0.1361 -0.4032  0.2382
  623MPD2    H5 9288   3.964   3.961  16.764  0.8494 -3.0885  0.7781
  623MPD2    N1 9289   3.809   3.804  16.336  0.0057 -0.5166 -0.6230
  623MPD2    H7 9290   3.749   3.778  16.414  0.0374 -1.1705 -0.8215
  624TMC3    C1 9291   4.081   3.866  17.128  0.5068  0.1460 -0.6723
  624TMC3    C2 9292   3.948   3.901  17.142  0.4010  0.7414  0.2400
  624TMC3    C3 9293   3.895   3.993  17.047  0.3359 -0.1166  0.3913
  624TMC3    C4 9294   4.157   3.905  17.019 -0.0024 -0.1767 -0.8358
  624TMC3    C5 9295   4.097   4.000  16.931  0.8563  0.2637  0.4759
  624TMC3    C6 9296   3.966   4.035  16.939  0.1134  0.0281 -0.3121
  624TMC3     C 9297   4.105   3.733  17.175  0.1036  1.2599 -0.3764
  624TMC3     O 9298   4.105   3.711  17.295  0.0557 -0.2829  0.3903
  624TMC3     H 9299   3.885   3.853  17.216 -0.1483 -0.4383 -1.0005
  624TMC3    H1 9300   4.260   3.873  17.027 -0.0864 -0.0176  0.8784
  624TMC3    H2 9301   3.917   4.100  16.869  2.1206  1.3964 -0.4415
  624TMC3    C7 9302   4.153   4.002  16.793  0.0186 -0.1772  0.1846
  624TMC3    C8 9303   3.761   3.955  17.005  0.6367 -0.1517 -0.6289
  624TMC3    O1 9304   4.273   4.000  16.775 -0.4448 -0.5265  0.6737
  624TMC3    O2 9305   3.742   3.931  16.888  0.4186  0.2320  0.1912
  625MPD2     C 9306   4.486   0.178   0.584  0.7278 -0.0819  0.0251
  625MPD2    C1 9307   4.527   0.309   0.615 -1.3169  0.4174 -0.0111
  625MPD2    C2 9308   4.660   0.334   0.655  0.2297  0.2845 -0.7736
  625MPD2    C3 9309   0.014   0.235   0.671  0.8465 -0.0367 -0.4449
  625MPD2    C4 9310   4.706   0.101   0.651 -0.0567 -0.3124  0.2246
  625MPD2    C5 9311   4.573   0.073   0.606 -0.4446 -0.4620  0.1801
  625MPD2     H 9312   4.702   0.433   0.670 -0.7007  0.5435  0.1524
  625MPD2    H1 9313   0.039   0.019   0.643  4.2068  3.0824  3.0137
  625MPD2    H2 9314   4.384   0.159   0.552  0.8849 -0.1376 -0.4313
  625MPD2    H3 9315   4.542   4.712   0.571 -0.5526 -0.3574 -0.0209
  625MPD2     N 9316   0.146   0.280   0.687 -0.3005  0.3954  0.1786
  625MPD2    H5 9317   0.165   0.380   0.687  0.5556  0.2354  0.9801
  625MPD2    N1 9318   4.450   0.418   0.587  0.5089 -0.4200 -0.4178
  625MPD2    H7 9319   4.478   0.510   0.620 -0.3636 -0.9355  1.7923
  626TMC3    C1 9320   4.275   0.542   0.518  0.3023  0.6337 -0.4833
  626TMC3    C2 9321   4.182   0.561   0.423  0.4829  0.2424 -0.8866
  626TMC3    C3 9322   4.103   0.674   0.439 -0.0578 -0.1171 -0.1486
  626TMC3    C4 9323   4.289   0.617   0.630 -0.6089  0.4825 -0.2561
  626TMC3    C5 9324   4.210   0.729   0.641 -0.7092  0.8365 -0.6234
  626TMC3    C6 9325   4.120   0.760   0.542  0.1897  0.5452  0.1306
  626TMC3     C 9326   4.347   0.420   0.500  0.6549 -0.3365 -0.0723
  626TMC3     O 9327   4.322   0.339   0.413 -0.4663  0.5087 -0.3720
  626TMC3     H 9328   4.181   0.511   0.327  1.4424  0.7309 -1.1561
  626TMC3    H1 9329   4.351   0.595   0.716 -0.5593  2.6116  0.2464
  626TMC3    H2 9330   4.055   0.847   0.539  0.5741  0.8067 -0.6255
  626TMC3    C7 9331   4.181   0.781   0.767 -0.2371 -0.6476 -0.0312
  626TMC3    C8 9332   3.990   0.689   0.360 -0.0849  0.5490 -0.3473
  626TMC3    O1 9333   4.265   0.757   0.855 -0.1610 -0.0881  1.1735
  626TMC3    O2 9334   3.953   0.799   0.317  0.3328 -0.3216  0.1293
  627MPD2     C 9335   2.874   0.411  14.423 -0.1250 -0.4724  1.0250
  627MPD2    C1 9336   2.772   0.490  14.479 -0.0968 -0.9015  0.0947
  627MPD2    C2 9337   2.651   0.442  14.461 -0.7713  0.2739  0.6988
  627MPD2    C3 9338   2.629   0.338  14.371  0.5421 -0.1318  1.2679
  627MPD2    C4 9339   2.727   0.269  14.303 -1.3880  0.0425 -0.5122
  627MPD2    C5 9340   2.853   0.304  14.339 -0.1798  0.4357  0.2236
  627MPD2     H 9341   2.563   0.492  14.500 -1.4373  0.6445 -1.2502
  627MPD2    H1 9342   2.719   0.184  14.236  2.4567 -1.0029  0.3183
  627MPD2    H2 9343   2.978   0.428  14.448 -0.2540  1.6036  0.1833
  627MPD2    H3 9344   2.939   0.250  14.302  0.9557  1.5112  1.2905
  627MPD2     N 9345   2.496   0.317  14.338 -0.7022 -0.0299  0.7357
  627MPD2    H5 9346   2.433   0.374  14.394  0.1063  0.9779  0.6071
  627MPD2    N1 9347   2.797   0.601  14.560  0.2489 -0.4579 -0.3956
  627MPD2    H7 9348   2.720   0.638  14.614  2.5648  2.6701  0.7668
  628TMC3    C1 9349   2.897   0.754  14.704 -0.1428  0.3537 -0.5866
  628TMC3    C2 9350   2.941   0.712  14.826 -0.2115  0.2158 -0.3628
  628TMC3    C3 9351   2.942   0.803  14.933 -0.2554  0.2214  0.2900
  628TMC3    C4 9352   2.857   0.882  14.680 -0.5818 -0.1121  0.2247
  628TMC3    C5 9353   2.850   0.966  14.789 -0.1996  0.3787 -0.0544
  628TMC3    C6 9354   2.881   0.927  14.916  0.1712 -0.3455 -0.2795
  628TMC3     C 9355   2.919   0.662  14.592  0.2396  0.1792 -0.1516
  628TMC3     O 9356   3.025   0.657  14.530 -0.2715 -0.4227 -0.1765
  628TMC3     H 9357   2.974   0.610  14.840  0.5179  0.4013 -0.7264
  628TMC3    H1 9358   2.842   0.912  14.577 -0.7060  1.1474  0.6145
  628TMC3    H2 9359   2.898   1.002  14.993 -0.9221 -1.4085  0.9887
  628TMC3    C7 9360   2.845   1.113  14.771  0.5608 -0.2295 -0.0199
  628TMC3    C8 9361   3.038   0.787  15.037  0.1456 -0.6341  0.0359
  628TMC3    O1 9362   2.896   1.179  14.859  0.1418 -0.0637  0.4868
  628TMC3    O2 9363   3.014   0.854  15.138  0.1244 -0.1682  0.7676
  629MPD2     C 9364   0.902   4.548  16.005 -0.3878  0.9392 -0.1808
  629MPD2    C1 9365   0.909   4.409  15.983 -0.5049 -0.1037 -0.2641
  629MPD2    C2 9366   0.800   4.346  15.917 -0.2557  0.0872  0.4748
  629MPD2    C3 9367   0.688   4.422  15.880  0.0001  0.1827 -0.4889
  629MPD2    C4 9368   0.689   4.558  15.911  0.1568 -0.1202 -0.2952
  629MPD2    C5 9369   0.789   4.619  15.972 -0.5107 -0.0444 -0.2567
  629MPD2     H 9370   0.801   4.238  15.908 -0.4503  0.3903 -2.9341
  629MPD2    H1 9371   0.603   4.621  15.889  0.3174  0.2343  0.0774
  629MPD2    H2 9372   0.981   4.601  16.056 -0.4063  3.6114 -2.9900
  629MPD2    H3 9373   0.789   4.724  15.995 -1.3983 -0.2316  0.5934
  629MPD2     N 9374   0.591   4.359  15.798  0.0836  0.5877  0.3761
  629MPD2    H5 9375   0.611   4.261  15.779  0.7468  0.5349  1.3694
  629MPD2    N1 9376   1.028   4.341  16.021  0.2097  0.0585  0.1160
  629MPD2    H7 9377   1.104   4.402  16.050  0.4566 -0.6498  0.9668
  630TMC3    C1 9378   1.157   4.173  16.138 -0.0333  0.6600  0.1139
  630TMC3    C2 9379   1.264   4.246  16.112  0.4828  0.4960  0.5078
  630TMC3    C3 9380   1.359   4.244  16.217  0.1858  0.2656 -0.2222
  630TMC3    C4 9381   1.143   4.086  16.237 -0.4345  0.0045 -0.4886
  630TMC3    C5 9382   1.237   4.089  16.336 -0.2189  0.4326 -0.0217
  630TMC3    C6 9383   1.351   4.159  16.323  0.0792 -0.7039  0.3478
  630TMC3     C 9384   1.038   4.209  16.070  0.2545 -0.5835 -0.4192
  630TMC3     O 9385   0.946   4.124  16.071 -0.0158 -0.3038 -0.1215
  630TMC3     H 9386   1.280   4.302  16.021 -0.4969  1.2930  0.8219
  630TMC3    H1 9387   1.046   4.040  16.249  0.6890 -1.6001  2.6287
  630TMC3    H2 9388   1.423   4.162  16.404  1.6133 -0.5960 -1.0095
  630TMC3    C7 9389   1.224   4.007  16.453 -0.4754  0.3526 -0.4322
  630TMC3    C8 9390   1.499   4.303  16.197 -1.1596  0.0496 -0.4070
  630TMC3    O1 9391   1.319   4.008  16.533 -0.3045  0.0481  0.4100
  630TMC3    O2 9392   1.590   4.263  16.272  0.2455  0.7306  0.2295
  631MPD2     C 9393   3.898   3.555  15.605 -0.7110 -0.2818 -0.3456
  631MPD2    C1 9394   3.954   3.544  15.481  0.1051  0.2036  0.1040
  631MPD2    C2 9395   4.060   3.466  15.464 -0.1828 -0.0331  0.2053
  631MPD2    C3 9396   4.102   3.390  15.574 -0.0533 -0.3255 -0.3861
  631MPD2    C4 9397   4.047   3.395  15.698 -0.3664 -0.8682  0.2437
  631MPD2    C5 9398   3.938   3.477  15.714 -0.4455 -0.2229 -0.2370
  631MPD2     H 9399   4.110   3.463  15.368 -0.7791  0.4920 -0.1219
  631MPD2    H1 9400   4.068   3.323  15.776 -2.1265 -0.6494  0.9144
  631MPD2    H2 9401   3.810   3.614  15.623 -0.4787  0.1925 -0.7624
  631MPD2    H3 9402   3.874   3.474  15.801  0.3693  0.1115  0.3774
  631MPD2     N 9403   4.204   3.304  15.545  0.2164  0.1062  0.5346
  631MPD2    H5 9404   4.238   3.306  15.449 -0.0241 -0.4821  0.4370
  631MPD2    N1 9405   3.906   3.634  15.379  0.0513 -0.0579  0.5644
  631MPD2    H7 9406   3.848   3.709  15.417 -1.4829 -0.9430 -0.0265
  632TMC3    C1 9407   3.894   3.741  15.173 -0.2373  0.2176 -0.7551
  632TMC3    C2 9408   3.792   3.818  15.222 -0.1668  0.0470  0.4099
  632TMC3    C3 9409   3.772   3.949  15.173 -0.7965 -0.3368  0.0173
  632TMC3    C4 9410   3.980   3.790  15.074  0.4639 -0.0741 -0.6357
  632TMC3    C5 9411   3.954   3.915  15.027 -0.7611  0.5818  0.7304
  632TMC3    C6 9412   3.859   4.000  15.081  0.0717  0.0187  0.2252
  632TMC3     C 9413   3.930   3.623  15.242 -0.0478  0.4775 -0.3827
  632TMC3     O 9414   3.996   3.537  15.183 -0.1681  0.6348  0.3570
  632TMC3     H 9415   3.726   3.778  15.298  0.8341 -0.8079  0.8272
  632TMC3    H1 9416   4.067   3.731  15.051  1.1863  1.4500 -1.8280
  632TMC3    H2 9417   3.834   4.098  15.040  0.6022 -0.1236 -0.4314
  632TMC3    C7 9418   4.021   3.958  14.904 -0.2818 -0.1042 -0.2391
  632TMC3    C8 9419   3.698   4.027  15.272 -0.3106  0.4691  0.3390
  632TMC3    O1 9420   4.076   3.873  14.846  0.0981  0.9697  0.3299
  632TMC3    O2 9421   3.604   3.963  15.327 -0.6713 -0.0212 -0.0023
  633MPD2     C 9422   4.027   2.443  17.462 -0.6963  0.6503  0.6417
  633MPD2    C1 9423   4.054   2.345  17.366 -0.4504 -0.4005 -0.0834
  633MPD2    C2 9424   4.170   2.271  17.375 -0.6773  0.2582 -0.2543
  633MPD2    C3 9425   4.267   2.298  17.466 -0.3533  0.9983 -0.0201
  633MPD2    C4 9426   4.244   2.404  17.545 -0.2857 -0.3542  0.0277
  633MPD2    C5 9427   4.127   2.473  17.553  0.4924  0.3425  0.0929
  633MPD2     H 9428   4.174   2.183  17.312  0.4075  0.9181 -1.1137
  633MPD2    H1 9429   4.323   2.437  17.611 -3.2941  1.1899  2.8852
  633MPD2    H2 9430   3.942   2.510  17.461 -1.8863 -0.9112 -2.8898
  633MPD2    H3 9431   4.116   2.551  17.627 -2.4667  0.9395 -0.9684
  633MPD2     N 9432   4.382   2.220  17.480 -0.3881 -0.1110  0.1245
  633MPD2    H5 9433   4.435   2.230  17.567  1.3150 -1.5076 -0.7371
  633MPD2    N1 9434   3.960   2.305  17.261  0.2820 -0.3170  0.4267
  633MPD2    H7 9435   3.995   2.235  17.197  0.9175  0.9158 -0.5777
  634TMC3    C1 9436   3.788   2.352  17.114  0.7432  0.3329  0.2199
  634TMC3    C2 9437   3.823   2.239  17.043 -0.3029  0.5103  0.1711
  634TMC3    C3 9438   3.776   2.232  16.913  0.0487 -0.4870  0.4867
  634TMC3    C4 9439   3.747   2.466  17.044 -0.5463 -0.0068  0.3790
  634TMC3    C5 9440   3.710   2.448  16.915 -0.2975  0.3562  0.4256
  634TMC3    C6 9441   3.724   2.338  16.846  0.6075  0.0686 -0.3851
  634TMC3     C 9442   3.835   2.364  17.246 -0.1639 -0.6486 -0.0867
  634TMC3     O 9443   3.793   2.457  17.309 -0.7870 -0.1777 -0.1717
  634TMC3     H 9444   3.856   2.150  17.096 -1.2851 -0.9524 -1.6930
  634TMC3    H1 9445   3.720   2.547  17.111 -0.9988  0.1218  0.0365
  634TMC3    H2 9446   3.683   2.335  16.745 -0.6319  0.9347  0.0857
  634TMC3    C7 9447   3.690   2.565  16.834  0.3361  0.6044  0.1041
  634TMC3    C8 9448   3.781   2.099  16.860 -0.1442  0.5301  0.6729
  634TMC3    O1 9449   3.674   2.555  16.712  0.0616 -0.1471 -0.0370
  634TMC3    O2 9450   3.880   2.037  16.892 -0.3429  0.3249 -0.6352
  635TMC3    C1 9451   3.867   3.173   0.622 -0.0183 -0.1797  0.8659
  635TMC3    C2 9452   3.934   3.135   0.512 -0.1159  0.1417 -0.0128
  635TMC3    C3 9453   3.867   3.046   0.430 -0.2982  0.2785  0.2015
  635TMC3    C4 9454   3.735   3.149   0.647 -0.4733  0.6262 -0.4427
  635TMC3    C5 9455   3.667   3.076   0.552 -0.1386 -0.6093 -0.0323
  635TMC3    C6 9456   3.730   3.021   0.448  0.9889 -0.2666  0.2263
  635TMC3     C 9457   3.931   3.263   0.716  0.0432  0.2790  0.3770
  635TMC3     O 9458   4.003   3.347   0.666  0.1529  0.1128 -0.4285
  635TMC3     H 9459   4.038   3.156   0.493  0.4409  0.0553  2.9297
  635TMC3    H1 9460   3.688   3.193   0.734  3.7565  2.1860  1.0272
  635TMC3    H2 9461   3.677   2.953   0.382 -2.0953  0.9566  1.4499
  635TMC3    C7 9462   3.516   3.093   0.548  0.8602 -0.5800 -0.3224
  635TMC3    C8 9463   3.928   2.976   0.314  0.4819 -0.2176 -0.5379
  635TMC3    O1 9464   3.476   3.156   0.643 -0.1632  0.7185  0.1101
  635TMC3    O2 9465   3.855   2.936   0.221  0.0717  0.2707  0.1416
  636MPD2     C 9466   0.400   1.997  15.700  0.0083 -0.2105  0.2859
  636MPD2    C1 9467   0.427   2.025  15.828 -0.2999 -0.5294  0.0849
  636MPD2    C2 9468   0.479   1.927  15.909  0.0523  0.6186 -0.6309
  636MPD2    C3 9469   0.502   1.797  15.857  0.6790  0.8425  0.4632
  636MPD2    C4 9470   0.483   1.772  15.728 -0.2831  0.1761  0.1857
  636MPD2    C5 9471   0.435   1.875  15.650  0.0382  0.0434  0.5368
  636MPD2     H 9472   0.474   1.955  16.013  0.4304  0.0431 -0.4587
  636MPD2    H1 9473   0.513   1.678  15.683  0.1578  0.5862 -0.3742
  636MPD2    H2 9474   0.357   2.067  15.629 -0.2699  0.8782  1.5285
  636MPD2    H3 9475   0.409   1.855  15.547  1.3717 -0.9309  0.3967
  636MPD2     N 9476   0.541   1.700  15.954 -0.1199  0.3977 -0.0043
  636MPD2    H5 9477   0.571   1.728  16.047 -0.7650  0.8026  0.0853
  636MPD2    N1 9478   0.407   2.150  15.894 -0.3811 -0.8722  0.2340
  636MPD2    H7 9479   0.429   2.148  15.993  0.0650 -0.2273  0.1470
  637TMC3    C1 9480   0.606   1.480  16.042 -0.8694  0.2166  0.1240
  637TMC3    C2 9481   0.606   1.535  16.169  0.0095 -0.6215 -0.6679
  637TMC3    C3 9482   0.676   1.461  16.261 -0.8403 -0.3171  0.0676
  637TMC3    C4 9483   0.674   1.369  16.004 -0.9497  0.3388  0.5689
  637TMC3    C5 9484   0.754   1.313  16.100  0.8117 -0.5611 -0.3824
  637TMC3    C6 9485   0.753   1.354  16.227  0.6864 -0.0822  0.7014
  637TMC3     C 9486   0.533   1.560  15.939 -0.2908 -0.1775 -0.0944
  637TMC3     O 9487   0.496   1.495  15.839 -0.1148 -0.0618 -0.3263
  637TMC3     H 9488   0.533   1.610  16.199 -0.1225  0.0315 -2.6717
  637TMC3    H1 9489   0.668   1.333  15.902 -0.2214 -0.1133  0.6941
  637TMC3    H2 9490   0.815   1.315  16.306  2.0104  0.0269 -0.2865
  637TMC3    C7 9491   0.860   1.217  16.061 -0.0734  0.0305 -0.2154
  637TMC3    C8 9492   0.703   1.545  16.380  0.0311  0.2197  0.3811
  637TMC3    O1 9493   0.880   1.115  16.120 -0.2618  0.5860 -0.1902
  637TMC3    O2 9494   0.656   1.661  16.383 -0.4007  0.1025 -0.3173
  638MPD2     C 9495   4.472   1.215  14.607  0.0025  1.2455 -0.3146
  638MPD2    C1 9496   4.496   1.092  14.547  0.8553 -0.9346 -0.2398
  638MPD2    C2 9497   4.498   0.976  14.611 -0.0324  0.2515  0.1035
  638MPD2    C3 9498   4.479   0.973  14.745 -0.5388  0.1490  0.1855
  638MPD2    C4 9499   4.473   1.094  14.816 -0.3810 -0.3516 -0.5983
  638MPD2    C5 9500   4.468   1.212  14.744 -0.8035 -0.7728 -0.2343
  638MPD2     H 9501   4.524   0.887  14.555  4.0646  0.1340  2.1967
  638MPD2    H1 9502   4.459   1.097  14.924  0.5360 -0.1571 -0.4858
  638MPD2    H2 9503   4.481   1.310  14.556 -1.2090  1.3268 -0.3862
  638MPD2    H3 9504   4.462   1.308  14.794 -0.7378 -0.6380 -0.4827
  638MPD2     N 9505   4.463   0.846  14.802  0.3720  0.5461  1.1532
  638MPD2    H5 9506   4.478   0.768  14.739  0.7870  2.7732 -1.4977
  638MPD2    N1 9507   4.516   1.101  14.410 -0.0224  0.1478  0.4139
  638MPD2    H7 9508   4.535   1.195  14.377 -1.1300 -0.8481 -3.0519
  639TMC3    C1 9509   4.467   0.674  14.943  0.1578 -1.0792  0.2597
  639TMC3    C2 9510   4.384   0.614  14.850  0.5195 -0.1936 -0.5809
  639TMC3    C3 9511   4.389   0.481  14.824  0.4790  0.6117 -0.4752
  639TMC3    C4 9512   4.573   0.595  14.990 -0.1502 -0.9025 -0.0373
  639TMC3    C5 9513   4.573   0.459  14.971  0.4740 -0.0431  0.3425
  639TMC3    C6 9514   4.483   0.401  14.881  0.5334  0.0600 -0.1052
  639TMC3     C 9515   4.478   0.813  14.933  0.1123 -0.0784 -0.6554
  639TMC3     O 9516   4.503   0.878  15.033  0.2919 -0.5138 -0.2227
  639TMC3     H 9517   4.289   0.648  14.810 -0.0024  0.4623  1.2267
  639TMC3    H1 9518   4.642   0.630  15.066  1.8045 -2.0602 -1.2883
  639TMC3    H2 9519   4.463   0.295  14.881 -0.2106  0.2182  3.0700
  639TMC3    C7 9520   4.692   0.381  15.012 -0.6075  0.2775  1.0584
  639TMC3    C8 9521   4.269   0.412  14.781  0.1718  0.1172 -0.0791
  639TMC3    O1 9522   4.685   0.262  15.033 -0.4112 -0.4606 -0.7899
  639TMC3    O2 9523   4.166   0.451  14.827  0.6078  0.2169  0.1167
  640MPD2     C 9524   4.710   4.533  10.165  0.8752 -0.1054  0.3911
  640MPD2    C1 9525   4.689   4.576  10.030 -0.3148  0.0718  0.2695
  640MPD2    C2 9526   4.703   4.709   9.998  0.4233 -1.6535 -0.1467
  640MPD2    C3 9527   4.731   0.069  10.094  0.6615  0.5048  0.0733
  640MPD2    C4 9528   0.028   0.023  10.220  0.4764 -0.6807  0.0722
  640MPD2    C5 9529   0.011   4.631  10.254  0.7275 -0.0217 -0.3266
  640MPD2     H 9530   4.694   0.004   9.895 -0.4226 -0.2407  0.3584
  640MPD2    H1 9531   0.068   0.087  10.298  1.3496 -0.7790 -0.2978
  640MPD2    H2 9532   4.705   4.427  10.189  0.5604 -0.4629 -1.2099
  640MPD2    H3 9533   0.023   4.597  10.356 -0.2143  0.0102 -0.2065
  640MPD2     N 9534   0.001   0.202  10.051  0.2439  0.1587 -0.3107
  640MPD2    H5 9535   4.705   0.210   9.955 -2.1711  1.5989  0.6231
  640MPD2    N1 9536   4.678   4.475   9.933 -0.1498 -0.6427  0.1837
  640MPD2    H7 9537   4.704   4.379   9.952  0.3100 -0.5797 -0.1284
  641TMC3    C1 9538   4.668   4.381   9.716  0.2253 -0.3657  0.3183
  641TMC3    C2 9539   0.026   4.289   9.755  0.2983  0.1487  0.5115
  641TMC3    C3 9540   0.077   4.211   9.655  0.0139  0.0834 -0.1146
  641TMC3    C4 9541   4.625   4.388   9.584  0.3272  0.2899 -0.4685
  641TMC3    C5 9542   4.669   4.289   9.498  0.7041 -0.5538 -0.3600
  641TMC3    C6 9543   0.033   4.206   9.531  0.0774 -0.1512 -0.3226
  641TMC3     C 9544   4.637   4.496   9.800 -0.2194  0.1856  0.3425
  641TMC3     O 9545   4.593   4.595   9.747  0.9603 -0.6800  0.4184
  641TMC3     H 9546   0.052   4.281   9.860  4.4489 -2.5550 -0.7025
  641TMC3    H1 9547   4.545   4.456   9.556  0.1872  0.2238 -0.2361
  641TMC3    H2 9548   0.078   4.138   9.459 -0.7691 -1.2998  0.2399
  641TMC3    C7 9549   4.610   4.285   9.361  0.0580 -0.3789 -0.3224
  641TMC3    C8 9550   0.183   4.112   9.685 -0.5101  0.6215 -0.6270
  641TMC3    O1 9551   4.533   4.376   9.330  0.2981 -0.3342  0.4766
  641TMC3    O2 9552   0.182   4.017   9.612  0.0296 -0.1661  0.6505
  642TMC3    C1 9553   1.303   0.836  12.526  0.7970  0.2418  0.2182
  642TMC3    C2 9554   1.385   0.919  12.452 -0.4687  0.1050 -0.2471
  642TMC3    C3 9555   1.394   0.918  12.313 -0.0533  0.0415  0.2150
  642TMC3    C4 9556   1.230   0.748  12.453  0.2352 -0.3045 -0.0210
  642TMC3    C5 9557   1.250   0.741  12.313 -0.2486  0.6107  0.0045
  642TMC3    C6 9558   1.323   0.828  12.240 -0.1282 -0.3051 -0.4604
  642TMC3     C 9559   1.231   0.889  12.638 -0.4580  0.1077  0.5793
  642TMC3     O 9560   1.267   0.856  12.747  0.0293 -0.0137  0.1698
  642TMC3     H 9561   1.437   0.996  12.508 -0.1166  0.1890 -0.6864
  642TMC3    H1 9562   1.157   0.694  12.512 -0.9258 -0.0701 -1.2494
  642TMC3    H2 9563   1.327   0.822  12.132  1.8555  1.9437 -0.4953
  642TMC3    C7 9564   1.173   0.639  12.242  0.4323 -0.4051 -0.4181
  642TMC3    C8 9565   1.475   1.011  12.243 -0.1456 -0.8911 -0.5887
  642TMC3    O1 9566   1.131   0.670  12.132 -0.0489  0.0716 -0.6319
  642TMC3    O2 9567   1.446   1.055  12.131 -0.1390  0.0913  0.3374
  643TMC3    C1 9568   0.932   4.601   0.128  0.1245 -0.5003 -0.0195
  643TMC3    C2 9569   0.807   4.631   0.088 -0.5485 -0.7959  0.3678
  643TMC3    C3 9570   0.755   4.581  17.723  0.2866  0.4262 -0.2076
  643TMC3    C4 9571   1.017   4.516   0.055 -0.2768 -0.0112 -0.3497
  643TMC3    C5 9572   0.962   4.467  17.686  0.1569  0.0756 -0.8663
  643TMC3    C6 9573   0.838   4.503  17.647  0.0331 -0.8983  0.1292
  643TMC3     C 9574   0.980   4.654   0.257 -0.4781 -0.2821 -0.1300
  643TMC3     O 9575   0.939   0.024   0.289 -0.4707  0.2541 -0.1732
  643TMC3     H 9576   0.742   4.677   0.162  1.6846  3.3149 -0.1947
  643TMC3    H1 9577   1.116   4.494   0.096 -0.0713 -1.6193 -1.7262
  643TMC3    H2 9578   0.795   4.470  17.553  0.7987  0.2773 -0.6248
  643TMC3    C7 9579   1.048   4.483  17.575  0.4585 -0.6610 -0.5129
  643TMC3    C8 9580   0.668   4.665  17.644  0.5833 -0.8087 -0.9367
  643TMC3    O1 9581   1.143   4.563  17.591  0.3277 -0.0133  0.5086
  643TMC3    O2 9582   0.585   4.611  17.576 -0.0289  0.7730 -0.3599
  644MPD2     C 9583   4.424   0.176   8.837  0.2790 -0.4059  0.4706
  644MPD2    C1 9584   4.486   0.174   8.962  0.5423 -0.2558  0.2426
  644MPD2    C2 9585   4.482   0.289   9.043  0.3501 -0.1248  0.4105
  644MPD2    C3 9586   4.433   0.411   8.996 -0.0559 -0.3655 -1.2342
  644MPD2    C4 9587   4.381   0.409   8.866 -0.2514 -0.2075  0.9561
  644MPD2    C5 9588   4.373   0.293   8.791  0.5824 -0.3447 -0.3465
  644MPD2     H 9589   4.526   0.301   9.141 -1.9115 -1.1729  1.5633
  644MPD2    H1 9590   4.346   0.503   8.825  0.9428 -0.3280 -0.3359
  644MPD2    H2 9591   4.432   0.096   8.763  0.7576  0.9098 -0.9054
  644MPD2    H3 9592   4.346   0.299   8.686 -1.8342 -2.6101  0.1501
  644MPD2     N 9593   4.447   0.526   9.078  0.4565 -0.3014  0.4860
  644MPD2    H5 9594   4.474   0.508   9.174 -0.0099  0.7813  0.8191
  644MPD2    N1 9595   4.542   0.048   8.996  0.4512 -0.1777  0.3752
  644MPD2    H7 9596   4.525   4.705   8.935  1.1424  0.5745 -0.8152
  645TMC3    C1 9597   4.463   0.753   9.164 -0.2834  0.0122 -0.4760
  645TMC3    C2 9598   4.463   0.707   9.296  0.4271 -0.2333 -0.0979
  645TMC3    C3 9599   4.490   0.797   9.394 -0.4835  0.0072  0.1426
  645TMC3    C4 9600   4.481   0.884   9.139 -0.1326  0.3000 -0.3465
  645TMC3    C5 9601   4.510   0.971   9.244 -0.1593  0.4200 -0.7284
  645TMC3    C6 9602   4.516   0.927   9.373 -0.7044 -0.1853 -0.5945
  645TMC3     C 9603   4.441   0.660   9.049  0.4675 -0.5545 -0.5540
  645TMC3     O 9604   4.423   0.700   8.935  0.0888 -0.1468 -0.5281
  645TMC3     H 9605   4.421   0.608   9.312  1.1688 -0.2773  1.5349
  645TMC3    H1 9606   4.497   0.917   9.037  1.3797  0.8788  0.0779
  645TMC3    H2 9607   4.535   1.004   9.447  0.6643  0.2272 -1.3648
  645TMC3    C7 9608   4.496   1.113   9.225  0.4077  0.9687  0.2465
  645TMC3    C8 9609   4.475   0.770   9.538  0.1713  0.3728  1.2220
  645TMC3    O1 9610   4.519   1.178   9.324 -0.2198 -0.0349 -0.7932
  645TMC3    O2 9611   4.478   0.862   9.617  0.1542  0.0551 -0.1588
  646MPD2     C 9612   0.240   4.388  14.478  0.4491 -0.8000  0.1539
  646MPD2    C1 9613   0.140   4.323  14.542 -0.2478  0.1099  0.0639
  646MPD2    C2 9614   0.013   4.322  14.482  0.3697 -0.6332  0.1480
  646MPD2    C3 9615   4.727   4.374  14.360 -0.5274 -0.2231  1.0586
  646MPD2    C4 9616   0.084   4.453  14.300  0.1654  0.7625 -0.3810
  646MPD2    C5 9617   0.210   4.462  14.361 -0.1983  0.2201 -0.9105
  646MPD2     H 9618   4.662   4.279  14.528  0.3628 -1.8282 -0.9892
  646MPD2    H1 9619   0.070   4.518  14.215  0.7223  1.0312 -0.2615
  646MPD2    H2 9620   0.334   4.393  14.533  1.0995  0.1186 -1.0422
  646MPD2    H3 9621   0.292   4.522  14.325  0.8273 -1.2425 -1.0360
  646MPD2     N 9622   4.598   4.371  14.312  0.5212  0.7031  0.5638
  646MPD2    H5 9623   4.526   4.335  14.374  1.0283 -0.2978  0.5806
  646MPD2    N1 9624   0.166   4.264  14.668  0.0197 -0.0491  0.5217
  646MPD2    H7 9625   0.265   4.255  14.689 -0.7352 -1.9048  3.3649
  647TMC3    C1 9626   0.142   4.105  14.830  0.2615 -0.2837  0.4726
  647TMC3    C2 9627   0.107   3.977  14.823  0.5452 -1.5038  0.1927
  647TMC3    C3 9628   0.196   3.879  14.855 -0.5466  0.3484  0.9254
  647TMC3    C4 9629   0.267   4.140  14.881  0.8360  0.1785 -0.2757
  647TMC3    C5 9630   0.353   4.034  14.908  0.3634 -0.4632 -0.7857
  647TMC3    C6 9631   0.322   3.908  14.904  0.1749  0.1421  0.0276
  647TMC3     C 9632   0.076   4.197  14.749  0.2360 -0.1635 -0.5566
  647TMC3     O 9633   4.691   4.193  14.742  0.3504 -0.2299 -0.1258
  647TMC3     H 9634   0.005   3.951  14.800  1.5140 -5.7202  0.7221
  647TMC3    H1 9635   0.297   4.244  14.875 -0.1446  0.4771 -0.0459
  647TMC3    H2 9636   0.398   3.834  14.928 -1.1387 -1.3157 -0.3421
  647TMC3    C7 9637   0.480   4.062  14.968 -0.3690  0.5429  0.8537
  647TMC3    C8 9638   0.146   3.742  14.872  0.0588  0.4590 -0.1299
  647TMC3    O1 9639   0.548   3.970  15.006 -0.3641 -0.2638  0.1924
  647TMC3    O2 9640   0.050   3.711  14.802 -0.5269 -0.1557 -0.1999
  648TMC3    C1 9641   4.422   2.033  16.367 -0.3585 -0.2688  0.1954
  648TMC3    C2 9642   4.485   1.922  16.333  0.0329 -0.3055 -0.0980
  648TMC3    C3 9643   4.485   1.892  16.195  0.7119 -0.0195 -0.0131
  648TMC3    C4 9644   4.364   2.121  16.279 -0.0382  0.4696 -0.1385
  648TMC3    C5 9645   4.354   2.080  16.148 -1.3172 -0.5153 -0.2972
  648TMC3    C6 9646   4.418   1.965  16.104  0.2231 -0.0673 -0.2153
  648TMC3     C 9647   4.424   2.077  16.504 -0.3210  0.2424  0.4277
  648TMC3     O 9648   4.379   2.191  16.526  0.1479  0.2717  0.3515
  648TMC3     H 9649   4.553   1.870  16.399 -0.9041 -1.6552 -0.1891
  648TMC3    H1 9650   4.309   2.206  16.318  0.3839  0.4066  0.6141
  648TMC3    H2 9651   4.400   1.937  16.001 -2.6715 -0.2984  0.3389
  648TMC3    C7 9652   4.311   2.169  16.042  0.4033  0.2623 -0.1760
  648TMC3    C8 9653   4.518   1.755  16.162 -0.4288  0.0724 -0.1987
  648TMC3    O1 9654   4.351   2.136  15.935  0.5592 -0.4793  0.5028
  648TMC3    O2 9655   4.551   1.686  16.255  0.1967 -0.2145  0.3315
  649TMC3    C1 9656   3.133   2.802  13.258  0.5249 -1.0210 -0.6715
  649TMC3    C2 9657   3.259   2.763  13.258 -0.2830 -0.5870 -0.1417
  649TMC3    C3 9658   3.314   2.722  13.378  0.1696  0.4570 -0.5344
  649TMC3    C4 9659   3.050   2.792  13.364 -0.0017  0.7080  0.0725
  649TMC3    C5 9660   3.110   2.751  13.482  0.6171 -0.4850 -0.1758
  649TMC3    C6 9661   3.238   2.714  13.487 -0.7590 -0.4742 -0.3419
  649TMC3     C 9662   3.068   2.809  13.130  0.5263 -0.0958 -0.1136
  649TMC3     O 9663   3.001   2.912  13.120 -0.0649 -0.0266  0.4932
  649TMC3     H 9664   3.322   2.792  13.175 -1.3698 -0.4014 -0.8992
  649TMC3    H1 9665   2.943   2.808  13.356 -0.1698 -0.0639  0.7978
  649TMC3    H2 9666   3.283   2.697  13.585 -0.8094  3.0087  0.2873
  649TMC3    C7 9667   3.023   2.766  13.601  0.6042  0.0356  0.5973
  649TMC3    C8 9668   3.458   2.713  13.399  0.1179  0.2910 -0.1949
  649TMC3    O1 9669   2.927   2.845  13.591  0.3642  0.0969  0.4788
  649TMC3    O2 9670   3.499   2.737  13.510 -0.4969 -0.5681  0.5781
  650TMC3    C1 9671   0.372   4.693  12.514 -0.2375 -0.3130  0.4894
  650TMC3    C2 9672   0.432   0.082  12.522 -0.5651  0.4148  0.8340
  650TMC3    C3 9673   0.389   0.160  12.621 -0.3726  1.1700  0.3165
  650TMC3    C4 9674   0.289   4.644  12.609  0.2583 -0.1832 -0.0677
  650TMC3    C5 9675   0.259   4.722  12.719 -0.3539 -0.6114  0.8097
  650TMC3    C6 9676   0.316   0.113  12.729 -0.3107  0.1757  0.0290
  650TMC3     C 9677   0.442   4.595  12.429 -0.0264  0.2213 -0.1318
  650TMC3     O 9678   0.468   4.642  12.317 -0.8977 -0.1441  0.4320
  650TMC3     H 9679   0.499   0.121  12.446 -1.6904  2.5441  0.9478
  650TMC3    H1 9680   0.227   4.556  12.596  1.0253 -0.5734 -1.0571
  650TMC3    H2 9681   0.297   0.165  12.823  0.9859  0.3628  0.1857
  650TMC3    C7 9682   0.116   0.005  12.733  0.2415 -0.9234  0.6163
  650TMC3    C8 9683   0.368   0.303  12.594  0.0234 -0.1987 -0.5033
  650TMC3    O1 9684   0.078   0.002  12.847  0.1161 -0.5719  0.0103
  650TMC3    O2 9685   0.437   0.357  12.513  0.3090  0.5192  0.0855
  651MPD2     C 9686   3.801   2.439  10.427 -0.2165  0.4269  0.1061
  651MPD2    C1 9687   3.841   2.397  10.550  0.1802  1.0257 -0.0145
  651MPD2    C2 9688   3.979   2.362  10.563  0.0591 -0.2180 -0.4924
  651MPD2    C3 9689   4.069   2.370  10.454 -0.2265 -0.8458  0.0764
  651MPD2    C4 9690   4.022   2.411  10.334  1.0908 -0.3229 -0.1335
  651MPD2    C5 9691   3.890   2.448  10.319 -0.0895  0.0612  0.0054
  651MPD2     H 9692   4.021   2.326  10.656 -1.4706  0.8823  0.6187
  651MPD2    H1 9693   4.087   2.419  10.247  0.5248  0.1629 -0.5087
  651MPD2    H2 9694   3.695   2.456  10.414 -0.0637 -0.6941 -2.7318
  651MPD2    H3 9695   3.848   2.472  10.221  0.1973  0.5731  0.0064
  651MPD2     N 9696   4.205   2.350  10.480 -0.6520  0.0991  0.3401
  651MPD2    H5 9697   4.231   2.338  10.578 -3.6868  0.1618  1.1332
  651MPD2    N1 9698   3.751   2.395  10.663  0.2297  1.1389 -0.2122
  651MPD2    H7 9699   3.666   2.446  10.644 -0.0680  0.9194  0.5576
  652TMC3    C1 9700   4.653   2.360  10.365  0.3972 -0.8451  0.0508
  652TMC3    C2 9701   4.536   2.295  10.364  0.0843 -0.4446 -0.1161
  652TMC3    C3 9702   4.435   2.338  10.445 -0.0018 -0.3136  0.6968
  652TMC3    C4 9703   4.677   2.467  10.452  0.1530 -0.0071 -0.4047
  652TMC3    C5 9704   4.577   2.501  10.542  0.1135 -0.1702 -0.4566
  652TMC3    C6 9705   4.456   2.437  10.534  0.5162 -0.0080  0.2721
  652TMC3     C 9706   0.030   2.305  10.297  0.0512 -0.1567  0.2138
  652TMC3     O 9707   0.053   2.188  10.306 -0.0806  0.3421  0.3126
  652TMC3     H 9708   4.511   2.225  10.285  1.1955 -0.4845 -0.4465
  652TMC3    H1 9709   0.037   2.513  10.454  0.9806 -1.7097 -0.7816
  652TMC3    H2 9710   4.377   2.471  10.601 -0.0647 -0.7916 -0.0145
  652TMC3    C7 9711   4.599   2.585  10.663 -0.4370  0.1448  0.3009
  652TMC3    C8 9712   4.303   2.322  10.385 -0.3560  0.1789  0.0581
  652TMC3    O1 9713   4.532   2.559  10.758  0.6592  0.0199 -0.4108
  652TMC3    O2 9714   4.290   2.306  10.263  0.2424  0.0893  0.2198
  653MPD2     C 9715   3.631   2.067  17.279  0.3125 -0.2841 -0.0401
  653MPD2    C1 9716   3.525   2.147  17.255 -0.2923 -0.0142  0.0375
  653MPD2    C2 9717   3.441   2.110  17.143  0.3900  0.1919 -0.2444
  653MPD2    C3 9718   3.457   1.994  17.076 -0.2120 -0.6476  1.1244
  653MPD2    C4 9719   3.561   1.917  17.110  0.4652  0.4757  0.7308
  653MPD2    C5 9720   3.649   1.954  17.205  0.1651 -0.3569  0.1036
  653MPD2     H 9721   3.356   2.175  17.122  0.1522  0.0777  0.3661
  653MPD2    H1 9722   3.584   1.829  17.051  0.1095  0.4920  0.5688
  653MPD2    H2 9723   3.703   2.096  17.355 -0.6462  0.2798  0.6547
  653MPD2    H3 9724   3.725   1.883  17.235  2.2020  1.1666 -1.4606
  653MPD2     N 9725   3.357   1.948  16.979  0.2209  0.7481 -0.4704
  653MPD2    H5 9726   3.279   2.010  16.962 -1.3895 -0.6010  1.9216
  653MPD2    N1 9727   3.514   2.259  17.341  0.2959 -0.2100 -0.0012
  653MPD2    H7 9728   3.593   2.276  17.402 -0.1976 -0.0395  0.5817
  654TMC3    C1 9729   3.231   1.781  16.881  0.1753 -0.7512 -0.5241
  654TMC3    C2 9730   3.137   1.881  16.861  0.0130 -0.4629 -0.0847
  654TMC3    C3 9731   3.007   1.845  16.889 -0.0572  0.5473  0.0317
  654TMC3    C4 9732   3.207   1.657  16.934 -0.1343 -0.2013  0.7406
  654TMC3    C5 9733   3.077   1.633  16.973 -0.0143 -0.1680 -0.1894
  654TMC3    C6 9734   2.971   1.723  16.948  0.0512  0.2173  0.2601
  654TMC3     C 9735   3.355   1.824  16.910 -0.1011 -0.5377  0.3423
  654TMC3     O 9736   3.440   1.736  16.898 -0.1602  0.2483 -0.1070
  654TMC3     H 9737   3.161   1.972  16.806  1.1926 -0.8444 -0.2055
  654TMC3    H1 9738   3.280   1.577  16.925  0.8660  0.7675  0.2798
  654TMC3    H2 9739   2.869   1.698  16.977 -0.4250  0.5620 -1.1191
  654TMC3    C7 9740   3.039   1.500  17.008  0.4628 -0.3998 -0.6057
  654TMC3    C8 9741   2.901   1.935  16.869  0.1462  0.1692 -0.0397
  654TMC3    O1 9742   2.942   1.454  16.949 -1.1209 -0.3598  0.8617
  654TMC3    O2 9743   2.791   1.889  16.900  0.4749 -0.0378  0.5979
  655MPD2     C 9744   0.096   1.942  15.811  0.1416  0.5160  0.0002
  655MPD2    C1 9745   0.004   2.020  15.742  0.0997  0.7334 -0.0885
  655MPD2    C2 9746   4.692   1.980  15.619 -0.0597  0.2965  0.2066
  655MPD2    C3 9747   0.004   1.868  15.558  0.4713 -0.1412  0.2437
  655MPD2    C4 9748   0.108   1.793  15.620  0.0900  0.4220  0.4058
  655MPD2    C5 9749   0.140   1.824  15.753 -0.7645  0.0226 -0.2701
  655MPD2     H 9750   4.620   2.048  15.574  1.2921  1.7159  0.1701
  655MPD2    H1 9751   0.135   1.701  15.570 -1.7552  0.4203 -0.5643
  655MPD2    H2 9752   0.123   1.967  15.913 -2.4005  1.2477  0.4727
  655MPD2    H3 9753   0.218   1.770  15.806 -1.6412 -2.2940 -1.3120
  655MPD2     N 9754   4.711   1.823  15.429 -0.0940 -0.1358  1.0362
  655MPD2    H5 9755   0.042   1.759  15.389  0.2947  0.3250  0.9672
  655MPD2    N1 9756   4.696   2.147  15.783  0.3094  0.0452 -0.3456
  655MPD2    H7 9757   4.638   2.190  15.712 -0.1533 -2.1681 -1.3079
  656TMC3    C1 9758   4.666   2.336  15.911  0.1422  0.6157  0.3324
  656TMC3    C2 9759   4.624   2.381  16.029 -0.8983 -0.5591 -0.0087
  656TMC3    C3 9760   4.553   2.500  16.026 -0.2365  0.5846  0.7005
  656TMC3    C4 9761   4.648   2.397  15.792  0.7080  0.2950  0.9907
  656TMC3    C5 9762   4.576   2.514  15.801  0.2191  0.3140 -0.1637
  656TMC3    C6 9763   4.522   2.572  15.912 -0.2325  0.2080  0.8941
  656TMC3     C 9764   4.728   2.210  15.902 -0.8440 -0.5114 -0.0858
  656TMC3     O 9765   0.039   2.156  15.999 -0.1362  0.2675  0.2204
  656TMC3     H 9766   4.629   2.315  16.115  2.4471  0.4583  0.5798
  656TMC3    H1 9767   4.702   2.384  15.699  1.8212  0.6184  1.5954
  656TMC3    H2 9768   4.508   2.679  15.921 -1.6074  0.0583  0.5859
  656TMC3    C7 9769   4.512   2.562  15.678  0.1949  0.6548  0.5893
  656TMC3    C8 9770   4.491   2.528  16.155 -0.6003  0.5440  0.1516
  656TMC3    O1 9771   4.538   2.509  15.572  0.7090  0.3108  0.1069
  656TMC3    O2 9772   4.492   2.441  16.241 -0.3797 -0.0781 -0.0821
  657TMC3    C1 9773   3.305   0.907  14.746 -0.0023 -0.7095 -1.0232
  657TMC3    C2 9774   3.315   0.973  14.860 -0.4935 -0.8104  0.3755
  657TMC3    C3 9775   3.241   1.089  14.875 -1.0228 -0.0444 -0.2832
  657TMC3    C4 9776   3.226   0.948  14.645  0.1541  0.0519  0.1112
  657TMC3    C5 9777   3.163   1.067  14.654  0.1222 -0.3622 -0.3853
  657TMC3    C6 9778   3.166   1.142  14.771 -0.0313 -0.4676 -0.6137
  657TMC3     C 9779   3.370   0.789  14.715 -0.0133 -0.5793  0.8447
  657TMC3     O 9780   3.321   0.710  14.634 -0.7092  0.0659  0.1737
  657TMC3     H 9781   3.378   0.934  14.939  0.2173 -1.2968 -0.4284
  657TMC3    H1 9782   3.225   0.892  14.552  0.9367  1.3241 -0.6662
  657TMC3    H2 9783   3.104   1.231  14.780  1.2458  0.5514 -1.7427
  657TMC3    C7 9784   3.132   1.137  14.527  0.8102 -0.1668 -0.0494
  657TMC3    C8 9785   3.258   1.153  15.006 -0.1699  0.6413 -0.3717
  657TMC3    O1 9786   3.122   1.070  14.428 -0.3726  0.2716  0.5900
  657TMC3    O2 9787   3.357   1.125  15.072 -0.3117 -0.2914 -0.4634
  658MPD2     C 9788   0.433   1.994  14.969 -0.1088  0.0568 -0.3179
  658MPD2    C1 9789   0.306   2.036  14.930 -0.3379 -0.1725 -0.2193
  658MPD2    C2 9790   0.297   2.153  14.855  0.2810 -0.3805 -0.0572
  658MPD2    C3 9791   0.411   2.223  14.811  0.2839  0.3522  0.6931
  658MPD2    C4 9792   0.535   2.165  14.851  0.1673  0.0232  0.4454
  658MPD2    C5 9793   0.544   2.057  14.933 -0.1135  0.4068 -0.2651
  658MPD2     H 9794   0.203   2.197  14.823  1.1356  1.4061 -0.1234
  658MPD2    H1 9795   0.624   2.217  14.820 -0.7127  1.1603 -0.1566
  658MPD2    H2 9796   0.443   1.903  15.028 -1.9287  0.4395  0.5703
  658MPD2    H3 9797   0.645   2.027  14.960 -0.7122 -0.1158  1.3368
  658MPD2     N 9798   0.393   2.326  14.711  0.2329 -0.0428 -0.1876
  658MPD2    H5 9799   0.301   2.336  14.670  0.4368  1.3924 -0.2731
  658MPD2    N1 9800   0.193   1.965  14.972  0.0937  0.1103  0.3114
  658MPD2    H7 9801   0.198   1.903  15.052 -0.0431  1.4218  1.3313
  659TMC3    C1 9802   4.704   1.919  15.000 -0.1183 -0.1419 -0.0871
  659TMC3    C2 9803   4.733   1.892  15.135  0.0545 -0.1836  0.5987
  659TMC3    C3 9804   4.623   1.848  15.208 -0.2625 -0.2142 -0.5062
  659TMC3    C4 9805   4.582   1.896  14.942 -0.0442  0.6519 -0.4383
  659TMC3    C5 9806   4.481   1.857  15.018 -0.0595  0.1298 -0.2842
  659TMC3    C6 9807   4.494   1.840  15.152  0.2200  0.3612  0.9024
  659TMC3     C 9808   0.067   1.966  14.912  0.0032 -0.2428  0.0291
  659TMC3     O 9809   0.038   2.005  14.798 -0.1679  0.4382 -0.1781
  659TMC3     H 9810   0.088   1.916  15.186 -0.1508  2.5426 -0.3280
  659TMC3    H1 9811   4.566   1.934  14.842  0.4304  0.0520 -0.7461
  659TMC3    H2 9812   4.409   1.816  15.214  0.0676 -1.9548 -0.2193
  659TMC3    C7 9813   4.343   1.833  14.966 -0.4067  0.4845 -0.4467
  659TMC3    C8 9814   4.614   1.877  15.350  0.3536  0.1716 -0.1826
  659TMC3    O1 9815   4.286   1.738  15.026  0.2388  0.5452  0.2861
  659TMC3    O2 9816   4.511   1.935  15.385  0.1677 -0.2870 -0.4111
  660MPD2     C 9817   2.478   1.128  12.674  0.8739  0.2923  0.7103
  660MPD2    C1 9818   2.341   1.115  12.696 -0.2027 -0.4522  1.0476
  660MPD2    C2 9819   2.293   0.997  12.745  0.2726  0.6333 -0.2242
  660MPD2    C3 9820   2.388   0.896  12.780 -0.0661 -0.6414  0.7902
  660MPD2    C4 9821   2.525   0.915  12.759  0.0983  0.2548 -0.0063
  660MPD2    C5 9822   2.569   1.031  12.700  0.8211  0.3877 -0.1998
  660MPD2     H 9823   2.188   0.975  12.753  0.4528 -0.7713 -1.6805
  660MPD2    H1 9824   2.606   0.846  12.778  0.8360  1.3573  0.8336
  660MPD2    H2 9825   2.517   1.219  12.630 -0.5043  0.2058 -0.6838
  660MPD2    H3 9826   2.672   1.041  12.668  1.1984 -1.0221  0.5728
  660MPD2     N 9827   2.350   0.780  12.850 -0.5293 -0.0365  0.0820
  660MPD2    H5 9828   2.416   0.703  12.855 -0.2355  0.1955 -0.2780
  660MPD2    N1 9829   2.271   1.222  12.654  0.4554  0.1284 -0.4772
  660MPD2    H7 9830   2.319   1.311  12.643 -1.7090  1.4491  0.7253
  661TMC3    C1 9831   2.081   1.354  12.612  0.4421  0.6473 -0.2500
  661TMC3    C2 9832   2.130   1.436  12.516  0.0929 -0.5356 -0.4358
  661TMC3    C3 9833   2.041   1.531  12.466  0.1556  0.2547 -0.5540
  661TMC3    C4 9834   1.954   1.355  12.652  0.6247 -0.0495 -0.9326
  661TMC3    C5 9835   1.879   1.459  12.623 -0.2078  0.0853  0.3113
  661TMC3    C6 9836   1.917   1.551  12.524 -0.1730 -0.1840  0.1522
  661TMC3     C 9837   2.138   1.225  12.634  1.0246  0.1420 -0.1312
  661TMC3     O 9838   2.044   1.145  12.636  0.3153 -0.6758 -0.0512
  661TMC3     H 9839   2.220   1.406  12.464  1.4687 -1.7080  2.6057
  661TMC3    H1 9840   1.915   1.285  12.725 -0.8550  1.9952  0.2229
  661TMC3    H2 9841   1.853   1.629  12.483  1.7385  1.7280  0.8010
  661TMC3    C7 9842   1.737   1.438  12.656  0.0782 -0.5405 -0.5708
  661TMC3    C8 9843   2.084   1.604  12.346 -0.1460  0.4090  0.4007
  661TMC3    O1 9844   1.710   1.398  12.767  0.2600 -0.2528  0.2625
  661TMC3    O2 9845   2.193   1.567  12.300  0.2500 -0.3816  0.8342
  662MPD2     C 9846   3.390   0.084   0.042  0.2812  0.2770 -0.4431
  662MPD2    C1 9847   3.326   0.050  17.668  0.0844  0.4317  0.2302
  662MPD2    C2 9848   3.236   0.141  17.615  0.1269  0.2045  0.3391
  662MPD2    C3 9849   3.194   0.252  17.686  0.1794  0.3306  0.4778
  662MPD2    C4 9850   3.254   0.285   0.058  0.4380  0.4889  0.0485
  662MPD2    C5 9851   3.359   0.203   0.105 -0.3230 -0.1219 -0.2076
  662MPD2     H 9852   3.203   0.116  17.515  0.8984  0.7977 -0.0694
  662MPD2    H1 9853   3.225   0.369   0.120 -1.8493 -1.1347  1.1751
  662MPD2    H2 9854   3.471   0.025   0.084 -0.2395 -2.0634 -2.6974
  662MPD2    H3 9855   3.415   0.221   0.196  0.9255 -1.5963 -0.6838
  662MPD2     N 9856   3.104   0.348  17.640 -0.2700 -0.4596 -0.2175
  662MPD2    H5 9857   3.093   0.435  17.691  1.6635 -0.6904  0.6057
  662MPD2    N1 9858   3.355   4.662  17.599 -0.2152 -0.3036 -0.2151
  662MPD2    H7 9859   3.298   4.640  17.518  0.2831 -1.3882 -0.2699
  663TMC3    C1 9860   3.412   4.433  17.578  0.3868  0.5163  0.2536
  663TMC3    C2 9861   3.428   4.330  17.663  0.0790 -0.2103  0.0092
  663TMC3    C3 9862   3.358   4.215  17.656 -0.2950 -0.6559 -0.0732
  663TMC3    C4 9863   3.337   4.425  17.466 -0.0758  0.0482 -0.8090
  663TMC3    C5 9864   3.268   4.305  17.455  0.0409 -0.1575 -0.1222
  663TMC3    C6 9865   3.272   4.213  17.557  0.4605 -0.3752 -0.0193
  663TMC3     C 9866   3.445   4.563  17.640 -0.1498 -0.5069 -0.0097
  663TMC3     O 9867   3.520   4.560  17.738 -0.7569  0.5273 -0.2864
  663TMC3     H 9868   3.456   4.356   0.018 -0.6708  0.4177  0.0574
  663TMC3    H1 9869   3.338   4.504  17.391 -0.7916 -0.0029 -0.8758
  663TMC3    H2 9870   3.240   4.111  17.541  0.0052 -0.6087  2.4635
  663TMC3    C7 9871   3.201   4.270  17.332  0.7649  0.5285 -0.3563
  663TMC3    C8 9872   3.298   4.166   0.032  0.2063 -0.2250 -0.1851
  663TMC3    O1 9873   3.206   4.353  17.247 -0.3122 -0.6949 -0.0021
  663TMC3    O2 9874   3.359   4.093   0.104  0.7653  0.4814  0.3405
  664MPD2     C 9875   0.886   3.661  17.491 -0.0173 -0.0920  0.3295
  664MPD2    C1 9876   1.019   3.664  17.538 -0.4985  0.0752 -0.1471
  664MPD2    C2 9877   1.039   3.681  17.675  0.2927 -0.0579  0.4874
  664MPD2    C3 9878   0.935   3.689   0.015  0.0178 -0.1190  1.3755
  664MPD2    C4 9879   0.808   3.689  17.711 -0.0801 -0.1231 -0.5257
  664MPD2    C5 9880   0.784   3.685  17.577  0.3002  0.3574  0.0049
  664MPD2     H 9881   1.136   3.652  17.714 -0.0234 -0.7544  0.7502
  664MPD2    H1 9882   0.726   3.706   0.034 -0.4776 -1.0270 -0.7731
  664MPD2    H2 9883   0.857   3.640  17.389  0.5655 -1.4575  0.4449
  664MPD2    H3 9884   0.683   3.688  17.539  1.3017 -0.7671 -2.7589
  664MPD2     N 9885   0.957   3.693   0.152  0.2579  0.6975 -0.0940
  664MPD2    H5 9886   1.051   3.687   0.189  0.2385  2.3110  0.2309
  664MPD2    N1 9887   1.131   3.648  17.454 -0.2204 -0.5725 -0.3313
  664MPD2    H7 9888   1.226   3.664  17.488  0.8994 -2.5781 -2.5112
  665TMC3    C1 9889   0.913   3.678   0.388  0.0992  0.6592 -0.5374
  665TMC3    C2 9890   0.843   3.617   0.487 -0.3158 -0.3614  0.5215
  665TMC3    C3 9891   0.870   3.655   0.618  0.1126  0.5581  0.5431
  665TMC3    C4 9892   1.012   3.768   0.417 -0.0792  0.3343 -0.3168
  665TMC3    C5 9893   1.041   3.799   0.548  0.0285  0.4494  0.5483
  665TMC3    C6 9894   0.967   3.753   0.647  0.2741 -0.7037  0.2367
  665TMC3     C 9895   0.862   3.680   0.250  0.3320 -0.1344  0.1192
  665TMC3     O 9896   0.747   3.639   0.241  0.4440 -0.1747 -0.1339
  665TMC3     H 9897   0.754   3.559   0.462 -2.5657  4.9761 -3.9619
  665TMC3    H1 9898   1.063   3.820   0.336 -0.0883 -1.6242 -1.5838
  665TMC3    H2 9899   1.002   3.787   0.744 -1.9551  1.4149  0.3009
  665TMC3    C7 9900   1.165   3.875   0.567  0.2537  0.4595 -0.0274
  665TMC3    C8 9901   0.794   3.596   0.727 -0.0638  0.3460  0.7073
  665TMC3    O1 9902   1.236   3.881   0.469  0.3299  0.5213  0.0670
  665TMC3    O2 9903   0.696   3.523   0.708  0.4090 -0.1247 -0.7341
  666TMC3    C1 9904   4.489   3.594  10.376 -0.1881 -0.4222 -0.1319
  666TMC3    C2 9905   4.607   3.536  10.349  0.8884  0.3592  0.3302
  666TMC3    C3 9906   4.675   3.578  10.235 -0.5452  0.4898  0.1799
  666TMC3    C4 9907   4.439   3.690  10.286 -0.2855 -0.7505 -0.0526
  666TMC3    C5 9908   4.506   3.719  10.170 -0.2079 -0.3470 -0.1355
  666TMC3    C6 9909   4.631   3.669  10.141 -0.3795 -0.1483  0.1707
  666TMC3     C 9910   4.416   3.548  10.493  0.3049  0.0288  0.2474
  666TMC3     O 9911   4.317   3.616  10.523  0.1186 -0.0520 -0.7203
  666TMC3     H 9912   4.662   3.486  10.428 -0.1194 -1.3518 -0.0429
  666TMC3    H1 9913   4.337   3.724  10.300  0.2819  0.7987  0.3498
  666TMC3    H2 9914   4.687   3.694  10.051 -0.9331  1.5968  0.3228
  666TMC3    C7 9915   4.471   3.839  10.100 -1.2026 -0.2586  0.6842
  666TMC3    C8 9916   0.076   3.544  10.235  0.1040  0.3106 -0.3844
  666TMC3    O1 9917   4.426   3.928  10.173  0.4492  0.1274 -0.7086
  666TMC3    O2 9918   0.100   3.426  10.248 -0.1551 -0.7319  0.2892
  667MPD2     C 9919   2.337   4.034  14.546 -0.2060  0.2002 -0.1571
  667MPD2    C1 9920   2.249   4.071  14.639  0.4119  0.4802 -1.0985
  667MPD2    C2 9921   2.128   4.000  14.652 -0.2457  0.3606 -0.1179
  667MPD2    C3 9922   2.100   3.894  14.572  0.0959 -0.0652  0.3310
  667MPD2    C4 9923   2.182   3.862  14.472  0.3501 -1.1256 -0.5571
  667MPD2    C5 9924   2.300   3.938  14.460 -0.4028 -0.9884 -0.0644
  667MPD2     H 9925   2.057   4.017  14.732  1.1339 -0.0254  1.1786
  667MPD2    H1 9926   2.162   3.776  14.409 -2.4000  0.7723 -2.3422
  667MPD2    H2 9927   2.435   4.079  14.531 -0.7574  0.9608 -1.4897
  667MPD2    H3 9928   2.365   3.905  14.379  3.2272 -0.8548  2.7979
  667MPD2     N 9929   1.982   3.822  14.576  0.1014  0.0435 -0.2027
  667MPD2    H5 9930   1.956   3.777  14.490  0.2880  0.1152 -0.2974
  667MPD2    N1 9931   2.270   4.176  14.733 -0.4646 -0.0926  0.2663
  667MPD2    H7 9932   2.214   4.166  14.816 -2.1645  1.0487 -0.7593
  668TMC3    C1 9933   2.369   4.368  14.828  0.3902 -0.3084  0.1030
  668TMC3    C2 9934   2.446   4.472  14.808 -0.1181 -0.1950  0.1752
  668TMC3    C3 9935   2.446   4.569  14.905  0.0670 -0.5616 -0.3020
  668TMC3    C4 9936   2.298   4.345  14.941  0.4558 -0.0653 -0.4468
  668TMC3    C5 9937   2.312   4.435  15.047 -0.1643 -1.0340 -0.2744
  668TMC3    C6 9938   2.382   4.554  15.028  0.2534 -0.4290 -0.4527
  668TMC3     C 9939   2.358   4.276  14.716  0.1492 -0.3031  0.7030
  668TMC3     O 9940   2.433   4.294  14.619 -0.3168 -0.1974  0.5116
  668TMC3     H 9941   2.489   4.495  14.711  2.5890 -1.5590  1.0485
  668TMC3    H1 9942   2.247   4.250  14.949  0.5920 -0.0157  0.9374
  668TMC3    H2 9943   2.388   4.636  15.098 -0.4513  0.3595 -1.3251
  668TMC3    C7 9944   2.234   4.409  15.161  0.1361 -0.2184 -0.2167
  668TMC3    C8 9945   2.527   4.687  14.892 -0.3274  0.7147  0.1749
  668TMC3    O1 9946   2.174   4.306  15.168  0.0971  0.0465 -0.1530
  668TMC3    O2 9947   2.509   0.049  14.958  0.0833  0.0301 -0.1557
  669TMC3    C1 9948   0.209   3.543  14.441 -0.6039  0.1491 -0.5073
  669TMC3    C2 9949   0.091   3.556  14.375  0.5034  0.4934  0.1858
  669TMC3    C3 9950   0.088   3.636  14.267  0.1798  0.0231 -0.6997
  669TMC3    C4 9951   0.326   3.601  14.397 -0.2583  0.0659  0.1820
  669TMC3    C5 9952   0.318   3.675  14.278 -0.6999 -0.1212 -0.5711
  669TMC3    C6 9953   0.201   3.696  14.216  0.8437 -0.0310 -0.3806
  669TMC3     C 9954   0.207   3.458  14.549  0.1726  0.0321  0.4723
  669TMC3     O 9955   0.116   3.376  14.554 -0.4352 -0.0651 -0.8694
  669TMC3     H 9956   0.002   3.510  14.416 -0.2909  1.4904 -0.4273
  669TMC3    H1 9957   0.428   3.580  14.429 -0.1522  1.7278  0.9554
  669TMC3    H2 9958   0.190   3.748  14.122  0.3086  1.6510  0.6116
  669TMC3    C7 9959   0.421   3.774  14.260 -0.2521  0.3506  0.2867
  669TMC3    C8 9960   4.717   3.599  14.179 -0.3607  0.2445  0.1389
  669TMC3    O1 9961   0.491   3.789  14.359  0.1298 -0.0631 -0.1582
  669TMC3    O2 9962   4.677   3.486  14.202 -0.0399  0.4971  0.2731
  670MPD2     C 9963   2.801   1.124  13.570 -0.1900  0.0752 -0.0331
  670MPD2    C1 9964   2.903   1.041  13.588  0.7569  0.3752  0.3130
  670MPD2    C2 9965   2.926   1.006  13.720 -0.0541 -0.4548  0.2151
  670MPD2    C3 9966   2.852   1.056  13.825  0.2601 -0.3362  0.0443
  670MPD2    C4 9967   2.749   1.145  13.804  0.2819 -0.0593 -0.1195
  670MPD2    C5 9968   2.725   1.180  13.671  0.1374 -0.0451  0.0648
  670MPD2     H 9969   3.007   0.935  13.737  1.2253  0.6853 -1.1068
  670MPD2    H1 9970   2.690   1.192  13.882 -0.6232 -0.7199 -0.3945
  670MPD2    H2 9971   2.769   1.149  13.470 -1.7575 -0.6392  0.2897
  670MPD2    H3 9972   2.644   1.250  13.654  1.4533  1.2702 -0.7411
  670MPD2     N 9973   2.882   1.006  13.957 -0.0648 -0.8239  0.2559
  670MPD2    H5 9974   2.952   0.933  13.963 -1.0672 -1.7652  0.4283
  670MPD2    N1 9975   2.972   0.981  13.481  0.5019  0.2286  0.2361
  670MPD2    H7 9976   3.060   0.940  13.510 -0.1643  0.7739  2.9762
  671TMC3    C1 9977   2.835   0.949  14.176  0.8078  0.4165  0.3290
  671TMC3    C2 9978   2.968   0.911  14.174 -0.2382  0.7851 -0.1152
  671TMC3    C3 9979   2.993   0.789  14.238  0.4785  0.0358  0.3230
  671TMC3    C4 9980   2.741   0.859  14.220 -0.2163 -0.3777  0.4540
  671TMC3    C5 9981   2.775   0.727  14.242 -0.3962  0.6718  0.2717
  671TMC3    C6 9982   2.903   0.696  14.262  0.9054 -0.2954  0.0317
  671TMC3     C 9983   2.799   1.034  14.066 -0.1266  0.2814  0.0147
  671TMC3     O 9984   2.693   1.096  14.079  0.2016 -0.0640  0.1127
  671TMC3     H 9985   3.046   0.982  14.149  2.1020 -2.0021 -0.7515
  671TMC3    H1 9986   2.638   0.891  14.212  0.4606  1.5948 -0.3906
  671TMC3    H2 9987   2.932   0.592  14.273 -1.9774 -1.1253 -0.0848
  671TMC3    C7 9988   2.720   0.635  14.144 -0.1709 -0.2685  0.5194
  671TMC3    C8 9989   3.133   0.745  14.217 -0.7862  0.0641  0.5767
  671TMC3    O1 9990   2.797   0.572  14.070 -0.0571 -0.3041  0.0541
  671TMC3    O2 9991   3.184   0.801  14.119  0.1084  0.3178  0.5985
  672MPD2     C 9992   3.489   2.218   0.209  0.1624  0.2542  0.4653
  672MPD2    C1 9993   3.597   2.135   0.208  0.6278  0.5664  0.2301
  672MPD2    C2 9994   3.717   2.186   0.228 -0.1993 -0.1798 -0.8087
  672MPD2    C3 9995   3.737   2.323   0.270 -0.4278  0.3809 -0.3202
  672MPD2    C4 9996   3.626   2.397   0.267  0.3976 -0.3386 -0.2240
  672MPD2    C5 9997   3.502   2.347   0.245  0.4527  0.4930  0.3034
  672MPD2     H 9998   3.801   2.122   0.207  2.4329  2.7663  0.6414
  672MPD2    H1 9999   3.634   2.498   0.305  0.1738 -0.4624  0.1546
  672MPD2    H210000   3.386   2.188   0.195  0.7096 -0.4278 -2.1983
  672MPD2    H310001   3.424   2.419   0.265  2.4156  2.1487  1.9803
  672MPD2     N10002   3.856   2.379   0.316  0.2200 -0.5100  0.6671
  672MPD2    H510003   3.856   2.476   0.346  0.1674 -0.1801 -0.4139
  672MPD2    N110004   3.562   1.999   0.196 -0.0780  0.2308 -0.5021
  672MPD2    H710005   3.463   1.975   0.196  0.6185 -2.6313  1.6062
  673TMC3    C110006   3.604   1.766   0.181 -0.8200 -0.4021  0.0462
  673TMC3    C210007   3.694   1.664   0.202  0.6419  0.1657  0.2822
  673TMC3    C310008   3.643   1.537   0.184 -0.2961  0.2163  0.1011
  673TMC3    C410009   3.482   1.749   0.122  0.1485  0.3574 -0.5499
  673TMC3    C510010   3.443   1.623   0.096  0.5813  0.1184  0.6155
  673TMC3    C610011   3.522   1.518   0.123 -0.0036  0.3824  0.2166
  673TMC3     C10012   3.656   1.895   0.203  0.2132 -0.1621 -0.3187
  673TMC3     O10013   3.775   1.894   0.219  0.5116  0.0190  0.3947
  673TMC3     H10014   3.788   1.684   0.253  0.1912  3.0208 -0.0361
  673TMC3    H110015   3.415   1.831   0.100 -0.5334  0.6109  2.4455
  673TMC3    H210016   3.482   1.419   0.107  0.0005  0.6571 -1.5269
  673TMC3    C710017   3.294   1.600   0.084  0.6772  0.4379 -0.2161
  673TMC3    C810018   3.681   1.427   0.276  0.4844 -0.3995  0.1303
  673TMC3    O110019   3.248   1.496   0.128 -0.0238 -0.0600 -0.2867
  673TMC3    O210020   3.610   1.329   0.262 -0.3742 -0.0598 -0.3322
  674MPD2     C10021   3.368   1.622  17.292 -0.4137 -0.2901  0.4656
  674MPD2    C110022   3.340   1.521  17.383 -0.0733 -0.5222 -0.1376
  674MPD2    C210023   3.212   1.490  17.426 -0.6296  0.4761  0.5225
  674MPD2    C310024   3.111   1.573  17.390 -0.3071 -1.0279 -0.5023
  674MPD2    C410025   3.133   1.676  17.310  0.5289  0.5388 -0.0070
  674MPD2    C510026   3.253   1.689  17.248  0.3494 -0.4214  0.3965
  674MPD2     H10027   3.184   1.420  17.505 -1.9799  1.1837  0.6677
  674MPD2    H110028   3.058   1.749  17.284 -0.7141  0.2949  2.9241
  674MPD2    H210029   3.460   1.654  17.244 -0.8701  1.0174  0.4829
  674MPD2    H310030   3.261   1.770  17.177 -0.5125 -1.5712 -1.0114
  674MPD2     N10031   2.989   1.549  17.455  0.7576 -0.4498 -0.4034
  674MPD2    H510032   2.981   1.479  17.528  2.4582 -0.1290  0.0958
  674MPD2    N110033   3.454   1.441  17.426  0.3614  0.8531  0.0578
  674MPD2    H710034   3.540   1.489  17.404 -1.2276  2.2114 -3.2336
  675TMC3    C110035   3.564   1.287  17.573  0.1625  0.3143 -0.4150
  675TMC3    C210036   3.549   1.178  17.653  0.2145 -0.4361  0.0194
  675TMC3    C310037   3.645   1.163  17.745 -0.0148 -0.1760 -0.1771
  675TMC3    C410038   3.678   1.375  17.583  0.0923 -0.5820  0.0921
  675TMC3    C510039   3.778   1.337  17.672  0.0880 -0.4330  0.1278
  675TMC3    C610040   3.762   1.226   0.007  0.2228 -0.7014 -0.1148
  675TMC3     C10041   3.445   1.324  17.498  0.0554 -0.6776 -0.1677
  675TMC3     O10042   3.349   1.249  17.509  0.2742 -0.1461  0.8824
  675TMC3     H10043   3.462   1.114  17.659  0.5471 -0.9917 -1.2410
  675TMC3    H110044   3.682   1.454  17.509  0.8019  1.3968  2.2515
  675TMC3    H210045   3.835   1.220   0.087 -0.6501  2.0549  0.8831
  675TMC3    C710046   3.885   1.428  17.705  0.1438 -0.1738 -0.6583
  675TMC3    C810047   3.633   1.036   0.072 -0.4883 -0.8257 -0.0970
  675TMC3    O110048   3.948   1.413   0.063  0.1906  0.4678 -0.6732
  675TMC3    O210049   3.615   0.938  17.746 -0.4716 -0.0730 -0.6310
  676MPD2     C10050   0.543   0.048  10.940  0.1738 -0.1552 -0.2428
  676MPD2    C110051   0.455   0.011  11.043 -0.1368  0.3237  0.2886
  676MPD2    C210052   0.469   4.620  11.091 -0.1795 -0.3560 -0.1533
  676MPD2    C310053   0.574   4.539  11.043  0.6539 -0.1197  0.8049
  676MPD2    C410054   0.671   4.585  10.955  0.1837  0.2058  0.7075
  676MPD2    C510055   0.648   4.711  10.903 -0.4809 -0.2280 -0.5790
  676MPD2     H10056   0.397   4.578  11.160  0.0788 -1.3738 -0.4995
  676MPD2    H110057   0.752   4.523  10.917  0.9638 -0.4353  3.4138
  676MPD2    H210058   0.529   0.140  10.884  1.5402 -0.1203 -0.5431
  676MPD2    H310059   0.702   0.019  10.821  0.2067 -4.3849 -2.3996
  676MPD2     N10060   0.590   4.406  11.078  0.3275 -0.1481 -0.2196
  676MPD2    H510061   0.672   4.360  11.040  0.4070 -1.6072  1.7060
  676MPD2    N110062   0.343   0.089  11.076  1.2708  0.1227 -0.5896
  676MPD2    H710063   0.282   0.051  11.147  2.0736  0.4498  0.2801
  677TMC3    C110064   0.228   0.272  11.138  0.0244  0.5794  0.1033
  677TMC3    C210065   0.139   0.177  11.175  0.2346 -0.2099  0.2839
  677TMC3    C310066   0.076   0.192  11.291  0.0481  0.5251 -0.2222
  677TMC3    C410067   0.265   0.374  11.215  0.4736  0.3333 -0.6090
  677TMC3    C510068   0.198   0.382  11.337  0.3505  0.0505 -0.3869
  677TMC3    C610069   0.090   0.309  11.366  0.7854  0.1790  0.2395
  677TMC3     C10070   0.325   0.224  11.045  0.6765 -0.1434 -0.4063
  677TMC3     O10071   0.403   0.305  10.995  0.0665  0.5674  0.1334
  677TMC3     H10072   0.108   0.100  11.106 -0.4556  1.2680 -1.0547
  677TMC3    H110073   0.348   0.437  11.186  1.0126 -0.1316 -0.0781
  677TMC3    H210074   0.026   0.330  11.451  1.5092  0.1857  0.7823
  677TMC3    C710075   0.266   0.444  11.455 -0.2614 -0.5466  0.9240
  677TMC3    C810076   4.716   0.089  11.327  0.8226  0.3387  0.0761
  677TMC3    O110077   0.233   0.395  11.559 -0.4570 -0.1627  0.2005
  677TMC3    O210078   4.653   0.041  11.234  0.5510  0.1829 -0.3815
  678MPD2     C10079   2.355   0.156   1.553  0.3815  1.0427 -0.1216
  678MPD2    C110080   2.357   0.064   1.452  0.1496 -0.3615 -0.0025
  678MPD2    C210081   2.233   0.018   1.408 -0.3747 -0.3044  0.5745
  678MPD2    C310082   2.112   0.070   1.450  0.6643  0.4000 -0.5053
  678MPD2    C410083   2.113   0.169   1.544 -0.4309 -0.7865  0.8319
  678MPD2    C510084   2.235   0.209   1.592 -0.3973 -0.0119  0.0516
  678MPD2     H10085   2.231   4.673   1.338 -1.6591  0.2553 -0.0466
  678MPD2    H110086   2.020   0.218   1.572  0.2369 -0.1579  1.9751
  678MPD2    H210087   2.445   0.199   1.593  0.3906  1.1190 -0.2247
  678MPD2    H310088   2.233   0.290   1.664  0.5372 -0.0293  0.1036
  678MPD2     N10089   1.993   0.016   1.386 -0.8743 -0.1371 -0.7791
  678MPD2    H510090   2.002   4.680   1.316  0.1319 -1.1136  0.3807
  678MPD2    N110091   2.478   0.020   1.393 -0.3485  0.4242  0.6565
  678MPD2    H710092   2.469   4.700   1.309 -3.7340  2.6519 -0.4636
  679TMC3    C110093   2.887   4.598   1.267  0.5100  0.0380 -0.3039
  679TMC3    C210094   2.806   4.657   1.364  0.0296  0.8224 -0.1856
  679TMC3    C310095   2.705   0.004   1.321  0.3274  0.1671 -0.7271
  679TMC3    C410096   2.851   4.614   1.136  0.3776  0.6486  0.8807
  679TMC3    C510097   2.752   4.699   1.096  0.2411  0.1877  0.1078
  679TMC3    C610098   2.679   0.025   1.192  0.3222  0.3283  0.1188
  679TMC3     C10099   2.985   4.496   1.291 -0.3469  0.9533 -0.4971
  679TMC3     O10100   3.083   4.502   1.219 -0.1412 -0.5557  0.8527
  679TMC3     H10101   2.839   4.649   1.467  1.2598  3.4978 -0.3802
  679TMC3    H110102   2.914   4.561   1.066  1.0724  1.3205  1.0004
  679TMC3    H210103   2.604   0.098   1.168 -0.0920  0.1348  0.8199
  679TMC3    C710104   2.685   4.693   0.975 -0.2832 -0.2132 -0.1696
  679TMC3    C810105   2.614   0.047   1.424  0.5415 -0.4070  0.0306
  679TMC3    O110106   2.662   0.058   0.913  0.1463  0.5410 -0.1561
  679TMC3    O210107   2.671   0.079   1.527  0.0782 -0.5388  0.1867
  680MPD2     C10108   2.442   3.382  13.744 -0.1796  0.4194  0.1895
  680MPD2    C110109   2.492   3.337  13.865  0.5427 -1.0577  0.5392
  680MPD2    C210110   2.586   3.416  13.921  0.5668  0.2677  0.8883
  680MPD2    C310111   2.625   3.539  13.877 -0.0322 -0.0153  0.2519
  680MPD2    C410112   2.574   3.579  13.755  0.6189  0.1690 -0.3624
  680MPD2    C510113   2.483   3.504  13.689 -0.0041 -0.1425 -0.9345
  680MPD2     H10114   2.617   3.377  14.017  0.0837 -1.1398  0.4810
  680MPD2    H110115   2.589   3.684  13.734  0.6771  0.1585 -0.3740
  680MPD2    H210116   2.382   3.319  13.680  0.3754  0.9754 -0.8811
  680MPD2    H310117   2.437   3.534  13.595 -0.8725  0.9871 -0.1407
  680MPD2     N10118   2.717   3.617  13.943 -0.6922 -0.5059  0.1965
  680MPD2    H510119   2.737   3.708  13.901 -1.6035 -0.3031  0.2095
  680MPD2    N110120   2.465   3.209  13.918 -0.1880  0.0382 -0.1958
  680MPD2    H710121   2.527   3.179  13.993  1.2197  1.9242 -0.6182
  681TMC3    C110122   2.369   3.017  13.979 -0.2314  0.2674 -0.2557
  681TMC3    C210123   2.299   3.060  14.093 -0.0955 -0.4572 -0.9544
  681TMC3    C310124   2.357   3.037  14.218 -0.3857  0.0665  0.5807
  681TMC3    C410125   2.483   2.945  13.994 -0.3137 -0.5201 -0.3425
  681TMC3    C510126   2.517   2.906  14.117  0.0375  0.3877 -0.5329
  681TMC3    C610127   2.466   2.955  14.237 -0.6725  0.1732 -0.3132
  681TMC3     C10128   2.366   3.118  13.881  0.1318 -0.1326 -0.7836
  681TMC3     O10129   2.267   3.125  13.810  0.0048  0.0579  0.1408
  681TMC3     H10130   2.215   3.127  14.083  1.1207  0.9878 -1.3607
  681TMC3    H110131   2.539   2.940  13.902  0.6485 -1.0071  0.2756
  681TMC3    H210132   2.504   2.920  14.333 -0.5591 -1.6402 -1.0155
  681TMC3    C710133   2.652   2.855  14.139  0.4735 -0.3888 -0.4898
  681TMC3    C810134   2.297   3.096  14.333  0.6565 -0.5221  0.2249
  681TMC3    O110135   2.707   2.853  14.246  0.0225 -0.0171  0.2436
  681TMC3    O210136   2.194   3.165  14.312 -0.1712 -0.6152 -0.0057
  682MPD2     C10137   4.364   0.211  10.245 -0.7047 -0.0632  0.4046
  682MPD2    C110138   4.269   0.110  10.279 -0.3047 -0.3926 -0.2407
  682MPD2    C210139   4.206   0.121  10.401 -0.2344 -0.0707  0.5397
  682MPD2    C310140   4.229   0.230  10.491 -0.1884  1.0459  0.0812
  682MPD2    C410141   4.325   0.321  10.454  0.2410 -0.0241  1.2283
  682MPD2    C510142   4.395   0.311  10.334  0.7666  0.3659 -0.1202
  682MPD2     H10143   4.123   0.053  10.418  0.0045  0.0029  1.9836
  682MPD2    H110144   4.340   0.403  10.523 -0.5210  1.1434  0.0112
  682MPD2    H210145   4.420   0.194  10.153 -0.7923 -3.0599  0.8839
  682MPD2    H310146   4.463   0.393  10.312 -0.6553  1.8965  1.1685
  682MPD2     N10147   4.161   0.255  10.612 -0.5689  0.1745 -0.0879
  682MPD2    H510148   4.189   0.344  10.651  1.0863 -0.1971 -0.4232
  682MPD2    N110149   4.220   0.015  10.186 -0.6052 -0.4206 -0.0750
  682MPD2    H710150   4.150   4.693  10.231 -1.5121  0.1552 -0.7460
  683TMC3    C110151   4.058   0.214  11.025  0.2014 -0.5254 -1.1467
  683TMC3    C210152   3.932   0.139  11.042 -0.0936 -0.4837 -0.1156
  683TMC3    C310153   3.849   0.133  10.940 -0.1255  0.0862 -0.0036
  683TMC3    C410154   4.092   0.256  10.901 -0.0547  0.3965 -0.6488
  683TMC3    C510155   4.010   0.230  10.795  0.5244  0.2421  0.4869
  683TMC3    C610156   3.882   0.180  10.817  0.3557 -0.1854  0.3788
  683TMC3     C10157   4.163   0.189  11.123 -0.0490 -0.7551 -0.3331
  683TMC3     O10158   4.249   0.272  11.131 -0.4888 -0.7612  0.2247
  683TMC3     H10159   3.912   0.112  11.145 -0.5446  0.3923  0.0248
  683TMC3    H110160   4.196   0.284  10.888  0.2294 -0.2500  0.2031
  683TMC3    H210161   3.824   0.145  10.732  0.3185 -1.0218  0.7454
  683TMC3    C710162   4.071   0.176  10.671 -0.9634 -1.0655  0.4834
  683TMC3    C810163   3.718   0.076  10.959 -0.4476  0.5497 -0.3116
  683TMC3    O110164   4.047   0.057  10.651  0.3840  0.1234  0.1518
  683TMC3    O210165   3.629   0.120  10.884 -0.5779  0.0098  0.5355
  684MPD2     C10166   3.274   3.894  16.662 -0.5727  0.3646  0.0445
  684MPD2    C110167   3.262   3.908  16.524  0.3433  0.0502 -0.0552
  684MPD2    C210168   3.219   4.023  16.470  0.9668  0.4520 -0.2198
  684MPD2    C310169   3.211   4.134  16.551  0.0358  0.6392  0.5308
  684MPD2    C410170   3.223   4.132  16.692  0.1766 -0.2845  0.3316
  684MPD2    C510171   3.252   4.006  16.742  0.1484  0.2631  0.0736
  684MPD2     H10172   3.214   4.031  16.362 -0.1740  1.1485 -0.1190
  684MPD2    H110173   3.220   4.222  16.751  1.4162 -0.3053  0.4184
  684MPD2    H210174   3.305   3.801  16.707  0.3337 -0.3026 -1.9393
  684MPD2    H310175   3.274   3.999  16.848 -0.5746  0.5205  0.2413
  684MPD2     N10176   3.200   4.261  16.490  0.5368  0.1612  0.1603
  684MPD2    H510177   3.244   4.336  16.542 -1.3251  0.7221  0.9218
  684MPD2    N110178   3.287   3.807  16.427  0.2003 -0.0994 -0.2840
  684MPD2    H710179   3.284   3.839  16.331 -0.1743 -3.1518 -1.2719
  685TMC3    C110180   3.433   3.669  16.321 -0.1994  0.2133 -0.9609
  685TMC3    C210181   3.357   3.684  16.210  0.0761 -0.3584  0.0348
  685TMC3    C310182   3.419   3.721  16.091 -0.2007 -0.6969 -0.0470
  685TMC3    C410183   3.569   3.696  16.321 -0.8001  0.1050  0.3668
  685TMC3    C510184   3.629   3.737  16.210 -0.7414 -0.3232 -0.0362
  685TMC3    C610185   3.556   3.748  16.094  0.2141  0.0522 -0.1183
  685TMC3     C10186   3.362   3.693  16.449 -0.2177  0.0878 -0.0239
  685TMC3     O10187   3.432   3.667  16.546  0.4111  0.0663 -0.2009
  685TMC3     H10188   3.254   3.651  16.215  0.1669 -0.3456  1.9164
  685TMC3    H110189   3.620   3.694  16.417 -4.1240 -0.9117  2.1216
  685TMC3    H210190   3.605   3.770  15.999  1.3164 -2.2299 -0.0837
  685TMC3    C710191   3.767   3.783  16.214  0.0911  0.0671  0.1557
  685TMC3    C810192   3.344   3.763  15.976  0.6233  0.4978  0.3347
  685TMC3    O110193   3.808   3.842  16.119 -0.3687 -0.1557 -0.2814
  685TMC3    O210194   3.392   3.851  15.906  0.1077 -0.6851  0.0759
  686MPD2     C10195   4.401   3.689  15.052 -0.2147  0.0544  0.1641
  686MPD2    C110196   4.383   3.632  15.177 -1.0022  0.2781 -0.2001
  686MPD2    C210197   4.409   3.497  15.197 -0.7646  0.0203  0.7638
  686MPD2    C310198   4.449   3.421  15.090  0.0233  0.1988 -0.4969
  686MPD2    C410199   4.458   3.477  14.967 -0.3903 -0.4264 -0.5125
  686MPD2    C510200   4.422   3.610  14.942  0.0645  0.2496  0.1613
  686MPD2     H10201   4.397   3.460  15.298 -1.3994 -1.4912  0.1334
  686MPD2    H110202   4.492   3.410  14.888 -0.8533 -2.2767  0.8484
  686MPD2    H210203   4.381   3.795  15.039  0.4680  0.2043  0.3303
  686MPD2    H310204   4.432   3.652  14.843 -1.1982  0.4224  0.1020
  686MPD2     N10205   4.479   3.281  15.103  0.1455  0.4105  0.2609
  686MPD2    H510206   4.484   3.233  15.014  0.7731 -0.5073  0.8000
  686MPD2    N110207   4.328   3.714  15.278  0.2449  0.2996  0.7808
  686MPD2    H710208   4.314   3.810  15.249  0.1931 -0.4214 -1.5442
  687TMC3    C110209   4.492   3.251  15.345 -0.1510  0.1192 -0.4339
  687TMC3    C210210   4.406   3.185  15.433 -0.1793  0.7354 -1.3471
  687TMC3    C310211   4.416   3.225  15.564  0.3800 -0.8592 -0.3852
  687TMC3    C410212   4.600   3.315  15.385 -0.4349  0.0102 -0.1534
  687TMC3    C510213   4.620   3.335  15.520  0.7866  0.6414  0.0168
  687TMC3    C610214   4.525   3.300  15.612 -0.1990  0.0315  0.2072
  687TMC3     C10215   4.480   3.194  15.216  0.2616 -0.4746  0.2604
  687TMC3     O10216   4.467   3.075  15.215  0.2852  0.0471 -0.0792
  687TMC3     H10217   4.328   3.116  15.402 -0.5039  1.4655 -2.1386
  687TMC3    H110218   4.665   3.348  15.305 -0.0756 -3.3353 -1.2427
  687TMC3    H210219   4.521   3.317  15.719  2.6547  2.6649 -0.1090
  687TMC3    C710220   4.716   3.439  15.551 -0.1868 -0.3085 -0.1695
  687TMC3    C810221   4.294   3.261  15.635  0.2172  0.1080 -0.4351
  687TMC3    O110222   0.011   3.514  15.460  0.1913 -0.0837  0.0242
  687TMC3    O210223   4.302   3.280  15.754 -0.2130 -0.5680  0.4181
  688MPD2     C10224   3.767   2.950  17.265  0.1986 -0.4294  0.3853
  688MPD2    C110225   3.778   2.814  17.254  0.3719 -0.6571 -0.0258
  688MPD2    C210226   3.889   2.750  17.197  0.2341  0.1110  0.4394
  688MPD2    C310227   3.994   2.838  17.167 -0.0488  0.1712 -0.0371
  688MPD2    C410228   3.985   2.975  17.169 -0.1973 -0.3707  0.6367
  688MPD2    C510229   3.872   3.025  17.227  0.1190  1.0495 -0.2099
  688MPD2     H10230   3.891   2.644  17.178  1.4691  0.2545 -0.2603
  688MPD2    H110231   4.055   3.047  17.128 -0.8529 -0.4873 -0.6815
  688MPD2    H210232   3.689   3.003  17.318 -1.6834 -2.9802  0.1511
  688MPD2    H310233   3.865   3.133  17.238  1.2833  1.0614  0.3295
  688MPD2     N10234   4.123   2.789  17.147  0.0363 -0.0138  0.1524
  688MPD2    H510235   4.200   2.855  17.158 -1.7976  2.0483  0.5752
  688MPD2    N110236   3.694   2.728  17.325  0.0201  0.0679 -0.4850
  688MPD2    H710237   3.710   2.628  17.316 -0.7156 -0.2654  1.8245
  689TMC3    C110238   3.526   2.649  17.466 -0.2544 -0.1131  0.2781
  689TMC3    C210239   3.456   2.672  17.581 -0.9537 -0.2699 -0.1765
  689TMC3    C310240   3.370   2.577  17.625  0.0880 -0.2073  0.6252
  689TMC3    C410241   3.512   2.531  17.395  0.1463  0.3329  0.3924
  689TMC3    C510242   3.420   2.444  17.445  0.0967 -0.0286 -0.1513
  689TMC3    C610243   3.347   2.459  17.561  0.1043 -0.6777  0.0654
  689TMC3     C10244   3.586   2.766  17.398 -0.0386  0.1306 -0.2885
  689TMC3     O10245   3.559   2.877  17.439 -0.4092 -0.4213  0.0196
  689TMC3     H10246   3.471   2.764  17.637 -3.0187  0.0252 -0.1342
  689TMC3    H110247   3.564   2.508  17.303 -0.7910  0.2074 -0.1113
  689TMC3    H210248   3.272   2.388  17.595 -1.2460  1.4875  1.5871
  689TMC3    C710249   3.398   2.323  17.365  0.3641  0.7889 -0.4329
  689TMC3    C810250   3.307   2.605   0.005 -0.1492 -0.2468  0.4370
  689TMC3    O110251   3.286   2.271  17.348 -0.6964  0.0209  0.8726
  689TMC3    O210252   3.376   2.672   0.080  0.5177  0.5006 -0.0247
  690MPD2     C10253   1.102   4.598  15.665  0.5013 -0.0249  0.4805
  690MPD2    C110254   1.025   4.600  15.548  0.3459 -0.2656  0.6235
  690MPD2    C210255   1.072   4.678  15.451 -0.2531  0.7219  0.7264
  690MPD2    C310256   1.201   0.007  15.448 -0.5843  0.2811  1.2812
  690MPD2    C410257   1.277   4.729  15.563 -0.0951 -0.2889 -0.7638
  690MPD2    C510258   1.218   4.666  15.672 -0.5388 -0.2752 -0.1001
  690MPD2     H10259   1.022   4.685  15.355  1.7064  2.1235 -0.1890
  690MPD2    H110260   1.375   0.039  15.571 -1.1866  1.9507 -0.4479
  690MPD2    H210261   1.063   4.545  15.751 -2.0164  1.4151  0.2285
  690MPD2    H310262   1.267   4.673  15.768 -3.0696 -0.7743  1.2292
  690MPD2     N10263   1.238   0.071  15.331  0.3421  0.0843 -0.1782
  690MPD2    H510264   1.181   0.062  15.247 -1.0421 -1.2749  0.9149
  690MPD2    N110265   0.916   4.511  15.539  0.3198  0.4086 -0.4750
  690MPD2    H710266   0.890   4.450  15.615 -0.5251 -3.1389 -3.6275
  691TMC3    C110267   0.759   4.373  15.435 -0.5290 -0.1478  0.1049
  691TMC3    C210268   0.643   4.369  15.363  0.6800 -0.1617  0.2741
  691TMC3    C310269   0.578   4.251  15.359 -0.2466 -0.1533  0.2073
  691TMC3    C410270   0.818   4.261  15.493 -0.9907  0.2373  0.0662
  691TMC3    C510271   0.743   4.143  15.492 -0.6283 -0.3320  0.3749
  691TMC3    C610272   0.621   4.143  15.427  0.0445  0.1530  0.4488
  691TMC3     C10273   0.827   4.503  15.433 -0.1889 -0.2161  0.3209
  691TMC3     O10274   0.801   4.580  15.338  0.3429  0.3675  0.2641
  691TMC3     H10275   0.609   4.459  15.314 -0.3948 -1.3754 -1.1969
  691TMC3    H110276   0.903   4.263  15.560  0.1965 -0.9521 -1.4159
  691TMC3    H210277   0.554   4.058  15.431  0.5741 -0.1796  2.5155
  691TMC3    C710278   0.760   4.056  15.604  0.3693 -0.5831  0.1506
  691TMC3    C810279   0.444   4.225  15.307 -0.0087 -0.3902 -0.8758
  691TMC3    O110280   0.843   4.097  15.685 -0.7757 -0.0415  0.1849
  691TMC3    O210281   0.400   4.111  15.296 -0.1961  0.9056 -0.3587
  692TMC3    C110282   2.744   0.591  15.573  0.6348  0.4892 -0.0396
  692TMC3    C210283   2.797   0.690  15.642  0.3148 -0.0810  0.5487
  692TMC3    C310284   2.909   0.662  15.718 -0.4113  0.3414 -0.5925
  692TMC3    C410285   2.788   0.467  15.565 -0.1175  0.5001  0.3479
  692TMC3    C510286   2.889   0.435  15.651 -0.9029  0.0774  0.9038
  692TMC3    C610287   2.941   0.525  15.744  0.6303  0.1419 -0.5129
  692TMC3     C10288   2.602   0.610  15.543  0.3613 -0.0118 -0.3174
  692TMC3     O10289   2.554   0.720  15.561  0.2726 -0.8253 -0.4720
  692TMC3     H10290   2.738   0.779  15.661  0.9304  0.1812  1.2783
  692TMC3    H110291   2.752   0.394  15.494  3.6757  1.1463 -2.2560
  692TMC3    H210292   3.033   0.513  15.800 -0.0089 -0.8103  0.3360
  692TMC3    C710293   2.971   0.318  15.618 -0.1008  0.5396 -0.4430
  692TMC3    C810294   2.927   0.739  15.843 -0.1151  0.1518  0.0141
  692TMC3    O110295   2.958   0.268  15.504 -0.0220  0.2238  0.3177
  692TMC3    O210296   3.005   0.698  15.932  0.6081  0.0130  0.2398
  693MPD2     C10297   1.648   3.978  10.920  0.6605  0.6536  0.4125
  693MPD2    C110298   1.676   3.843  10.933 -0.2970 -0.0296 -0.4767
  693MPD2    C210299   1.803   3.797  10.978 -0.0458  0.6289 -0.9165
  693MPD2    C310300   1.909   3.884  11.004  0.5714  0.0092 -0.6335
  693MPD2    C410301   1.881   4.019  11.001  0.7660 -0.3985 -0.2023
  693MPD2    C510302   1.756   4.068  10.960  0.0019 -0.0568 -0.5401
  693MPD2     H10303   1.827   3.692  10.988 -3.5843 -0.1306 -0.2753
  693MPD2    H110304   1.959   4.087  11.035 -0.1705  2.0843 -3.0326
  693MPD2    H210305   1.562   4.027  10.874  0.1779 -1.5551 -1.0270
  693MPD2    H310306   1.749   4.176  10.966 -0.4679 -0.2703  2.7208
  693MPD2     N10307   2.043   3.847  11.028 -0.0483  0.2520 -0.1934
  693MPD2    H510308   2.108   3.923  11.046 -0.8706  0.5945  1.3548
  693MPD2    N110309   1.581   3.743  10.909 -0.6154 -0.0526 -0.0069
  693MPD2    H710310   1.612   3.651  10.941  0.3367 -0.0908 -1.0472
  694TMC3    C110311   1.369   3.649  10.835 -0.9632 -0.7188  0.2196
  694TMC3    C210312   1.256   3.660  10.765  0.6945  0.2418  0.8222
  694TMC3    C310313   1.181   3.548  10.742 -0.4180  0.1077 -1.2423
  694TMC3    C410314   1.406   3.532  10.898  0.2077 -0.2829 -0.3451
  694TMC3    C510315   1.323   3.423  10.882 -0.0544  0.1818  0.2225
  694TMC3    C610316   1.212   3.430  10.805 -0.6549  0.5629  1.0311
  694TMC3     C10317   1.458   3.766  10.845 -0.1487 -1.1348  0.1043
  694TMC3     O10318   1.423   3.865  10.781  0.4546 -0.4444 -0.0590
  694TMC3     H10319   1.232   3.756  10.722 -0.2174 -1.0214 -1.5303
  694TMC3    H110320   1.478   3.522  10.978 -0.8739 -1.2945  0.5008
  694TMC3    H210321   1.152   3.340  10.791  0.1670  0.0850  0.6040
  694TMC3    C710322   1.314   3.347  11.001 -0.8232  0.0901 -0.2361
  694TMC3    C810323   1.091   3.534  10.631 -0.6630  0.3991 -1.0463
  694TMC3    O110324   1.414   3.314  11.063  0.7116  0.9205  0.2412
  694TMC3    O210325   1.048   3.421  10.603  0.6725  0.1516 -0.2743
  695MPD2     C10326   3.376   0.482  13.214 -0.4780  0.0403 -0.0287
  695MPD2    C110327   3.348   0.529  13.340  0.1527 -0.1048 -0.6078
  695MPD2    C210328   3.221   0.579  13.368 -0.7370 -0.6482  0.4930
  695MPD2    C310329   3.125   0.586  13.267 -0.0410 -0.7520 -0.4381
  695MPD2    C410330   3.160   0.541  13.144  0.2855  0.3390 -0.4664
  695MPD2    C510331   3.287   0.492  13.114 -0.5005  0.3871 -0.0849
  695MPD2     H10332   3.186   0.608  13.467 -0.0967 -0.4416  0.6627
  695MPD2    H110333   3.086   0.538  13.065 -0.2487 -0.3934  0.0563
  695MPD2    H210334   3.473   0.437  13.196 -0.0024  1.4716 -1.0280
  695MPD2    H310335   3.310   0.447  13.018 -0.0532 -0.7016  0.5400
  695MPD2     N10336   2.994   0.610  13.317  0.3738  0.6689 -0.6576
  695MPD2    H510337   2.984   0.622  13.417  0.3958 -1.6742 -0.3829
  695MPD2    N110338   3.435   0.504  13.443 -0.3439 -0.4651 -0.3807
  695MPD2    H710339   3.392   0.522  13.533 -0.1670  0.8180 -0.5609
  696TMC3    C110340   2.768   0.651  13.315  0.3430 -0.1086 -0.1291
  696TMC3    C210341   2.749   0.583  13.433 -0.0184 -0.0125 -0.0445
  696TMC3    C310342   2.633   0.599  13.501  0.2939 -0.2156  0.4845
  696TMC3    C410343   2.670   0.730  13.263  0.7809  0.5444  0.2703
  696TMC3    C510344   2.555   0.751  13.335  0.4004  0.3238 -0.0305
  696TMC3    C610345   2.529   0.680  13.452  0.2081 -0.4950  0.0285
  696TMC3     C10346   2.885   0.632  13.241 -0.1648  1.0188  0.1261
  696TMC3     O10347   2.875   0.643  13.117  0.0019 -0.0560 -0.1491
  696TMC3     H10348   2.816   0.510  13.476 -0.3478 -1.7998 -2.5295
  696TMC3    H110349   2.687   0.775  13.166  0.6218  0.3333  0.1441
  696TMC3    H210350   2.448   0.709  13.517  2.0860  1.2064  1.6208
  696TMC3    C710351   2.498   0.876  13.304 -0.2172  0.0014 -0.4197
  696TMC3    C810352   2.628   0.562  13.639  0.3168  0.0052  0.0086
  696TMC3    O110353   2.499   0.921  13.189  0.1013  0.3910 -0.4022
  696TMC3    O210354   2.737   0.557  13.695 -0.5992 -0.6314 -0.0319
  697MPD2     C10355   2.462   2.216  15.494  0.4244  0.1266  0.1559
  697MPD2    C110356   2.344   2.224  15.433 -0.4837  0.6853  0.3690
  697MPD2    C210357   2.277   2.344  15.432 -0.5554  0.1184 -0.0798
  697MPD2    C310358   2.342   2.455  15.489  0.6376 -0.4643 -0.0696
  697MPD2    C410359   2.460   2.443  15.557  0.0667 -0.1418  0.2305
  697MPD2    C510360   2.521   2.322  15.554 -0.0526  0.2345  0.0265
  697MPD2     H10361   2.181   2.362  15.384 -0.3819  0.8029 -0.1729
  697MPD2    H110362   2.520   2.518  15.607 -0.4559 -0.6322  1.6194
  697MPD2    H210363   2.513   2.121  15.507  0.4820 -0.0626 -1.5398
  697MPD2    H310364   2.620   2.318  15.599 -0.3867  0.2871  0.7603
  697MPD2     N10365   2.284   2.585  15.461  0.5348 -0.4067 -0.5078
  697MPD2    H510366   2.213   2.591  15.390 -0.1675  0.2078  0.2433
  697MPD2    N110367   2.271   2.115  15.377 -0.3173  0.0361  0.1642
  697MPD2    H710368   2.183   2.132  15.330 -1.1959  0.2795  1.9290
  698TMC3    C110369   2.280   2.825  15.470  0.2841  0.0722  0.4040
  698TMC3    C210370   2.282   2.936  15.553  0.0657 -0.0216 -0.1265
  698TMC3    C310371   2.303   3.061  15.494 -0.6338  0.1881 -0.7988
  698TMC3    C410372   2.291   2.842  15.329 -0.2977  0.1149 -0.6285
  698TMC3    C510373   2.295   2.966  15.283  0.4305  0.0067 -0.0256
  698TMC3    C610374   2.299   3.080  15.359  0.2521  0.2992  0.1406
  698TMC3     C10375   2.323   2.698  15.530  0.2281  0.3008  1.2956
  698TMC3     O10376   2.386   2.719  15.633 -0.1352  0.2465  0.2031
  698TMC3     H10377   2.291   2.925  15.660  1.5735 -2.7759 -0.5263
  698TMC3    H110378   2.276   2.750  15.274  1.8497  0.6158 -2.0338
  698TMC3    H210379   2.292   3.177  15.311 -2.0413  0.6768  1.2363
  698TMC3    C710380   2.279   2.978  15.141 -0.5197  0.4959 -0.3272
  698TMC3    C810381   2.374   3.158  15.580 -0.1617  0.3347  0.0347
  698TMC3    O110382   2.176   3.033  15.101 -0.3227 -0.4211  0.0122
  698TMC3    O210383   2.366   3.142  15.701  0.0942 -0.3886  0.1801
  699TMC3    C110384   2.214   0.640  12.983 -0.0719 -0.5766  0.2206
  699TMC3    C210385   2.308   0.578  13.062  0.3568  0.1661 -0.3353
  699TMC3    C310386   2.271   0.486  13.158  0.0976  0.8155 -0.0324
  699TMC3    C410387   2.080   0.614  13.005 -0.5962 -0.3707 -0.3835
  699TMC3    C510388   2.044   0.530  13.104  0.6598  0.1662  0.1270
  699TMC3    C610389   2.138   0.464  13.180  0.1339 -0.5763  0.7666
  699TMC3     C10390   2.231   0.765  12.919 -0.0130 -0.0134 -0.3791
  699TMC3     O10391   2.148   0.853  12.938  0.3256  0.4803  0.2421
  699TMC3     H10392   2.406   0.623  13.062  0.5167 -0.2020  2.3347
  699TMC3    H110393   1.999   0.676  12.969 -0.0327  1.3829  1.4015
  699TMC3    H210394   2.114   0.394  13.260 -0.0590 -0.7772  0.5287
  699TMC3    C710395   1.921   0.575  13.173  0.4121 -0.2331 -0.3326
  699TMC3    C810396   2.368   0.391  13.209  0.8848 -0.0975 -0.1578
  699TMC3    O110397   1.917   0.565  13.297  0.2979 -0.3402  0.5112
  699TMC3    O210398   2.323   0.288  13.257 -0.9306  0.1573 -0.2151
  700TMC3    C110399   1.197   2.763  17.127  0.1859 -0.1164  0.0461
  700TMC3    C210400   1.302   2.675  17.098 -0.0327  0.4892 -0.3724
  700TMC3    C310401   1.382   2.632  17.199 -0.1313 -0.7798 -0.0569
  700TMC3    C410402   1.174   2.800  17.261  0.2397  0.6144 -0.1839
  700TMC3    C510403   1.264   2.747  17.355 -0.0543 -0.5438  0.4081
  700TMC3    C610404   1.363   2.660  17.332 -0.4651  0.8709 -0.5273
  700TMC3     C10405   1.169   2.865  17.034  0.9892  0.4291  0.7568
  700TMC3     O10406   1.056   2.915  17.048  0.0390 -0.1209 -0.1047
  700TMC3     H10407   1.314   2.647  16.994 -2.1661  0.3822 -0.5880
  700TMC3    H110408   1.088   2.866  17.274 -0.1712  0.1136 -0.3927
  700TMC3    H210409   1.421   2.618  17.414  0.4532  0.4026 -1.4138
  700TMC3    C710410   1.291   2.832  17.472  0.5079  0.1555 -0.4782
  700TMC3    C810411   1.493   2.552  17.151  0.1051 -0.2330 -0.0946
  700TMC3    O110412   1.375   2.807  17.554  0.1206 -0.5709 -0.1208
  700TMC3    O210413   1.519   2.556  17.030  0.1163  0.6070  0.3473
  701TMC3    C110414   1.567   1.751  15.409  0.7128 -0.2943  0.2431
  701TMC3    C210415   1.523   1.779  15.276  0.1401  0.0541 -0.2518
  701TMC3    C310416   1.582   1.891  15.218  0.6213  0.7342  0.2099
  701TMC3    C410417   1.658   1.827  15.471 -0.5282 -0.0976  0.2095
  701TMC3    C510418   1.709   1.932  15.404  0.9683 -0.4601 -0.6345
  701TMC3    C610419   1.681   1.964  15.272 -0.5487  0.9008  0.5914
  701TMC3     C10420   1.516   1.640  15.482 -0.1653  0.2608  0.1805
  701TMC3     O10421   1.535   1.623  15.604 -0.0375  0.4768  0.3634
  701TMC3     H10422   1.424   1.751  15.241 -0.3922  0.8797  0.5867
  701TMC3    H110423   1.673   1.813  15.577 -0.9029  0.1451  0.2947
  701TMC3    H210424   1.739   2.039  15.220 -0.0816 -1.3632 -2.1203
  701TMC3    C710425   1.787   2.032  15.495 -0.0800  0.3163  0.2584
  701TMC3    C810426   1.566   1.906  15.071  0.2585  0.1555  0.1004
  701TMC3    O110427   1.824   1.987  15.605  0.2351  0.1005 -0.4602
  701TMC3    O210428   1.674   1.909  15.011  0.1520 -0.4196  0.0157
  702MPD2     C10429   0.706   3.964  10.572 -0.1082  0.8214 -0.0123
  702MPD2    C110430   0.651   4.078  10.627 -0.9953  0.0580  0.3943
  702MPD2    C210431   0.635   4.186  10.544  0.6717  0.1618  0.4164
  702MPD2    C310432   0.670   4.187  10.408 -0.0412  1.1447  0.2381
  702MPD2    C410433   0.729   4.076  10.362  0.3935  0.8854 -0.0468
  702MPD2    C510434   0.749   3.968  10.443 -0.7705 -0.2646  0.6541
  702MPD2     H10435   0.572   4.261  10.591 -0.1933  0.1303 -0.7107
  702MPD2    H110436   0.746   4.060  10.256 -0.0498 -2.5846  0.4132
  702MPD2    H210437   0.722   3.874  10.630 -0.8106  1.3803  1.0368
  702MPD2    H310438   0.786   3.881  10.391 -2.7129 -1.3488  1.0845
  702MPD2     N10439   0.619   4.297  10.334 -0.0173 -0.8371 -0.2530
  702MPD2    H510440   0.586   4.382  10.379  0.3838 -1.0542  0.4427
  702MPD2    N110441   0.613   4.085  10.764  0.0064  0.0050 -0.0677
  702MPD2    H710442   0.587   4.176  10.799 -1.2739 -0.0719 -0.8022
  703TMC3    C110443   0.605   4.446  10.146  0.8113  0.0776 -0.8924
  703TMC3    C210444   0.546   4.536  10.230  0.2073  0.3133  0.7089
  703TMC3    C310445   0.576   4.668  10.226  0.4796  0.0700 -0.3657
  703TMC3    C410446   0.686   4.496  10.049 -0.2460  0.4764 -0.2395
  703TMC3    C510447   0.703   4.628  10.037 -0.0033  0.0397  0.3624
  703TMC3    C610448   0.669   4.716  10.135  0.5149 -0.0134  0.2763
  703TMC3     C10449   0.644   4.314  10.198  0.3039 -0.2464 -0.0733
  703TMC3     O10450   0.717   4.246  10.130 -0.0557  0.6371 -0.3993
  703TMC3     H10451   0.460   4.499  10.285 -0.1537  0.9177  0.5545
  703TMC3    H110452   0.742   4.428   9.985 -1.5113 -1.0806  0.3080
  703TMC3    H210453   0.686   0.086  10.131  1.7252 -0.2424 -0.8175
  703TMC3    C710454   0.801   4.675   9.943 -0.1702 -0.0239  0.0355
  703TMC3    C810455   0.504   0.034  10.307 -0.4318  0.4566  0.0007
  703TMC3    O110456   0.875   0.036   9.963  0.5868 -0.2353  0.4494
  703TMC3    O210457   0.541   0.151  10.293  0.4628 -0.3747  0.0846
  704TMC3    C110458   2.804   2.034  12.362 -0.3859  0.3788  0.4163
  704TMC3    C210459   2.841   2.037  12.229 -0.4006  0.0641 -0.6937
  704TMC3    C310460   2.904   1.923  12.167 -0.1637 -0.4796  0.9075
  704TMC3    C410461   2.822   1.914  12.425  0.3049  0.2319 -0.5778
  704TMC3    C510462   2.884   1.807  12.362  0.1175 -0.8533 -0.0430
  704TMC3    C610463   2.926   1.811  12.236 -0.3762  0.2570 -0.7810
  704TMC3     C10464   2.707   2.120  12.430 -0.0184 -0.1327 -0.4188
  704TMC3     O10465   2.673   2.096  12.545 -0.0964 -0.0478 -0.3439
  704TMC3     H10466   2.831   2.127  12.169  1.6157  0.0961 -0.9585
  704TMC3    H110467   2.775   1.902  12.522  0.0899 -0.3932 -0.7647
  704TMC3    H210468   2.951   1.723  12.179 -1.4404 -1.4001  1.3291
  704TMC3    C710469   2.931   1.692  12.438 -0.2891  0.7050 -0.1288
  704TMC3    C810470   2.932   1.926  12.025  0.5432 -0.2048 -0.4905
  704TMC3    O110471   2.946   1.590  12.374  0.1360 -0.3038 -0.3390
  704TMC3    O210472   2.883   2.018  11.961 -0.3490  0.4023 -0.0254
  705MPD2     C10473   3.029   0.182  16.511  0.8238  0.1054 -0.1388
  705MPD2    C110474   3.005   0.280  16.415 -0.6365 -0.0087 -0.4116
  705MPD2    C210475   2.890   0.360  16.417  0.2763  0.0642 -0.7805
  705MPD2    C310476   2.792   0.333  16.516 -0.1765 -0.5939  0.3024
  705MPD2    C410477   2.809   0.231  16.601 -0.0950 -0.3581  0.7213
  705MPD2    C510478   2.922   0.152  16.594  0.1197 -0.2207  0.2573
  705MPD2     H10479   2.876   0.433  16.338 -1.8017 -0.7037 -1.1371
  705MPD2    H110480   2.734   0.206  16.675 -0.0177  0.5500  1.1013
  705MPD2    H210481   3.117   0.119  16.519  1.0626  0.4531 -0.0100
  705MPD2    H310482   2.938   0.081  16.675 -0.1403  0.3597  0.8147
  705MPD2     N10483   2.675   0.406  16.536  0.2515  0.0891 -0.0361
  705MPD2    H510484   2.602   0.370  16.598  1.2668  1.2656  1.8310
  705MPD2    N110485   3.091   0.297  16.305  0.3767  0.7481  0.8244
  705MPD2    H710486   3.057   0.361  16.233 -1.3024 -0.1296  0.8332
  706TMC3    C110487   3.482   0.265  16.040  0.6632 -0.0805 -1.0368
  706TMC3    C210488   3.451   0.387  15.984  0.0648 -0.0091  0.3339
  706TMC3    C310489   3.353   0.460  16.038 -0.4306 -0.5106 -0.2820
  706TMC3    C410490   3.398   0.218  16.144  0.1987 -0.1271  0.2607
  706TMC3    C510491   3.280   0.288  16.167 -0.3281  0.3205 -0.6332
  706TMC3    C610492   3.266   0.416  16.135  0.2495 -0.4776  0.2180
  706TMC3     C10493   3.585   0.182  15.987  0.0704 -0.7295  0.7748
  706TMC3     O10494   3.625   0.092  16.057  0.0096  0.2252  0.1535
  706TMC3     H10495   3.534   0.439  15.937 -0.6835 -1.6537 -2.8101
  706TMC3    H110496   3.407   0.119  16.188 -0.8379 -0.6377 -0.6583
  706TMC3    H210497   3.179   0.475  16.161 -0.6011 -0.5840 -2.4340
  706TMC3    C710498   3.210   0.236  16.283 -0.5104 -0.0340 -0.4383
  706TMC3    C810499   3.331   0.598  15.999  0.5518 -0.0372  0.4638
  706TMC3    O110500   3.248   0.131  16.335  0.0794 -1.0272 -0.3681
  706TMC3    O210501   3.350   0.621  15.881  0.4071 -0.3274  0.4080
  707TMC3    C110502   0.003   4.131   0.423  0.0522  0.2704 -0.0411
  707TMC3    C210503   4.681   4.045   0.515  0.9646 -0.2809 -0.7801
  707TMC3    C310504   4.559   3.992   0.476  0.4647 -0.3770 -0.7406
  707TMC3    C410505   4.677   4.177   0.308 -0.8064 -0.2598 -0.2895
  707TMC3    C510506   4.553   4.123   0.284 -0.2110 -0.2241  0.2943
  707TMC3    C610507   4.497   4.028   0.360  0.6078 -0.5599 -0.1495
  707TMC3     C10508   0.138   4.183   0.453 -0.8796  0.7135 -0.0301
  707TMC3     O10509   0.177   4.164   0.568 -0.5809  0.1375 -0.2262
  707TMC3     H10510   0.000   3.996   0.593 -0.7184 -0.7392  0.1485
  707TMC3    H110511   4.715   4.255   0.243  1.7833  1.9416  3.8065
  707TMC3    H210512   4.398   3.989   0.340  0.8972 -0.4993 -1.6861
  707TMC3    C710513   4.481   4.145   0.163 -0.0152  0.2791  0.7672
  707TMC3    C810514   4.503   3.872   0.539 -0.0953  0.4087  0.0095
  707TMC3    O110515   4.361   4.128   0.155 -0.1477  0.4042  0.3003
  707TMC3    O210516   4.426   3.805   0.470  0.5268 -0.6743 -0.2397
  708MPD2     C10517   1.591   3.389  14.035 -0.0285  0.8683  0.1425
  708MPD2    C110518   1.578   3.488  13.934  0.3539  0.3134 -1.1577
  708MPD2    C210519   1.664   3.600  13.944  0.4137  0.1224 -0.4317
  708MPD2    C310520   1.745   3.620  14.052 -0.3026  1.2926 -0.6055
  708MPD2    C410521   1.756   3.519  14.144 -0.7106  0.7156 -0.0537
  708MPD2    C510522   1.676   3.410  14.136  0.3577 -0.2842  0.0936
  708MPD2     H10523   1.656   3.675  13.866 -1.0184  0.6603  0.2167
  708MPD2    H110524   1.817   3.530  14.233  1.4015  1.4575 -1.5802
  708MPD2    H210525   1.536   3.296  14.028  2.7546 -0.9759  2.7136
  708MPD2    H310526   1.694   3.338  14.215 -1.7104 -2.0897 -1.0965
  708MPD2     N10527   1.796   3.749  14.073  0.0706 -0.1310  0.2078
  708MPD2    H510528   1.756   3.814  14.005  0.6682 -2.1774 -2.0903
  708MPD2    N110529   1.491   3.455  13.829 -0.0206  0.4349  0.1651
  708MPD2    H710530   1.451   3.363  13.819  1.0222  0.0279 -0.2840
  709TMC3    C110531   1.393   3.485  13.629  0.3780  0.0692 -0.0489
  709TMC3    C210532   1.428   3.501  13.495  0.1771  0.6420  0.3936
  709TMC3    C310533   1.323   3.554  13.419  0.0183  0.1416 -1.1074
  709TMC3    C410534   1.272   3.510  13.682  0.5748 -0.8125  0.5464
  709TMC3    C510535   1.179   3.565  13.600 -0.1029 -0.5258 -0.0884
  709TMC3    C610536   1.204   3.591  13.470 -0.2076 -1.1202 -0.7414
  709TMC3     C10537   1.489   3.531  13.716  0.5994 -0.0826  0.0615
  709TMC3     O10538   1.540   3.635  13.688  0.2015  0.1829 -0.2747
  709TMC3     H10539   1.531   3.495  13.462 -0.0478 -0.5823 -0.1231
  709TMC3    H110540   1.259   3.513  13.790  2.1212  1.0065  0.6819
  709TMC3    H210541   1.132   3.644  13.408 -1.4805 -1.8342  0.1226
  709TMC3    C710542   1.117   3.680  13.667 -0.1848 -0.1026 -0.5651
  709TMC3    C810543   1.375   3.642  13.320 -0.1258 -0.0968 -0.8273
  709TMC3    O110544   0.996   3.697  13.654  0.2012 -0.2186  0.0385
  709TMC3    O210545   1.482   3.694  13.355  0.4733  0.3045 -0.3940
  710TMC3    C110546   2.560   0.027   0.145 -0.3999  0.1494 -0.2980
  710TMC3    C210547   2.626   4.652   0.097 -0.0414  0.3443 -0.0604
  710TMC3    C310548   2.623   4.538   0.175  0.0016 -0.9926  0.0313
  710TMC3    C410549   2.476   0.020   0.257  0.1407 -0.8111  0.4017
  710TMC3    C510550   2.476   4.643   0.323 -0.2837 -0.2485  0.2590
  710TMC3    C610551   2.541   4.530   0.285  0.6543 -0.1124 -0.2260
  710TMC3     C10552   2.579   0.155   0.077 -1.3767  0.8019  0.0856
  710TMC3     O10553   2.636   0.148  17.718 -0.5754 -0.2315 -0.5110
  710TMC3     H10554   2.692   4.659   0.011  0.0471 -0.2231 -0.0360
  710TMC3    H110555   2.441   0.107   0.311  1.1675 -0.3074  0.2527
  710TMC3    H210556   2.544   4.441   0.347  2.0463  0.8132  1.0437
  710TMC3    C710557   2.476   4.662   0.467 -0.0934  0.6573  0.3361
  710TMC3    C810558   2.728   4.439   0.147  1.0540  0.3615 -0.1814
  710TMC3    O110559   2.557   0.008   0.504 -0.6132  0.1747  0.3631
  710TMC3    O210560   2.778   4.445   0.040 -0.0886  0.3610  0.3228
  711TMC3    C110561   2.192   1.120  14.848 -0.0311 -0.6888  0.4486
  711TMC3    C210562   2.279   1.212  14.911 -0.0983  1.2942 -0.5191
  711TMC3    C310563   2.415   1.201  14.874 -0.3601  0.0791 -0.3806
  711TMC3    C410564   2.241   1.008  14.791 -0.1451  0.1638 -0.0112
  711TMC3    C510565   2.374   0.997  14.764 -0.4271  0.6113  0.5875
  711TMC3    C610566   2.456   1.097  14.794  0.0511  0.4184 -0.3237
  711TMC3     C10567   2.051   1.140  14.822 -0.2963  0.7356 -0.5114
  711TMC3     O10568   1.991   1.053  14.756 -0.6076  0.0264  0.5361
  711TMC3     H10569   2.244   1.300  14.963 -0.9413  1.7847 -1.8982
  711TMC3    H110570   2.180   0.925  14.755  0.7133 -0.3171 -0.3496
  711TMC3    H210571   2.559   1.092  14.761 -0.3965 -2.3577 -1.2687
  711TMC3    C710572   2.432   0.870  14.796  0.6997  0.1211 -0.0476
  711TMC3    C810573   2.497   1.228  14.993 -0.5347  0.3255 -0.6330
  711TMC3    O110574   2.548   0.873  14.826 -0.9524 -0.1468  0.1602
  711TMC3    O210575   2.493   1.339  15.037  0.4007 -0.5694  0.2731
  712MPD2     C10576   3.403   2.236  14.314 -0.0180 -0.1614  0.6673
  712MPD2    C110577   3.336   2.304  14.212 -0.2143 -0.7697 -0.1862
  712MPD2    C210578   3.396   2.424  14.157  0.2477  0.8524  0.2359
  712MPD2    C310579   3.518   2.467  14.209 -0.1134  0.3266 -0.2649
  712MPD2    C410580   3.574   2.401  14.314  0.1790  1.1849 -0.5845
  712MPD2    C510581   3.518   2.283  14.363  0.1804 -0.3344  0.1222
  712MPD2     H10582   3.357   2.468  14.066  0.5072 -0.7649 -0.6664
  712MPD2    H110583   3.658   2.441  14.370  0.3292 -2.0509  1.5293
  712MPD2    H210584   3.366   2.138  14.341 -0.7717  0.0245  0.3092
  712MPD2    H310585   3.552   2.224  14.446  1.3254 -0.7446 -0.6349
  712MPD2     N10586   3.580   2.582  14.150  0.1152 -0.2623  0.0561
  712MPD2    H510587   3.673   2.606  14.183 -1.6255  2.9980  2.6439
  712MPD2    N110588   3.218   2.247  14.159  0.1651  0.4786  0.8621
  712MPD2    H710589   3.187   2.170  14.217 -0.6462  0.3047  0.1868
  713TMC3    C110590   3.613   2.783  14.029 -0.7257  0.2329  0.4255
  713TMC3    C210591   3.738   2.746  13.997  0.6376  0.1624  0.4802
  713TMC3    C310592   3.825   2.839  13.939 -0.9011 -0.3988  0.3319
  713TMC3    C410593   3.573   2.915  14.027  0.5716  0.0840 -0.3544
  713TMC3    C510594   3.657   3.004  13.971 -0.1908  0.8056 -0.5955
  713TMC3    C610595   3.780   2.964  13.923  0.4431  0.1003  0.0170
  713TMC3     C10596   3.517   2.688  14.086 -0.1759 -0.3838 -1.1074
  713TMC3     O10597   3.399   2.713  14.067 -0.2876  0.3356  0.0444
  713TMC3     H10598   3.765   2.641  13.992 -0.5963 -0.0976 -0.7868
  713TMC3    H110599   3.474   2.937  14.063  1.7350  4.9794 -0.2527
  713TMC3    H210600   3.850   3.033  13.878  0.6022  0.5629  0.9879
  713TMC3    C710601   3.603   3.132  13.940  0.3857 -0.0236  0.3849
  713TMC3    C810602   3.927   2.795  13.853  0.7635  0.3279  0.0343
  713TMC3    O110603   3.689   3.221  13.937 -0.3325 -0.4384 -0.0197
  713TMC3    O210604   3.949   2.861  13.755 -0.5247 -0.1341 -0.4474
  714MPD2     C10605   2.016   0.724   1.446 -0.3277  0.1660  0.3829
  714MPD2    C110606   1.933   0.636   1.390  0.8256  0.5302 -0.7585
  714MPD2    C210607   1.792   0.665   1.376 -0.0390  0.1903  0.1639
  714MPD2    C310608   1.743   0.791   1.409 -0.1284  0.0256  0.2289
  714MPD2    C410609   1.835   0.882   1.471  0.1653  0.8182  0.1164
  714MPD2    C510610   1.972   0.849   1.488  0.0402 -0.2245 -0.0575
  714MPD2     H10611   1.729   0.595   1.322 -1.6967  0.8995  1.2069
  714MPD2    H110612   1.800   0.981   1.499 -0.8782  0.3631  0.3982
  714MPD2    H210613   2.119   0.695   1.467 -0.0480  0.6467 -0.3439
  714MPD2    H310614   2.044   0.922   1.523 -1.2348  0.4580  1.1233
  714MPD2     N10615   1.604   0.809   1.383 -0.2523  0.1203 -0.1689
  714MPD2    H510616   1.562   0.726   1.342  0.7252 -0.3833 -0.1316
  714MPD2    N110617   1.991   0.508   1.356  0.0249  0.3456 -1.0273
  714MPD2    H710618   2.088   0.495   1.384 -0.8740  1.4795  2.4801
  715TMC3    C110619   2.027   0.326   1.202  0.1474 -0.0377 -0.3508
  715TMC3    C210620   1.985   0.222   1.125  0.2529  0.3198 -0.1278
  715TMC3    C310621   2.083   0.155   1.058 -0.7688 -0.6320  0.1865
  715TMC3    C410622   2.157   0.358   1.219  0.6616 -0.5069  0.3957
  715TMC3    C510623   2.256   0.284   1.151  0.5468 -0.6335 -0.7332
  715TMC3    C610624   2.216   0.177   1.076  0.0280 -0.4006  0.2846
  715TMC3     C10625   1.931   0.402   1.285  0.0502 -0.9601 -0.1015
  715TMC3     O10626   1.814   0.375   1.277 -0.1712 -0.6637 -0.3662
  715TMC3     H10627   1.879   0.216   1.105  0.4977  0.2213 -1.4032
  715TMC3    H110628   2.196   0.449   1.265  2.1247 -0.8202 -0.2218
  715TMC3    H210629   2.286   0.123   1.014  1.1352 -0.4296  1.5614
  715TMC3    C710630   2.399   0.309   1.146 -0.1579 -0.1647 -0.3596
  715TMC3    C810631   2.041   0.092   0.932 -0.2564 -0.3555 -0.7104
  715TMC3    O110632   2.447   0.263   1.042  0.1429 -0.6039 -0.4639
  715TMC3    O210633   1.941   0.020   0.936 -0.0141 -0.3079  0.4914
  716MPD2     C10634   0.419   4.089   9.966  0.1401  0.1523 -0.3314
  716MPD2    C110635   0.363   4.055   9.845 -0.9095 -0.2140  0.1956
  716MPD2    C210636   0.418   3.941   9.783 -0.5082 -0.1788  0.0470
  716MPD2    C310637   0.520   3.869   9.832  0.0456 -0.5448  0.2077
  716MPD2    C410638   0.581   3.909   9.950 -0.0508  0.7953 -0.3751
  716MPD2    C510639   0.528   4.023  10.010  0.0382 -1.1012  0.0673
  716MPD2     H10640   0.366   3.916   9.692 -2.7510  0.8529  1.0321
  716MPD2    H110641   0.669   3.857   9.986  0.1251  0.4435 -1.3151
  716MPD2    H210642   0.383   4.168  10.031 -1.1769 -1.9292  1.4943
  716MPD2    H310643   0.568   4.059  10.104  0.7711 -2.6127  0.3284
  716MPD2     N10644   0.551   3.750   9.759  0.1137 -0.3017  0.2864
  716MPD2    H510645   0.502   3.731   9.672 -0.9514  1.6225  0.4639
  716MPD2    N110646   0.258   4.137   9.799  0.3043 -0.5730  0.1064
  716MPD2    H710647   0.241   4.222   9.852  1.7943  0.8137 -1.6468
  717TMC3    C110648   0.603   3.517   9.747  0.1208 -0.4933  0.3660
  717TMC3    C210649   0.497   3.505   9.662  0.3159 -0.5540 -0.3158
  717TMC3    C310650   0.486   3.385   9.601  0.2392 -0.4405  0.2443
  717TMC3    C410651   0.686   3.412   9.773 -0.0521 -0.1339 -0.3331
  717TMC3    C510652   0.664   3.295   9.716 -0.4780  0.0491 -0.4039
  717TMC3    C610653   0.564   3.279   9.629 -0.6785 -0.1097  0.2753
  717TMC3     C10654   0.628   3.645   9.813 -0.1163  0.0263 -0.8409
  717TMC3     O10655   0.687   3.638   9.920 -0.0500  0.4478  0.1156
  717TMC3     H10656   0.416   3.575   9.644  0.6389 -1.0795 -3.8389
  717TMC3    H110657   0.766   3.432   9.843  2.7583  0.1463 -3.6328
  717TMC3    H210658   0.552   3.183   9.581 -0.0776  1.0270 -2.1850
  717TMC3    C710659   0.731   3.186   9.790 -0.8037  0.7153 -0.1078
  717TMC3    C810660   0.414   3.395   9.478  0.3318  0.2106  0.2554
  717TMC3    O110661   0.793   3.218   9.890 -0.3483  0.4897 -0.1321
  717TMC3    O210662   0.382   3.508   9.441  0.2073 -0.1521 -0.0823
  718MPD2     C10663   4.396   3.014  12.687  0.1945 -0.0837 -0.2149
  718MPD2    C110664   4.315   2.925  12.619 -0.2285  0.2508 -0.2528
  718MPD2    C210665   4.345   2.790  12.638  0.1514 -0.9420 -0.5611
  718MPD2    C310666   4.454   2.752  12.715 -0.0487  0.6814 -0.7825
  718MPD2    C410667   4.532   2.849  12.771  0.1096  0.4590 -0.0521
  718MPD2    C510668   4.503   2.977  12.757  0.0383 -0.2156  0.0877
  718MPD2     H10669   4.290   2.708  12.594  0.5573 -0.3690 -2.1472
  718MPD2    H110670   4.623   2.818  12.821  0.8450  1.2386 -0.9120
  718MPD2    H210671   4.389   3.121  12.667 -0.0611 -0.1162 -0.3113
  718MPD2    H310672   4.565   3.061  12.786 -1.6421  1.7319 -1.9175
  718MPD2     N10673   4.473   2.608  12.725  0.5097  1.1300  0.0557
  718MPD2    H510674   4.403   2.553  12.675  1.0801 -0.0769  0.5702
  718MPD2    N110675   4.211   2.972  12.535 -0.0975  0.6388 -0.5453
  718MPD2    H710676   4.194   3.072  12.538  1.1786  0.8737 -1.0111
  719TMC3    C110677   4.115   2.966  12.319  0.4311  0.2341  0.3794
  719TMC3    C210678   4.062   2.872  12.232  0.6916 -0.1674 -0.0278
  719TMC3    C310679   4.123   2.845  12.112 -0.2329  0.0916 -0.0020
  719TMC3    C410680   4.231   3.032  12.281 -0.0666  0.2169 -0.4926
  719TMC3    C510681   4.281   3.009  12.152 -0.2392  0.1044  0.4334
  719TMC3    C610682   4.231   2.915  12.070  0.2948  0.6663  0.0339
  719TMC3     C10683   4.140   2.893  12.444 -0.3388  0.6295 -0.4336
  719TMC3     O10684   4.117   2.774  12.448 -0.1901  0.4142  0.9450
  719TMC3     H10685   3.985   2.799  12.254  3.1474 -3.0222 -1.0112
  719TMC3    H110686   4.269   3.117  12.337  0.3847  0.1732 -0.7422
  719TMC3    H210687   4.276   2.891  11.975  0.5136 -1.1815  0.6027
  719TMC3    C710688   4.421   2.991  12.150 -0.2384 -0.5398 -0.4673
  719TMC3    C810689   4.136   2.709  12.071  0.1942  0.6593 -0.3318
  719TMC3    O110690   4.480   2.993  12.043  0.2319 -0.2706 -0.4117
  719TMC3    O210691   4.163   2.682  11.955  0.0177  0.1270  0.0695
  720MPD2     C10692   3.953   3.745  13.453 -0.2631  0.3517 -0.9301
  720MPD2    C110693   3.862   3.847  13.493 -0.6777  0.3032 -0.0746
  720MPD2    C210694   3.909   3.929  13.592 -0.9816 -0.0588 -0.1126
  720MPD2    C310695   4.019   3.895  13.669 -0.3743  0.0721 -0.0839
  720MPD2    C410696   4.090   3.783  13.635  0.3985  0.5545  0.0302
  720MPD2    C510697   4.057   3.707  13.525  0.6659 -0.1389  0.6944
  720MPD2     H10698   3.857   4.018  13.623 -1.5320 -0.2249 -0.5602
  720MPD2    H110699   4.178   3.753  13.692  0.0598  0.7617  0.6696
  720MPD2    H210700   3.934   3.681  13.368  1.8138 -1.6124  0.1094
  720MPD2    H310701   4.124   3.625  13.501  1.0589  0.1960  0.6561
  720MPD2     N10702   4.057   3.977  13.776  0.1734 -0.6734  0.0686
  720MPD2    H510703   4.020   4.070  13.788  0.2314 -0.8333  1.4982
  720MPD2    N110704   3.749   3.880  13.424 -0.6667  0.5342  0.2049
  720MPD2    H710705   3.709   3.968  13.455  0.0707  0.5044  1.2585
  721TMC3    C110706   4.180   4.048  13.960 -0.2187 -0.3254  0.2857
  721TMC3    C210707   4.097   4.074  14.065 -0.1642  0.5638  0.4943
  721TMC3    C310708   4.159   4.076  14.183 -0.0421 -0.4520 -0.2880
  721TMC3    C410709   4.319   4.034  13.972 -0.1946  0.6023 -0.3013
  721TMC3    C510710   4.370   4.036  14.099 -0.1977  0.6620 -0.4217
  721TMC3    C610711   4.288   4.062  14.207  0.3060  0.4147 -0.4219
  721TMC3     C10712   4.145   3.939  13.870 -0.2894 -0.3613  0.3920
  721TMC3     O10713   4.188   3.825  13.901 -0.1057  0.1478  0.0375
  721TMC3     H10714   3.990   4.074  14.049 -0.6012  0.4203  3.5569
  721TMC3    H110715   4.377   3.997  13.888 -1.1187 -2.3931  0.4068
  721TMC3    H210716   4.333   4.079  14.304 -0.7062  0.5011  0.0267
  721TMC3    C710717   4.513   4.047  14.103  0.3875 -0.2620  0.0613
  721TMC3    C810718   4.081   4.146  14.278 -0.0918 -0.0373 -0.6892
  721TMC3    O110719   4.575   4.094  14.007  0.6257 -0.1959  0.1543
  721TMC3    O210720   4.003   4.233  14.241  0.1530 -0.2462 -0.2902
  722MPD2     C10721   2.418   2.925  13.577 -0.3286 -0.3006 -0.5791
  722MPD2    C110722   2.440   3.022  13.492 -0.0613  0.5370  0.3613
  722MPD2    C210723   2.356   3.030  13.380  0.4595  0.4733  0.3329
  722MPD2    C310724   2.249   2.945  13.360  0.0343 -0.4198  0.0949
  722MPD2    C410725   2.232   2.841  13.453  0.2027 -0.3048 -0.3518
  722MPD2    C510726   2.314   2.837  13.558  0.9982 -0.0141 -0.3034
  722MPD2     H10727   2.379   3.099  13.299  1.1312  1.9577  1.7575
  722MPD2    H110728   2.168   2.754  13.444 -1.7581  1.0420  0.6121
  722MPD2    H210729   2.483   2.911  13.663 -0.1808 -1.1717 -0.8205
  722MPD2    H310730   2.314   2.752  13.625  2.0196  0.2491  0.0266
  722MPD2     N10731   2.176   2.949  13.236 -0.2738 -0.2700  0.3883
  722MPD2    H510732   2.220   3.001  13.161  0.3674 -1.0536  0.2168
  722MPD2    N110733   2.553   3.110  13.501  0.0114 -0.4131  0.2688
  722MPD2    H710734   2.545   3.191  13.441  0.9132 -0.8621 -0.4427
  723TMC3    C110735   2.020   2.903  13.068 -0.3476  0.6323  0.6082
  723TMC3    C210736   1.939   2.810  13.001 -0.7727  0.2851 -0.5332
  723TMC3    C310737   1.886   2.835  12.878  0.1380  0.6958 -0.2607
  723TMC3    C410738   2.038   3.023  13.008 -0.3921  0.2423  0.4954
  723TMC3    C510739   1.997   3.041  12.872 -0.4825  0.4749 -0.2651
  723TMC3    C610740   1.912   2.951  12.811 -0.2113 -0.3306 -0.4183
  723TMC3     C10741   2.061   2.880  13.205  0.7950 -0.8796  0.3004
  723TMC3     O10742   2.002   2.796  13.272  0.1301  0.7480  0.2564
  723TMC3     H10743   1.925   2.713  13.046 -0.1188 -0.7634 -2.5603
  723TMC3    H110744   2.091   3.107  13.052  0.8771 -0.5144  0.3900
  723TMC3    H210745   1.884   2.968  12.707  0.3232  0.5007 -0.4223
  723TMC3    C710746   2.008   3.167  12.803  0.5853 -0.4174  0.8150
  723TMC3    C810747   1.797   2.740  12.806 -0.6198  0.0903  0.0967
  723TMC3    O110748   2.016   3.161  12.681  0.3254  0.2425 -0.1720
  723TMC3    O210749   1.779   2.763  12.687  0.2035 -0.3167 -0.4799
  724TMC3    C110750   2.470   1.270  10.100  0.3735  0.1653 -0.6693
  724TMC3    C210751   2.387   1.360  10.031 -0.1912  0.1891  0.1075
  724TMC3    C310752   2.444   1.416   9.917  0.0465  0.9938 -0.4258
  724TMC3    C410753   2.600   1.247  10.057  0.0521 -0.3632 -0.1045
  724TMC3    C510754   2.647   1.306   9.947 -0.4101  0.4192 -0.0570
  724TMC3    C610755   2.576   1.388   9.867 -0.1167 -0.0403 -0.2305
  724TMC3     C10756   2.477   1.297  10.243  0.0693 -0.6981  0.3125
  724TMC3     O10757   2.589   1.316  10.284 -0.5723  0.0577 -0.0287
  724TMC3     H10758   2.301   1.402  10.083 -0.7133 -0.3165 -0.3364
  724TMC3    H110759   2.652   1.166  10.107  1.0494 -0.3391 -1.1182
  724TMC3    H210760   2.624   1.446   9.790 -2.4638  2.0664 -0.1077
  724TMC3    C710761   2.788   1.320   9.934  0.2278 -0.4420  0.0011
  724TMC3    C810762   2.389   1.534   9.867  0.0595  0.3865  0.0334
  724TMC3    O110763   2.836   1.350   9.826 -0.0828 -0.1434  0.0594
  724TMC3    O210764   2.268   1.543   9.854  0.3202  0.0122  0.0240
  725TMC3    C110765   4.227   4.710  13.183 -0.0596 -0.4184 -0.3062
  725TMC3    C210766   4.092   4.721  13.146  0.1592  0.7910  0.2457
  725TMC3    C310767   4.035   4.602  13.105  0.1007  0.5744  0.2036
  725TMC3    C410768   4.297   4.595  13.178 -0.3521 -0.0275  0.1002
  725TMC3    C510769   4.239   4.477  13.132  0.4633  0.1579 -0.1607
  725TMC3    C610770   4.110   4.481  13.090 -0.0847  0.5731  0.8806
  725TMC3     C10771   4.301   0.097  13.182 -0.8891  0.1695 -0.2530
  725TMC3     O10772   4.259   0.192  13.249  0.0659  0.2699 -0.5127
  725TMC3     H10773   4.028   0.070  13.158 -1.2000 -0.2486  0.3860
  725TMC3    H110774   4.400   4.597  13.212 -0.8209  0.9995  1.4432
  725TMC3    H210775   4.063   4.393  13.048  1.7033  0.1657 -0.2526
  725TMC3    C710776   4.331   4.378  13.081  0.3249  0.7291 -0.2866
  725TMC3    C810777   3.926   4.605  13.009 -0.3344  0.2105  0.6491
  725TMC3    O110778   4.449   4.373  13.124 -0.6238 -0.3778 -0.0035
  725TMC3    O210779   3.867   4.499  12.997 -0.4287 -0.3311  0.4540
  726MPD2     C10780   1.542   1.505  10.142  0.1104 -0.7089  0.3401
  726MPD2    C110781   1.547   1.626  10.203  0.1910  0.4180  0.4363
  726MPD2    C210782   1.451   1.659  10.302 -0.0901  0.5957 -0.4548
  726MPD2    C310783   1.352   1.564  10.347 -0.0730 -0.0899  0.0322
  726MPD2    C410784   1.352   1.441  10.278 -0.7027  0.2952  0.2756
  726MPD2    C510785   1.443   1.413  10.177 -0.2550 -0.6282 -0.2140
  726MPD2     H10786   1.452   1.759  10.345  1.7785  1.0139 -1.4884
  726MPD2    H110787   1.274   1.369  10.297 -1.5205  0.7935 -1.1590
  726MPD2    H210788   1.606   1.467  10.063  0.9999  2.5055 -0.4918
  726MPD2    H310789   1.461   1.321  10.123  3.5490  1.0984 -1.9096
  726MPD2     N10790   1.255   1.577  10.444 -0.5997  0.6379  0.2086
  726MPD2    H510791   1.186   1.502  10.451  0.8976 -0.6935  0.9039
  726MPD2    N110792   1.636   1.734  10.159 -0.3923 -0.0531  0.1305
  726MPD2    H710793   1.620   1.821  10.208 -0.2039  0.0331  0.0407
  727TMC3    C110794   1.769   1.862  10.015 -0.6915  0.4812  0.2380
  727TMC3    C210795   1.793   1.947  10.112  0.2179  0.1265  0.4621
  727TMC3    C310796   1.784   2.077  10.076 -0.7359 -0.6940  0.6522
  727TMC3    C410797   1.721   1.892   9.891 -0.4937 -0.4642  0.0364
  727TMC3    C510798   1.706   2.024   9.863 -0.3423 -0.1993 -0.7819
  727TMC3    C610799   1.738   2.119   9.951 -0.2231  0.7893  0.0186
  727TMC3     C10800   1.723   1.729  10.054 -0.2818 -0.0600  0.2318
  727TMC3     O10801   1.737   1.642   9.972 -0.4430 -0.3058  0.4011
  727TMC3     H10802   1.816   1.914  10.213 -1.7784  0.5178  1.0348
  727TMC3    H110803   1.677   1.817   9.827 -0.3353  1.1488 -1.9696
  727TMC3    H210804   1.741   2.225   9.926  1.8620  0.7879  0.2555
  727TMC3    C710805   1.641   2.062   9.745 -0.2999  0.0074  0.0371
  727TMC3    C810806   1.837   2.172  10.176 -0.6104  0.2392 -0.4306
  727TMC3    O110807   1.644   1.986   9.653 -0.1456  0.4310 -0.1912
  727TMC3    O210808   1.922   2.127  10.255 -0.3257  0.3508 -0.3252
  728TMC3    C110809   1.387   0.199  15.204  0.2590  0.0783  0.3330
  728TMC3    C210810   1.519   0.218  15.185  0.5521  0.1942  0.8291
  728TMC3    C310811   1.564   0.259  15.061 -0.4465  0.3411  0.2343
  728TMC3    C410812   1.297   0.222  15.103 -0.3057  0.1699  0.1472
  728TMC3    C510813   1.336   0.270  14.982 -0.6639 -0.3348  0.4989
  728TMC3    C610814   1.475   0.290  14.956 -0.0436 -0.2035  0.2491
  728TMC3     C10815   1.341   0.159  15.332 -0.4742 -0.6963  0.3106
  728TMC3     O10816   1.396   0.205  15.433  0.4191 -0.2790 -0.0383
  728TMC3     H10817   1.589   0.191  15.263  2.7686  1.5054 -0.6854
  728TMC3    H110818   1.195   0.231  15.137  0.0027 -0.8336  1.3039
  728TMC3    H210819   1.509   0.309  14.855  0.5139 -1.6044  0.1716
  728TMC3    C710820   1.233   0.322  14.894 -0.2955 -0.4128 -0.3592
  728TMC3    C810821   1.700   0.248  15.014  0.0660  0.2097 -0.4215
  728TMC3    O110822   1.117   0.292  14.918  0.1786  0.2371 -0.2693
  728TMC3    O210823   1.721   0.235  14.896  0.3080 -0.5290 -0.3003
  729MPD2     C10824   4.165   1.332  17.357 -0.5078  0.3995 -0.4879
  729MPD2    C110825   4.228   1.386  17.245 -0.0706 -0.1179 -0.1053
  729MPD2    C210826   4.327   1.477  17.265  0.4413 -0.4526 -0.1885
  729MPD2    C310827   4.372   1.518  17.388  0.4754  0.1242  0.2079
  729MPD2    C410828   4.311   1.462  17.497  0.5575 -0.4158 -0.2467
  729MPD2    C510829   4.210   1.376  17.481  0.2660 -0.4526 -0.2641
  729MPD2     H10830   4.380   1.524  17.182 -1.1513 -0.5032 -1.2210
  729MPD2    H110831   4.342   1.495  17.595 -2.1146  1.2990  0.0407
  729MPD2    H210832   4.085   1.259  17.359  0.3194 -0.4790  1.0515
  729MPD2    H310833   4.158   1.342  17.570  0.6903 -1.4105 -0.3833
  729MPD2     N10834   4.471   1.618  17.407 -0.3292 -0.4069  0.0720
  729MPD2    H510835   4.480   1.647  17.504  1.5204 -0.1506 -0.1743
  729MPD2    N110836   4.172   1.348  17.122  0.4939  0.0533 -0.8390
  729MPD2    H710837   4.079   1.306  17.125 -0.8380  3.0139 -0.3591
  730TMC3    C110838   4.579   1.815  17.370  0.3926 -0.7424  0.6208
  730TMC3    C210839   4.686   1.880  17.309  0.1939  0.2518  0.8933
  730TMC3    C310840   4.702   2.013  17.336 -0.4188 -0.2850  0.3223
  730TMC3    C410841   4.489   1.890  17.446  0.0451  0.1071  0.1569
  730TMC3    C510842   4.512   2.024  17.468 -0.3461  0.3298 -0.4239
  730TMC3    C610843   4.623   2.086  17.420  0.8493 -0.6500  0.4821
  730TMC3     C10844   4.544   1.686  17.318  0.0095 -0.4470  0.7506
  730TMC3     O10845   4.574   1.662  17.204  0.4989  0.1505  0.1281
  730TMC3     H10846   0.023   1.825  17.251 -0.1037 -0.4877  1.2178
  730TMC3    H110847   4.395   1.843  17.471 -0.1297  0.0127 -0.6811
  730TMC3    H210848   4.632   2.193  17.414 -2.1313 -0.3512  1.2033
  730TMC3    C710849   4.404   2.100  17.414 -0.1921 -0.8930  0.1867
  730TMC3    C810850   0.081   2.079  17.286  0.5256 -0.2043 -1.1418
  730TMC3    O110851   4.346   2.049  17.321 -0.5455  0.1015  0.0621
  730TMC3    O210852   0.115   2.056  17.171  0.5616  0.0726 -0.4327
  731MPD2     C10853   3.547   4.620  12.247 -0.0140 -0.1035  0.9346
  731MPD2    C110854   3.538   4.495  12.196  1.0781 -0.0686 -0.3359
  731MPD2    C210855   3.591   4.384  12.263 -1.1761 -0.4460  0.2626
  731MPD2    C310856   3.646   4.400  12.392 -0.2691  0.3942 -0.1854
  731MPD2    C410857   3.649   4.528  12.446  0.2236 -0.2643 -0.2530
  731MPD2    C510858   3.602   4.633  12.371 -0.4614 -0.5455 -1.0279
  731MPD2     H10859   3.592   4.290  12.211 -1.3615  0.0590 -0.6551
  731MPD2    H110860   3.682   4.548  12.547 -1.0734  0.2312  0.0739
  731MPD2    H210861   3.506   4.706  12.196  2.3548 -0.0288 -0.8899
  731MPD2    H310862   3.594   4.735  12.408 -2.4309 -1.0053 -0.1545
  731MPD2     N10863   3.690   4.283  12.457  0.1678 -0.2874  0.0162
  731MPD2    H510864   3.679   4.195  12.408 -0.2669  0.1817 -0.7347
  731MPD2    N110865   3.495   4.484  12.064 -1.0187 -0.6441  0.2170
  731MPD2    H710866   3.488   4.568  12.007 -0.1910 -0.2030  0.7713
  732TMC3    C110867   3.466   4.388  11.848 -0.3367  0.4015 -0.0491
  732TMC3    C210868   3.390   4.306  11.777 -0.0016  0.8956 -0.0867
  732TMC3    C310869   3.410   4.306  11.641  0.1715 -0.3962  0.5832
  732TMC3    C410870   3.572   4.463  11.789  0.2962  0.1609 -0.1028
  732TMC3    C510871   3.588   4.451  11.649  0.4768 -0.2510  0.3853
  732TMC3    C610872   3.495   4.391  11.572 -0.2605 -0.2312  0.2194
  732TMC3     C10873   3.466   4.367  11.993  0.9744 -0.8510  0.0776
  732TMC3     O10874   3.435   4.258  12.031 -0.5249 -0.3037 -0.1438
  732TMC3     H10875   3.316   4.248  11.831  0.6906  1.0194  0.9977
  732TMC3    H110876   3.636   4.526  11.849  1.3420  1.3437 -2.4560
  732TMC3    H210877   3.533   4.379  11.471  0.1922  1.4471  0.1855
  732TMC3    C710878   3.717   4.437  11.588  0.5331 -0.2220  0.5561
  732TMC3    C810879   3.348   4.201  11.556 -0.4843 -0.4721 -0.3619
  732TMC3    O110880   3.736   4.446  11.472  0.2156 -0.2600 -0.3130
  732TMC3    O210881   3.353   4.216  11.434 -0.0993 -0.2243 -0.6068
  733TMC3    C110882   4.432   2.219  12.859 -0.0509  0.3047 -0.8656
  733TMC3    C210883   4.485   2.341  12.885  0.1241  0.1456 -0.1519
  733TMC3    C310884   4.551   2.404  12.781 -0.0699  0.2114  0.3879
  733TMC3    C410885   4.421   2.164  12.737  0.8923  0.2657 -0.2219
  733TMC3    C510886   4.490   2.221  12.637 -0.1348 -0.2728  0.3956
  733TMC3    C610887   4.544   2.348  12.652 -0.2223  0.1715 -0.0677
  733TMC3     C10888   4.313   2.185  12.937  0.8890 -0.1835 -0.3746
  733TMC3     O10889   4.206   2.165  12.879 -0.5032 -0.0665 -0.7383
  733TMC3     H10890   4.490   2.387  12.983  0.0436  0.8098 -0.4564
  733TMC3    H110891   4.369   2.070  12.724  1.2636  0.0111  0.1117
  733TMC3    H210892   4.595   2.403  12.574 -1.6932 -0.5179 -1.5176
  733TMC3    C710893   4.441   2.192  12.506  0.1766 -0.2649  0.8089
  733TMC3    C810894   4.561   2.542  12.802  0.1741  0.3882  0.4630
  733TMC3    O110895   4.463   2.081  12.458 -0.0658  0.8528  0.2518
  733TMC3    O210896   4.652   2.584  12.872  0.0521 -0.9206 -0.7214
  734MPD2     C10897   1.639   0.603  12.175  0.3703  0.1131 -0.3674
  734MPD2    C110898   1.543   0.529  12.118  0.2822 -0.4282 -0.7016
  734MPD2    C210899   1.489   0.572  12.002  0.1333 -0.8560  0.3752
  734MPD2    C310900   1.518   0.694  11.941 -0.0362  0.1477 -0.2138
  734MPD2    C410901   1.619   0.773  12.002 -1.0283 -0.1462  0.3301
  734MPD2    C510902   1.677   0.722  12.124  0.0016  0.1196 -0.2065
  734MPD2     H10903   1.430   0.508  11.937  0.6394  0.1951 -1.1353
  734MPD2    H110904   1.661   0.866  11.964 -0.4114 -0.8850 -0.8114
  734MPD2    H210905   1.691   0.563  12.262  0.5319  0.3285 -0.3640
  734MPD2    H310906   1.737   0.778  12.194 -0.0537  0.5173 -0.4768
  734MPD2     N10907   1.458   0.730  11.820  1.1605  0.0539  0.0456
  734MPD2    H510908   1.398   0.663  11.772 -0.5690  0.8012  1.1534
  734MPD2    N110909   1.507   0.393  12.168  0.0887 -0.1549  1.0543
  734MPD2    H710910   1.562   0.360  12.247  1.0459 -0.8485  0.0939
  735TMC3    C110911   1.427   0.171  12.135  0.0213 -0.5881 -0.4754
  735TMC3    C210912   1.321   0.103  12.072  0.3153  0.2396 -0.4555
  735TMC3    C310913   1.352   4.733  12.002  0.1092 -0.0407  0.1641
  735TMC3    C410914   1.551   0.113  12.140 -0.0058 -0.9660  0.2211
  735TMC3    C510915   1.577   0.001  12.063  0.3090 -0.2462 -0.1558
  735TMC3    C610916   1.479   4.677  11.995  0.4335  0.0303  0.6954
  735TMC3     C10917   1.423   0.309  12.100 -0.3908 -0.6737 -0.0353
  735TMC3     O10918   1.338   0.333  12.018  0.4192  0.5249 -0.1219
  735TMC3     H10919   1.215   0.124  12.087 -0.3242 -2.7145 -0.7990
  735TMC3    H110920   1.639   0.171  12.166  0.5977 -1.4626 -0.7270
  735TMC3    H210921   1.496   4.588  11.935  3.9630 -0.2510  2.0968
  735TMC3    C710922   1.710   4.698  12.037  0.2838 -0.6530 -0.0084
  735TMC3    C810923   1.287   4.734  11.871  0.3957 -0.7174  0.0748
  735TMC3    O110924   1.745   4.680  11.919 -0.7029  0.1737 -0.1153
  735TMC3    O210925   1.291   4.631  11.806  0.3843 -0.0286 -0.2707
  736MPD2     C10926   1.943   4.593  12.311 -0.4178  0.6376  0.4456
  736MPD2    C110927   1.910   4.632  12.180  0.2018  0.6326  0.2440
  736MPD2    C210928   2.005   4.634  12.080  0.8080 -0.4342 -0.2264
  736MPD2    C310929   2.134   4.590  12.109 -0.0516 -0.3461 -0.3450
  736MPD2    C410930   2.161   4.543  12.234 -0.4068 -0.2502  0.6940
  736MPD2    C510931   2.064   4.546  12.340  0.0206 -0.1412  0.4908
  736MPD2     H10932   1.977   4.660  11.978  0.7565 -0.6126 -0.2569
  736MPD2    H110933   2.263   4.514  12.261  0.3989  0.0473 -2.1031
  736MPD2    H210934   1.870   4.594  12.390 -1.5940  1.8138 -0.6533
  736MPD2    H310935   2.096   4.534  12.443  1.0084 -0.9778  0.0866
  736MPD2     N10936   2.244   4.605  12.024  0.0749  0.3838  0.2912
  736MPD2    H510937   2.328   4.559  12.056  0.2652  0.7168  0.2662
  736MPD2    N110938   1.778   4.679  12.154 -0.3201  0.0646 -0.2461
  736MPD2    H710939   1.713   4.678  12.233 -1.1568  1.4811 -0.9134
  737TMC3    C110940   2.378   4.664  11.847  0.8138  0.2890 -0.7610
  737TMC3    C210941   2.413   0.039  11.779 -0.2125  0.7277  0.3403
  737TMC3    C310942   2.469   0.017  11.656 -0.4706  0.4618 -0.7792
  737TMC3    C410943   2.402   4.536  11.797 -0.2283  0.5496  0.4784
  737TMC3    C510944   2.475   4.526  11.682 -0.7599 -0.8734  0.8751
  737TMC3    C610945   2.500   4.630  11.601  0.0678 -0.1634 -0.0661
  737TMC3     C10946   2.251   4.678  11.911  0.2424  0.5189 -0.1096
  737TMC3     O10947   2.165   0.007  11.858  0.2760  0.1014 -0.6002
  737TMC3     H10948   2.393   0.133  11.828  0.0035  0.1920  1.4817
  737TMC3    H110949   2.376   4.450  11.858  2.1864 -1.3281 -1.1514
  737TMC3    H210950   2.547   4.601  11.508 -1.1466  0.7607 -0.9777
  737TMC3    C710951   2.508   4.391  11.648 -0.2496  0.5345  0.0202
  737TMC3    C810952   2.422   0.117  11.564 -0.0347  0.0791 -0.2213
  737TMC3    O110953   2.429   4.303  11.685 -0.2197 -0.1238 -0.4027
  737TMC3    O210954   2.366   0.216  11.615  0.1698  0.3493  0.0459
  738MPD2     C10955   2.563   3.346  15.674  0.5490  0.3467  0.1628
  738MPD2    C110956   2.558   3.318  15.544  0.0097  0.7469  0.0757
  738MPD2    C210957   2.647   3.385  15.461 -0.0707 -0.2624 -0.5948
  738MPD2    C310958   2.754   3.457  15.508  0.5894 -0.3818  0.2251
  738MPD2    C410959   2.761   3.483  15.644  0.0497 -0.1359 -0.0973
  738MPD2    C510960   2.652   3.441  15.723 -0.0474 -0.0682 -0.4755
  738MPD2     H10961   2.652   3.360  15.355 -2.2782 -4.1357  0.2046
  738MPD2    H110962   2.836   3.548  15.687  0.7387 -1.1365  0.1928
  738MPD2    H210963   2.505   3.298  15.752 -0.1133 -2.3550 -1.9988
  738MPD2    H310964   2.651   3.476  15.825 -0.2155 -0.0106 -0.4958
  738MPD2     N10965   2.859   3.493  15.425 -0.2254 -0.1832  0.1763
  738MPD2    H510966   2.939   3.532  15.476 -1.5721  2.5767  0.1397
  738MPD2    N110967   2.457   3.230  15.501  0.1021 -0.2221  0.5965
  738MPD2    H710968   2.451   3.201  15.404  1.1503  0.0894  0.4387
  739TMC3    C110969   3.000   3.484  15.227  0.6400  0.0099 -0.4258
  739TMC3    C210970   3.022   3.544  15.113  0.3776 -0.1256  0.0989
  739TMC3    C310971   3.141   3.505  15.055  0.4946  0.6893 -0.3315
  739TMC3    C410972   3.081   3.401  15.296  0.4353  0.0250 -0.5953
  739TMC3    C510973   3.203   3.373  15.239  0.5933  0.4667 -0.5729
  739TMC3    C610974   3.233   3.426  15.112  0.1054  0.5681 -0.5168
  739TMC3     C10975   2.862   3.494  15.281  0.5531 -0.2797  0.8110
  739TMC3     O10976   2.771   3.525  15.205 -0.0926  0.0649  0.7935
  739TMC3     H10977   2.949   3.607  15.064  1.0749  0.2038 -0.5146
  739TMC3    H110978   3.046   3.335  15.375  0.0910  0.0984 -0.6870
  739TMC3    H210979   3.316   3.386  15.056  1.8707 -2.4596  4.2487
  739TMC3    C710980   3.266   3.247  15.285 -0.5983 -0.5981 -0.3515
  739TMC3    C810981   3.154   3.530  14.911 -0.0169 -0.1611 -0.3889
  739TMC3    O110982   3.215   3.189  15.379 -0.4691  0.6414  0.0617
  739TMC3    O210983   3.063   3.586  14.853  0.2304 -0.6079  0.2710
  740TMC3    C110984   3.694   4.557  14.467  0.2451  0.1972 -0.4194
  740TMC3    C210985   3.685   4.463  14.567  0.0503 -0.4866  0.3424
  740TMC3    C310986   3.690   4.335  14.522  0.1308  0.1551  0.3119
  740TMC3    C410987   3.708   4.534  14.332 -0.1869 -0.7060 -0.3343
  740TMC3    C510988   3.702   4.401  14.293  0.2158 -0.2103 -0.8163
  740TMC3    C610989   3.697   4.298  14.388  0.5453 -0.2915 -0.5508
  740TMC3     C10990   3.646   4.688  14.505 -0.5188 -0.1757 -0.4258
  740TMC3     O10991   3.697   0.054  14.458 -0.0260 -0.2052 -0.4115
  740TMC3     H10992   3.673   4.483  14.673  1.3050 -0.2976  0.4486
  740TMC3    H110993   3.717   4.611  14.256  1.8232 -0.4473  0.1831
  740TMC3    H210994   3.680   4.193  14.364  1.3691  0.3349 -3.9301
  740TMC3    C710995   3.699   4.384  14.151 -0.0246 -0.1488 -0.6868
  740TMC3    C810996   3.679   4.238  14.631 -0.3172 -0.5731  0.4726
  740TMC3    O110997   3.658   4.483  14.092  0.1274  0.3794  0.1842
  740TMC3    O210998   3.675   4.273  14.749  0.1083  0.0418 -0.5925
  741TMC3    C110999   3.005   4.288  14.400  0.3810  0.0522 -0.3745
  741TMC3    C211000   2.938   4.191  14.334  0.4819 -0.0885  0.0593
  741TMC3    C311001   2.932   4.064  14.390  1.0431 -1.0628 -0.1810
  741TMC3    C411002   3.062   4.276  14.522 -0.0311 -0.0001 -0.5835
  741TMC3    C511003   3.054   4.151  14.572  0.5320 -0.0739  0.1199
  741TMC3    C611004   2.995   4.048  14.510 -1.0580 -0.3965  0.2165
  741TMC3     C11005   2.973   4.423  14.345 -1.3473  0.0836  0.6458
  741TMC3     O11006   2.965   4.520  14.420  0.3400 -0.4567 -0.8265
  741TMC3     H11007   2.882   4.212  14.244 -0.6357  0.0300  0.7803
  741TMC3    H111008   3.114   4.359  14.568 -0.0983 -0.6659  0.7057
  741TMC3    H211009   2.977   3.957  14.566  0.8978  0.1791  1.7588
  741TMC3    C711010   3.123   4.122  14.695  0.1316  0.3304 -1.0335
  741TMC3    C811011   2.817   3.985  14.344 -0.7649 -0.9129  0.1376
  741TMC3    O111012   3.100   4.020  14.757 -0.4258  0.4610  0.3121
  741TMC3    O211013   2.758   4.031  14.244 -0.0905 -0.9954  0.2195
  742TMC3    C111014   2.809   2.272  15.207  0.5224  0.2117 -0.7636
  742TMC3    C211015   2.676   2.254  15.178  0.3686 -0.3884  0.2902
  742TMC3    C311016   2.646   2.121  15.167  0.3497  0.1312 -0.7010
  742TMC3    C411017   2.888   2.177  15.254 -0.4204  0.6160 -0.6952
  742TMC3    C511018   2.843   2.043  15.252  0.1686  0.3916 -0.0862
  742TMC3    C611019   2.716   2.017  15.220 -0.1760 -0.4878 -0.7396
  742TMC3     C11020   2.863   2.405  15.209  0.1247  0.7292  0.8197
  742TMC3     O11021   2.933   2.447  15.301  0.2485  0.6365 -0.1045
  742TMC3     H11022   2.618   2.337  15.142 -0.5924 -1.7904 -1.4082
  742TMC3    H111023   2.995   2.186  15.268 -0.5200  1.1547 -0.2399
  742TMC3    H211024   2.662   1.923  15.224 -0.2233 -0.3806  1.2341
  742TMC3    C711025   2.947   1.947  15.212  0.2446  0.1707 -0.5225
  742TMC3    C811026   2.548   2.077  15.072  0.3084  0.0092 -0.1310
  742TMC3    O111027   3.063   1.987  15.211  0.5611  0.1864  0.3574
  742TMC3    O211028   2.573   1.988  14.993 -0.0730 -0.0812  0.0019
  743MPD2     C11029   0.262   3.959   1.742  0.0635  0.5491  0.2169
  743MPD2    C111030   0.334   3.951   1.626  0.3356  0.0021  0.8255
  743MPD2    C211031   0.460   4.020   1.617 -0.1186  0.2442 -0.2388
  743MPD2    C311032   0.508   4.087   1.732 -0.1635  0.0362  0.1881
  743MPD2    C411033   0.443   4.080   1.842 -0.7126 -0.2418 -0.1139
  743MPD2    C511034   0.320   4.014   1.848  0.1166 -0.0130  0.2172
  743MPD2     H11035   0.525   4.015   1.530 -0.2887 -0.1363 -0.3453
  743MPD2    H111036   0.473   4.139   1.928 -1.4666  0.7257 -0.5003
  743MPD2    H211037   0.169   3.905   1.753 -1.2672  2.9599  0.8670
  743MPD2    H311038   0.269   4.014   1.944  0.2197  1.2594  0.2610
  743MPD2     N11039   0.633   4.145   1.718 -0.3797  0.0943  0.2981
  743MPD2    H511040   0.660   4.152   1.621  0.0399  1.6495  0.5312
  743MPD2    N111041   0.278   3.869   1.526  0.2453 -0.7872  0.4709
  743MPD2    H711042   0.184   3.833   1.540 -0.4554  0.8855  0.0905
  744TMC3    C111043   0.286   3.733   1.341  0.0900  0.7312  0.0523
  744TMC3    C211044   0.161   3.745   1.283 -0.0898  0.2969  0.2563
  744TMC3    C311045   0.120   3.648   1.191  1.0209  0.8915  0.0097
  744TMC3    C411046   0.371   3.624   1.310  0.4255 -0.5319  0.0396
  744TMC3    C511047   0.333   3.547   1.207 -0.9798  0.1952  0.0286
  744TMC3    C611048   0.217   3.560   1.141 -0.1383  0.4792  0.7208
  744TMC3     C11049   0.347   3.839   1.417 -0.4157 -0.3640 -0.2550
  744TMC3     O11050   0.468   3.853   1.399 -0.2473  0.1064 -0.2780
  744TMC3     H11051   0.104   3.834   1.306  0.0782 -0.0476  2.0668
  744TMC3    H111052   0.475   3.628   1.342 -0.3830 -0.0621  2.5396
  744TMC3    H211053   0.193   3.497   1.056  1.3887  0.3400  0.3892
  744TMC3    C711054   0.452   3.505   1.128  0.2786 -0.5917 -0.0137
  744TMC3    C811055   0.002   3.681   1.105 -0.1945  0.5901  0.1638
  744TMC3    O111056   0.433   3.507   1.005  0.4375 -0.4440 -0.9981
  744TMC3    O211057   4.706   3.799   1.105 -0.2097  0.0633  0.0244
  745TMC3    C111058   3.046   2.205  13.987  0.6920  0.0574 -0.3291
  745TMC3    C211059   2.945   2.196  14.077 -0.2122  0.1248 -0.0778
  745TMC3    C311060   2.817   2.226  14.042 -0.5842  0.7206  0.7560
  745TMC3    C411061   3.018   2.244  13.858  0.1641 -0.1194 -0.7460
  745TMC3    C511062   2.889   2.274  13.824  0.3707  0.2842 -0.2334
  745TMC3    C611063   2.790   2.275  13.918  0.0591  0.1048 -0.0137
  745TMC3     C11064   3.171   2.266  14.030  0.8052  0.0290 -0.1620
  745TMC3     O11065   3.234   2.336  13.946  0.1456 -0.0365  0.4308
  745TMC3     H11066   2.970   2.144  14.169 -2.0921  0.0144  0.3832
  745TMC3    H111067   3.106   2.241  13.796  0.4742  3.6985 -0.5217
  745TMC3    H211068   2.689   2.306  13.893 -0.8061 -2.4885  0.1979
  745TMC3    C711069   2.866   2.343  13.695  0.0137  0.4203 -0.0947
  745TMC3    C811070   2.743   2.294  14.141  0.0814  0.6390  0.9717
  745TMC3    O111071   2.758   2.404  13.677 -0.0514  0.7492  0.2684
  745TMC3    O211072   2.619   2.323  14.133  0.3616  0.6944  0.6606
  746TMC3    C111073   0.523   4.196  11.132 -0.2133  0.2710 -0.0945
  746TMC3    C211074   0.598   4.149  11.026  0.0354 -0.3203  0.2708
  746TMC3    C311075   0.577   4.026  10.986  0.1464  0.2332  0.2639
  746TMC3    C411076   0.420   4.117  11.184 -0.6821  0.7885  0.4982
  746TMC3    C511077   0.401   3.994  11.139 -0.2193 -0.2958  0.2812
  746TMC3    C611078   0.480   3.945  11.039 -0.1706 -0.3332  0.1072
  746TMC3     C11079   0.513   4.336  11.164 -0.3162 -0.0663  0.5844
  746TMC3     O11080   0.427   4.371  11.243 -0.1096 -0.1488 -0.1796
  746TMC3     H11081   0.680   4.203  10.980  1.8202 -1.4631  2.0694
  746TMC3    H111082   0.347   4.153  11.254 -0.5209 -1.5638  1.8689
  746TMC3    H211083   0.468   3.843  11.005 -0.1388 -0.7087  1.2116
  746TMC3    C711084   0.267   3.938  11.142 -0.0667  0.2582 -0.4204
  746TMC3    C811085   0.628   3.984  10.855  0.3491  0.3516 -0.1727
  746TMC3    O111086   0.244   3.842  11.070 -0.6512 -0.3939 -0.2419
  746TMC3    O211087   0.657   3.866  10.842 -0.1367 -0.2753  0.6364
  747TMC3    C111088   2.888   4.211  10.750  0.1177  0.4856 -0.1485
  747TMC3    C211089   2.867   4.135  10.865 -0.0263  0.1856  0.1129
  747TMC3    C311090   2.907   4.177  10.990 -0.0267  0.3152 -0.7318
  747TMC3    C411091   2.941   4.338  10.766 -0.1422 -0.6669  0.2398
  747TMC3    C511092   2.957   4.384  10.899  0.2752  0.1315 -0.2805
  747TMC3    C611093   2.956   4.307  11.012 -0.7596 -0.4326  0.3571
  747TMC3     C11094   2.830   4.169  10.620  0.0041  0.2911 -0.1850
  747TMC3     O11095   2.814   4.264  10.544 -0.3740 -0.6080  0.0001
  747TMC3     H11096   2.834   4.032  10.857 -0.7079  0.2374  2.2455
  747TMC3    H111097   2.952   4.399  10.677  1.5442  0.2393  1.0788
  747TMC3    H211098   2.979   4.344  11.111 -0.9188  0.7157 -0.0255
  747TMC3    C711099   2.988   4.524  10.928  0.2118  0.0517  0.0835
  747TMC3    C811100   2.871   4.094  11.103 -0.4644  0.0985  0.6035
  747TMC3    O111101   3.007   4.548  11.046  0.0263  0.0326 -0.2926
  747TMC3    O211102   2.844   3.979  11.089  0.2480 -0.0347  0.7426
  748MPD2     C11103   4.500   0.639   1.201 -0.5463 -0.1989 -0.3266
  748MPD2    C111104   4.481   0.518   1.146  0.2321 -0.1346 -0.2251
  748MPD2    C211105   4.569   0.417   1.179  0.1312 -0.5887 -0.1226
  748MPD2    C311106   4.674   0.441   1.270 -0.2232 -0.0207  0.3110
  748MPD2    C411107   4.684   0.562   1.331 -0.3749  0.0964  0.4146
  748MPD2    C511108   4.601   0.660   1.294 -0.3257 -0.2980 -0.1673
  748MPD2     H11109   4.561   0.316   1.140  1.6535 -0.3537 -1.0307
  748MPD2    H111110   0.026   0.575   1.404  0.6724 -0.7131 -0.5713
  748MPD2    H211111   4.430   0.718   1.175  0.4342  1.0363  0.8091
  748MPD2    H311112   4.620   0.750   1.352 -1.6898 -0.3169  0.3040
  748MPD2     N11113   0.036   0.337   1.280  0.1193  0.3670 -0.2686
  748MPD2    H511114   0.027   0.259   1.216 -1.2572  1.2630 -1.1922
  748MPD2    N111115   4.374   0.503   1.055  0.1427  0.1004 -0.7498
  748MPD2    H711116   4.300   0.572   1.058  2.1045  2.1654 -0.1261
  749TMC3    C111117   0.227   0.226   1.346 -0.1526  0.4499  0.1217
  749TMC3    C211118   0.281   0.179   1.463 -0.0339  0.5298 -0.5117
  749TMC3    C311119   0.359   0.068   1.459 -0.2863  0.0660  0.2585
  749TMC3    C411120   0.254   0.171   1.221  0.0765  1.0149 -0.4227
  749TMC3    C511121   0.339   0.062   1.220  0.5078  0.3751 -0.4856
  749TMC3    C611122   0.383   0.006   1.338 -0.1961  0.7130 -0.6001
  749TMC3     C11123   0.148   0.349   1.357  0.4104  0.6481  0.1937
  749TMC3     O11124   0.174   0.423   1.454 -0.2346 -0.2010 -0.0868
  749TMC3     H11125   0.258   0.224   1.559  0.0976  0.2318 -0.3407
  749TMC3    H111126   0.226   0.218   1.127 -1.9174  1.7976  0.5735
  749TMC3    H211127   0.454   4.662   1.331 -0.5790  0.3229 -0.0178
  749TMC3    C711128   0.405   0.048   1.094  0.8838  0.2284 -0.0336
  749TMC3    C811129   0.430   0.032   1.581  0.3246 -0.7368 -1.1113
  749TMC3    O111130   0.415   4.669   1.062  0.4039  0.4450  0.0556
  749TMC3    O211131   0.405   0.102   1.679 -0.4540  0.0664  0.4278
  750MPD2     C11132   0.483   1.551  11.350 -0.1987 -0.3964 -0.1314
  750MPD2    C111133   0.359   1.484  11.353 -0.3340 -0.0765  0.3571
  750MPD2    C211134   0.349   1.369  11.275 -0.3296  0.2581 -0.7971
  750MPD2    C311135   0.454   1.320  11.197  0.7940 -0.2384  0.0202
  750MPD2    C411136   0.568   1.392  11.187 -0.6363  0.5044 -0.9009
  750MPD2    C511137   0.584   1.500  11.270  0.2519  0.5033 -0.2046
  750MPD2     H11138   0.254   1.316  11.281  0.2500 -0.5553  1.2119
  750MPD2    H111139   0.658   1.359  11.137  0.1213 -0.9447  1.4105
  750MPD2    H211140   0.509   1.632  11.417 -1.2418  0.7130 -1.0503
  750MPD2    H311141   0.672   1.561  11.252  1.1006 -0.3294  1.1594
  750MPD2     N11142   0.447   1.186  11.133 -0.4534 -0.1989 -0.5628
  750MPD2    H511143   0.532   1.153  11.090 -0.6809 -0.5089 -0.7713
  750MPD2    N111144   0.251   1.543  11.427 -0.3701  1.0911  0.0418
  750MPD2    H711145   0.285   1.623  11.479 -1.0210  1.3833  0.0179
  751TMC3    C111146   0.363   0.973  11.096  0.7662  0.0008 -0.5598
  751TMC3    C211147   0.295   0.866  11.150  0.1087  0.3746 -1.2101
  751TMC3    C311148   0.308   0.743  11.100  0.3271 -0.4913  0.1591
  751TMC3    C411149   0.445   0.952  10.982  0.0219  0.1917 -0.1787
  751TMC3    C511150   0.449   0.824  10.932  0.5258 -0.3059  0.2786
  751TMC3    C611151   0.383   0.721  10.990  0.9175  0.1491  0.8030
  751TMC3     C11152   0.332   1.104  11.147  0.5140 -0.0065 -0.2061
  751TMC3     O11153   0.229   1.127  11.205  0.6496  0.0209 -0.2447
  751TMC3     H11154   0.226   0.893  11.230  0.3979 -0.5424 -0.6416
  751TMC3    H111155   0.502   1.031  10.936  0.4907  0.1212  0.2801
  751TMC3    H211156   0.389   0.621  10.948 -1.0254  0.2309  0.3306
  751TMC3    C711157   0.471   0.814  10.789  0.7699  0.4128 -0.2845
  751TMC3    C811158   0.184   0.670  11.083  0.0183 -0.2917  0.3475
  751TMC3    O111159   0.560   0.883  10.737  0.3722  0.2214  0.5119
  751TMC3    O211160   0.161   0.628  10.970  0.0509 -0.3028 -0.9478
  752TMC3    C111161   0.183   1.618  17.167  0.2170  0.9851  0.4183
  752TMC3    C211162   0.120   1.517  17.235 -0.1323 -0.0553 -0.1544
  752TMC3    C311163   0.120   1.515  17.375  1.0465  0.2890 -0.4663
  752TMC3    C411164   0.266   1.703  17.232 -0.8877  0.3068  0.1060
  752TMC3    C511165   0.269   1.698  17.372  0.0093 -0.5654 -0.1140
  752TMC3    C611166   0.200   1.608  17.444 -0.4157  0.8199  0.5251
  752TMC3     C11167   0.168   1.644  17.023 -0.4297  0.8650 -0.4679
  752TMC3     O11168   0.239   1.718  16.962 -0.2384 -0.0601  0.2830
  752TMC3     H11169   0.059   1.446  17.179 -1.0239 -0.1928  0.9857
  752TMC3    H111170   0.296   1.784  17.167  1.2485 -0.0412  0.6787
  752TMC3    H211171   0.204   1.614  17.552  1.0223 -1.2498  0.5955
  752TMC3    C711172   0.360   1.787  17.443 -0.6765 -0.0355 -0.4498
  752TMC3    C811173   0.031   1.412  17.435 -0.1000  0.4118  0.2774
  752TMC3    O111174   0.346   1.790  17.569  0.2669 -0.3703 -0.1131
  752TMC3    O211175   4.737   1.320  17.362  0.2733 -0.4786 -0.0703
  753TMC3    C111176   1.231   2.059  14.363 -0.6241 -0.0558 -0.3212
  753TMC3    C211177   1.300   2.123  14.460  0.7897 -0.2208 -0.3780
  753TMC3    C311178   1.244   2.130  14.584 -0.0663  0.2025 -0.1400
  753TMC3    C411179   1.107   2.005  14.388 -0.5407  0.4850 -0.0492
  753TMC3    C511180   1.054   2.017  14.512  0.0108 -0.0441 -0.0457
  753TMC3    C611181   1.127   2.069  14.615 -0.2585  0.3021  0.2106
  753TMC3     C11182   1.241   2.105  14.221  0.3164  0.4022  0.0383
  753TMC3     O11183   1.129   2.134  14.173 -0.3546 -0.1080 -0.6820
  753TMC3     H11184   1.389   2.180  14.433 -0.2095  0.8120 -1.5048
  753TMC3    H111185   1.046   1.946  14.320 -1.2888 -0.6335  1.6154
  753TMC3    H211186   1.098   2.055  14.718 -1.3569 -1.5511 -0.3343
  753TMC3    C711187   0.911   2.013  14.533  0.0390 -0.5963  0.2485
  753TMC3    C811188   1.311   2.210  14.694 -0.1491 -0.1622  0.2792
  753TMC3    O111189   0.880   2.021  14.653 -0.6446  0.2055  0.2414
  753TMC3    O211190   1.271   2.188  14.809 -0.3860  0.6267 -0.1899
  754MPD2     C11191   0.517   0.694  12.837 -0.2572  0.7913 -0.6428
  754MPD2    C111192   0.430   0.604  12.898 -0.3104 -0.2016 -0.0994
  754MPD2    C211193   0.302   0.652  12.930 -0.8917  0.5323 -0.1379
  754MPD2    C311194   0.275   0.792  12.923 -0.2104 -0.2238  0.2146
  754MPD2    C411195   0.361   0.872  12.851 -0.4515  0.2296 -0.0758
  754MPD2    C511196   0.482   0.823  12.815 -0.4868 -0.2655  0.2499
  754MPD2     H11197   0.232   0.575  12.962 -1.1302  0.4153 -0.9482
  754MPD2    H111198   0.340   0.978  12.843 -0.0377  0.3618  0.5881
  754MPD2    H211199   0.612   0.659  12.797  0.3443  0.0949  1.3813
  754MPD2    H311200   0.546   0.891  12.760 -1.9437 -0.2198 -1.3889
  754MPD2     N11201   0.160   0.852  12.981  0.0768  0.1429 -0.3592
  754MPD2    H511202   0.155   0.951  12.957 -1.1909  0.3024  0.5273
  754MPD2    N111203   0.490   0.481  12.941  0.5154 -0.1763 -0.2708
  754MPD2    H711204   0.591   0.469  12.931  0.5061 -0.1572 -0.3805
  755MPD2     C11205   4.333   1.521  13.130 -0.6504 -0.1656  0.2312
  755MPD2    C111206   4.443   1.481  13.201  0.8704 -0.5551  0.1036
  755MPD2    C211207   4.501   1.359  13.172 -1.0684  0.4173  0.3020
  755MPD2    C311208   4.439   1.274  13.076  0.1459  0.6122  0.2457
  755MPD2    C411209   4.330   1.315  13.012 -0.5059 -0.1544  0.8069
  755MPD2    C511210   4.280   1.436  13.035  0.0901 -0.2538 -0.2224
  755MPD2     H11211   4.585   1.325  13.231 -0.2573  0.3987 -0.8759
  755MPD2    H111212   4.284   1.257  12.933  0.7842 -0.9395  0.6288
  755MPD2    H211213   4.283   1.614  13.153  0.5614  0.3150  0.9472
  755MPD2    H311214   4.198   1.471  12.972 -1.6825 -3.9989  0.0181
  755MPD2     N11215   4.494   1.146  13.061 -0.3236 -0.1333  0.2648
  755MPD2    H511216   4.583   1.128  13.105  1.1216  2.5206 -1.5812
  755MPD2    N111217   4.494   1.557  13.315  0.6118 -0.1455  0.0190
  755MPD2    H711218   4.570   1.507  13.361  0.4011 -0.2530  0.2550
  756MPD2     C11219   4.476   2.092   9.468  0.2700  0.3457  0.4223
  756MPD2    C111220   4.365   2.061   9.545  0.5007 -0.7265  0.6940
  756MPD2    C211221   4.246   2.111   9.507 -0.7045  0.4629 -0.0486
  756MPD2    C311222   4.231   2.190   9.393  0.0594  0.2267 -0.1165
  756MPD2    C411223   4.343   2.214   9.317  0.5186 -0.1718 -0.0481
  756MPD2    C511224   4.462   2.165   9.356 -0.2716 -0.1702  0.3630
  756MPD2     H11225   4.167   2.082   9.575 -0.0151 -0.7719  0.2281
  756MPD2    H111226   4.342   2.272   9.225  0.2481  0.6993  0.5050
  756MPD2    H211227   4.576   2.057   9.487  0.9426  1.5818 -0.8154
  756MPD2    H311228   4.547   2.191   9.295 -0.1395 -0.5544  0.3830
  756MPD2     N11229   4.101   2.230   9.354 -0.2399 -0.1152  0.6471
  756MPD2    H511230   4.027   2.206   9.419 -1.0480  1.3375  0.2767
  756MPD2    N111231   4.367   1.989   9.670  0.2051 -0.0868 -0.4621
  756MPD2    H711232   4.276   1.983   9.714  1.0565 -0.9825  1.1828
  757MPD2     C11233   3.793   1.476   9.114 -0.3616  0.3029 -0.2130
  757MPD2    C111234   3.864   1.519   9.226  0.0247  0.3274 -0.3891
  757MPD2    C211235   3.869   1.649   9.251  0.2348 -0.6363  0.1299
  757MPD2    C311236   3.794   1.740   9.177 -0.4344  0.0954  0.2281
  757MPD2    C411237   3.723   1.690   9.072  0.6860  0.7302  0.6706
  757MPD2    C511238   3.720   1.557   9.032  0.4050 -0.3763  0.4046
  757MPD2     H11239   3.922   1.692   9.335 -1.6081 -0.0795  0.9894
  757MPD2    H111240   3.669   1.751   9.001 -0.8960 -2.1961 -0.6504
  757MPD2    H211241   3.803   1.372   9.085 -1.4812  0.7863 -2.2871
  757MPD2    H311242   3.661   1.516   8.951 -1.3704 -0.0496  1.5269
  757MPD2     N11243   3.791   1.879   9.200  0.2467  0.2953  0.3912
  757MPD2    H511244   3.863   1.911   9.264 -0.5331  0.6345  1.1056
  757MPD2    N111245   3.938   1.420   9.298 -0.6411  0.1484  0.5620
  757MPD2    H711246   3.928   1.323   9.268  1.6963  0.7085 -2.0782
  758MPD2     C11247   0.413   0.519  15.715  0.5369  0.3649  0.3805
  758MPD2    C111248   0.501   0.468  15.803 -0.1739  0.1988 -0.4731
  758MPD2    C211249   0.491   0.487  15.937  0.1562  0.0760  0.1081
  758MPD2    C311250   0.395   0.574  15.985  0.3699  0.1324  0.1582
  758MPD2    C411251   0.297   0.612  15.900  0.5174  0.3105 -0.2891
  758MPD2    C511252   0.301   0.575  15.769  0.1349  0.1317  0.0433
  758MPD2     H11253   0.564   0.452  16.008 -0.1761 -0.8762 -0.0286
  758MPD2    H111254   0.214   0.670  15.940 -1.6778 -2.7492 -0.3923
  758MPD2    H211255   0.424   0.511  15.607 -1.2562  2.8587  0.0035
  758MPD2    H311256   0.225   0.613  15.702 -0.4641 -0.5383  0.3423
  758MPD2     N11257   0.397   0.625  16.118 -0.2700 -0.5212 -0.1698
  758MPD2    H511258   0.340   0.708  16.133  0.0633 -0.3692  0.2535
  758MPD2    N111259   0.612   0.397  15.755  0.1500 -0.1565  0.6501
  758MPD2    H711260   0.616   0.392  15.654  2.1844 -0.7238  0.7635
  759MPD2     C11261   4.287   3.351  10.199 -0.2938 -0.3758 -0.4204
  759MPD2    C111262   4.183   3.415  10.261  0.3398  0.2740  0.0923
  759MPD2    C211263   4.128   3.517  10.191  0.0177  0.2746 -0.0439
  759MPD2    C311264   4.167   3.556  10.063 -0.4797 -0.1582 -0.0686
  759MPD2    C411265   4.270   3.484  10.006 -0.0884 -0.6611 -1.1016
  759MPD2    C511266   4.335   3.390  10.081  0.7040 -1.2317  0.5722
  759MPD2     H11267   4.046   3.573  10.235 -0.3070 -0.9029  0.8337
  759MPD2    H111268   4.314   3.503   9.909  1.6955 -0.7209 -0.3061
  759MPD2    H211269   4.341   3.266  10.238  0.8935  0.4605 -0.2520
  759MPD2    H311270   4.433   3.359  10.046  0.2597 -3.2925  1.1312
  759MPD2     N11271   4.099   3.665   9.996  0.5779 -0.4603  0.0616
  759MPD2    H511272   4.022   3.710  10.044  4.0005  2.7200  2.5987
  759MPD2    N111273   4.127   3.380  10.388 -0.4923  0.1441 -0.0091
  759MPD2    H711274   4.058   3.444  10.425 -1.0089  0.5108 -1.6187
  760MPD2     C11275   3.411   0.859  11.886 -0.3452 -0.6598 -0.8305
  760MPD2    C111276   3.548   0.883  11.900  0.1642  0.0210  0.1076
  760MPD2    C211277   3.627   0.789  11.957  0.9028  0.7639 -0.0772
  760MPD2    C311278   3.579   0.666  12.004  0.3561 -0.4569 -0.1864
  760MPD2    C411279   3.437   0.654  12.010  0.0647  0.2298  0.1237
  760MPD2    C511280   3.352   0.751  11.955  0.3201 -0.2389  0.2689
  760MPD2     H11281   3.734   0.803  11.952  0.8159  0.1787 -4.0331
  760MPD2    H111282   3.396   0.571  12.068  1.1268 -0.8040 -0.6029
  760MPD2    H211283   3.350   0.934  11.838 -1.2748 -0.9016 -0.0240
  760MPD2    H311284   3.246   0.757  11.975 -0.4489  1.1146 -4.0468
  760MPD2     N11285   3.658   0.569  12.066  0.0426 -0.0968  0.6503
  760MPD2    H511286   3.614   0.500  12.126 -1.6294  1.0662  0.7397
  760MPD2    N111287   3.602   1.007  11.860 -0.7617 -0.5651 -0.0314
  760MPD2    H711288   3.689   1.040  11.902 -0.4209 -0.6799 -0.6431
  761MPD2     C11289   4.479   0.470  11.252  0.0318 -0.4205 -0.5064
  761MPD2    C111290   4.560   0.439  11.147 -0.0059  0.4519  0.3781
  761MPD2    C211291   4.677   0.508  11.123  0.2502  0.0919 -0.7076
  761MPD2    C311292   4.722   0.607  11.210 -0.3851 -0.0248  0.4187
  761MPD2    C411293   4.642   0.639  11.319 -0.5787 -1.0509  0.3668
  761MPD2    C511294   4.526   0.569  11.341  0.0264 -0.1815 -0.6872
  761MPD2     H11295   0.012   0.470  11.051 -2.2166 -3.0380 -1.5532
  761MPD2    H111296   4.656   0.717  11.392 -0.8804  0.3400 -1.0739
  761MPD2    H211297   4.388   0.419  11.284  0.0395  0.5551  1.0676
  761MPD2    H311298   4.461   0.592  11.425  0.2613 -0.8336 -0.3307
  761MPD2     N11299   0.105   0.673  11.195 -0.3901  0.6711 -0.0811
  761MPD2    H511300   0.133   0.725  11.277 -1.5744  1.4089 -0.1463
  761MPD2    N111301   4.510   0.329  11.073  0.5842 -0.3711 -0.3074
  761MPD2    H711302   4.418   0.292  11.097 -0.2973  0.1560 -2.8350
  762MPD2     C11303   0.208   0.243  10.675 -0.2695 -0.3152  0.9651
  762MPD2    C111304   0.151   0.121  10.632  0.1479  0.9731  0.0306
  762MPD2    C211305   0.220   0.030  10.544  0.0492  0.2628 -0.6044
  762MPD2    C311306   0.343   0.066  10.496 -0.0839  0.0089  1.2949
  762MPD2    C411307   0.401   0.182  10.538 -1.1136  0.0511  0.2860
  762MPD2    C511308   0.330   0.269  10.621 -0.3960  0.5105  0.1656
  762MPD2     H11309   0.179   4.672  10.512 -2.5269  0.8380  0.9834
  762MPD2    H111310   0.502   0.214  10.515 -1.4411  1.0956  0.3479
  762MPD2    H211311   0.157   0.313  10.740 -0.7984 -0.4799  0.7317
  762MPD2    H311312   0.393   0.354  10.646  0.5048 -0.3135  0.7136
  762MPD2     N11313   0.414   4.721  10.400  0.2909 -0.0070  0.3308
  762MPD2    H511314   0.389   4.625  10.382 -0.0085 -0.1550  1.5375
  762MPD2    N111315   0.023   0.104  10.687  0.2653 -0.0160 -0.8917
  762MPD2    H711316   4.724   0.181  10.742 -1.2922 -0.3731 -1.4103
  763MPD2     C11317   2.602   0.677  16.132 -0.0983 -0.6168 -0.4077
  763MPD2    C111318   2.494   0.688  16.041  0.1703  0.0911  0.0742
  763MPD2    C211319   2.443   0.817  16.020  0.1276  0.0264  0.8369
  763MPD2    C311320   2.490   0.921  16.094 -0.5590  0.3267  0.2987
  763MPD2    C411321   2.589   0.904  16.186 -1.2628  0.5831  0.0355
  763MPD2    C511322   2.640   0.785  16.208  0.5875  0.1672 -0.4077
  763MPD2     H11323   2.362   0.841  15.952  1.7914  0.3098 -1.0313
  763MPD2    H111324   2.638   0.985  16.240 -1.5448  0.9005 -0.1807
  763MPD2    H211325   2.662   0.589  16.152 -2.1113 -2.4157 -2.2398
  763MPD2    H311326   2.731   0.776  16.264  0.8983 -0.5455 -1.0310
  763MPD2     N11327   2.446   1.054  16.079 -0.1480 -0.3856 -0.6470
  763MPD2    H511328   2.479   1.115  16.153 -0.4738  0.2559 -1.0347
  763MPD2    N111329   2.435   0.582  15.966  0.4362  0.2483 -0.6837
  763MPD2    H711330   2.362   0.612  15.903 -1.2926 -1.0000  0.7217
  764MPD2     C11331   1.251   1.478  17.557  0.4628 -0.3550 -0.3458
  764MPD2    C111332   1.182   1.594  17.591 -0.2350 -0.1424 -0.7510
  764MPD2    C211333   1.144   1.606  17.722 -0.2778  0.4767 -0.0837
  764MPD2    C311334   1.141   1.496   0.063 -0.5327 -0.5330  0.2033
  764MPD2    C411335   1.195   1.373   0.026 -0.6996  0.5283 -0.0839
  764MPD2    C511336   1.250   1.373  17.645  0.2941 -0.4232  0.2858
  764MPD2     H11337   1.088   1.697  17.742 -0.3738 -0.0389  1.9634
  764MPD2    H111338   1.203   1.289   0.094 -2.1729  0.7781  0.3910
  764MPD2    H211339   1.306   1.449  17.468 -0.5365 -0.4845 -0.9142
  764MPD2    H311340   1.299   1.281  17.615 -2.0026 -1.3449 -0.7063
  764MPD2     N11341   1.104   1.521   0.197  0.4275 -0.1450  0.1081
  764MPD2    H511342   1.073   1.615   0.220  0.9482  0.2398 -0.7597
  764MPD2    N111343   1.140   1.698  17.503  0.3496  0.2483 -0.3115
  764MPD2    H711344   1.085   1.776  17.536  0.2829 -0.6972  1.8216
  765MPD2     C11345   4.696   4.375  15.238  0.3804 -0.4256  0.4923
  765MPD2    C111346   0.026   4.484  15.275  0.1563  0.7864 -1.3245
  765MPD2    C211347   0.166   4.480  15.279 -0.2769  0.4388 -0.1197
  765MPD2    C311348   0.237   4.361  15.261 -0.4741 -0.8380 -0.1574
  765MPD2    C411349   0.165   4.257  15.212  0.2217 -0.3173 -0.5201
  765MPD2    C511350   0.029   4.267  15.196  0.2246  0.5027  0.1770
  765MPD2     H11351   0.214   4.573  15.308  0.7624  0.6133 -2.4293
  765MPD2    H111352   0.204   4.158  15.189 -0.5740 -1.6702  3.9463
  765MPD2    H211353   4.588   4.376  15.228  0.3272 -0.1523  1.1325
  765MPD2    H311354   4.710   4.180  15.164  1.9629 -0.4571 -0.2012
  765MPD2     N11355   0.376   4.345  15.299 -0.0492 -0.0991 -0.1917
  765MPD2    H511356   0.414   4.431  15.338 -1.6276  0.1983  0.7036
  765MPD2    N111357   4.682   4.597  15.307  0.9063  0.4062 -0.1312
  765MPD2    H711358   4.583   4.577  15.313  1.5201 -2.5724 -0.0722
  766MPD2     C11359   4.296   4.695  14.949 -0.4108  0.4074 -0.4770
  766MPD2    C111360   4.419   0.018  14.983 -0.1378  0.3103  0.1578
  766MPD2    C211361   4.529   0.009  14.894 -0.2816 -1.2232 -0.4828
  766MPD2    C311362   4.516   4.664  14.785 -0.4111 -0.3103  0.9778
  766MPD2    C411363   4.396   4.594  14.755  0.7972  0.3161 -0.1661
  766MPD2    C511364   4.288   4.612  14.834 -0.1372 -0.1123  0.1412
  766MPD2     H11365   4.628   0.049  14.912 -0.3485 -0.9656 -0.6875
  766MPD2    H111366   4.380   4.533  14.666 -0.8965  0.8766 -0.2537
  766MPD2    H211367   4.208   4.712  15.009  0.4597  2.3419  0.2480
  766MPD2    H311368   4.190   4.573  14.808  0.9570 -1.5228 -1.8390
  766MPD2     N11369   4.624   4.663  14.686  0.4999  0.7956  0.0765
  766MPD2    H511370   4.706   4.720  14.704  0.0300  1.3997  0.3079
  766MPD2    N111371   4.440   0.106  15.096 -0.5174  0.6575 -0.4350
  766MPD2    H711372   4.529   0.153  15.104  0.0201 -0.7910  2.0735
  767MPD2     C11373   4.064   0.211  14.697 -0.1384 -0.1674  0.2097
  767MPD2    C111374   4.202   0.198  14.673  0.3274 -0.3607  0.5608
  767MPD2    C211375   4.251   0.098  14.581 -0.3215  0.0737 -0.7606
  767MPD2    C311376   4.159   0.012  14.523 -0.9383 -0.2702  0.5477
  767MPD2    C411377   4.025   0.027  14.546 -0.0583 -0.0256  0.1199
  767MPD2    C511378   3.978   0.127  14.631 -0.2108  0.4979  0.5009
  767MPD2     H11379   4.352   0.094  14.542 -0.1071 -0.0574 -0.1969
  767MPD2    H111380   3.949   4.710  14.491 -1.0228 -0.1857  1.6250
  767MPD2    H211381   4.032   0.293  14.760 -1.4614  0.9702 -1.9628
  767MPD2    H311382   3.872   0.140  14.649 -0.4514 -1.2564  0.3907
  767MPD2     N11383   4.212   4.659  14.438 -0.1202 -0.0197  0.2432
  767MPD2    H511384   4.312   4.644  14.445  0.3580  2.1569 -1.7039
  767MPD2    N111385   4.300   0.293  14.713 -0.8414 -0.4002 -0.3126
  767MPD2    H711386   4.393   0.279  14.674 -0.4866 -0.6139  0.6281
  768MPD2     C11387   0.210   3.883  10.523  1.0419 -0.8293 -0.4961
  768MPD2    C111388   0.142   3.782  10.596 -0.2046 -0.1588  0.9595
  768MPD2    C211389   0.209   3.691  10.678 -1.1233  0.2718 -0.2454
  768MPD2    C311390   0.345   3.690  10.689 -0.6588 -0.2471 -0.4822
  768MPD2    C411391   0.404   3.809  10.639 -0.4485 -0.1250  0.2353
  768MPD2    C511392   0.347   3.902  10.552 -0.3339 -0.0896  0.0054
  768MPD2     H11393   0.154   3.631  10.749 -0.5697 -0.3411 -0.3299
  768MPD2    H111394   0.509   3.831  10.655 -0.5033  0.6374 -0.4242
  768MPD2    H211395   0.163   3.945  10.448  0.0740 -0.3441  0.5174
  768MPD2    H311396   0.402   3.983  10.505 -0.8925  0.0748 -0.3630
  768MPD2     N11397   0.426   3.613  10.780 -0.0248 -0.0247 -0.2851
  768MPD2    H511398   0.510   3.663  10.806  0.1509  0.1176 -1.1323
  768MPD2    N111399   0.003   3.775  10.603  0.4320  0.6604 -0.4409
  768MPD2    H711400   4.700   3.699  10.657  0.1117 -0.6254 -2.4608
  769MPD2     C11401   1.301   1.764  14.650 -0.0723 -0.3478 -0.0932
  769MPD2    C111402   1.215   1.778  14.753 -0.4317  0.0210  0.4008
  769MPD2    C211403   1.261   1.813  14.882 -0.2845 -0.2059  0.0147
  769MPD2    C311404   1.398   1.834  14.898  0.0989  0.3076 -1.1895
  769MPD2    C411405   1.488   1.819  14.791  0.0951  0.1427 -0.3182
  769MPD2    C511406   1.433   1.784  14.670 -0.2607 -1.2359  0.3679
  769MPD2     H11407   1.199   1.814  14.971 -0.3777  0.4298 -0.0540
  769MPD2    H111408   1.595   1.829  14.794  0.0814  0.1490  0.1406
  769MPD2    H211409   1.262   1.725  14.556  1.6082  2.6756 -2.0547
  769MPD2    H311410   1.501   1.777  14.586 -1.9569  0.0597 -1.1100
  769MPD2     N11411   1.439   1.874  15.030  0.6198  0.0999 -0.0908
  769MPD2    H511412   1.366   1.866  15.100  1.8306  2.0027  1.3996
  769MPD2    N111413   1.083   1.743  14.723 -0.1550 -0.1442 -0.3638
  769MPD2    H711414   1.070   1.698  14.632  0.0363  0.6169 -0.7628
  770MPD2     C11415   0.362   1.182  14.951  0.8150 -0.4778  0.2866
  770MPD2    C111416   0.502   1.185  14.943 -0.3116 -0.6985 -0.1864
  770MPD2    C211417   0.559   1.312  14.929 -0.9092 -0.1680 -0.1693
  770MPD2    C311418   0.489   1.430  14.920  1.1887 -0.3509  0.2298
  770MPD2    C411419   0.349   1.427  14.929  0.1216  0.1720 -0.3424
  770MPD2    C511420   0.287   1.304  14.951  0.1169 -0.7209 -0.1895
  770MPD2     H11421   0.667   1.326  14.934 -0.8741 -0.7480  0.6708
  770MPD2    H111422   0.296   1.521  14.928 -0.7808 -0.3349 -0.1583
  770MPD2    H211423   0.306   1.090  14.967  0.9165 -0.0654  3.0625
  770MPD2    H311424   0.180   1.298  14.966  0.2657  3.2566  2.5205
  770MPD2     N11425   0.563   1.549  14.888 -0.2519  0.7471  0.1046
  770MPD2    H511426   0.664   1.549  14.899 -0.2468 -0.6038 -0.0039
  770MPD2    N111427   0.575   1.063  14.957  0.3820 -0.4315  0.2558
  770MPD2    H711428   0.526   0.974  14.956 -0.9387  0.2806  2.7978
  771MPD2     C11429   2.475   4.150  13.698 -0.0965 -0.1291  0.2324
  771MPD2    C111430   2.384   4.255  13.671 -0.6645  0.1837 -0.0169
  771MPD2    C211431   2.265   4.227  13.605 -0.0857  0.3602  0.3079
  771MPD2    C311432   2.232   4.098  13.577  0.2653 -0.0949  0.2734
  771MPD2    C411433   2.323   3.995  13.605  0.4083 -0.2631  0.4087
  771MPD2    C511434   2.446   4.023  13.672 -0.3151  0.8045 -0.6946
  771MPD2     H11435   2.196   4.306  13.579 -0.2430 -0.8119 -2.8560
  771MPD2    H111436   2.312   3.890  13.582 -0.1215 -0.4211  1.3792
  771MPD2    H211437   2.565   4.168  13.757 -0.2814  0.9597  0.1838
  771MPD2    H311438   2.519   3.944  13.689 -2.1399 -0.8249 -0.4590
  771MPD2     N11439   2.108   4.073  13.500  0.0495 -0.5341  0.5279
  771MPD2    H511440   2.044   4.150  13.488 -0.3934 -0.9788  0.0610
  771MPD2    N111441   2.411   4.385  13.713 -0.1511 -0.3363  0.5132
  771MPD2    H711442   2.329   4.441  13.691  1.5781  2.7532  1.9444
  772MPD2     C11443   2.101   0.280  13.697  0.4404  0.2632  0.3844
  772MPD2    C111444   2.125   0.199  13.809  0.6568  0.8982 -0.1745
  772MPD2    C211445   2.021   0.184  13.904  0.0720  1.0409  0.0070
  772MPD2    C311446   1.905   0.264  13.885 -0.1678 -0.3636  0.3519
  772MPD2    C411447   1.881   0.346  13.776  0.7793  0.1416 -0.0594
  772MPD2    C511448   1.983   0.347  13.677  0.2475 -0.1748  0.0787
  772MPD2     H11449   2.028   0.132  13.999  1.1343  0.1172 -0.5731
  772MPD2    H111450   1.794   0.410  13.764  1.4335  1.0559  0.0713
  772MPD2    H211451   2.175   0.282  13.618 -0.3385 -1.4538 -0.3864
  772MPD2    H311452   1.972   0.400  13.583 -2.1173 -0.1272  0.3850
  772MPD2     N11453   1.797   0.262  13.981 -0.6942 -0.2302  0.0169
  772MPD2    H511454   1.725   0.333  13.966 -1.2082 -0.8413 -0.4308
  772MPD2    N111455   2.244   0.122  13.826  0.0834 -0.2796 -0.0269
  772MPD2    H711456   2.254   0.051  13.898 -0.7899 -1.3687 -0.9871
  773MPD2     C11457   1.141   0.760   0.264 -0.2464 -0.4453  0.7286
  773MPD2    C111458   1.169   0.664   0.171  0.2462  0.9037 -0.2149
  773MPD2    C211459   1.215   0.541   0.209 -0.0115 -0.0578 -0.0723
  773MPD2    C311460   1.254   0.520   0.343  0.7151  0.2611 -0.2714
  773MPD2    C411461   1.235   0.627   0.428 -0.4705 -0.7326 -0.6129
  773MPD2    C511462   1.159   0.740   0.399 -0.1460  0.2349  1.2236
  773MPD2     H11463   1.223   0.460   0.137 -2.8188 -0.3243 -0.0837
  773MPD2    H111464   1.255   0.607   0.532 -2.1736 -0.4811 -0.2529
  773MPD2    H211465   1.085   0.851   0.247 -1.5826 -1.3675  0.1976
  773MPD2    H311466   1.136   0.821   0.467 -1.4342  1.0853 -0.2118
  773MPD2     N11467   1.315   0.396   0.388 -0.3237 -0.6258 -0.2215
  773MPD2    H511468   1.335   0.326   0.317 -0.9410 -0.8192 -0.2074
  773MPD2    N111469   1.142   0.683   0.031  0.1860  0.2133 -0.1494
  773MPD2    H711470   1.139   0.600  17.720 -1.9942  0.0966  0.1379
  774MPD2     C11471   0.227   4.416  13.662 -0.5156  0.4170  0.2028
  774MPD2    C111472   0.350   4.464  13.695  0.9391  0.0915 -0.0440
  774MPD2    C211473   0.401   4.568  13.616  0.1851  0.1495 -0.1109
  774MPD2    C311474   0.333   4.609  13.503 -0.4420 -0.3740 -0.2697
  774MPD2    C411475   0.211   4.553  13.465  0.2097  0.2557  0.0835
  774MPD2    C511476   0.164   4.450  13.544  0.4229 -0.1575  0.5217
  774MPD2     H11477   0.499   4.612  13.630  0.9226 -1.6229  0.3128
  774MPD2    H111478   0.157   4.581  13.375  1.5480  1.8076 -0.2337
  774MPD2    H211479   0.193   4.341  13.733 -2.4039  0.3784 -0.7150
  774MPD2    H311480   0.073   4.396  13.521  0.4340 -1.1921  3.0042
  774MPD2     N11481   0.384   4.720  13.427 -0.3619  0.3183 -0.0154
  774MPD2    H511482   0.467   0.024  13.468  1.0263 -0.1906 -2.3149
  774MPD2    N111483   0.405   4.412  13.812  0.0474  0.1407 -0.0377
  774MPD2    H711484   0.353   4.356  13.879  0.5251 -0.0467  0.1755
  775MPD2     C11485   1.670   1.271  15.453  0.0430 -0.0819 -0.5494
  775MPD2    C111486   1.731   1.360  15.541  0.4863  0.4530  0.0146
  775MPD2    C211487   1.806   1.460  15.483  0.3709  0.5703 -0.1284
  775MPD2    C311488   1.831   1.457  15.351  0.7167  0.4011  0.2281
  775MPD2    C411489   1.764   1.369  15.265  0.4206  0.5266  0.1444
  775MPD2    C511490   1.678   1.279  15.317 -0.0441  0.2589  0.1440
  775MPD2     H11491   1.846   1.544  15.539 -0.7794  1.5792 -0.8316
  775MPD2    H111492   1.780   1.376  15.158  2.8180 -0.8692  0.4099
  775MPD2    H211493   1.598   1.202  15.495  0.6673  1.6881  3.4322
  775MPD2    H311494   1.611   1.225  15.251  0.3319  1.9634 -1.6409
  775MPD2     N11495   1.904   1.567  15.284  0.1673 -0.2374 -0.1159
  775MPD2    H511496   1.918   1.558  15.184 -1.3258  0.2639 -0.3764
  775MPD2    N111497   1.705   1.345  15.679 -0.1913  0.4270 -0.9225
  775MPD2    H711498   1.655   1.262  15.711 -1.8720  1.1614 -1.6241
  776MPD2     C11499   4.339   2.098  11.423 -0.3598  0.2354 -0.4904
  776MPD2    C111500   4.477   2.065  11.421 -0.1571 -0.4415  0.4289
  776MPD2    C211501   4.569   2.140  11.344 -0.3899 -0.7030 -0.6945
  776MPD2    C311502   4.527   2.244  11.267  0.2986 -0.3208  0.0227
  776MPD2    C411503   4.393   2.276  11.274 -0.6027  0.1808  0.3134
  776MPD2    C511504   4.302   2.203  11.344 -0.5379  0.1302  0.4426
  776MPD2     H11505   4.673   2.112  11.329 -0.3848  0.0785 -2.2260
  776MPD2    H111506   4.348   2.356  11.217 -0.5372 -0.3206 -0.4449
  776MPD2    H211507   4.265   2.046  11.482  0.9671 -1.0832  0.0277
  776MPD2    H311508   4.195   2.222  11.345 -0.7672 -1.1568 -0.1624
  776MPD2     N11509   4.621   2.316  11.192 -0.6312 -0.0029  0.5248
  776MPD2    H511510   4.576   2.381  11.128  0.6214 -1.0017 -1.3654
  776MPD2    N111511   4.517   1.948  11.487 -0.0889  0.7967  0.2595
  776MPD2    H711512   4.433   1.903  11.521  0.8731  1.1220  3.0926
  777MPD2     C11513   1.451   4.201   0.827 -0.0846 -0.2726 -0.5700
  777MPD2    C111514   1.323   4.196   0.885 -0.1844  0.0060  0.2379
  777MPD2    C211515   1.228   4.116   0.835  0.2543  0.6596 -0.3358
  777MPD2    C311516   1.263   4.038   0.719 -0.4412 -0.1581 -0.1886
  777MPD2    C411517   1.382   4.055   0.650 -0.7056  0.2602 -0.6738
  777MPD2    C511518   1.480   4.134   0.711  0.3822  0.4690  0.5040
  777MPD2     H11519   1.131   4.103   0.881  0.2413  1.9184 -0.0096
  777MPD2    H111520   1.414   3.999   0.564 -1.3407 -1.6065  0.3145
  777MPD2    H211521   1.531   4.247   0.884 -0.7145 -0.8952  0.7924
  777MPD2    H311522   1.580   4.129   0.670  0.6194 -0.0823  1.1545
  777MPD2     N11523   1.158   3.951   0.684  0.2965  0.5421  0.1497
  777MPD2    H511524   1.076   3.952   0.743  1.2235 -1.4223  1.5056
  777MPD2    N111525   1.309   4.274   1.003 -0.1357 -0.3991 -0.3686
  777MPD2    H711526   1.395   4.313   1.041 -1.2373  2.1828 -0.5181
  778MPD2     C11527   2.741   0.150  14.827 -1.1955 -0.1345  0.3440
  778MPD2    C111528   2.732   0.030  14.768 -0.3233 -0.3995  0.1514
  778MPD2    C211529   2.820   0.001  14.669  0.5731  0.3158 -0.6902
  778MPD2    C311530   2.918   0.088  14.623  0.2176  0.4024 -0.4237
  778MPD2    C411531   2.929   0.211  14.682 -0.2862 -0.0983 -0.6497
  778MPD2    C511532   2.850   0.232  14.791 -0.8825 -0.0628 -0.2544
  778MPD2     H11533   2.812   4.636  14.635  0.5724 -0.6278  2.0794
  778MPD2    H111534   3.013   0.275  14.657 -0.2755 -0.3317 -1.1979
  778MPD2    H211535   2.676   0.187  14.906  1.2197  1.8220  1.4208
  778MPD2    H311536   2.869   0.323  14.847  1.0797  1.9092 -4.1505
  778MPD2     N11537   3.018   0.040  14.531  0.5292  0.3740 -0.3776
  778MPD2    H511538   3.018   4.677  14.510 -0.8088  0.0253  1.3138
  778MPD2    N111539   2.628   4.672  14.804  0.3467  0.3679 -0.1883
  778MPD2    H711540   2.634   4.581  14.761 -1.0677  0.1048  0.1660
  779MPD2     C11541   1.798   3.118  13.941  0.7753 -0.3757  0.0022
  779MPD2    C111542   1.890   3.151  14.033 -0.4518 -0.4232 -0.3003
  779MPD2    C211543   1.968   3.263  14.020  0.7235  0.0964  0.1136
  779MPD2    C311544   1.960   3.349  13.910  0.0882 -0.2716  0.5722
  779MPD2    C411545   1.881   3.307  13.806  0.1528  0.2790  0.4922
  779MPD2    C511546   1.795   3.203  13.831  0.4764  0.1442 -0.7618
  779MPD2     H11547   2.035   3.289  14.101 -0.4983  0.2407  1.0822
  779MPD2    H111548   1.891   3.336  13.702 -3.7814  2.2076  0.6195
  779MPD2    H211549   1.736   3.030  13.951  0.6651 -0.2996 -0.0087
  779MPD2    H311550   1.727   3.176  13.751  0.4502  1.3775 -1.1673
  779MPD2     N11551   2.037   3.476  13.914  0.3417 -0.3589  0.1068
  779MPD2    H511552   2.082   3.515  13.996  2.2286 -0.2232 -0.9889
  779MPD2    N111553   1.903   3.072  14.158  0.4190  0.0932 -0.3915
  779MPD2    H711554   1.970   3.093  14.231  1.9457  0.1463 -1.8178
  780MPD2     C11555   1.356   2.854   1.188 -0.5046 -0.4353  0.1165
  780MPD2    C111556   1.353   2.770   1.076  0.0659 -0.2338 -0.4225
  780MPD2    C211557   1.459   2.786   0.988  0.0382  1.0119 -0.1788
  780MPD2    C311558   1.559   2.880   1.009 -0.2905  0.0176 -0.2434
  780MPD2    C411559   1.561   2.958   1.124  0.8351 -0.3300 -0.1966
  780MPD2    C511560   1.456   2.942   1.211  0.4075 -0.3773  0.0289
  780MPD2     H11561   1.449   2.727   0.897  2.9391  1.6205 -0.8891
  780MPD2    H111562   1.644   3.024   1.145  1.8415 -0.6038 -3.2392
  780MPD2    H211563   1.278   2.848   1.263  0.3512 -0.9218  0.9646
  780MPD2    H311564   1.461   3.005   1.299 -2.1837  0.4882 -0.4473
  780MPD2     N11565   1.664   2.874   0.917  0.2989  0.9465 -0.7166
  780MPD2    H511566   1.651   2.795   0.854  1.6221  0.2787 -0.1575
  780MPD2    N111567   1.250   2.681   1.043  0.1146 -0.3494 -0.3342
  780MPD2    H711568   1.247   2.636   0.952 -1.8507 -0.1434 -0.3857
  781MPD2     C11569   3.084   0.339  12.106 -0.3016 -0.0312  0.3840
  781MPD2    C111570   3.104   0.226  12.029 -0.0857 -0.8520  0.4360
  781MPD2    C211571   3.111   0.241  11.889 -0.0342 -0.5403 -1.2608
  781MPD2    C311572   3.099   0.372  11.835  0.0247  0.4940  0.0605
  781MPD2    C411573   3.071   0.481  11.917 -0.8699 -0.0878  0.3546
  781MPD2    C511574   3.071   0.463  12.049  0.1908 -0.3344 -0.4754
  781MPD2     H11575   3.136   0.161  11.820  1.7182  0.9016 -2.2885
  781MPD2    H111576   3.038   0.572  11.869 -0.5906  1.3770  2.8911
  781MPD2    H211577   3.065   0.338  12.213 -3.7873 -0.9775 -0.2312
  781MPD2    H311578   3.037   0.545  12.113  0.1118 -0.5988 -0.1779
  781MPD2     N11579   3.111   0.404  11.698  0.4410  0.1331  0.3743
  781MPD2    H511580   3.105   0.502  11.670  2.5740  0.3192  0.5758
  781MPD2    N111581   3.128   0.098  12.082  0.0389 -0.3514  0.3677
  781MPD2    H711582   3.142   0.029  12.008 -0.6094  0.9868 -1.0011
  782MPD2     C11583   0.442   1.325  10.254 -0.3980 -0.1529  0.0302
  782MPD2    C111584   0.563   1.307  10.198 -0.0973  0.5632 -0.2010
  782MPD2    C211585   0.667   1.369  10.264 -0.7251 -0.3476  0.1098
  782MPD2    C311586   0.651   1.434  10.383 -0.1120 -0.1830 -0.0584
  782MPD2    C411587   0.527   1.451  10.432 -0.2243  0.1257  0.1011
  782MPD2    C511588   0.421   1.403  10.364  0.5308  0.3579 -0.4333
  782MPD2     H11589   0.767   1.354  10.225  0.0543 -0.7066  2.2930
  782MPD2    H111590   0.497   1.501  10.523  0.1376  1.1486 -0.3336
  782MPD2    H211591   0.357   1.271  10.214 -1.6502  1.8120  0.0398
  782MPD2    H311592   0.323   1.408  10.410  0.6930 -0.0090 -0.0372
  782MPD2     N11593   0.764   1.508  10.438 -0.2937 -0.2887  0.7869
  782MPD2    H511594   0.850   1.512  10.384 -0.9082  0.5412 -0.1282
  782MPD2    N111595   0.582   1.211  10.098 -0.6610  0.0078 -0.6759
  782MPD2    H711596   0.503   1.171  10.049 -1.4208  0.8815 -0.1712
  783MPD2     C11597   0.281   0.600  10.562 -0.4024  0.1943  0.4926
  783MPD2    C111598   0.381   0.684  10.600 -0.5756 -0.1382  0.4616
  783MPD2    C211599   0.471   0.736  10.501  0.8065 -0.8591 -0.2581
  783MPD2    C311600   0.452   0.691  10.365 -0.0736  0.4032  0.2556
  783MPD2    C411601   0.357   0.592  10.336 -0.6390  0.1043 -0.1847
  783MPD2    C511602   0.271   0.555  10.434 -0.6019 -0.0673 -0.6724
  783MPD2     H11603   0.540   0.817  10.524 -1.7380  1.6928 -1.6463
  783MPD2    H111604   0.339   0.558  10.235 -1.8934 -0.3922  0.2019
  783MPD2    H211605   0.210   0.573  10.639 -0.9728 -1.1147 -0.5070
  783MPD2    H311606   0.190   0.486  10.411  0.1049 -1.5322  1.2362
  783MPD2     N11607   0.539   0.754  10.269  0.4721  0.2356 -0.1367
  783MPD2    H511608   0.613   0.814  10.303  1.4196 -1.2344  0.3713
  783MPD2    N111609   0.381   0.724  10.736  0.1789  0.2303 -0.3428
  783MPD2    H711610   0.308   0.685  10.794  2.0411 -1.6441  0.7455
  784MPD2     C11611   3.933   1.219   0.660 -0.4954  0.6402 -0.0411
  784MPD2    C111612   3.989   1.343   0.637 -0.0442 -0.0531  0.6488
  784MPD2    C211613   3.939   1.417   0.531  0.1488 -0.1449 -0.0297
  784MPD2    C311614   3.840   1.370   0.453  0.1416  0.1228  0.0403
  784MPD2    C411615   3.793   1.246   0.477 -0.5498 -0.1009 -0.3782
  784MPD2    C511616   3.839   1.164   0.576  0.3844  0.6026  0.6074
  784MPD2     H11617   3.974   1.519   0.516  2.0164 -0.7695  0.1082
  784MPD2    H111618   3.710   1.203   0.423 -2.6543  1.2828  1.7897
  784MPD2    H211619   3.957   1.159   0.747 -1.1625  1.7259  0.8908
  784MPD2    H311620   3.797   1.066   0.597 -0.2210  1.1446  1.9093
  784MPD2     N11621   3.792   1.451   0.349  1.2555 -0.3100 -0.3099
  784MPD2    H511622   3.838   1.537   0.323  2.1616 -0.0628  2.0747
  784MPD2    N111623   4.092   1.397   0.716  0.0405  0.0335 -0.0615
  784MPD2    H711624   4.136   1.485   0.690 -1.5530  1.2989  1.4854
  785MPD2     C11625   3.096   0.633  10.084 -0.2266 -0.1475  0.4401
  785MPD2    C111626   3.177   0.720  10.009  0.1449  0.5266  0.0820
  785MPD2    C211627   3.177   0.716   9.871 -0.4448 -0.6572  0.2686
  785MPD2    C311628   3.110   0.613   9.807  0.0634 -0.3898  0.3095
  785MPD2    C411629   3.037   0.522   9.877  0.1269  0.5991  0.2103
  785MPD2    C511630   3.034   0.532  10.015  0.1037  0.2263  0.6380
  785MPD2     H11631   3.232   0.791   9.816 -1.6661  0.1870  0.1913
  785MPD2    H111632   2.999   0.434   9.828  1.9258  0.7297 -1.4019
  785MPD2    H211633   3.077   0.627  10.190  0.5929 -0.1991  0.5840
  785MPD2    H311634   2.984   0.454  10.071 -1.3971  2.9576  3.1260
  785MPD2     N11635   3.118   0.613   9.668 -0.4952  0.0243  0.1873
  785MPD2    H511636   3.156   0.693   9.619 -1.3379 -0.5157 -1.3252
  785MPD2    N111637   3.262   0.820  10.070  0.2471 -0.5917  0.4965
  785MPD2    H711638   3.311   0.878  10.002  1.0551 -2.1474 -0.2514
  786MPD2     C11639   2.126   2.184  14.786  0.1616  0.1447 -0.6246
  786MPD2    C111640   2.239   2.108  14.764 -0.5852 -0.3571 -0.1345
  786MPD2    C211641   2.348   2.104  14.852  0.8313  1.0702  0.0622
  786MPD2    C311642   2.332   2.170  14.978 -0.2540 -0.4526  0.0879
  786MPD2    C411643   2.231   2.255  14.994  0.0820  0.0804 -0.2473
  786MPD2    C511644   2.126   2.258  14.899  0.6067 -0.5936 -0.6839
  786MPD2     H11645   2.433   2.042  14.826 -1.6153 -1.6520 -1.3516
  786MPD2    H111646   2.229   2.321  15.080 -1.0986 -0.1494 -0.1065
  786MPD2    H211647   2.046   2.198  14.714 -2.2969 -0.8441  1.9594
  786MPD2    H311648   2.032   2.308  14.914  0.6737 -0.8008  0.4868
  786MPD2     N11649   2.438   2.158  15.072 -0.1893 -0.0153  0.2511
  786MPD2    H511650   2.439   2.208  15.161  0.3317 -0.2433  0.3759
  786MPD2    N111651   2.250   2.035  14.646 -0.2094  0.1399 -0.9683
  786MPD2    H711652   2.330   1.972  14.641 -0.0508  0.2398  0.3983
  787MPD2     C11653   2.819   1.969  14.415  0.1604  0.6805  0.2014
  787MPD2    C111654   2.735   1.946  14.305  0.5331  0.1681  0.2194
  787MPD2    C211655   2.798   1.903  14.186  0.2519 -0.0164  0.0923
  787MPD2    C311656   2.935   1.903  14.172  0.1687 -0.6885 -0.0992
  787MPD2    C411657   3.010   1.938  14.283  0.2416  1.0429  0.4525
  787MPD2    C511658   2.952   1.968  14.400 -0.5430 -0.4858 -0.8706
  787MPD2     H11659   2.741   1.869  14.100  0.3137  1.5157 -0.5653
  787MPD2    H111660   3.118   1.935  14.278  0.1974  0.3335 -0.2689
  787MPD2    H211661   2.775   1.998  14.510  2.5758  0.8568  1.2532
  787MPD2    H311662   3.015   1.990  14.485  0.3567 -3.5419 -0.7529
  787MPD2     N11663   2.995   1.855  14.053  0.5898 -0.0999 -0.3775
  787MPD2    H511664   2.939   1.788  14.001  2.9012 -0.8588 -1.8940
  787MPD2    N111665   2.601   1.936  14.329 -0.4550  0.2686  0.0440
  787MPD2    H711666   2.560   1.950  14.421  0.0955  2.5527 -0.0756
  788MPD2     C11667   0.546   0.820   0.995  0.9260  0.3878  0.1128
  788MPD2    C111668   0.445   0.793   0.912 -0.0930  0.0705 -0.5132
  788MPD2    C211669   0.356   0.893   0.881  0.0566 -0.1462  0.5985
  788MPD2    C311670   0.357   1.016   0.937 -0.0123  0.8595  0.3620
  788MPD2    C411671   0.464   1.046   1.017 -0.4726  0.2492  0.1891
  788MPD2    C511672   0.555   0.947   1.051  0.4863  0.4546 -0.2870
  788MPD2     H11673   0.285   0.885   0.800 -1.9506  1.3241  2.2073
  788MPD2    H111674   0.476   1.149   1.047  1.2359  0.7942 -2.4269
  788MPD2    H211675   0.603   0.739   1.039  1.3323  1.0964  0.8700
  788MPD2    H311676   0.642   0.969   1.112  0.6614  0.0998 -0.4111
  788MPD2     N11677   0.263   1.124   0.915  0.5226  0.1435 -0.6300
  788MPD2    H511678   0.282   1.205   0.972 -0.3356 -0.6772  0.8234
  788MPD2    N111679   0.429   0.669   0.848  0.5712 -0.2478 -0.0076
  788MPD2    H711680   0.347   0.666   0.789  0.1120  1.2207  0.5391
  789MPD2     C11681   0.243   0.464  16.632  1.0311  0.5319  0.1118
  789MPD2    C111682   0.169   0.499  16.524 -0.3065  0.2618 -0.4300
  789MPD2    C211683   0.075   0.588  16.545  1.1572 -0.1378 -0.4968
  789MPD2    C311684   0.043   0.643  16.669 -0.0503 -0.4618 -0.4518
  789MPD2    C411685   0.115   0.598  16.785  0.3594 -0.2121 -0.1459
  789MPD2    C511686   0.217   0.505  16.763  0.0608  0.9760  0.1524
  789MPD2     H11687   0.005   0.616  16.468  0.5396 -2.9272 -0.9594
  789MPD2    H111688   0.097   0.633  16.886  0.4237 -0.2192 -0.1326
  789MPD2    H211689   0.330   0.401  16.617  0.5671 -0.9006  3.4599
  789MPD2    H311690   0.284   0.464  16.838 -2.0228  1.0785  2.0740
  789MPD2     N11691   4.684   0.740  16.691 -0.7006 -0.1487  0.3043
  789MPD2    H511692   4.675   0.765  16.789  0.8070  0.6761  0.2310
  789MPD2    N111693   0.180   0.452  16.394  0.0420  0.3748  0.1962
  789MPD2    H711694   0.119   0.487  16.321 -0.8434 -0.7642  0.3826
  790MPD2     C11695   1.063   1.050  13.328  0.7329  0.2975  0.2636
  790MPD2    C111696   1.104   1.145  13.233 -0.3289  0.6425 -0.6347
  790MPD2    C211697   1.001   1.211  13.171 -0.3900 -0.8271 -0.5865
  790MPD2    C311698   0.870   1.181  13.194  0.5212  0.1983 -0.3337
  790MPD2    C411699   0.836   1.093  13.289  0.1377  0.2560  0.7343
  790MPD2    C511700   0.932   1.029  13.354  0.3389  0.1538  0.1981
  790MPD2     H11701   1.008   1.274  13.084  2.4142 -2.0376 -1.2494
  790MPD2    H111702   0.736   1.070  13.323  0.4554 -1.9746  0.1205
  790MPD2    H211703   1.136   0.987  13.378  0.7228 -1.6735 -2.2243
  790MPD2    H311704   0.909   0.966  13.439  0.9471 -1.1600 -0.6136
  790MPD2     N11705   0.776   1.256  13.127  0.1443 -0.3937 -0.1271
  790MPD2    H511706   0.813   1.335  13.075 -0.0409 -0.7839 -0.8536
  790MPD2    N111707   1.233   1.157  13.198 -0.2537 -0.2466  0.5138
  790MPD2    H711708   1.299   1.107  13.257 -0.1493  0.1425  0.7286
  791MPD2     C11709   0.199   1.576  12.545  0.0601  0.6680 -0.1961
  791MPD2    C111710   0.232   1.451  12.583 -0.3013 -0.2462 -0.0109
  791MPD2    C211711   0.137   1.351  12.569  0.5413  0.3666 -0.3980
  791MPD2    C311712   0.008   1.378  12.519 -0.0413  0.3640  0.4345
  791MPD2    C411713   4.721   1.508  12.475  0.1169 -0.0242  0.5124
  791MPD2    C511714   0.078   1.609  12.488 -0.0273  0.1917 -0.6028
  791MPD2     H11715   0.161   1.254  12.610 -3.3923  0.0766  1.1972
  791MPD2    H111716   4.631   1.536  12.422  1.5723 -2.4267 -3.2464
  791MPD2    H211717   0.265   1.661  12.551 -0.3695  0.9395  0.7845
  791MPD2    H311718   0.045   1.712  12.474  0.0753  0.3058 -0.0029
  791MPD2     N11719   4.642   1.282  12.494  0.2366 -0.9102 -0.2471
  791MPD2    H511720   4.664   1.190  12.531 -2.1276 -1.3817 -0.0028
  791MPD2    N111721   0.361   1.428  12.636  0.6521  0.1255 -0.7453
  791MPD2    H711722   0.417   1.513  12.643  1.5261 -0.5515  0.5844
  792MPD2     C11723   0.517   2.078  11.210  0.5557 -0.0425 -0.0617
  792MPD2    C111724   0.468   2.112  11.085  0.1583  0.8359 -0.3724
  792MPD2    C211725   0.332   2.081  11.069 -0.2091  0.1031  0.0558
  792MPD2    C311726   0.255   2.024  11.170 -0.6758  0.7504  0.0346
  792MPD2    C411727   0.312   1.988  11.286 -0.3537 -0.4089  0.1619
  792MPD2    C511728   0.439   2.023  11.311 -0.0628 -0.4772 -0.2978
  792MPD2     H11729   0.279   2.094  10.975  3.1690  1.3192 -1.6797
  792MPD2    H111730   0.259   1.939  11.367 -1.3625  0.7779  0.2089
  792MPD2    H211731   0.619   2.103  11.238  1.2611 -2.2914 -0.5550
  792MPD2    H311732   0.480   2.004  11.409 -1.3876  0.4736  0.4349
  792MPD2     N11733   0.119   1.987  11.162  0.6208  0.6247  0.7745
  792MPD2    H511734   0.073   1.954  11.247  0.0927  3.6382  1.6605
  792MPD2    N111735   0.551   2.161  10.986  0.4202 -0.7608  0.0828
  792MPD2    H711736   0.649   2.183  11.001  0.0470  2.0345 -1.5610
  793MPD2     C11737   4.177   2.008  10.403  0.4582 -0.4858 -0.3077
  793MPD2    C111738   4.310   1.962  10.408 -0.2590  0.0963 -0.0795
  793MPD2    C211739   4.380   1.962  10.529 -0.0586  0.4395  0.0797
  793MPD2    C311740   4.317   2.002  10.646  0.5547 -0.2146  0.2113
  793MPD2    C411741   4.182   2.037  10.640 -0.1279 -0.5800  0.2028
  793MPD2    C511742   4.115   2.034  10.522  0.5697  0.4653  0.9852
  793MPD2     H11743   4.481   1.923  10.545 -0.8909 -1.3631  1.0015
  793MPD2    H111744   4.122   2.071  10.724 -0.5794  0.2295 -0.4457
  793MPD2    H211745   4.108   2.014  10.320  0.7552  1.4422 -0.4244
  793MPD2    H311746   4.015   2.074  10.512  1.4549  2.4398  0.0291
  793MPD2     N11747   4.387   2.004  10.771 -0.9133 -0.4667 -0.4560
  793MPD2    H511748   4.487   1.986  10.769 -1.0274 -1.3717  1.4090
  793MPD2    N111749   4.374   1.913  10.294 -0.0490  0.0956 -0.9890
  793MPD2    H711750   4.460   1.859  10.302 -0.0604  0.2605  0.1240
  794MPD2     C11751   0.934   1.296  17.181 -0.3029 -0.1657 -0.5433
  794MPD2    C111752   0.861   1.178  17.171 -0.9346  0.2379  0.4494
  794MPD2    C211753   0.754   1.182  17.092 -0.0234  0.6427  0.0088
  794MPD2    C311754   0.711   1.299  17.027  0.4944 -0.7029  0.0218
  794MPD2    C411755   0.782   1.414  17.051 -0.3443  0.8069  0.2033
  794MPD2    C511756   0.896   1.411  17.128  0.0042 -0.6352  0.5342
  794MPD2     H11757   0.702   1.088  17.076 -1.9006  1.5137  1.0329
  794MPD2    H111758   0.758   1.510  17.005 -2.4826  1.3156  2.3995
  794MPD2    H211759   1.016   1.307  17.251 -1.5593  3.2554  0.3741
  794MPD2    H311760   0.950   1.502  17.150  0.8208 -1.0788  0.3532
  794MPD2     N11761   0.601   1.306  16.944  0.3357 -0.1496  0.4387
  794MPD2    H511762   0.585   1.397  16.902  1.5266 -0.1440  0.0108
  794MPD2    N111763   0.898   1.057  17.235  0.7111 -0.5168 -0.6829
  794MPD2    H711764   0.823   0.989  17.231 -0.8422  1.1324  0.4136
  795MPD2     C11765   3.267   3.480  13.815  0.0872  0.2455  0.3560
  795MPD2    C111766   3.198   3.360  13.807  0.3022 -0.3144 -0.3549
  795MPD2    C211767   3.262   3.248  13.860 -0.0174 -0.0254  0.3575
  795MPD2    C311768   3.392   3.262  13.902  0.1478 -0.0807  0.6030
  795MPD2    C411769   3.459   3.387  13.901  0.2637 -0.1312  0.0990
  795MPD2    C511770   3.391   3.499  13.861 -0.0236 -0.1749  0.1900
  795MPD2     H11771   3.207   3.154  13.860  0.0526 -0.0742 -1.0989
  795MPD2    H111772   3.562   3.405  13.929  0.2791  0.4518 -0.3306
  795MPD2    H211773   3.219   3.566  13.771 -0.1726 -1.3738 -2.5281
  795MPD2    H311774   3.445   3.591  13.843  0.1361 -0.3437 -0.1912
  795MPD2     N11775   3.462   3.140  13.915 -0.0539  0.2153 -0.4006
  795MPD2    H511776   3.412   3.053  13.904  0.3508  0.2108 -2.1317
  795MPD2    N111777   3.064   3.349  13.748  0.0258 -0.3304 -0.4775
  795MPD2    H711778   3.021   3.257  13.742 -3.1934  1.2616 -1.8005
  796MPD2     C11779   3.364   0.019  15.740 -0.5284  0.3445 -0.7457
  796MPD2    C111780   3.279   0.018  15.846 -0.6225  0.2606  0.7504
  796MPD2    C211781   3.170   0.105  15.847  0.4303  0.1062 -0.3926
  796MPD2    C311782   3.135   0.177  15.731  0.0766  0.6445  0.1483
  796MPD2    C411783   3.219   0.172  15.624 -0.4214  0.5150 -0.0387
  796MPD2    C511784   3.332   0.095  15.627  0.0851 -0.0548  0.3513
  796MPD2     H11785   3.109   0.116  15.935 -2.4180  0.8461 -2.4570
  796MPD2    H111786   3.200   0.226  15.531 -0.7925  2.3906  1.1321
  796MPD2    H211787   3.459   4.706  15.753 -2.2077 -2.7693 -0.5955
  796MPD2    H311788   3.396   0.100  15.539 -3.0457  2.4171 -1.7940
  796MPD2     N11789   3.020   0.256  15.734  0.1618 -0.2109 -0.2324
  796MPD2    H511790   2.977   0.280  15.822  0.5063  2.9248 -0.9488
  796MPD2    N111791   3.320   4.682  15.956  1.0602  0.3730  0.0324
  796MPD2    H711792   3.405   4.627  15.948  0.5428  0.0647 -3.2851
  797MPD2     C11793   3.896   4.422  17.561  0.4413 -0.0892 -0.0396
  797MPD2    C111794   3.969   4.538  17.558 -0.4344  0.0643  0.4261
  797MPD2    C211795   3.928   4.635  17.472 -0.7715  0.3827  0.4132
  797MPD2    C311796   3.814   4.624  17.391 -0.6320  0.3157  0.1581
  797MPD2    C411797   3.753   4.502  17.386  0.5988 -0.5185  0.1151
  797MPD2    C511798   3.787   4.408  17.473  0.1919 -0.0857 -0.0952
  797MPD2     H11799   3.993   4.722  17.471 -1.1500  0.6445 -2.4417
  797MPD2    H111800   3.669   4.486  17.319 -2.1056 -0.6494  3.5537
  797MPD2    H211801   3.926   4.341  17.627 -0.1086 -1.7442 -1.8055
  797MPD2    H311802   3.732   4.315  17.479  0.1826  0.0542  1.8031
  797MPD2     N11803   3.788   4.736  17.310 -0.0305  0.4339  0.2183
  797MPD2    H511804   3.840   0.083  17.329  0.0396 -0.0425  2.1451
  797MPD2    N111805   4.085   4.564  17.632  0.6333 -0.3141  0.0616
  797MPD2    H711806   4.148   4.636  17.598 -0.7136  1.0030  0.3002
  798MPD2     C11807   4.295   0.461  17.323 -0.2824  0.3717  0.3911
  798MPD2    C111808   4.203   0.358  17.321  0.0225  0.4167 -0.2500
  798MPD2    C211809   4.223   0.260  17.405 -0.0238 -0.3885 -0.6026
  798MPD2    C311810   4.332   0.258  17.496 -0.3473 -0.9883  0.2848
  798MPD2    C411811   4.417   0.365  17.503  1.0283  0.6475 -0.3067
  798MPD2    C511812   4.400   0.472  17.412  0.5553  0.7635 -0.6163
  798MPD2     H11813   4.161   0.171  17.405  0.8583 -1.0320  3.2461
  798MPD2    H111814   4.499   0.370  17.574  0.3856  0.1816  0.4634
  798MPD2    H211815   4.279   0.547  17.259  1.2349 -0.1677 -0.7139
  798MPD2    H311816   4.466   0.559  17.408  3.0785 -1.1597 -1.0597
  798MPD2     N11817   4.320   0.155  17.601  1.1472  0.5047  0.3439
  798MPD2    H511818   4.233   0.104  17.603  1.0802  0.4638 -3.2068
  798MPD2    N111819   4.090   0.371  17.239  0.1417  0.5000  0.0672
  798MPD2    H711820   4.093   0.450  17.175 -0.6833  0.1023 -0.4703
  799MPD2     C11821   2.834   1.390  14.656 -0.0112  0.0180  0.6821
  799MPD2    C111822   2.782   1.274  14.590  0.3858 -0.0322  0.6880
  799MPD2    C211823   2.699   1.292  14.477  0.7134  0.4877  0.1176
  799MPD2    C311824   2.686   1.423  14.428 -0.3734  0.1819 -0.0819
  799MPD2    C411825   2.752   1.535  14.483  0.0857 -0.4164  0.4422
  799MPD2    C511826   2.818   1.510  14.601  0.1406 -0.6430  0.2167
  799MPD2     H11827   2.650   1.209  14.428  0.1756  2.1852 -2.2376
  799MPD2    H111828   2.733   1.633  14.442 -1.9804 -0.3454  1.6180
  799MPD2    H211829   2.896   1.369  14.743 -0.2522 -0.3371  0.7708
  799MPD2    H311830   2.865   1.592  14.654  1.3591 -2.1511  1.4651
  799MPD2     N11831   2.604   1.451  14.317  0.2661  0.2639 -0.8173
  799MPD2    H511832   2.612   1.544  14.278  0.4549 -0.1729 -1.8230
  799MPD2    N111833   2.785   1.145  14.649  0.8468  0.7239 -0.5291
  799MPD2    H711834   2.749   1.073  14.588 -1.3074  2.5858 -1.4711
  800MPD2     C11835   2.826   2.628  14.513  0.2715 -0.1574  0.0380
  800MPD2    C111836   2.944   2.575  14.472 -0.6725 -0.8016 -0.3230
  800MPD2    C211837   2.942   2.468  14.381 -0.0011  0.4891  0.1156
  800MPD2    C311838   2.817   2.424  14.334 -0.4487  0.0855  0.1612
  800MPD2    C411839   2.698   2.476  14.387  0.0303 -0.1562 -0.5836
  800MPD2    C511840   2.703   2.580  14.478  0.5104  0.6589 -0.0228
  800MPD2     H11841   3.027   2.426  14.329  0.6815  4.0804 -1.6720
  800MPD2    H111842   2.598   2.441  14.362 -0.5514  0.0958  1.3992
  800MPD2    H211843   2.837   2.723  14.564  2.0937  0.8434 -2.2640
  800MPD2    H311844   2.613   2.638  14.492  0.3459  0.5294 -0.5259
  800MPD2     N11845   2.830   2.326  14.237  0.1406 -0.0307  0.0428
  800MPD2    H511846   2.924   2.303  14.206  0.5587  2.2692 -0.3520
  800MPD2    N111847   3.067   2.630  14.511  0.3320  0.1742  0.8924
  800MPD2    H711848   3.068   2.722  14.553 -3.2367  1.3736 -1.6422
  801MPD2     C11849   3.095   3.257  14.401 -0.4888 -0.3829 -0.2398
  801MPD2    C111850   3.159   3.168  14.492 -0.8420 -0.3792 -0.7605
  801MPD2    C211851   3.135   3.192  14.629 -0.4085  0.2094 -0.3579
  801MPD2    C311852   3.029   3.280  14.664 -0.0585 -0.1247 -0.0270
  801MPD2    C411853   2.971   3.365  14.577  0.6106 -1.0571  0.5396
  801MPD2    C511854   3.007   3.353  14.443  0.0576 -0.2023  0.5647
  801MPD2     H11855   3.175   3.122  14.702 -0.0208 -0.0545 -0.8189
  801MPD2    H111856   2.898   3.437  14.611  0.6845 -2.1517  2.9984
  801MPD2    H211857   3.115   3.252  14.295 -1.0390  0.8861 -0.3968
  801MPD2    H311858   2.964   3.425  14.374  1.7096  0.8779  0.6422
  801MPD2     N11859   2.982   3.293  14.796  0.0203 -0.8563 -0.0567
  801MPD2    H511860   2.902   3.354  14.810 -0.0286 -0.7769 -0.6748
  801MPD2    N111861   3.233   3.050  14.448  0.2831  0.1086  0.0040
  801MPD2    H711862   3.218   3.016  14.354  1.2129 -1.1914  0.3164
  802MPD2     C11863   2.263   3.514  17.387 -0.1350 -0.4943 -0.5506
  802MPD2    C111864   2.315   3.470  17.506  0.8403 -0.3110 -0.0773
  802MPD2    C211865   2.331   3.334  17.531  0.1071 -0.0094 -0.5192
  802MPD2    C311866   2.287   3.243  17.439  0.2696  0.0184 -0.2845
  802MPD2    C411867   2.246   3.290  17.318 -0.0093 -0.7704 -0.1455
  802MPD2    C511868   2.239   3.419  17.291 -0.8842 -0.4977  0.2013
  802MPD2     H11869   2.374   3.300  17.625 -0.2262 -1.2078 -0.8109
  802MPD2    H111870   2.222   3.222  17.237  1.0046  0.6708 -1.6502
  802MPD2    H211871   2.252   3.620  17.365 -0.2752 -0.9253 -2.5760
  802MPD2    H311872   2.197   3.444  17.194  0.0948  0.3694  0.0050
  802MPD2     N11873   2.317   3.109  17.468 -0.3695  0.2499 -0.2491
  802MPD2    H511874   2.368   3.091  17.554  0.3390 -0.7537 -0.8906
  802MPD2    N111875   2.358   3.563  17.597  0.3614 -0.5496  0.0254
  802MPD2    H711876   2.396   3.525  17.683  0.4089 -1.9710 -0.6232
  803MPD2     C11877   2.970   0.970  11.862  0.2582  0.2682  0.2908
  803MPD2    C111878   3.076   1.055  11.874 -0.4442  0.7930 -0.0823
  803MPD2    C211879   3.119   1.088  12.001 -0.4883 -0.1893 -0.5415
  803MPD2    C311880   3.059   1.035  12.118 -0.3425 -0.2790 -0.3054
  803MPD2    C411881   2.943   0.958  12.102  0.0237 -0.8182 -0.0798
  803MPD2    C511882   2.902   0.927  11.971  0.0102  0.2159 -0.0413
  803MPD2     H11883   3.208   1.149  12.007  0.6042 -1.7318 -0.9217
  803MPD2    H111884   2.886   0.917  12.184 -0.6099 -1.2075 -0.7211
  803MPD2    H211885   2.924   0.932  11.771  1.5532  0.7220 -0.5533
  803MPD2    H311886   2.834   0.845  11.953  2.5116 -1.8304 -0.3053
  803MPD2     N11887   3.109   1.057  12.252  0.6823 -0.4157  0.3913
  803MPD2    H511888   3.049   1.019  12.326  1.5721  0.4404  1.5527
  803MPD2    N111889   3.148   1.107  11.762 -0.3041  0.3030  0.3870
  803MPD2    H711890   3.227   1.168  11.783 -0.3844  0.9534 -1.2801
  804MPD2     C11891   3.167   3.542  17.255  0.2070 -0.2288  0.2697
  804MPD2    C111892   3.235   3.426  17.273  0.6026 -0.6053  0.3656
  804MPD2    C211893   3.295   3.394  17.397 -0.1937  0.2394 -0.4807
  804MPD2    C311894   3.287   3.477  17.511 -0.0851  0.4274  0.1309
  804MPD2    C411895   3.213   3.592  17.489 -0.3203 -0.3383 -0.5481
  804MPD2    C511896   3.159   3.621  17.367 -0.2249  0.0944  0.0162
  804MPD2     H11897   3.360   3.309  17.409  0.9095  1.0603 -0.6959
  804MPD2    H111898   3.205   3.670  17.562  0.9577 -3.0977  2.5512
  804MPD2    H211899   3.130   3.580  17.160 -0.3671  1.2708  1.1004
  804MPD2    H311900   3.113   3.719  17.362  0.2014  0.3724  1.6750
  804MPD2     N11901   3.363   3.455  17.636 -0.0056  0.2272 -0.2236
  804MPD2    H511902   3.415   3.367  17.638 -1.5557 -0.6788  0.3902
  804MPD2    N111903   3.257   3.334  17.172  0.5556  0.1831  0.5532
  804MPD2    H711904   3.307   3.250  17.201  1.2163  0.2953 -0.2649
  805MPD2     C11905   2.611   0.943  15.189  0.1462 -0.0780  0.4777
  805MPD2    C111906   2.609   1.081  15.164 -0.0986  0.0359 -0.3630
  805MPD2    C211907   2.665   1.171  15.253 -0.0784  0.1769 -0.7169
  805MPD2    C311908   2.732   1.115  15.364  0.8463  0.1044 -0.8686
  805MPD2    C411909   2.721   0.979  15.395 -0.4526 -0.9636 -0.1850
  805MPD2    C511910   2.657   0.895  15.309 -0.4875  0.3966 -0.4591
  805MPD2     H11911   2.671   1.278  15.236  0.1076  0.4497  1.0513
  805MPD2    H111912   2.755   0.931  15.486  2.2300 -2.5770 -2.0369
  805MPD2    H211913   2.565   0.871  15.121 -0.2323 -1.4532  2.1689
  805MPD2    H311914   2.636   0.791  15.331  1.3811 -0.1058 -1.0738
  805MPD2     N11915   2.827   1.198  15.439 -0.3992  0.3585  0.7828
  805MPD2    H511916   2.841   1.294  15.410 -0.2154 -0.2947 -1.3223
  805MPD2    N111917   2.542   1.110  15.043  0.3704 -0.5785 -0.8469
  805MPD2    H711918   2.525   1.035  14.976 -1.6474 -0.5684 -0.3429
  806MPD2     C11919   3.466   0.796   0.486 -0.3307  0.8174  0.2807
  806MPD2    C111920   3.448   0.926   0.508  0.3773  0.4317  0.0586
  806MPD2    C211921   3.486   1.023   0.416 -0.0411 -0.0070 -0.0660
  806MPD2    C311922   3.546   0.976   0.298  0.0292 -0.0806  0.3049
  806MPD2    C411923   3.579   0.840   0.283 -0.4612 -0.0491  0.2637
  806MPD2    C511924   3.540   0.754   0.383  0.4069 -0.5405  0.5640
  806MPD2     H11925   3.478   1.130   0.431 -0.2217  0.0060 -0.2593
  806MPD2    H111926   3.622   0.800   0.191  2.7682  0.3271  1.6037
  806MPD2    H211927   3.413   0.725   0.549 -0.5375  0.6403 -0.0932
  806MPD2    H311928   3.563   0.649   0.369 -2.3276 -1.1356  0.7323
  806MPD2     N11929   3.585   1.069   0.201  0.0036 -0.5008  0.1075
  806MPD2    H511930   3.583   1.167   0.227 -1.2155 -0.7343  0.8900
  806MPD2    N111931   3.388   0.965   0.628  0.1618 -0.1754 -0.0965
  806MPD2    H711932   3.341   0.895   0.683 -0.5926  0.6159  0.2661
  807MPD2     C11933   2.852   0.867   1.173 -0.0310  0.2558 -0.7671
  807MPD2    C111934   2.972   0.889   1.237  1.1523 -0.1881 -0.0602
  807MPD2    C211935   2.981   0.874   1.378 -0.4013  1.0113 -0.3780
  807MPD2    C311936   2.868   0.849   1.456  0.4197 -0.0739 -0.1781
  807MPD2    C411937   2.748   0.830   1.384  0.0600  0.0331  0.7240
  807MPD2    C511938   2.739   0.849   1.249 -0.0439  0.2382 -0.0557
  807MPD2     H11939   3.078   0.869   1.425 -0.4618 -0.5459 -0.4156
  807MPD2    H111940   2.656   0.820   1.441 -0.2283  1.4971  0.5174
  807MPD2    H211941   2.844   0.889   1.068 -0.6879 -1.6264 -1.1073
  807MPD2    H311942   2.641   0.863   1.204  1.0225  2.2645 -1.7591
  807MPD2     N11943   2.890   0.832   1.595  0.4325 -0.1924  0.5862
  807MPD2    H511944   2.982   0.844   1.635  0.5838  0.6598 -0.0200
  807MPD2    N111945   3.092   0.937   1.171  0.1404  0.0201  0.4328
  807MPD2    H711946   3.156   0.991   1.229 -0.4359  0.6962  0.4479
  808MPD2     C11947   3.016   2.639  10.396 -0.0824  0.3323 -0.5896
  808MPD2    C111948   2.975   2.684  10.272  0.8265 -0.6794 -0.2850
  808MPD2    C211949   2.987   2.819  10.241  1.0350  0.8018  0.2400
  808MPD2    C311950   3.039   2.912  10.332  0.1110 -0.0313  0.2703
  808MPD2    C411951   3.078   2.860  10.451 -0.1819  0.0707  0.4598
  808MPD2    C511952   3.059   2.733  10.485  0.4908 -0.2639 -0.3018
  808MPD2     H11953   2.951   2.843  10.141  1.5807  3.3450  0.6494
  808MPD2    H111954   3.126   2.924  10.524  1.4619 -1.8405  1.0594
  808MPD2    H211955   3.010   2.534  10.424 -1.3319  0.6567  0.3196
  808MPD2    H311956   3.103   2.692  10.575  0.0393 -0.2974 -0.0956
  808MPD2     N11957   3.071   3.047  10.304  0.4856  0.0379  0.7820
  808MPD2    H511958   3.114   3.099  10.380  1.2637  1.1442 -0.4069
  808MPD2    N111959   2.928   2.593  10.164  0.0975 -0.5730  0.3230
  808MPD2    H711960   2.922   2.624  10.068  0.9494 -0.1376  0.4113
  809MPD2     C11961   3.687   3.583   9.647 -0.5312  0.1483 -0.1809
  809MPD2    C111962   3.693   3.491   9.751  1.2647  0.0439 -0.6284
  809MPD2    C211963   3.578   3.454   9.822  0.0532  0.6361  1.0528
  809MPD2    C311964   3.471   3.542   9.819 -0.4073  0.6334 -0.3739
  809MPD2    C411965   3.463   3.649   9.725  0.1232 -0.0959 -0.5280
  809MPD2    C511966   3.571   3.663   9.635  0.5548 -0.6917 -0.7730
  809MPD2     H11967   3.587   3.369   9.888 -0.6140 -1.0056 -0.9843
  809MPD2    H111968   3.379   3.718   9.722 -0.3669 -0.7626 -1.7907
  809MPD2    H211969   3.774   3.600   9.584 -1.0232 -0.0092 -0.9001
  809MPD2    H311970   3.553   3.738   9.559  0.8958  0.0077 -0.1744
  809MPD2     N11971   3.356   3.524   9.905 -0.0503 -0.2098 -0.9611
  809MPD2    H511972   3.302   3.608   9.920  0.3853  0.2335 -1.8827
  809MPD2    N111973   3.812   3.428   9.786 -0.0857  0.3641  0.1403
  809MPD2    H711974   3.799   3.366   9.865  0.1350  1.2047  0.8292
  810MPD2     C11975   2.295   1.761  10.759  0.4930  0.8052 -0.8933
  810MPD2    C111976   2.339   1.846  10.660 -0.2546 -0.2855  0.0689
  810MPD2    C211977   2.346   1.981  10.696 -0.3636  0.1383  0.2697
  810MPD2    C311978   2.316   2.030  10.822  0.1716 -0.1150 -0.5702
  810MPD2    C411979   2.261   1.939  10.913  0.2223 -0.2951  0.0697
  810MPD2    C511980   2.259   1.804  10.886 -0.6371  0.4060  0.5689
  810MPD2     H11981   2.371   2.038  10.607 -0.0296 -1.2854 -0.5591
  810MPD2    H111982   2.241   1.967  11.016  0.5972  0.5615 -0.0882
  810MPD2    H211983   2.277   1.657  10.734  2.3475  0.6361 -1.5390
  810MPD2    H311984   2.225   1.731  10.959 -0.2015  1.1847  1.5382
  810MPD2     N11985   2.319   2.162  10.849  0.2226  0.3314 -0.0177
  810MPD2    H511986   2.289   2.197  10.940  3.9814  3.7584 -0.0790
  810MPD2    N111987   2.362   1.790  10.533 -0.3412 -0.1677 -0.2154
  810MPD2    H711988   2.315   1.705  10.503  0.4068 -0.7613  0.2656
  811MPD2     C11989   2.025   2.081   9.743  0.3939 -0.6470  0.5864
  811MPD2    C111990   2.086   2.104   9.868  0.9954 -0.0364 -0.3198
  811MPD2    C211991   2.063   2.223   9.929 -0.0798 -0.3085 -0.0206
  811MPD2    C311992   2.008   2.329   9.868  0.2115  0.1856 -1.3351
  811MPD2    C411993   1.945   2.305   9.748 -0.8278 -1.2683  0.1105
  811MPD2    C511994   1.950   2.181   9.689  0.6666 -0.0223 -0.5124
  811MPD2     H11995   2.098   2.229  10.031 -0.1370  1.4225 -0.1023
  811MPD2    H111996   1.891   2.384   9.697  1.0860 -0.2482 -0.3392
  811MPD2    H211997   2.019   1.984   9.695  0.9429  1.0345 -2.8585
  811MPD2    H311998   1.893   2.159   9.599  1.4228  0.5657 -1.1342
  811MPD2     N11999   1.999   2.454   9.940  0.2043  0.9309  0.4593
  811MPD2    H512000   2.037   2.451  10.034  1.1528  3.5848  0.1493
  811MPD2    N112001   2.151   1.999   9.935 -0.0551  0.1324 -0.0886
  811MPD2    H712002   2.141   1.909   9.889  1.3588  0.0291 -0.1961
  812MPD2     C12003   0.467   1.772  12.205 -0.0221 -0.4462 -0.7896
  812MPD2    C112004   0.595   1.815  12.171  0.0577 -0.0017  0.9761
  812MPD2    C212005   0.700   1.734  12.207 -0.5287 -0.5464  0.8395
  812MPD2    C312006   0.680   1.634  12.304 -0.3464 -0.6530 -0.4835
  812MPD2    C412007   0.553   1.596  12.335  0.0090  0.9232 -0.0073
  812MPD2    C512008   0.451   1.661  12.286 -0.1464  0.4460 -0.0559
  812MPD2     H12009   0.796   1.761  12.166 -0.7468  0.2452  0.8665
  812MPD2    H112010   0.530   1.526  12.415  1.2063 -1.4934 -1.7743
  812MPD2    H212011   0.375   1.817  12.171  0.2087  1.2171  0.7316
  812MPD2    H312012   0.354   1.628  12.321  0.5462 -0.1794  1.2616
  812MPD2     N12013   0.796   1.592  12.375  0.4443  0.7361  0.2157
  812MPD2    H512014   0.885   1.636  12.355  0.9487 -0.4707 -0.1977
  812MPD2    N112015   0.606   1.923  12.077 -1.0287 -0.4426  0.0523
  812MPD2    H712016   0.521   1.964  12.039 -1.5098 -1.8488 -0.3977
  813MPD2     C12017   0.672   3.211  12.852 -0.5513 -0.3457  0.1572
  813MPD2    C112018   0.618   3.335  12.823 -0.3910 -0.0876 -0.5710
  813MPD2    C212019   0.504   3.366  12.897  0.1289 -0.6647  0.5451
  813MPD2    C312020   0.435   3.278  12.983  0.0083  0.2628 -0.4473
  813MPD2    C412021   0.499   3.158  13.007  0.1964  0.5857 -0.4302
  813MPD2    C512022   0.614   3.128  12.939 -0.2124 -0.5802 -0.2640
  813MPD2     H12023   0.474   3.469  12.886  0.0119 -0.8598 -0.8709
  813MPD2    H112024   0.465   3.078  13.071  0.4958 -0.5971 -1.7442
  813MPD2    H212025   0.762   3.175  12.804 -1.5295  0.0317 -1.9423
  813MPD2    H312026   0.647   3.027  12.960  0.4425 -0.9839 -3.2251
  813MPD2     N12027   0.329   3.339  13.059 -0.2868  0.6079 -0.3312
  813MPD2    H512028   0.309   3.437  13.039  2.2129  1.2702  0.4755
  813MPD2    N112029   0.685   3.419  12.734  0.1750 -0.0889 -0.8818
  813MPD2    H712030   0.777   3.387  12.705  0.3858  0.2406 -0.5783
  814MPD2     C12031   0.970   0.168  12.180  0.3327 -0.6834  0.1509
  814MPD2    C112032   0.958   0.282  12.107 -0.7469  0.1107 -0.0361
  814MPD2    C212033   1.014   0.402  12.154 -0.1121  0.0435  0.0648
  814MPD2    C312034   1.097   0.402  12.264 -0.1095 -0.2359  0.1271
  814MPD2    C412035   1.106   0.287  12.345  0.5128 -0.4908  0.1479
  814MPD2    C512036   1.042   0.175  12.298  0.2906 -0.7697 -0.9713
  814MPD2     H12037   0.993   0.494  12.101 -1.0637  0.2343  0.7699
  814MPD2    H112038   1.159   0.277  12.438 -1.4184 -3.1176  0.9543
  814MPD2    H212039   0.942   0.071  12.140  0.6623 -0.7151 -0.0054
  814MPD2    H312040   1.049   0.083  12.354 -2.7788 -1.3710 -1.6188
  814MPD2     N12041   1.164   0.520  12.309 -0.1084  0.3154  0.0211
  814MPD2    H512042   1.228   0.516  12.388 -1.0720  1.4155  0.8632
  814MPD2    N112043   0.895   0.288  11.981  0.1455 -0.0771  0.1980
  814MPD2    H712044   0.900   0.380  11.936  2.6794 -0.9942 -1.3750
  815MPD2     C12045   1.164   2.549  11.694 -0.3709  0.6119 -0.3552
  815MPD2    C112046   1.098   2.645  11.632 -0.0177 -0.3851 -0.1987
  815MPD2    C212047   0.997   2.714  11.693  0.1941  0.4870  0.4291
  815MPD2    C312048   0.938   2.659  11.809 -0.1239  0.0018 -0.2147
  815MPD2    C412049   1.002   2.558  11.876  0.4110 -0.0576  0.0793
  815MPD2    C512050   1.109   2.499  11.811  0.0974 -0.3428  0.4581
  815MPD2     H12051   0.956   2.802  11.643 -0.0629  0.8332  1.2481
  815MPD2    H112052   0.971   2.526  11.975 -1.0830 -1.8182 -0.9604
  815MPD2    H212053   1.249   2.494  11.656 -0.2811  0.3116  0.2791
  815MPD2    H312054   1.162   2.419  11.862  0.9558 -0.1993 -0.1985
  815MPD2     N12055   0.820   2.726  11.850 -0.5080 -0.2916 -0.5549
  815MPD2    H512056   0.787   2.811  11.806  0.3208  1.2545  1.8412
  815MPD2    N112057   1.155   2.681  11.506  0.4412  0.1306 -0.0066
  815MPD2    H712058   1.243   2.645  11.473 -0.4687 -0.8330 -1.3732
  816MPD2     C12059   1.639   2.250  17.305  0.7859 -0.1628  0.0029
  816MPD2    C112060   1.633   2.361  17.217 -0.0581  0.7520 -1.0551
  816MPD2    C212061   1.726   2.379  17.121  0.5255 -0.1601 -1.1826
  816MPD2    C312062   1.818   2.277  17.094 -0.0257  0.1088 -0.3330
  816MPD2    C412063   1.818   2.159  17.171  0.1204 -0.1134  0.0012
  816MPD2    C512064   1.728   2.151  17.274  0.0205  0.5658 -0.3151
  816MPD2     H12065   1.731   2.471  17.064  1.6669  0.4728 -0.0591
  816MPD2    H112066   1.891   2.079  17.166  1.5365  1.1585  0.1730
  816MPD2    H212067   1.576   2.236  17.393 -0.2574  1.1366 -0.5404
  816MPD2    H312068   1.721   2.059  17.330  1.9402  0.6399  0.0438
  816MPD2     N12069   1.915   2.303  16.993 -0.6466 -0.1636  0.0427
  816MPD2    H512070   1.905   2.389  16.940 -3.0942  0.4588  1.5160
  816MPD2    N112071   1.535   2.457  17.241  0.1356  0.4028  0.4407
  816MPD2    H712072   1.478   2.440  17.323  0.2038 -0.4228  0.3183
  817MPD2     C12073   0.508   4.399   9.748 -0.4150  0.2821 -0.3523
  817MPD2    C112074   0.522   4.328   9.631 -0.6930 -0.6756  0.1289
  817MPD2    C212075   0.443   4.354   9.514 -0.8067  0.6644 -0.5760
  817MPD2    C312076   0.343   4.445   9.525  0.3463  0.0882 -0.1528
  817MPD2    C412077   0.330   4.528   9.632  0.1581  1.0317 -1.1906
  817MPD2    C512078   0.411   4.503   9.739 -0.1559 -0.1918 -0.0361
  817MPD2     H12079   0.450   4.284   9.432 -0.2143  0.6243 -0.4887
  817MPD2    H112080   0.263   4.613   9.636  1.3772  2.0257 -1.8749
  817MPD2    H212081   0.551   4.381   9.845  1.9170  1.7648 -1.1077
  817MPD2    H312082   0.387   4.556   9.831  1.9914 -0.4890  0.7045
  817MPD2     N12083   0.262   4.451   9.408 -0.0151  0.0455  0.6824
  817MPD2    H512084   0.289   4.386   9.335  1.6369  0.1154  1.2466
  817MPD2    N112085   0.615   4.221   9.625  0.0128  0.4191 -0.4330
  817MPD2    H712086   0.601   4.158   9.546 -1.5155  0.6549 -0.3479
  818MPD2     C12087   4.427   4.132   9.683 -0.1593  0.3938  0.5212
  818MPD2    C112088   4.372   4.145   9.812 -0.6047  0.4640 -0.4172
  818MPD2    C212089   4.403   4.049   9.911  0.1039 -0.2747 -0.2832
  818MPD2    C312090   4.477   3.936   9.875  0.1760 -0.5872 -0.3977
  818MPD2    C412091   4.518   3.920   9.748 -0.1831 -0.3819  0.0621
  818MPD2    C512092   4.496   4.019   9.657  0.0194  0.4096 -0.1590
  818MPD2     H12093   4.358   4.057  10.010  2.0226  0.1629  0.5467
  818MPD2    H112094   4.585   3.838   9.722 -3.3195 -2.9859  0.1849
  818MPD2    H212095   4.411   4.199   9.599 -2.6897 -1.2520 -0.3146
  818MPD2    H312096   4.534   4.015   9.555 -1.0317  0.2977 -0.5445
  818MPD2     N12097   4.503   3.831   9.969  0.5476  0.1750  0.5660
  818MPD2    H512098   4.539   3.742   9.935  1.7323  1.2342 -1.0039
  818MPD2    N112099   4.285   4.254   9.851 -0.6055  0.3478 -0.6328
  818MPD2    H712100   4.232   4.237   9.935  0.1077  0.3321 -0.1880
  819MPD2     C12101   3.152   0.990  15.421 -0.3260 -1.0196 -0.0598
  819MPD2    C112102   3.147   0.861  15.472 -0.6887  0.3790 -0.2021
  819MPD2    C212103   3.231   0.831  15.575  0.1977 -0.5935 -0.2649
  819MPD2    C312104   3.321   0.926  15.619  0.0544  0.0381  0.2092
  819MPD2    C412105   3.323   1.054  15.573 -0.9105 -0.1577 -0.9206
  819MPD2    C512106   3.236   1.082  15.475 -0.0075  0.5857 -0.3304
  819MPD2     H12107   3.232   0.735  15.627  2.4553  0.6424  1.9944
  819MPD2    H112108   3.389   1.135  15.603  0.7230 -1.0499 -2.0735
  819MPD2    H212109   3.095   1.017  15.332  0.8624  0.3039 -0.4120
  819MPD2    H312110   3.237   1.175  15.421  0.4793 -0.3066 -1.8670
  819MPD2     N12111   3.417   0.886  15.717 -0.0710 -0.5470  0.5114
  819MPD2    H512112   3.405   0.793  15.755  1.8317 -1.0367 -0.0811
  819MPD2    N112113   3.072   0.760  15.405  0.0368  0.7506  0.2378
  819MPD2    H712114   3.021   0.789  15.322 -1.2657  0.6056  0.9713
  820MPD2     C12115   2.298   0.532  14.831  0.1167 -0.3067 -0.1390
  820MPD2    C112116   2.377   0.638  14.855  0.1143  0.1033 -0.4008
  820MPD2    C212117   2.489   0.621  14.936  0.6833  0.5886 -0.5287
  820MPD2    C312118   2.518   0.495  14.985  0.0817 -0.9396  0.1257
  820MPD2    C412119   2.429   0.389  14.967 -0.3366 -0.4799 -0.2560
  820MPD2    C512120   2.315   0.414  14.896  0.5840  0.2249  0.5108
  820MPD2     H12121   2.563   0.700  14.951  0.6494  0.9782 -2.3889
  820MPD2    H112122   2.447   0.291  15.010  0.3925  0.0603  0.6612
  820MPD2    H212123   2.216   0.542  14.761  0.0358  0.0501  0.0041
  820MPD2    H312124   2.237   0.345  14.865  0.1275  1.0762 -0.2418
  820MPD2     N12125   2.633   0.468  15.066  0.0911  0.1639  0.0821
  820MPD2    H512126   2.638   0.372  15.100 -2.9211 -0.2203 -0.5976
  820MPD2    N112127   2.347   0.763  14.805  0.1514  0.2139  0.2796
  820MPD2    H712128   2.259   0.771  14.754 -0.2580 -0.7474  0.8194
  821MPD2     C12129   2.902   2.446  13.419 -0.0894 -0.4695 -0.0447
  821MPD2    C112130   3.000   2.375  13.485  0.5601 -0.9120 -0.1101
  821MPD2    C212131   3.124   2.342  13.431 -0.0262  0.0589  0.5112
  821MPD2    C312132   3.149   2.377  13.297 -0.2488 -0.5922  0.2794
  821MPD2    C412133   3.050   2.440  13.225 -0.1493 -0.7391  0.0909
  821MPD2    C512134   2.928   2.478  13.285  0.8547  0.0390 -0.4055
  821MPD2     H12135   3.186   2.282  13.496 -1.4643 -1.9304  0.0310
  821MPD2    H112136   3.057   2.461  13.119  2.8387  1.1801  0.6556
  821MPD2    H212137   2.798   2.460  13.447  0.6024  1.1681  1.7154
  821MPD2    H312138   2.861   2.522  13.213  0.5449 -0.5715 -0.4926
  821MPD2     N12139   3.259   2.315  13.227  0.3823 -0.7281  1.1098
  821MPD2    H512140   3.247   2.291  13.129  0.4389  0.5342  0.7940
  821MPD2    N112141   2.983   2.334  13.619  0.4248  0.6305 -0.1467
  821MPD2    H712142   3.053   2.276  13.662  0.2406 -0.4491 -1.3129
  822MPD2     C12143   4.203   2.390  15.857 -0.0624 -0.1389 -0.9744
  822MPD2    C112144   4.184   2.381  15.998  0.1235 -0.0163 -0.2342
  822MPD2    C212145   4.105   2.473  16.050  0.8133  0.7483 -0.0977
  822MPD2    C312146   4.068   2.589  15.982  0.0906  0.5070  0.4847
  822MPD2    C412147   4.083   2.598  15.842  0.6001  0.1173 -0.1239
  822MPD2    C512148   4.134   2.484  15.780  0.3314  0.6509 -0.3303
  822MPD2     H12149   4.075   2.472  16.154 -1.7153  0.5472 -0.8263
  822MPD2    H112150   4.029   2.675  15.789  0.9057 -0.2274 -0.9348
  822MPD2    H212151   4.277   2.329  15.807 -0.7315 -0.4697 -1.5517
  822MPD2    H312152   4.143   2.494  15.672 -1.2628  0.5391 -0.4659
  822MPD2     N12153   4.011   2.694  16.057  0.3678  0.1524 -0.2504
  822MPD2    H512154   3.982   2.676  16.152  1.3613  1.3457  0.2782
  822MPD2    N112155   4.237   2.276  16.080  0.5343  0.1850  0.3745
  822MPD2    H712156   4.193   2.271  16.171 -1.2765  1.9817 -0.4059
  823MPD2     C12157   3.697   3.067  16.775 -0.1344  0.3280 -0.7954
  823MPD2    C112158   3.743   2.959  16.694 -0.0306 -0.5043 -0.9394
  823MPD2    C212159   3.740   2.835  16.750  0.3628  0.3404 -0.7088
  823MPD2    C312160   3.692   2.809  16.878 -1.1024  0.8188 -0.7658
  823MPD2    C412161   3.651   2.914  16.956 -0.2082 -0.3930  0.0608
  823MPD2    C512162   3.643   3.038  16.901 -0.0041 -0.7195 -0.2532
  823MPD2     H12163   3.781   2.750  16.697  2.5375 -0.5584  2.4097
  823MPD2    H112164   3.614   2.888  17.054  1.5337 -1.1654  0.5086
  823MPD2    H212165   3.692   3.169  16.739 -1.7029  0.7556  0.6488
  823MPD2    H312166   3.604   3.116  16.965  0.5395 -0.2689 -0.4716
  823MPD2     N12167   3.671   2.678  16.917 -0.0278  1.0084  0.9596
  823MPD2    H512168   3.627   2.655  17.006 -1.3878  1.2928  0.3573
  823MPD2    N112169   3.784   2.990  16.566  0.3089 -0.2415  0.0095
  823MPD2    H712170   3.766   3.085  16.533  1.2066  0.2274  0.8339
  824MPD2     C12171   4.505   1.482  16.072  0.3887 -0.1428  0.2267
  824MPD2    C112172   4.516   1.584  15.984  0.0945  0.2785  0.0433
  824MPD2    C212173   4.565   1.554  15.856  0.2712  0.6503  0.5663
  824MPD2    C312174   4.602   1.429  15.827  0.7168 -0.0646  0.3807
  824MPD2    C412175   4.574   1.329  15.911 -0.2255  0.2816 -0.4755
  824MPD2    C512176   4.541   1.358  16.040 -0.2316  0.7432 -0.2843
  824MPD2     H12177   4.574   1.633  15.783 -1.3806  0.0066 -0.3275
  824MPD2    H112178   4.601   1.226  15.893 -1.8273 -0.0408 -1.0534
  824MPD2    H212179   4.464   1.508  16.168 -3.6817  0.1969 -1.6001
  824MPD2    H312180   4.532   1.280  16.115  0.3031  0.8437 -0.1167
  824MPD2     N12181   4.651   1.386  15.702  0.4009  0.4500  0.6468
  824MPD2    H512182   4.643   1.456  15.629  0.6989 -1.3177 -1.0885
  824MPD2    N112183   4.500   1.718  16.028  0.9697  0.4914  0.5778
  824MPD2    H712184   4.485   1.793  15.961 -0.9682 -1.6326 -1.3585
  825MPD2     C12185   0.571   1.578  15.275 -0.2657  0.0170 -0.0315
  825MPD2    C112186   0.437   1.616  15.287 -0.6677 -0.6548  0.0176
  825MPD2    C212187   0.414   1.755  15.284  0.2346 -0.9102 -0.6748
  825MPD2    C312188   0.526   1.843  15.283  0.0635  0.0447 -0.0024
  825MPD2    C412189   0.656   1.801  15.278  0.1541  0.1211 -0.0093
  825MPD2    C512190   0.672   1.661  15.264  0.5005  0.4040 -0.9673
  825MPD2     H12191   0.314   1.793  15.302  1.1013  1.5143 -1.0083
  825MPD2    H112192   0.741   1.867  15.288  0.7584 -0.6901  0.3016
  825MPD2    H212193   0.598   1.473  15.273  0.0220  0.0580  2.0975
  825MPD2    H312194   0.770   1.613  15.263  0.4683  0.3214 -0.4239
  825MPD2     N12195   0.519   1.985  15.285 -0.3361  0.1356 -0.0816
  825MPD2    H512196   0.612   2.028  15.289  0.0522 -0.9026  1.8830
  825MPD2    N112197   0.352   1.514  15.315  0.0585 -0.0800 -1.0568
  825MPD2    H712198   0.398   1.423  15.319  0.4017  0.1098 -0.6713
  826MPD2     C12199   0.378   1.594  13.640 -0.0080  0.2911  0.4583
  826MPD2    C112200   0.265   1.584  13.564  0.0424  0.6610 -0.5023
  826MPD2    C212201   0.192   1.694  13.544  0.8627  0.6908  0.0056
  826MPD2    C312202   0.217   1.815  13.615 -0.0527  0.2220  0.1907
  826MPD2    C412203   0.326   1.817  13.701 -0.6810 -0.3628  0.1804
  826MPD2    C512204   0.404   1.706  13.715  0.1465  0.4525  0.4363
  826MPD2     H12205   0.116   1.690  13.467  0.8348 -2.3120  0.2195
  826MPD2    H112206   0.335   1.905  13.764 -0.9219  0.4042 -0.8633
  826MPD2    H212207   0.455   1.518  13.630 -2.3320 -2.3195  2.5579
  826MPD2    H312208   0.493   1.705  13.776  0.5110 -0.8116 -0.1117
  826MPD2     N12209   0.143   1.935  13.615 -0.4212  0.5077 -0.2313
  826MPD2    H512210   0.171   2.010  13.678 -1.6735  0.4978  0.3228
  826MPD2    N112211   0.252   1.463  13.491 -0.1551 -0.2659  0.2084
  826MPD2    H712212   0.338   1.410  13.482  0.3366  0.9886 -2.2845
  827MPD2     C12213   0.226   3.658   9.894  0.0984 -0.1004  0.6529
  827MPD2    C112214   0.252   3.524   9.878  0.6359  0.0996 -0.6587
  827MPD2    C212215   0.188   3.463   9.775 -0.7675  0.5886  0.0547
  827MPD2    C312216   0.112   3.535   9.682 -0.6261 -0.0071  0.1967
  827MPD2    C412217   0.098   3.676   9.693 -0.2831  0.4995  0.2947
  827MPD2    C512218   0.160   3.736   9.797  0.1070 -0.6692  0.1797
  827MPD2     H12219   0.199   3.356   9.759 -1.1315  0.9328 -2.5489
  827MPD2    H112220   0.043   3.743   9.628 -1.8509 -0.5379  0.5585
  827MPD2    H212221   0.275   3.713   9.973  0.0921 -0.5889  0.9950
  827MPD2    H312222   0.146   3.844   9.804 -0.3623 -0.6043 -1.8673
  827MPD2     N12223   0.031   3.464   9.590 -0.0039 -0.3592 -0.0334
  827MPD2    H512224   0.034   3.363   9.603  1.2065  0.1111  3.2077
  827MPD2    N112225   0.348   3.463   9.965  0.4559 -0.2676 -0.0811
  827MPD2    H712226   0.396   3.518  10.036 -0.8846 -0.5399  1.0473
  828MPD2     C12227   3.128   2.104  12.335  0.0766 -0.0866 -0.2991
  828MPD2    C112228   3.089   2.231  12.290  0.1540 -0.2076 -0.3196
  828MPD2    C212229   3.122   2.277  12.165 -0.4412 -0.1375 -0.0925
  828MPD2    C312230   3.193   2.192  12.080  0.0278 -0.4961  0.5855
  828MPD2    C412231   3.247   2.071  12.127 -0.1455 -0.3625  0.0889
  828MPD2    C512232   3.210   2.031  12.254  0.3116 -0.1357  0.7895
  828MPD2     H12233   3.099   2.377  12.130 -1.6798 -0.2860  0.2996
  828MPD2    H112234   3.311   2.011  12.064  0.1157 -0.3364  0.3299
  828MPD2    H212235   3.098   2.060  12.429 -0.1022  0.7881  0.0563
  828MPD2    H312236   3.247   1.939  12.299  1.3496 -1.2418 -2.2870
  828MPD2     N12237   3.200   2.223  11.944 -0.2549  0.0402 -0.0550
  828MPD2    H512238   3.265   2.175  11.882 -1.1459 -1.0475 -0.1291
  828MPD2    N112239   3.028   2.321  12.378  0.1700  0.6970  0.5699
  828MPD2    H712240   3.001   2.405  12.328  1.3854  0.3205 -0.7094
  829MPD2     C12241   2.581   2.914  11.980  0.6269  0.1460  1.0135
  829MPD2    C112242   2.540   2.934  12.112  0.2993  0.3679 -0.3914
  829MPD2    C212243   2.589   2.862  12.214 -0.2719 -1.1303 -0.0803
  829MPD2    C312244   2.674   2.759  12.185 -0.2400  0.0591 -0.3396
  829MPD2    C412245   2.704   2.732  12.053  0.2907 -0.2401 -0.1142
  829MPD2    C512246   2.658   2.812  11.951 -0.0148  0.6301 -0.1812
  829MPD2     H12247   2.572   2.900  12.314 -0.1626 -0.4416 -0.3292
  829MPD2    H112248   2.759   2.644  12.021 -1.5540 -1.0804 -1.0038
  829MPD2    H212249   2.538   2.975  11.901 -0.0479 -1.3174  0.2497
  829MPD2    H312250   2.685   2.790  11.848  3.2800  1.1046  0.6046
  829MPD2     N12251   2.725   2.671  12.284 -0.0223  0.0447 -0.3195
  829MPD2    H512252   2.797   2.609  12.249  2.0233  1.3510  1.5980
  829MPD2    N112253   2.464   3.053  12.118 -0.8380  0.1580 -0.3253
  829MPD2    H712254   2.451   3.100  12.029 -0.2039 -0.5481 -0.7911
  830MPD2     C12255   3.958   0.403  15.790 -0.1603  0.4610 -0.8261
  830MPD2    C112256   3.914   0.524  15.741 -0.1947  0.1446 -0.2894
  830MPD2    C212257   3.964   0.577  15.625 -0.0031  0.1277  0.6223
  830MPD2    C312258   4.071   0.514  15.557 -0.9789 -0.2020  0.4241
  830MPD2    C412259   4.116   0.391  15.610 -0.0916  0.4405 -0.1495
  830MPD2    C512260   4.060   0.337  15.725 -0.4747 -1.0466  0.1748
  830MPD2     H12261   3.932   0.675  15.593 -1.1333 -0.5865 -0.4248
  830MPD2    H112262   4.193   0.335  15.558  1.8355  1.5256  1.5779
  830MPD2    H212263   3.913   0.362  15.880  0.2783 -1.6597 -1.5593
  830MPD2    H312264   4.091   0.239  15.758  1.9540 -0.9434 -1.8372
  830MPD2     N12265   4.116   0.570  15.435 -0.3787  0.2670 -0.3122
  830MPD2    H512266   4.097   0.669  15.426  1.8540  0.8111  0.8538
  830MPD2    N112267   3.807   0.599  15.802  0.1483 -1.0347  0.3470
  830MPD2    H712268   3.767   0.672  15.744  2.5958  0.2660  0.2992
  831MPD2     C12269   4.357   2.835  16.298  0.1272  0.2114 -0.1542
  831MPD2    C112270   4.359   2.698  16.263  0.1049 -0.6653  0.2086
  831MPD2    C212271   4.275   2.612  16.330 -0.0866 -0.0481 -0.1532
  831MPD2    C312272   4.197   2.656  16.435  0.0754  0.8897  0.2969
  831MPD2    C412273   4.196   2.789  16.467 -1.0066  0.4249 -0.6063
  831MPD2    C512274   4.272   2.879  16.400  0.0294 -0.2453 -0.0221
  831MPD2     H12275   4.272   2.513  16.285  0.0668 -0.0268 -0.2088
  831MPD2    H112276   4.128   2.811  16.549  1.0597  1.9245  0.7074
  831MPD2    H212277   4.421   2.899  16.238  0.4976 -0.0264 -0.0160
  831MPD2    H312278   4.282   2.981  16.438  0.1293 -0.7194  1.2159
  831MPD2     N12279   4.100   2.568  16.506  0.2279  0.1211  0.4051
  831MPD2    H512280   4.047   2.612  16.580  0.2655  1.6768 -0.4941
  831MPD2    N112281   4.443   2.653  16.162 -0.4168  0.3230 -0.0921
  831MPD2    H712282   4.493   2.720  16.105 -0.1568  0.7471  0.6336
  832MPD2     C12283   2.444   3.057  17.060 -0.3932  0.0431 -0.5714
  832MPD2    C112284   2.441   3.189  17.049  0.5524  0.2870 -0.1020
  832MPD2    C212285   2.342   3.244  16.977 -0.2267  0.4098  0.1385
  832MPD2    C312286   2.251   3.164  16.909  0.5071 -0.4910 -0.1748
  832MPD2    C412287   2.263   3.029  16.908  0.5212  0.6339 -0.4957
  832MPD2    C512288   2.356   2.977  16.989 -0.0817  0.2462 -0.3079
  832MPD2     H12289   2.330   3.352  16.973  2.6458  0.6760 -1.3080
  832MPD2    H112290   2.195   2.963  16.856  3.0232 -0.9499 -1.7400
  832MPD2    H212291   2.507   3.014  17.136  3.0277  0.0248 -3.4033
  832MPD2    H312292   2.360   2.870  17.004  1.4088  0.2042 -1.0272
  832MPD2     N12293   2.135   3.222  16.849  0.4071  0.7470  0.0629
  832MPD2    H512294   2.059   3.155  16.835 -0.2415  1.4071  0.4477
  832MPD2    N112295   2.530   3.264  17.130 -0.4829  0.3771  0.2468
  832MPD2    H712296   2.585   3.206  17.192  1.0530  1.1513 -0.3865
  833MPD2     C12297   4.162   0.438  12.550  0.1410 -0.4328 -0.6019
  833MPD2    C112298   4.167   0.556  12.480 -0.4882  0.4477 -0.7100
  833MPD2    C212299   4.253   0.547  12.364  0.3855  0.0518  0.2417
  833MPD2    C312300   4.317   0.430  12.329  0.1995  0.3421 -0.6895
  833MPD2    C412301   4.311   0.318  12.412 -0.3066 -0.6239  0.1430
  833MPD2    C512302   4.227   0.320  12.517  0.0029 -0.0451 -0.4861
  833MPD2     H12303   4.248   0.621  12.285  0.1557  0.1740  0.3720
  833MPD2    H112304   4.364   0.226  12.391  0.0394 -0.1529 -1.0855
  833MPD2    H212305   4.105   0.418  12.639  3.3734  0.0033  1.5628
  833MPD2    H312306   4.205   0.226  12.566 -2.5292  0.9134  0.2440
  833MPD2     N12307   4.388   0.410  12.207 -0.3287 -0.0262  0.3451
  833MPD2    H512308   4.431   0.319  12.194  0.1274  0.2368  0.0368
  833MPD2    N112309   4.079   0.666  12.507  0.1708 -0.3122  0.2823
  833MPD2    H712310   4.009   0.660  12.581 -2.8699  1.6004 -2.4473
  834MPD2     C12311   4.234   4.646  11.347  0.0085 -0.1527 -0.8447
  834MPD2    C112312   4.224   0.039  11.305 -0.4807  0.3550  0.7654
  834MPD2    C212313   4.264   0.143  11.393 -0.2089  0.6124 -0.0456
  834MPD2    C312314   4.310   0.111  11.516 -0.0680 -0.1900  0.2311
  834MPD2    C412315   4.328   4.719  11.551  0.3969 -0.1489  0.0006
  834MPD2    C512316   4.298   4.617  11.463 -0.3984 -0.2649 -0.0151
  834MPD2     H12317   4.236   0.246  11.377  0.5569  0.7607 -0.4255
  834MPD2    H112318   4.378   4.684  11.641  0.3305  0.9643  0.4565
  834MPD2    H212319   4.207   4.562  11.284 -2.4621  1.2971 -1.7062
  834MPD2    H312320   4.321   4.516  11.496  1.4953  1.1192  2.8822
  834MPD2     N12321   4.336   0.222  11.606 -0.5533  0.2366  0.6813
  834MPD2    H512322   4.295   0.310  11.575 -1.1445 -1.0622 -2.2201
  834MPD2    N112323   4.153   0.072  11.191 -0.2892  0.2430 -0.2102
  834MPD2    H712324   4.091   0.001  11.153 -0.7776 -0.0706  1.1737
  835MPD2     C12325   3.724   3.524  11.003 -0.2399 -0.2744  0.1344
  835MPD2    C112326   3.628   3.425  11.009  0.3172 -0.1431  0.6824
  835MPD2    C212327   3.656   3.302  11.065  0.7257  0.5517 -0.1071
  835MPD2    C312328   3.782   3.283  11.124  0.3673 -0.3083 -0.4003
  835MPD2    C412329   3.877   3.384  11.119  0.0465 -0.1443  0.0594
  835MPD2    C512330   3.853   3.502  11.058  0.9193  0.3236  0.2125
  835MPD2     H12331   3.576   3.228  11.066  0.5090  0.7772 -1.0871
  835MPD2    H112332   3.977   3.372  11.159  0.6398 -0.3659 -1.4993
  835MPD2    H212333   3.688   3.622  10.974 -2.2572 -0.8724  0.6352
  835MPD2    H312334   3.928   3.579  11.049 -0.0382  1.3288  0.8969
  835MPD2     N12335   3.810   3.161  11.186  0.0109 -0.2799  0.7511
  835MPD2    H512336   3.907   3.143  11.211  0.1256  0.0800  0.5724
  835MPD2    N112337   3.501   3.436  10.946 -0.0769 -0.0744 -0.3307
  835MPD2    H712338   3.464   3.343  10.933 -2.0195  0.6332  0.1458
  836MPD2     C12339   3.293   2.724  11.507 -0.2172 -0.3073 -0.3774
  836MPD2    C112340   3.419   2.691  11.559 -0.0428 -0.1949  0.1392
  836MPD2    C212341   3.424   2.652  11.691  0.3420 -0.1526  0.2677
  836MPD2    C312342   3.308   2.659  11.773  0.0530  0.1604 -0.2086
  836MPD2    C412343   3.190   2.700  11.712  0.2076 -0.1673  0.0647
  836MPD2    C512344   3.182   2.734  11.582  0.4239 -0.1548 -0.0015
  836MPD2     H12345   3.519   2.618  11.731 -0.0393  1.3544  2.4248
  836MPD2    H112346   3.099   2.713  11.770 -0.4382  1.7854 -1.3781
  836MPD2    H212347   3.281   2.763  11.406 -1.5152 -1.0953 -0.5202
  836MPD2    H312348   3.092   2.766  11.530  0.8439 -1.7551 -1.7103
  836MPD2     N12349   3.296   2.621  11.906 -0.4651  0.4996 -0.2315
  836MPD2    H512350   3.209   2.645  11.952  1.4176  2.4493  2.3001
  836MPD2    N112351   3.530   2.716  11.474  0.8670  0.5157 -0.2075
  836MPD2    H712352   3.519   2.754  11.380 -0.5829 -1.3683 -0.8174
  837MPD2     C12353   2.360   2.988  10.437 -0.0870 -0.0903 -0.4459
  837MPD2    C112354   2.285   3.045  10.339 -0.8482 -0.9205 -0.5174
  837MPD2    C212355   2.279   3.183  10.341  0.1298  0.1930 -0.9946
  837MPD2    C312356   2.325   3.270  10.440  0.1415  0.0187  0.6582
  837MPD2    C412357   2.403   3.212  10.534 -0.3203 -0.2362  0.1644
  837MPD2    C512358   2.407   3.071  10.535 -0.3062  1.1546  0.0971
  837MPD2     H12359   2.218   3.227  10.263 -0.6964  0.9996  0.1142
  837MPD2    H112360   2.452   3.273  10.610 -3.4149  1.8700  0.4594
  837MPD2    H212361   2.370   2.880  10.444  1.5556  0.1209  0.6524
  837MPD2    H312362   2.471   3.028  10.612 -0.9381  0.2012  0.0822
  837MPD2     N12363   2.275   3.400  10.442 -0.2538 -0.0558  0.1309
  837MPD2    H512364   2.222   3.430  10.361  1.4669  0.2878 -0.8749
  837MPD2    N112365   2.214   2.977  10.243 -0.2892 -0.5697  0.6966
  837MPD2    H712366   2.165   3.040  10.179 -2.0991 -0.9618  1.7063
  838MPD2     C12367   0.670   1.109  11.985 -0.3276 -0.6210 -0.3223
  838MPD2    C112368   0.552   1.127  11.914 -0.0942  0.2659 -0.0517
  838MPD2    C212369   0.432   1.064  11.941  0.1239  0.4228 -0.1868
  838MPD2    C312370   0.439   0.961  12.029 -0.5022  0.6860  0.4521
  838MPD2    C412371   0.554   0.929  12.099  0.0880 -0.3296 -0.2186
  838MPD2    C512372   0.670   1.004  12.077  0.1392 -1.1611 -0.2902
  838MPD2     H12373   0.338   1.081  11.890  0.4149 -0.8984 -1.1565
  838MPD2    H112374   0.566   0.841  12.162  1.3771  0.8586  1.1800
  838MPD2    H212375   0.761   1.166  11.977 -0.1061 -1.0995 -1.1714
  838MPD2    H312376   0.760   0.984  12.135 -0.3351 -2.0201  0.1579
  838MPD2     N12377   0.314   0.896  12.041 -0.2356  0.3859 -0.2191
  838MPD2    H512378   0.229   0.934  12.001  2.5509  2.9881 -3.5564
  838MPD2    N112379   0.549   1.210  11.801 -0.5258 -0.8665  0.3998
  838MPD2    H712380   0.463   1.231  11.752  0.2200  0.9125 -0.1740
  839MPD2     C12381   0.418   0.590  11.680  0.3421 -0.5689  0.3035
  839MPD2    C112382   0.429   0.614  11.541  0.3772  0.0345  0.1708
  839MPD2    C212383   0.496   0.732  11.498  0.2796 -0.5840 -0.5613
  839MPD2    C312384   0.557   0.812  11.590 -0.5828  0.2416 -0.6108
  839MPD2    C412385   0.555   0.780  11.723  0.3452  0.1145 -0.3356
  839MPD2    C512386   0.495   0.661  11.766 -0.0697 -0.5244 -0.1028
  839MPD2     H12387   0.498   0.754  11.392 -2.9387  0.7614 -0.3357
  839MPD2    H112388   0.609   0.839  11.797 -1.8931 -0.0815  1.4511
  839MPD2    H212389   0.364   0.503  11.716 -2.1132  0.2216 -1.4383
  839MPD2    H312390   0.483   0.628  11.869 -2.7283 -1.0533 -0.5774
  839MPD2     N12391   0.599   0.939  11.557 -0.0687  0.0726 -0.0065
  839MPD2    H512392   0.633   0.996  11.633  0.4944 -2.2975  1.5364
  839MPD2    N112393   0.357   0.542  11.433  0.3891  0.4828  0.4815
  839MPD2    H712394   0.381   0.556  11.336  1.1851 -0.3270  0.5579
  840MPD2     C12395   0.894   3.706  10.188 -0.5238  0.0055 -0.4720
  840MPD2    C112396   0.873   3.583  10.254 -0.6117 -0.4746  0.3462
  840MPD2    C212397   0.941   3.567  10.377 -0.3972  0.1485 -0.5555
  840MPD2    C312398   1.021   3.666  10.436 -0.3633  0.3909 -0.6099
  840MPD2    C412399   1.027   3.788  10.367 -0.3073  0.2784 -0.7964
  840MPD2    C512400   0.977   3.799  10.243 -0.0492  0.9541 -1.3250
  840MPD2     H12401   0.921   3.474  10.430 -1.3022  0.2659 -0.6878
  840MPD2    H112402   1.093   3.865  10.407  0.8305 -1.7319  1.1805
  840MPD2    H212403   0.857   3.727  10.088  0.7262 -1.0792 -1.1657
  840MPD2    H312404   0.980   3.897  10.195  0.2101  1.2451 -0.7153
  840MPD2     N12405   1.094   3.649  10.555 -0.2960 -0.0753 -0.1705
  840MPD2    H512406   1.140   3.729  10.598  0.9694 -0.7043 -0.3657
  840MPD2    N112407   0.788   3.485  10.202  0.3223 -0.1538  0.2200
  840MPD2    H712408   0.738   3.523  10.123  1.8914 -0.4084 -0.8868
  841MPD2     C12409   1.177   3.597  14.070 -0.0654 -0.2299 -0.1861
  841MPD2    C112410   1.229   3.481  14.121 -0.2637 -0.5319  0.5098
  841MPD2    C212411   1.336   3.479  14.209  0.0693 -0.2089 -0.2799
  841MPD2    C312412   1.386   3.596  14.256  0.1805 -0.5262 -0.7600
  841MPD2    C412413   1.336   3.715  14.195  0.2382 -0.7941  0.8475
  841MPD2    C512414   1.235   3.713  14.110 -0.5250  0.0601  0.3390
  841MPD2     H12415   1.390   3.390  14.240  2.1268  0.6840 -1.2299
  841MPD2    H112416   1.363   3.812  14.236  0.6014 -0.8004  0.6238
  841MPD2    H212417   1.100   3.597  13.995  1.1016 -1.2973 -1.3875
  841MPD2    H312418   1.198   3.807  14.072 -1.7862  0.4364  2.4588
  841MPD2     N12419   1.480   3.597  14.364 -0.2915  0.2747  0.5725
  841MPD2    H512420   1.492   3.507  14.408  1.0936  0.3674  0.3745
  841MPD2    N112421   1.168   3.365  14.069 -0.5438  0.6211 -0.3614
  841MPD2    H712422   1.099   3.381  13.996  0.3340 -1.8790 -1.7523
  842MPD2     C12423   1.003   3.720  16.509  0.3883 -0.9086 -1.2701
  842MPD2    C112424   1.093   3.817  16.545  1.0235 -0.3642 -0.1460
  842MPD2    C212425   1.174   3.797  16.665 -0.3572  0.2717  0.0936
  842MPD2    C312426   1.140   3.692  16.747  0.2555 -0.3435 -0.1146
  842MPD2    C412427   1.037   3.613  16.712 -0.0102  0.5376  0.0683
  842MPD2    C512428   0.971   3.618  16.593  0.0344 -0.4051 -0.1838
  842MPD2     H12429   1.254   3.863  16.695  1.9412 -3.5276  2.3610
  842MPD2    H112430   1.005   3.527  16.771  1.2251  2.3383  3.4051
  842MPD2    H212431   0.946   3.728  16.417 -2.1042  1.4635  0.4513
  842MPD2    H312432   0.892   3.545  16.579  0.4685 -1.0742  0.7863
  842MPD2     N12433   1.204   3.661  16.871 -0.4649 -0.1122 -0.4698
  842MPD2    H512434   1.161   3.595  16.935 -2.0624 -0.2567 -1.7065
  842MPD2    N112435   1.116   3.925  16.454  0.6790  0.0132  0.0154
  842MPD2    H712436   1.047   3.929  16.379  0.7539  0.0010 -0.0537
  843MPD2     C12437   3.721   0.090  17.671 -0.0684  0.0102  0.3260
  843MPD2    C112438   3.808   0.058   0.023  1.0854  0.1732 -0.6361
  843MPD2    C212439   3.911   0.148   0.045 -0.6206 -0.4247  0.0826
  843MPD2    C312440   3.929   0.271  17.719  0.0137  0.5014 -0.0402
  843MPD2    C412441   3.833   0.298  17.627 -0.7101  0.6935  0.5105
  843MPD2    C512442   3.728   0.212  17.606 -0.0283 -0.3108 -0.6951
  843MPD2     H12443   3.981   0.128   0.125 -0.5564  0.9625  0.3746
  843MPD2    H112444   3.826   0.394  17.576 -1.3522  0.2524 -0.2345
  843MPD2    H212445   3.654   0.012  17.635  0.2869 -0.3026  0.3422
  843MPD2    H312446   3.649   0.239  17.536 -1.2854  0.7727  1.1487
  843MPD2     N12447   4.029   0.364  17.743  0.3105  0.3936  0.4602
  843MPD2    H512448   4.020   0.454  17.697 -0.4631 -0.4261 -0.9962
  843MPD2    N112449   3.786   4.666   0.083  0.3157  0.1657  0.3212
  843MPD2    H712450   3.698   4.619   0.063  1.6266 -1.4618 -1.6930
  844MPD2     C12451   2.152   2.828  16.457  0.0451 -0.0236  0.1321
  844MPD2    C112452   2.142   2.965  16.446  0.2848 -0.1458 -0.1082
  844MPD2    C212453   2.245   3.046  16.502 -0.2321  0.5267 -0.4392
  844MPD2    C312454   2.356   2.991  16.571  0.1276  0.1833  0.4520
  844MPD2    C412455   2.368   2.852  16.570  0.6640  0.8541  0.4983
  844MPD2    C512456   2.266   2.778  16.515 -0.1245 -0.4971 -0.4287
  844MPD2     H12457   2.243   3.153  16.490 -1.2335  0.4555 -0.8680
  844MPD2    H112458   2.447   2.791  16.611 -1.2679 -0.4851  2.2091
  844MPD2    H212459   2.083   2.755  16.416  1.1748 -1.1217  0.1689
  844MPD2    H312460   2.277   2.670  16.508 -1.1745 -0.6625  0.6999
  844MPD2     N12461   2.455   3.072  16.637  0.4849 -0.2122  0.0633
  844MPD2    H512462   2.528   3.025  16.688 -2.7520 -1.9976  3.0414
  844MPD2    N112463   2.032   3.018  16.370 -0.5347  0.2680  0.4159
  844MPD2    H712464   2.038   3.110  16.328 -0.8733  0.7744  1.4801
  845MPD2     C12465   2.570   4.065  16.808  0.3535  0.1167  0.4202
  845MPD2    C112466   2.573   3.981  16.920  0.2211  0.4077 -0.0969
  845MPD2    C212467   2.590   3.849  16.892  0.3662  0.2044 -0.1158
  845MPD2    C312468   2.604   3.798  16.768  0.0813  0.5610  0.3475
  845MPD2    C412469   2.597   3.880  16.664 -0.0097  0.6695 -0.1947
  845MPD2    C512470   2.581   4.013  16.686 -0.3100  0.5198  0.0603
  845MPD2     H12471   2.595   3.782  16.977 -0.8069  0.8867  0.4911
  845MPD2    H112472   2.612   3.852  16.560 -0.5024  0.2577 -0.1556
  845MPD2    H212473   2.555   4.172  16.817  0.2945  0.0524  1.0708
  845MPD2    H312474   2.581   4.076  16.599 -1.6227  0.3437 -0.0621
  845MPD2     N12475   2.627   3.660  16.749 -0.2506  0.2060  0.2009
  845MPD2    H512476   2.604   3.620  16.658 -0.0211  0.8058 -0.1219
  845MPD2    N112477   2.571   4.041  17.052  0.2156  0.1981  0.5373
  845MPD2    H712478   2.580   4.141  17.036  2.5072 -0.1033 -0.0232
  846MPD2     C12479   3.639   4.106  13.731 -0.1578 -0.6796 -0.4184
  846MPD2    C112480   3.639   4.241  13.744 -0.1942  0.1530 -0.5553
  846MPD2    C212481   3.669   4.292  13.879  0.3255  0.4680 -0.0372
  846MPD2    C312482   3.700   4.204  13.985  0.4702 -0.4281 -0.3750
  846MPD2    C412483   3.693   4.067  13.959 -0.1926 -0.4115 -0.3211
  846MPD2    C512484   3.659   4.018  13.838  0.9933  0.2183 -0.3610
  846MPD2     H12485   3.675   4.398  13.901  1.0314  0.3516  0.3405
  846MPD2    H112486   3.720   3.996  14.036  1.4451  1.0977  0.4974
  846MPD2    H212487   3.613   4.056  13.638  0.2615  0.0608 -0.9301
  846MPD2    H312488   3.649   3.911  13.827  1.7219  0.2276 -1.0942
  846MPD2     N12489   3.722   4.251  14.116 -0.1456 -0.0999  0.7216
  846MPD2    H512490   3.758   4.189  14.188  1.2851  0.9541  0.9171
  846MPD2    N112491   3.615   4.325  13.627  0.4441 -0.5377 -0.1334
  846MPD2    H712492   3.570   4.282  13.547 -2.3545  1.7938  0.1629
  847MPD2     C12493   3.603   0.865  14.003 -0.5714  0.0476 -0.2914
  847MPD2    C112494   3.655   0.780  14.101 -0.1300  0.0656 -1.0650
  847MPD2    C212495   3.762   0.697  14.056 -0.0133  0.0209  0.4788
  847MPD2    C312496   3.815   0.702  13.932 -0.3660 -0.6636  0.6444
  847MPD2    C412497   3.761   0.789  13.842  0.0225  0.4090  1.0289
  847MPD2    C512498   3.658   0.868  13.873  0.1745 -0.1522 -0.7059
  847MPD2     H12499   3.809   0.632  14.128 -0.9134 -1.4991 -0.2860
  847MPD2    H112500   3.801   0.793  13.741 -1.0730  1.4814  0.6245
  847MPD2    H212501   3.520   0.928  14.031 -2.4225 -1.1278 -3.1121
  847MPD2    H312502   3.618   0.932  13.795  1.0263  2.1534  0.7457
  847MPD2     N12503   3.923   0.623  13.901 -0.0562 -0.4854 -0.6341
  847MPD2    H512504   3.963   0.575  13.981  1.2723  1.1617 -0.3021
  847MPD2    N112505   3.610   0.774  14.236  0.8333  0.1171 -0.2810
  847MPD2    H712506   3.648   0.698  14.292 -0.1764  0.4423  0.8468
  848MPD2     C12507   1.955   3.601  16.161  0.6455 -1.0548  0.6291
  848MPD2    C112508   1.981   3.643  16.295 -0.0569  0.3959 -0.1551
  848MPD2    C212509   2.062   3.755  16.300 -0.4747 -0.0936 -0.0334
  848MPD2    C312510   2.112   3.823  16.189  0.4609  1.0410  0.1226
  848MPD2    C412511   2.088   3.778  16.067 -0.1012  0.8062 -0.3771
  848MPD2    C512512   2.015   3.661  16.052 -0.3887  0.3750 -0.1259
  848MPD2     H12513   2.090   3.790  16.398 -0.2970  0.7670 -0.3889
  848MPD2    H112514   2.124   3.820  15.974  3.3940  0.7144  0.9379
  848MPD2    H212515   1.901   3.508  16.148  0.5008 -0.9239  0.3057
  848MPD2    H312516   1.990   3.619  15.956 -1.5124  1.6238 -0.3881
  848MPD2     N12517   2.176   3.950  16.193  0.0305  0.1056  0.0649
  848MPD2    H512518   2.198   3.989  16.102 -0.8770 -3.9472 -1.9157
  848MPD2    N112519   1.945   3.584  16.415 -0.0239  0.2015  0.3215
  848MPD2    H712520   1.986   3.623  16.499  1.0468  1.3115 -0.7158
  849MPD2     C12521   1.106   3.928  13.835  0.3631 -0.9608 -0.2717
  849MPD2    C112522   1.219   3.866  13.798 -0.3315  0.1271  0.3965
  849MPD2    C212523   1.339   3.912  13.843 -0.4112 -0.1750 -0.5466
  849MPD2    C312524   1.347   4.013  13.938  0.0286  0.3204 -0.1406
  849MPD2    C412525   1.233   4.080  13.967  0.5793 -0.2850 -0.3872
  849MPD2    C512526   1.110   4.040  13.918 -0.3115 -0.4882 -0.2310
  849MPD2     H12527   1.427   3.858  13.808  0.8060 -0.3963  2.8845
  849MPD2    H112528   1.232   4.142  14.055 -0.8506 -1.5121  0.4623
  849MPD2    H212529   1.009   3.885  13.816  0.6176 -1.7565  0.2468
  849MPD2    H312530   1.020   4.092  13.949 -1.0974 -1.2248 -1.2996
  849MPD2     N12531   1.475   4.037  14.000  0.7103  0.4621  0.1745
  849MPD2    H512532   1.551   3.977  13.971 -0.6462 -0.9966 -0.4153
  849MPD2    N112533   1.216   3.748  13.723  0.6621 -1.1339  0.1277
  849MPD2    H712534   1.308   3.714  13.698  1.4279 -1.3703  3.2649
  850MPD2     C12535   3.937   1.896  14.673  0.3635  0.7120 -1.0881
  850MPD2    C112536   3.947   1.848  14.806  0.1051  0.3700  0.6221
  850MPD2    C212537   4.067   1.862  14.870 -0.8308 -0.2961 -0.2793
  850MPD2    C312538   4.171   1.926  14.815 -0.4491  0.2495  0.1214
  850MPD2    C412539   4.159   1.991  14.692  0.2544 -0.0926  0.1206
  850MPD2    C512540   4.043   1.965  14.617 -0.6008  0.3729 -0.2004
  850MPD2     H12541   4.085   1.827  14.971 -0.9123 -1.9720 -0.8517
  850MPD2    H112542   4.239   2.046  14.643 -0.0482  0.9496  0.8080
  850MPD2    H212543   3.855   1.878  14.605 -2.5661  2.6867  1.9245
  850MPD2    H312544   4.042   2.000  14.515  0.8761  0.9785 -0.0011
  850MPD2     N12545   4.304   1.917  14.870  0.0576  0.0014  0.5520
  850MPD2    H512546   4.366   1.990  14.837 -1.2852  0.8635 -0.0452
  850MPD2    N112547   3.848   1.772  14.869 -0.0161  0.3042 -0.1961
  850MPD2    H712548   3.865   1.730  14.960 -1.9497  1.8683  0.8805
  851MPD2     C12549   3.996   1.415  15.285 -0.2887  0.0374 -0.4484
  851MPD2    C112550   3.917   1.336  15.205 -0.0649  0.2961  0.5270
  851MPD2    C212551   3.948   1.205  15.191 -0.5847 -0.5974 -0.4856
  851MPD2    C312552   4.073   1.153  15.238  0.0309  1.2266  0.9159
  851MPD2    C412553   4.147   1.230  15.318 -0.2376  0.6736 -0.4381
  851MPD2    C512554   4.105   1.358  15.352  0.4473 -0.8914  0.5482
  851MPD2     H12555   3.885   1.142  15.130  0.9775 -1.3042 -1.3411
  851MPD2    H112556   4.245   1.195  15.348 -0.2882 -2.1687 -3.6000
  851MPD2    H212557   3.984   1.521  15.298  0.5027  0.2580 -1.5084
  851MPD2    H312558   4.160   1.423  15.420 -0.2656 -0.3756  0.6281
  851MPD2     N12559   4.107   1.025  15.196 -0.5641  0.3387  0.1180
  851MPD2    H512560   4.041   0.984  15.131 -0.9797 -1.4994  1.7066
  851MPD2    N112561   3.824   1.399  15.126 -0.0604  0.7666  0.0999
  851MPD2    H712562   3.827   1.500  15.113  0.4272  0.6218 -0.9950
  852MPD2     C12563   3.406   0.001   9.523 -0.5026 -0.0993  0.5692
  852MPD2    C112564   3.467   0.125   9.509  0.4971  0.1353  0.5329
  852MPD2    C212565   3.586   0.144   9.574 -0.7071  0.5264  0.1510
  852MPD2    C312566   3.647   0.037   9.647 -0.5945 -0.1978 -0.3754
  852MPD2    C412567   3.578   4.654   9.661 -0.1340 -0.0407  0.0543
  852MPD2    C512568   3.456   4.640   9.598  0.4892  0.1204 -0.1462
  852MPD2     H12569   3.635   0.240   9.569 -0.3913  0.5441  3.6266
  852MPD2    H112570   3.615   4.567   9.714  1.2372 -0.4728 -1.6139
  852MPD2    H212571   3.311   4.726   9.473  0.1189 -2.1926 -0.1086
  852MPD2    H312572   3.393   4.557   9.627  1.1418 -0.3798 -0.1327
  852MPD2     N12573   3.757   0.071   9.722 -0.1453  0.1131  0.1616
  852MPD2    H512574   3.800   0.161   9.705  0.2437  0.0429  0.7842
  852MPD2    N112575   3.401   0.224   9.432 -0.2658  0.7559 -0.1193
  852MPD2    H712576   3.313   0.193   9.390  0.1141 -0.9052  0.2957
  853MPD2     C12577   0.239   3.985  12.395  0.0240  1.1572  0.7598
  853MPD2    C112578   0.188   4.109  12.378 -0.3814 -0.0027 -0.0097
  853MPD2    C212579   0.180   4.161  12.251  0.0824  0.2330  0.0090
  853MPD2    C312580   0.218   4.086  12.138 -0.1527  0.3468  0.4467
  853MPD2    C412581   0.258   3.957  12.152 -0.3094 -0.0166  0.6916
  853MPD2    C512582   0.275   3.913  12.283  0.5810  0.0955 -0.3574
  853MPD2     H12583   0.148   4.262  12.227  1.2121 -0.0613 -2.8033
  853MPD2    H112584   0.282   3.892  12.069 -1.1085  0.1606  0.3262
  853MPD2    H212585   0.257   3.947  12.494 -1.4841 -1.6040 -0.0390
  853MPD2    H312586   0.313   3.814  12.306 -1.8187 -0.6990  0.2025
  853MPD2     N12587   0.231   4.150  12.011 -0.6925  0.9780 -0.4351
  853MPD2    H512588   0.256   4.080  11.943 -0.4127  1.0456 -0.3997
  853MPD2    N112589   0.163   4.176  12.497 -0.3598  0.5149 -0.5383
  853MPD2    H712590   0.199   4.130  12.580  0.9252 -1.1877 -2.0387
  854MPD2     C12591   2.226   4.038  13.019  0.3551 -0.1628 -0.6929
  854MPD2    C112592   2.295   3.997  12.910 -0.9319  0.3377 -0.0610
  854MPD2    C212593   2.431   3.964  12.915 -0.3040  0.1798 -0.4095
  854MPD2    C312594   2.495   3.979  13.036 -0.0273 -0.0325 -0.2579
  854MPD2    C412595   2.428   4.010  13.149 -0.9383  0.4571 -0.4475
  854MPD2    C512596   2.294   4.047  13.139 -0.0250  0.4984 -0.8173
  854MPD2     H12597   2.483   3.924  12.829 -0.8882  1.0595 -1.1751
  854MPD2    H112598   2.477   4.022  13.245  0.1731 -0.7356 -0.8591
  854MPD2    H212599   2.125   4.075  13.011  1.0623  1.3826 -2.4738
  854MPD2    H312600   2.236   4.097  13.216  1.1866 -0.1654  0.5140
  854MPD2     N12601   2.630   3.943  13.060  0.2778 -0.5051 -0.6356
  854MPD2    H512602   2.670   3.934  13.153 -0.1541  0.5968 -0.3466
  854MPD2    N112603   2.226   4.005  12.789 -0.2528  0.5146 -0.5245
  854MPD2    H712604   2.134   4.047  12.794  0.6669  2.2315  2.1515
  855MPD2     C12605   3.166   4.034  13.709  0.5009  0.1061  0.5302
  855MPD2    C112606   3.128   3.901  13.689 -0.6932 -0.4791  0.2190
  855MPD2    C212607   3.090   3.840  13.572  0.0458 -0.0125  0.3079
  855MPD2    C312608   3.085   3.929  13.467  0.1686  0.0125 -0.5381
  855MPD2    C412609   3.117   4.062  13.482 -0.7182 -0.4680  0.4585
  855MPD2    C512610   3.155   4.116  13.604 -0.3300 -0.2835  0.5767
  855MPD2     H12611   3.056   3.737  13.573  0.8865 -0.3121 -2.6622
  855MPD2    H112612   3.104   4.125  13.396  3.7642  0.2554  0.3171
  855MPD2    H212613   3.189   4.082  13.804  0.0712 -0.0214  0.7012
  855MPD2    H312614   3.179   4.222  13.607 -1.1000 -0.0846 -0.3128
  855MPD2     N12615   3.039   3.885  13.339 -0.6209 -0.0873 -0.3775
  855MPD2    H512616   2.998   3.955  13.278 -1.5708  0.7723  1.2230
  855MPD2    N112617   3.114   3.824  13.802 -0.3668 -0.2353  0.4899
  855MPD2    H712618   3.058   3.739  13.793  0.6714 -1.0873  2.1877
  856MPD2     C12619   0.079   0.183  13.511 -0.2531 -0.1820  0.4061
  856MPD2    C112620   0.086   0.324  13.527 -0.0546  0.0435  0.1892
  856MPD2    C212621   4.706   0.401  13.504  0.2777 -0.0310 -0.6170
  856MPD2    C312622   4.586   0.348  13.447  0.3879  0.3543 -0.6543
  856MPD2    C412623   4.588   0.209  13.420 -0.5272  0.2831 -0.2401
  856MPD2    C512624   4.701   0.137  13.452 -0.4750 -0.7428  0.1111
  856MPD2     H12625   4.697   0.506  13.526  0.6295  0.2851 -1.9454
  856MPD2    H112626   4.494   0.165  13.388  0.1311 -0.3391 -1.3222
  856MPD2    H212627   0.159   0.115  13.538  0.1228 -0.6981 -2.0040
  856MPD2    H312628   4.706   0.033  13.423  0.7649 -0.0368 -2.2763
  856MPD2     N12629   4.462   0.417  13.431 -0.2240 -0.3627  0.2643
  856MPD2    H512630   4.380   0.361  13.408 -1.7448  1.9694 -0.0689
  856MPD2    N112631   0.198   0.407  13.567 -0.0764 -1.0128 -0.4765
  856MPD2    H712632   0.184   0.508  13.568  0.0837 -1.0028  1.0236
  857MPD2     C12633   1.496   2.339  12.743  0.2245 -0.1095  0.6977
  857MPD2    C112634   1.536   2.331  12.870 -0.1785  0.0772 -0.5532
  857MPD2    C212635   1.624   2.429  12.913  0.0227  0.3760 -0.4243
  857MPD2    C312636   1.667   2.529  12.824  0.1559 -0.4550 -0.0074
  857MPD2    C412637   1.614   2.530  12.695  0.7357 -0.4769 -0.1092
  857MPD2    C512638   1.526   2.435  12.654  0.0226 -0.8085  0.0193
  857MPD2     H12639   1.655   2.432  13.017 -1.7639  2.8029  0.0450
  857MPD2    H112640   1.621   2.608  12.621  0.0382 -0.8386 -0.5617
  857MPD2    H212641   1.443   2.257  12.698 -0.2137  1.1274 -1.0161
  857MPD2    H312642   1.484   2.429  12.555 -0.4394  3.5460 -0.0495
  857MPD2     N12643   1.754   2.632  12.877  0.3563 -0.3705 -0.4157
  857MPD2    H512644   1.783   2.629  12.975  0.2697 -0.0253 -0.3803
  857MPD2    N112645   1.498   2.216  12.940 -0.1833  1.0418 -0.0310
  857MPD2    H712646   1.430   2.167  12.884 -0.2937 -0.3870  1.3671
  858MPD2     C12647   2.554   1.817  16.317  0.5199 -0.1993  0.6422
  858MPD2    C112648   2.549   1.688  16.351 -0.8411 -0.4978 -0.0484
  858MPD2    C212649   2.582   1.638  16.479 -0.1520 -0.2330 -0.4180
  858MPD2    C312650   2.594   1.736  16.580 -0.4880  0.1103  0.2306
  858MPD2    C412651   2.591   1.870  16.543  0.0228  0.3621 -0.2888
  858MPD2    C512652   2.587   1.908  16.409 -0.2966  0.2846 -0.3233
  858MPD2     H12653   2.589   1.531  16.495 -1.0483 -0.6029 -2.5338
  858MPD2    H112654   2.597   1.947  16.618  0.8146  1.0258 -1.0389
  858MPD2    H212655   2.546   1.853  16.215  1.1251 -0.8028  0.3819
  858MPD2    H312656   2.588   2.013  16.379 -0.1666  0.3602 -0.0528
  858MPD2     N12657   2.604   1.704  16.714 -0.0817  0.5245 -0.9500
  858MPD2    H512658   2.587   1.777  16.782 -1.2509 -0.0413 -0.6271
  858MPD2    N112659   2.515   1.613  16.240 -0.2539 -0.3018  0.4953
  858MPD2    H712660   2.501   1.661  16.152  0.4998 -0.9095  0.0467
  859MPD2     C12661   1.035   3.598  15.840  0.1357  0.4117 -0.5199
  859MPD2    C112662   1.060   3.614  15.706 -0.0007  0.0371 -0.5131
  859MPD2    C212663   1.088   3.499  15.639 -0.0290  0.3137 -0.0754
  859MPD2    C312664   1.084   3.374  15.700 -0.6191 -0.7367 -0.0083
  859MPD2    C412665   1.066   3.361  15.832  0.5692 -0.4848  0.0601
  859MPD2    C512666   1.040   3.474  15.901 -0.3879  0.5673  0.7653
  859MPD2     H12667   1.102   3.497  15.531 -1.4747  0.4414 -0.2576
  859MPD2    H112668   1.074   3.265  15.880 -1.6477 -0.9544 -0.5072
  859MPD2    H212669   1.017   3.680  15.909 -0.5485 -0.6772  0.5962
  859MPD2    H312670   1.030   3.469  16.009  1.4038  2.0087  1.0024
  859MPD2     N12671   1.125   3.259  15.635  0.6426 -0.5682 -0.6533
  859MPD2    H512672   1.131   3.179  15.697  3.8066 -0.0049 -0.2299
  859MPD2    N112673   1.077   3.739  15.650  0.0854 -0.1277  0.0256
  859MPD2    H712674   1.069   3.811  15.721 -1.3324  0.3202 -0.6009
  860MPD2     C12675   3.156   3.997  11.458  0.2633  0.3550 -0.8746
  860MPD2    C112676   3.211   3.998  11.588 -0.1679  0.2928  0.1961
  860MPD2    C212677   3.163   3.904  11.675  0.1562  0.2758  0.1790
  860MPD2    C312678   3.067   3.812  11.633  0.1784  0.6965 -0.2691
  860MPD2    C412679   3.029   3.806  11.504 -0.3091  0.2967  0.1568
  860MPD2    C512680   3.062   3.909  11.420  0.1908 -0.7207  0.1775
  860MPD2     H12681   3.201   3.905  11.777 -0.2255  1.5714  0.3019
  860MPD2    H112682   2.958   3.731  11.472  0.0556  0.3656 -0.8348
  860MPD2    H212683   3.181   4.072  11.384 -2.1241  2.0574  0.0711
  860MPD2    H312684   3.025   3.921  11.319  2.6873  1.0379 -0.5413
  860MPD2     N12685   3.010   3.724  11.734 -0.4516  0.1584 -0.1753
  860MPD2    H512686   3.028   3.753  11.829  2.1606 -1.7897 -0.1032
  860MPD2    N112687   3.307   4.093  11.634 -0.5035 -0.0814  0.6805
  860MPD2    H712688   3.343   4.087  11.729  0.1140 -0.2694  0.4342
  861MPD2     C12689   1.933   1.920  11.105  0.6602 -0.5717  0.2535
  861MPD2    C112690   1.974   2.049  11.074 -0.3761  0.5313  0.1093
  861MPD2    C212691   1.921   2.113  10.961  0.2874  0.3118 -0.4724
  861MPD2    C312692   1.842   2.045  10.873  0.2852  0.3424 -0.4654
  861MPD2    C412693   1.811   1.915  10.900  0.1272 -0.2255  0.3980
  861MPD2    C512694   1.845   1.860  11.018 -0.3329 -0.0061 -0.0709
  861MPD2     H12695   1.947   2.217  10.944  2.1844 -0.0688  0.0388
  861MPD2    H112696   1.747   1.855  10.836  1.2236  0.3654 -1.2608
  861MPD2    H212697   1.949   1.870  11.200  1.6419 -2.1945 -0.7661
  861MPD2    H312698   1.809   1.760  11.038  2.0888 -1.1901 -1.6093
  861MPD2     N12699   1.796   2.089  10.743 -0.2466  0.2396  0.6095
  861MPD2    H512700   1.742   2.026  10.684  1.0496  1.1754 -1.5467
  861MPD2    N112701   2.046   2.135  11.162  0.7907  0.4011  0.3291
  861MPD2    H712702   2.044   2.231  11.129  1.7518  0.6513  0.9795
  862MPD2     C12703   1.409   1.949  10.116  0.3821  0.3991  0.7132
  862MPD2    C112704   1.339   2.003  10.216  0.6474 -0.9539 -0.2199
  862MPD2    C212705   1.203   1.999  10.209  0.5550 -0.1154 -0.3543
  862MPD2    C312706   1.140   1.927  10.108  0.2998  0.0793 -0.0300
  862MPD2    C412707   1.213   1.865  10.005 -0.1015  0.3623  0.3438
  862MPD2    C512708   1.345   1.878  10.017 -0.2819  0.4275 -0.1975
  862MPD2     H12709   1.147   2.056  10.284  0.8015 -0.7599  0.3188
  862MPD2    H112710   1.168   1.808   9.924  1.4834  1.1419 -1.0809
  862MPD2    H212711   1.516   1.961  10.099  0.3500  1.6356  1.4029
  862MPD2    H312712   1.416   1.841   9.943 -1.6429  0.4411 -1.4970
  862MPD2     N12713   1.003   1.905  10.101  0.7284  0.0225  0.2227
  862MPD2    H512714   0.971   1.847  10.024  0.3603 -0.2868  0.6027
  862MPD2    N112715   1.403   2.073  10.316 -0.7101 -0.9461 -0.0840
  862MPD2    H712716   1.343   2.139  10.365  1.2277  0.5150  0.3314
  863MPD2     C12717   0.571   0.544  16.945 -0.5062 -0.2850  0.1046
  863MPD2    C112718   0.669   0.573  16.852 -0.0397 -0.0019  0.3661
  863MPD2    C212719   0.788   0.508  16.859  0.2129 -0.6719  0.7810
  863MPD2    C312720   0.814   0.411  16.954 -0.5514  0.2289 -0.7207
  863MPD2    C412721   0.719   0.393  17.054  0.1679 -0.1392 -0.0445
  863MPD2    C512722   0.602   0.464  17.046  0.0107 -0.4241  0.2676
  863MPD2     H12723   0.855   0.529  16.775 -2.6836 -0.2159 -1.4173
  863MPD2    H112724   0.740   0.345  17.149  2.6226 -1.0699 -1.0490
  863MPD2    H212725   0.469   0.580  16.937 -0.0666  0.7976 -0.6038
  863MPD2    H312726   0.536   0.448  17.130  0.3610 -0.8329  0.4629
  863MPD2     N12727   0.945   0.346  16.970 -0.3392 -0.7514  0.1735
  863MPD2    H512728   0.942   0.273  17.040 -2.5712  1.4604  2.3840
  863MPD2    N112729   0.635   0.657  16.749  0.1485  0.4862  0.1274
  863MPD2    H712730   0.545   0.701  16.767  0.2999  1.2678 -1.0074
  864MPD2     C12731   1.563   1.480  17.191 -0.4861 -0.8147  0.0088
  864MPD2    C112732   1.617   1.379  17.109 -0.2443  0.1660  0.0036
  864MPD2    C212733   1.694   1.423  17.004  0.4174 -0.0558  0.2538
  864MPD2    C312734   1.726   1.559  16.988  0.0653 -0.0656  0.1861
  864MPD2    C412735   1.684   1.657  17.081 -0.5404  0.2748  0.7816
  864MPD2    C512736   1.598   1.611  17.176  0.6453  0.3620  0.1910
  864MPD2     H12737   1.723   1.349  16.930  0.0599 -0.8544  0.9234
  864MPD2    H112738   1.708   1.762  17.079  2.7420 -0.5022 -0.6850
  864MPD2    H212739   1.500   1.451  17.274  0.2008 -0.2520  0.7277
  864MPD2    H312740   1.560   1.678  17.252  0.0159 -0.1270  0.3129
  864MPD2     N12741   1.791   1.604  16.874 -0.4240  0.0995 -0.6143
  864MPD2    H512742   1.831   1.697  16.874  1.5228 -0.7438  1.8266
  864MPD2    N112743   1.573   1.244  17.125  0.0547 -0.0526 -0.1300
  864MPD2    H712744   1.498   1.232  17.192  0.5119  0.0743  0.4094
  865MPD2     C12745   1.407   1.651  16.478  0.4311  0.0064 -0.9946
  865MPD2    C112746   1.528   1.667  16.408  0.6995  0.4168  0.2044
  865MPD2    C212747   1.612   1.763  16.447  0.1020 -0.0393  0.7556
  865MPD2    C312748   1.586   1.852  16.551  0.7584  0.0812  0.0124
  865MPD2    C412749   1.473   1.831  16.624 -0.7650  1.2591  0.0770
  865MPD2    C512750   1.387   1.729  16.587  0.2190 -0.1598 -0.0071
  865MPD2     H12751   1.690   1.789  16.376  0.4614 -1.8453  0.4797
  865MPD2    H112752   1.460   1.893  16.712  0.4680 -0.6357  1.5818
  865MPD2    H212753   1.333   1.573  16.461 -1.0220  1.3635 -0.8734
  865MPD2    H312754   1.299   1.706  16.645  0.6183 -0.6180  0.4246
  865MPD2     N12755   1.666   1.961  16.576  0.2339 -0.1095 -0.4022
  865MPD2    H512756   1.621   2.044  16.614 -0.7512 -0.2665 -1.2339
  865MPD2    N112757   1.550   1.578  16.302  0.3559  0.0476  0.3625
  865MPD2    H712758   1.492   1.495  16.297  1.5750 -0.7276 -0.5471
  866MPD2     C12759   2.473   2.663  11.210  0.4520  1.0351  0.5259
  866MPD2    C112760   2.417   2.540  11.179  0.2790 -0.5603  0.2955
  866MPD2    C212761   2.290   2.540  11.133  0.0484 -0.5001  0.2952
  866MPD2    C312762   2.216   2.655  11.108  0.0702  0.8131 -0.3243
  866MPD2    C412763   2.274   2.777  11.141 -0.7644  0.3561  0.5608
  866MPD2    C512764   2.398   2.776  11.193 -0.2401  0.1180 -0.1611
  866MPD2     H12765   2.241   2.448  11.106  0.8472 -1.1167  0.9666
  866MPD2    H112766   2.222   2.872  11.142  0.6438  1.1279  0.1728
  866MPD2    H212767   2.568   2.668  11.262  1.8810  1.6344 -2.0991
  866MPD2    H312768   2.431   2.870  11.236 -2.8895  0.0888  1.9302
  866MPD2     N12769   2.081   2.657  11.056 -0.3342 -0.3805  0.1243
  866MPD2    H512770   2.034   2.747  11.043 -1.4781 -0.8694  0.8219
  866MPD2    N112771   2.490   2.431  11.214  0.2064 -0.2362  0.0328
  866MPD2    H712772   2.584   2.448  11.248  0.4309  0.3156 -0.8553
  867MPD2     C12773   0.578   1.942  16.645 -0.5006 -0.2842  0.5741
  867MPD2    C112774   0.589   1.831  16.726 -0.6971 -0.2912 -0.2799
  867MPD2    C212775   0.682   1.833  16.825 -0.4169  0.3630  0.5629
  867MPD2    C312776   0.755   1.951  16.852  0.3607  0.7815  0.2628
  867MPD2    C412777   0.745   2.051  16.763 -0.1554 -0.2109  0.0126
  867MPD2    C512778   0.656   2.049  16.662  0.6428  0.0508  0.7182
  867MPD2     H12779   0.704   1.739  16.876 -1.3832 -1.5224 -2.5152
  867MPD2    H112780   0.794   2.147  16.777  3.4621 -2.3532  1.9589
  867MPD2    H212781   0.502   1.955  16.569 -0.1994  0.7984  0.4578
  867MPD2    H312782   0.647   2.137  16.599  2.6426 -0.4293 -0.2473
  867MPD2     N12783   0.846   1.975  16.958  0.2441  0.1776 -0.5903
  867MPD2    H512784   0.900   2.061  16.956  1.4222 -0.5548 -0.6496
  867MPD2    N112785   0.519   1.717  16.703 -0.1701  0.3759 -0.3154
  867MPD2    H712786   0.484   1.720  16.608  3.1386  2.8448 -1.4524
  868MPD2     C12787   1.604   0.713  13.026  0.0525 -0.0813  0.8096
  868MPD2    C112788   1.701   0.684  13.123  0.0833  0.3826  0.3308
  868MPD2    C212789   1.678   0.737  13.248 -0.4143 -0.1363  1.0405
  868MPD2    C312790   1.562   0.809  13.286  0.1214  0.2879  0.2663
  868MPD2    C412791   1.464   0.822  13.191 -0.3960 -0.0015  0.6603
  868MPD2    C512792   1.481   0.769  13.062  0.2800 -0.4265  1.1262
  868MPD2     H12793   1.752   0.730  13.327  1.1909  1.8377 -0.2989
  868MPD2    H112794   1.373   0.874  13.216 -1.6398 -2.0886  0.4691
  868MPD2    H212795   1.622   0.671  12.927  0.4185  1.4717  0.2310
  868MPD2    H312796   1.411   0.807  12.989  2.2486 -0.3623 -0.7402
  868MPD2     N12797   1.549   0.872  13.421  0.6043  0.2024 -0.2649
  868MPD2    H512798   1.622   0.853  13.488  1.6897  0.3115 -1.4147
  868MPD2    N112799   1.819   0.617  13.089  0.2878  0.2155 -0.1104
  868MPD2    H712800   1.830   0.589  12.992 -0.0365  0.7445 -0.2970
  869MPD2     C12801   3.564   3.837   0.324  0.1557  0.2219  0.0385
  869MPD2    C112802   3.444   3.825   0.388  0.0155 -0.2274 -0.7510
  869MPD2    C212803   3.445   3.818   0.526  0.5825  0.0283 -0.0617
  869MPD2    C312804   3.560   3.852   0.598  0.2566 -0.2653  0.1303
  869MPD2    C412805   3.677   3.859   0.530  0.4563  0.0083  0.1632
  869MPD2    C512806   3.684   3.843   0.393 -0.4557 -0.0305 -1.0158
  869MPD2     H12807   3.352   3.836   0.578  1.0456  1.5314  0.2614
  869MPD2    H112808   3.771   3.873   0.581 -0.0038  0.8415  0.7874
  869MPD2    H212809   3.554   3.838   0.216  1.0654 -1.6240 -0.0671
  869MPD2    H312810   3.779   3.862   0.344 -1.5282  1.8765 -2.4055
  869MPD2     N12811   3.564   3.871   0.733 -0.2588  0.3864 -0.1007
  869MPD2    H512812   3.654   3.881   0.778  0.3539  1.6750 -1.6322
  869MPD2    N112813   3.324   3.834   0.304 -0.1136  0.0300 -0.5626
  869MPD2    H712814   3.342   3.841   0.204 -3.1710  2.5249 -0.9451
  870MPD2     C12815   3.208   2.569   1.027  0.0055 -0.2833 -0.3448
  870MPD2    C112816   3.202   2.541   0.893 -0.2790 -0.0718  0.0215
  870MPD2    C212817   3.073   2.557   0.833 -0.4464 -0.2644  0.1378
  870MPD2    C312818   2.952   2.578   0.904 -0.1666 -0.3650 -0.1715
  870MPD2    C412819   2.970   2.599   1.042 -0.3845 -0.1743 -0.5151
  870MPD2    C512820   3.091   2.593   1.092 -0.4167 -0.3872  0.4513
  870MPD2     H12821   3.066   2.538   0.726 -0.0984  0.6897 -0.0499
  870MPD2    H112822   2.887   2.632   1.103  1.1024  0.5632  1.1132
  870MPD2    H212823   3.307   2.569   1.072 -0.6983  0.1535  1.1737
  870MPD2    H312824   3.102   2.618   1.196 -1.9567  0.2918  0.4504
  870MPD2     N12825   2.841   2.603   0.831 -0.0724 -0.2106  0.4162
  870MPD2    H512826   2.851   2.608   0.730 -3.0969  1.8133  0.2030
  870MPD2    N112827   3.321   2.512   0.821  0.2367 -0.5713 -0.2352
  870MPD2    H712828   3.397   2.501   0.887 -0.0433 -1.4196 -0.0638
  871MPD2     C12829   3.637   1.944  16.561  0.1812 -0.1520  0.3474
  871MPD2    C112830   3.711   1.951  16.677  1.0614 -0.4650  0.3426
  871MPD2    C212831   3.793   1.840  16.707  0.2090  0.4538 -0.0579
  871MPD2    C312832   3.807   1.734  16.626 -0.4630 -0.0703  0.4054
  871MPD2    C412833   3.750   1.741  16.507 -0.8948 -0.3080  0.0348
  871MPD2    C512834   3.660   1.839  16.472  0.0329  0.0207  1.2193
  871MPD2     H12835   3.854   1.830  16.796  2.1752  0.4813 -1.4030
  871MPD2    H112836   3.770   1.668  16.430 -0.6765  0.0843 -0.2819
  871MPD2    H212837   3.568   2.022  16.530 -1.7471 -2.2177 -0.5370
  871MPD2    H312838   3.616   1.846  16.373 -1.1970 -3.6486  1.4938
  871MPD2     N12839   3.881   1.617  16.650 -0.0356 -0.2548  0.8140
  871MPD2    H512840   3.902   1.563  16.567  0.3012 -0.4044  0.9958
  871MPD2    N112841   3.701   2.068  16.755  0.1952  0.5228 -0.6583
  871MPD2    H712842   3.628   2.134  16.726  0.0137  0.0242 -1.3564
  872MPD2     C12843   0.215   4.026  14.383 -0.7552  0.6621 -0.6557
  872MPD2    C112844   0.186   4.103  14.269 -0.4119 -0.5732 -0.4756
  872MPD2    C212845   0.059   4.098  14.209 -0.3598 -0.3859  0.4802
  872MPD2    C312846   4.696   4.023  14.273  0.0754  0.2011  0.1353
  872MPD2    C412847   4.720   3.956  14.389 -0.3393 -0.1592 -0.0675
  872MPD2    C512848   0.116   3.949  14.433  0.1211  0.4407  0.8221
  872MPD2     H12849   0.045   4.155  14.118 -2.5484  1.7480  2.1700
  872MPD2    H112850   4.643   3.902  14.443 -1.1032 -0.3244 -1.3381
  872MPD2    H212851   0.310   4.017  14.436 -1.8260  0.3534  1.1929
  872MPD2    H312852   0.124   3.878  14.515 -0.6832  2.3328  2.5497
  872MPD2     N12853   4.562   4.010  14.227 -0.5297  0.1382 -0.1476
  872MPD2    H512854   4.509   3.946  14.285  0.4005 -0.6302 -0.1492
  872MPD2    N112855   0.288   4.180  14.209  0.3842 -0.4151 -0.4273
  872MPD2    H712856   0.254   4.223  14.123  1.0732 -1.2567 -1.1148
  873MPD2     C12857   1.945   4.368   0.820 -0.5562 -1.2384 -0.0716
  873MPD2    C112858   1.859   4.358   0.928 -0.8698  0.0171 -0.4370
  873MPD2    C212859   1.803   4.229   0.934 -0.5019 -0.8794  0.9478
  873MPD2    C312860   1.820   4.127   0.842 -0.7445 -0.2128 -0.1387
  873MPD2    C412861   1.902   4.152   0.731 -0.0141  0.1312  0.1606
  873MPD2    C512862   1.959   4.276   0.716 -0.0173  0.0436 -0.2510
  873MPD2     H12863   1.730   4.212   1.012 -1.4356 -0.0524  0.2589
  873MPD2    H112864   1.918   4.067   0.666 -3.5417 -0.5888  0.2361
  873MPD2    H212865   2.004   4.459   0.818 -0.4306 -1.2884  1.7078
  873MPD2    H312866   2.020   4.297   0.629  1.3059 -0.0631  0.6580
  873MPD2     N12867   1.760   4.001   0.854 -0.0359  0.4838  0.3999
  873MPD2    H512868   1.769   3.944   0.770 -0.6988  4.6734 -2.5371
  873MPD2    N112869   1.830   4.462   1.014 -1.0621 -0.0541 -0.5160
  873MPD2    H712870   1.896   4.538   1.025  1.7333 -2.5888  0.0913
  874MPD2     C12871   1.582   4.588  15.982  0.9192 -0.5962  0.1611
  874MPD2    C112872   1.604   4.483  16.066 -0.0035 -0.2587  0.2173
  874MPD2    C212873   1.738   4.444  16.097  0.2641 -0.0046 -0.1686
  874MPD2    C312874   1.847   4.503  16.032 -0.2058 -0.4538  0.2016
  874MPD2    C412875   1.818   4.613  15.953 -0.4958 -0.3852 -0.1276
  874MPD2    C512876   1.686   4.649  15.924 -0.1657  0.7547 -0.2557
  874MPD2     H12877   1.758   4.368  16.172 -1.3326 -0.4876 -0.2358
  874MPD2    H112878   1.899   4.669  15.907  0.7053 -0.6543  1.6789
  874MPD2    H212879   1.481   4.618  15.956  1.1385  0.4682  0.5548
  874MPD2    H312880   1.668   4.734  15.859 -1.2410 -0.2072 -1.2059
  874MPD2     N12881   1.983   4.472  16.066 -0.0508  0.7477  0.0764
  874MPD2    H512882   2.051   4.546  16.050 -1.1691  1.6868 -0.3515
  874MPD2    N112883   1.494   4.414  16.111 -0.0741 -0.3805 -0.2096
  874MPD2    H712884   1.408   4.445  16.067 -0.6114 -0.0421  1.0820
  875MPD2     C12885   2.388   2.835  14.665 -0.5900  0.0328 -0.8428
  875MPD2    C112886   2.266   2.869  14.723 -0.2910  0.1846 -0.4057
  875MPD2    C212887   2.261   2.911  14.855  0.3657 -0.9567 -0.9486
  875MPD2    C312888   2.377   2.897  14.928  0.4567  0.4130  0.3878
  875MPD2    C412889   2.486   2.837  14.869  0.4483  0.4816 -0.1228
  875MPD2    C512890   2.500   2.826  14.731  0.1436 -0.0776 -0.3228
  875MPD2     H12891   2.163   2.928  14.898  1.7252 -2.9142  2.9099
  875MPD2    H112892   2.571   2.818  14.934 -0.1781 -0.7461  0.3350
  875MPD2    H212893   2.386   2.800  14.563 -0.6592 -2.6411  0.0920
  875MPD2    H312894   2.591   2.796  14.680  1.4404  0.9539  1.3404
  875MPD2     N12895   2.380   2.924  15.065  0.4530  0.2917  0.2227
  875MPD2    H512896   2.455   2.886  15.121  0.0243 -0.4163  0.3117
  875MPD2    N112897   2.144   2.869  14.653 -0.3478  0.0174 -0.0488
  875MPD2    H712898   2.071   2.926  14.693 -0.8873 -1.4249  1.0152
  876MPD2     C12899   1.688   3.835  16.380 -0.0496 -0.1782 -0.4273
  876MPD2    C112900   1.627   3.826  16.257  0.6235  0.4140  0.1573
  876MPD2    C212901   1.554   3.716  16.213  0.0946  0.6138 -0.1524
  876MPD2    C312902   1.534   3.617  16.305 -0.6815  0.3008  0.2757
  876MPD2    C412903   1.579   3.632  16.433 -0.8723  0.4947  0.3137
  876MPD2    C512904   1.665   3.731  16.466  0.1728  0.3370  0.2938
  876MPD2     H12905   1.521   3.724  16.110  0.6929 -0.3035 -0.4134
  876MPD2    H112906   1.558   3.566  16.517  0.4510  1.7071  1.6005
  876MPD2    H212907   1.747   3.922  16.406  0.0161 -0.6629  1.0138
  876MPD2    H312908   1.709   3.726  16.565 -1.5658 -0.7492  1.0008
  876MPD2     N12909   1.463   3.503  16.270 -0.2062 -0.1866  0.4936
  876MPD2    H512910   1.426   3.509  16.175  1.3177  1.3162 -0.0144
  876MPD2    N112911   1.664   3.933  16.167  0.1572 -0.0482  0.0019
  876MPD2    H712912   1.754   3.980  16.176  0.0644  0.4279 -1.4614
  877MPD2     C12913   1.395   4.394  15.509 -0.1557 -0.9485  0.0502
  877MPD2    C112914   1.534   4.398  15.514 -0.4750  0.3664  0.0910
  877MPD2    C212915   1.608   4.448  15.409 -0.3103  0.2872 -0.3550
  877MPD2    C312916   1.550   4.485  15.293 -1.0714 -0.3221  0.0959
  877MPD2    C412917   1.416   4.489  15.288 -0.3604 -0.0829  0.6987
  877MPD2    C512918   1.338   4.445  15.393 -0.3432  0.3912 -0.6045
  877MPD2     H12919   1.715   4.450  15.425 -0.0838 -3.1786 -1.3245
  877MPD2    H112920   1.351   4.536  15.215  0.2024  0.5005  0.5735
  877MPD2    H212921   1.326   4.351  15.580 -1.5259 -1.1503 -1.3913
  877MPD2    H312922   1.231   4.459  15.386 -0.4275  0.7272  1.2112
  877MPD2     N12923   1.613   4.533  15.178  0.7500  1.1477  0.7653
  877MPD2    H512924   1.551   4.566  15.105 -1.2580 -4.0183  0.1822
  877MPD2    N112925   1.609   4.346  15.624 -0.5783  0.1840  0.0861
  877MPD2    H712926   1.706   4.322  15.612 -1.5714 -2.8198 -1.6731
  878MPD2     C12927   1.263   3.971  12.946 -1.0998  0.1611  0.0255
  878MPD2    C112928   1.183   3.861  12.945  0.3876 -0.0397 -0.3019
  878MPD2    C212929   1.200   3.762  13.034 -0.4117 -0.4026 -0.2977
  878MPD2    C312930   1.292   3.779  13.133 -0.1888 -0.2911  0.7894
  878MPD2    C412931   1.387   3.878  13.131  0.2694  0.1229  0.2413
  878MPD2    C512932   1.367   3.974  13.038 -0.6425 -0.3948 -0.1844
  878MPD2     H12933   1.137   3.676  13.052  2.4581 -2.4559  0.1360
  878MPD2    H112934   1.458   3.892  13.212 -0.0319  2.1459  0.1612
  878MPD2    H212935   1.256   4.053  12.875  2.4600  0.4158 -0.0345
  878MPD2    H312936   1.433   4.060  13.036 -1.5013  0.2172 -1.9582
  878MPD2     N12937   1.281   3.679  13.229 -0.2159  0.8385 -0.2503
  878MPD2    H512938   1.197   3.621  13.228  1.4238 -1.5328 -2.2781
  878MPD2    N112939   1.077   3.849  12.847 -0.2691  0.1633 -0.0197
  878MPD2    H712940   1.085   3.916  12.771 -0.4031 -0.4981 -0.6171
  879MPD2     C12941   2.089   0.204  16.785  0.3644 -0.0122 -0.0759
  879MPD2    C112942   1.980   0.192  16.871  0.5142  0.1779 -0.4690
  879MPD2    C212943   1.880   0.101  16.833  0.0042  0.5728  0.3423
  879MPD2    C312944   1.894   0.034  16.707  0.6311  0.3394 -0.3812
  879MPD2    C412945   2.001   0.048  16.626  0.8906 -0.1936 -1.0445
  879MPD2    C512946   2.099   0.137  16.666 -0.9736 -0.9365  0.3054
  879MPD2     H12947   1.783   0.100  16.880 -0.1003 -1.3088  0.0676
  879MPD2    H112948   2.018   4.727  16.536  3.4948 -0.9039 -0.0974
  879MPD2    H212949   2.173   0.270  16.801  0.8925 -1.1869  2.0924
  879MPD2    H312950   2.189   0.153  16.608 -0.0830 -1.6511  1.4844
  879MPD2     N12951   1.788   4.687  16.653  0.3957  0.7644  0.0168
  879MPD2    H512952   1.800   4.664  16.555 -0.1422 -0.0260  0.1344
  879MPD2    N112953   1.981   0.269  16.993 -0.7353  0.2152  0.1908
  879MPD2    H712954   2.064   0.325  17.013 -0.6817  0.0911  0.3159
  880MPD2     C12955   2.852   1.824   0.095 -0.7153  0.1093  0.0208
  880MPD2    C112956   2.914   1.871  17.725 -0.3523 -0.0089 -0.1759
  880MPD2    C212957   3.031   1.813  17.687 -0.2081  0.1704  0.5179
  880MPD2    C312958   3.087   1.719   0.025  0.0346 -0.3889 -0.2421
  880MPD2    C412959   3.021   1.661   0.134  0.0381 -0.4184 -0.2833
  880MPD2    C512960   2.905   1.722   0.164  0.3089  0.0279 -0.3580
  880MPD2     H12961   3.090   1.840  17.600  0.2927 -3.4916 -0.2452
  880MPD2    H112962   3.072   1.590   0.198 -0.1617 -0.2547  0.0538
  880MPD2    H212963   2.762   1.869   0.137  0.1644  0.7434  1.2469
  880MPD2    H312964   2.841   1.690   0.246 -0.6145 -1.7240 -1.7855
  880MPD2     N12965   3.228   1.695   0.010  0.3236 -0.7884  0.5762
  880MPD2    H512966   3.282   1.760  17.701 -0.4671 -0.3947  0.2619
  880MPD2    N112967   2.844   1.973  17.659  0.3768 -0.4119 -0.2344
  880MPD2    H712968   2.756   2.002  17.699 -0.4905  1.9518 -3.7961
  881MPD2     C12969   3.198   2.908  17.499  0.0119 -0.9018  0.6778
  881MPD2    C112970   3.196   2.822  17.391  0.1668  0.3305 -0.0349
  881MPD2    C212971   3.099   2.723  17.378 -0.1155 -0.1714  0.5263
  881MPD2    C312972   3.027   2.696  17.494  0.0704 -0.0700 -0.1316
  881MPD2    C412973   3.038   2.774  17.606 -0.7418  0.0844 -0.2606
  881MPD2    C512974   3.120   2.879  17.612  0.1372 -0.8663 -0.3076
  881MPD2     H12975   3.077   2.669  17.286 -0.7615  1.6865 -0.3940
  881MPD2    H112976   2.986   2.755  17.700 -1.2449 -2.0388 -0.9739
  881MPD2    H212977   3.254   3.001  17.499 -0.0714 -0.8516  0.7474
  881MPD2    H312978   3.115   2.940  17.701 -0.1042 -1.3865  0.0403
  881MPD2     N12979   2.941   2.585  17.500 -0.4473  0.4632 -0.1229
  881MPD2    H512980   2.894   2.586  17.590 -1.7069 -3.4066 -0.7638
  881MPD2    N112981   3.246   2.890  17.275  0.7932  0.8152 -0.3776
  881MPD2    H712982   3.277   2.985  17.293 -0.1001  0.9131  0.6522
  882MPD2     C12983   1.642   4.637  14.355 -0.3025 -0.7311  0.5413
  882MPD2    C112984   1.600   4.629  14.486  0.0899 -0.0207 -0.3842
  882MPD2    C212985   1.478   4.559  14.504 -0.7044 -0.3928  0.4809
  882MPD2    C312986   1.402   4.505  14.400 -0.7294  0.1181  0.2390
  882MPD2    C412987   1.437   4.531  14.270  0.9382  0.4536 -0.3903
  882MPD2    C512988   1.554   4.591  14.254  0.8563  0.6701  0.3992
  882MPD2     H12989   1.446   4.547  14.607 -0.2159 -0.1986  0.6577
  882MPD2    H112990   1.381   4.499  14.182 -0.7022 -0.3184  0.9488
  882MPD2    H212991   1.741   4.669  14.323 -0.9697  1.5407  0.7063
  882MPD2    H312992   1.608   4.596  14.160  1.0916  1.1901  0.5656
  882MPD2     N12993   1.275   4.441  14.417 -0.0210  0.4401  0.4593
  882MPD2    H512994   1.242   4.395  14.333  2.6859  0.4468 -0.6048
  882MPD2    N112995   1.682   4.679  14.588  0.2129  0.0155  0.0584
  882MPD2    H712996   1.769   4.724  14.561  1.2633 -0.6222  2.3938
  883MPD2     C12997   3.562   4.036  16.404 -0.1747 -0.2972  0.1035
  883MPD2    C112998   3.599   4.128  16.306 -0.3248  0.7981 -0.4370
  883MPD2    C212999   3.716   4.209  16.334 -0.2992  0.3478 -0.0235
  883MPD2    C313000   3.763   4.230  16.462 -0.0257  0.0277 -0.0626
  883MPD2    C413001   3.710   4.149  16.558 -0.1627 -0.0004 -0.4601
  883MPD2    C513002   3.612   4.055  16.534 -0.9528  0.4368  0.0301
  883MPD2     H13003   3.742   4.274  16.252 -1.4949 -0.6389 -1.1877
  883MPD2    H113004   3.741   4.169  16.660  0.4216 -2.0625 -0.2295
  883MPD2    H213005   3.475   3.972  16.393 -1.5494  1.9605 -2.3242
  883MPD2    H313006   3.581   3.997  16.620 -1.2258  3.6348  2.1052
  883MPD2     N13007   3.866   4.323  16.482  0.2030 -0.4218  0.6295
  883MPD2    H513008   3.880   4.381  16.400 -0.3515 -2.0254 -0.6158
  883MPD2    N113009   3.532   4.132  16.185 -0.0633  0.0925  0.0752
  883MPD2    H713010   3.562   4.201  16.117 -3.0136  0.7746 -0.5531
  884MPD2     C13011   0.472   0.352  14.992 -0.2249 -0.4204  0.4958
  884MPD2    C113012   0.434   0.475  14.956  0.0789  0.5759 -0.4965
  884MPD2    C213013   0.294   0.509  14.946 -0.6656 -0.7350 -0.2049
  884MPD2    C313014   0.197   0.415  14.972 -0.0652  1.3098 -0.0939
  884MPD2    C413015   0.235   0.291  15.008  0.5404  0.6495 -0.1803
  884MPD2    C513016   0.369   0.262  15.020 -0.8649 -0.0721 -0.2638
  884MPD2     H13017   0.265   0.613  14.940 -0.2080 -0.7451 -2.3217
  884MPD2    H113018   0.165   0.213  15.036  1.8524 -0.2645  0.5327
  884MPD2    H213019   0.573   0.319  15.011 -0.2200 -1.1399 -0.7693
  884MPD2    H313020   0.396   0.167  15.064  1.2301  1.0290  0.8761
  884MPD2     N13021   0.066   0.458  14.986  0.3812 -0.2904 -0.2118
  884MPD2    H513022   0.047   0.555  14.962  0.8441 -0.2723 -0.5203
  884MPD2    N113023   0.527   0.580  14.917 -0.7240  0.4784 -0.3608
  884MPD2    H713024   0.485   0.653  14.860 -0.9810 -0.3889 -1.2931
  885MPD2     C13025   3.768   0.406   0.288 -0.0706  0.3090  0.2142
  885MPD2    C113026   3.832   0.525   0.264  0.4041  0.1240  0.1239
  885MPD2    C213027   3.784   0.612   0.164 -0.4143  0.0511 -0.0397
  885MPD2    C313028   3.682   0.578   0.084  0.4839 -0.2159  0.3922
  885MPD2    C413029   3.622   0.453   0.115  0.1962  0.0564  0.2999
  885MPD2    C513030   3.656   0.381   0.218  0.1206  0.4766 -0.3792
  885MPD2     H13031   3.832   0.706   0.142  0.5649 -0.3583  0.3410
  885MPD2    H113032   3.550   0.401   0.054 -0.1258  1.1783 -0.2773
  885MPD2    H213033   3.789   0.333   0.366  1.2845 -0.5742 -0.9783
  885MPD2    H313034   3.616   0.282   0.236  1.7930  0.1964  1.7469
  885MPD2     N13035   3.657   0.666  17.727 -0.2926  0.3646 -0.9315
  885MPD2    H513036   3.696   0.759  17.738 -0.1530  0.2315 -0.2725
  885MPD2    N113037   3.931   0.566   0.350  0.3039  0.0794 -0.3275
  885MPD2    H713038   3.972   0.497   0.413  1.7981  1.7323  0.5154
  886MPD2     C13039   0.109   3.285  15.116  0.7943 -0.5796  0.2360
  886MPD2    C113040   0.188   3.361  15.192 -0.0065  0.0683  0.2787
  886MPD2    C213041   0.216   3.484  15.130 -0.7410 -0.0930  0.6791
  886MPD2    C313042   0.151   3.539  15.019 -0.7625 -0.0569  0.3144
  886MPD2    C413043   0.056   3.461  14.961 -0.3914  0.8636 -0.0960
  886MPD2    C513044   0.042   3.334  15.007  0.2485 -0.5726 -0.0557
  886MPD2     H13045   0.285   3.549  15.184 -0.0729  0.6247 -1.0317
  886MPD2    H113046   0.000   3.487  14.872  1.2017  1.2671 -0.9691
  886MPD2    H213047   0.083   3.182  15.142 -3.7068 -0.0716 -2.2355
  886MPD2    H313048   4.722   3.260  14.953  1.1461 -0.9346 -0.5216
  886MPD2     N13049   0.200   3.666  14.978 -0.3825 -1.0669  0.4334
  886MPD2    H513050   0.276   3.703  15.036 -0.1558 -0.1954 -0.4177
  886MPD2    N113051   0.246   3.331  15.320  0.0144  0.4921  0.4568
  886MPD2    H713052   0.294   3.404  15.372 -1.0353  0.0032  2.1058
  887MPD2     C13053   0.646   3.609  15.844 -0.5836 -0.1652  0.2421
  887MPD2    C113054   0.592   3.606  15.721 -0.8613 -0.2714  0.5227
  887MPD2    C213055   0.610   3.717  15.644  0.0874 -0.4903  0.3502
  887MPD2    C313056   0.680   3.829  15.679  0.4260 -0.0915 -0.1473
  887MPD2    C413057   0.730   3.838  15.804 -0.5700  0.2085  0.2592
  887MPD2    C513058   0.708   3.724  15.882 -0.1385  0.1028  0.5968
  887MPD2     H13059   0.557   3.710  15.549  0.2467  0.6814  0.1808
  887MPD2    H113060   0.788   3.921  15.842  3.2862 -3.0284  1.4275
  887MPD2    H213061   0.638   3.534  15.923  1.3535  1.2825  1.8091
  887MPD2    H313062   0.749   3.728  15.983 -0.3809 -1.4878  0.7555
  887MPD2     N13063   0.693   3.936  15.583  0.4301  0.3144 -0.4505
  887MPD2    H513064   0.651   3.918  15.492  1.2846 -2.3283 -0.3176
  887MPD2    N113065   0.515   3.488  15.679  0.0342  0.2627 -0.5425
  887MPD2    H713066   0.471   3.489  15.587  0.3948  1.4760 -0.6965
  888MPD2     C13067   2.418   3.870  14.875  0.4458 -0.4933  0.2277
  888MPD2    C113068   2.393   3.947  14.988  0.0387  0.0288 -0.2458
  888MPD2    C213069   2.475   4.058  15.008 -0.3680 -0.3180  0.3238
  888MPD2    C313070   2.586   4.087  14.926  0.1647 -0.4252  0.3907
  888MPD2    C413071   2.602   4.012  14.809 -0.1106 -0.8889 -1.2649
  888MPD2    C513072   2.523   3.897  14.791 -0.0826  0.4884  0.1929
  888MPD2     H13073   2.467   4.106  15.104  0.8220 -0.8907  0.7205
  888MPD2    H113074   2.678   4.038  14.736  0.7089 -0.3436 -0.2219
  888MPD2    H213075   2.364   3.781  14.845 -0.4215  0.1868 -0.2675
  888MPD2    H313076   2.542   3.831  14.708 -0.7045  1.2390 -0.5468
  888MPD2     N13077   2.666   4.198  14.967 -0.8354  0.3136  0.5414
  888MPD2    H513078   2.654   4.229  15.063 -0.2746  1.7782  0.1356
  888MPD2    N113079   2.294   3.918  15.085  0.1646  0.0411  0.1185
  888MPD2    H713080   2.287   3.987  15.160  1.1154 -0.0722  0.3144
  889MPD2     C13081   1.955   3.450  12.726  0.3993 -0.0537  0.4156
  889MPD2    C113082   1.970   3.407  12.855  0.2302  0.6972 -0.1279
  889MPD2    C213083   1.934   3.497  12.958  0.7493 -0.3054 -0.0726
  889MPD2    C313084   1.903   3.630  12.930 -0.2592 -0.0257  0.3536
  889MPD2    C413085   1.884   3.671  12.797 -0.0242 -0.4014  0.2127
  889MPD2    C513086   1.920   3.581  12.696  0.2163 -0.1983  0.3930
  889MPD2     H13087   1.956   3.462  13.059  0.2455 -1.6926 -0.4430
  889MPD2    H113088   1.878   3.773  12.759  2.7837 -0.0099  0.8464
  889MPD2    H213089   2.002   3.405  12.639  0.2895 -2.3601  1.5438
  889MPD2    H313090   1.924   3.612  12.592  0.0701  2.7941  1.2833
  889MPD2     N13091   1.892   3.709  13.047  0.2716 -0.0232  0.0651
  889MPD2    H513092   1.898   3.655  13.133 -3.4268 -1.9235 -0.8891
  889MPD2    N113093   1.982   3.271  12.896  0.0480 -0.1369 -0.7536
  889MPD2    H713094   1.983   3.250  12.995 -1.4369 -0.6769 -0.8458
  890MPD2     C13095   1.054   0.642  14.539 -0.2068  0.1488 -0.1534
  890MPD2    C113096   1.185   0.675  14.568  0.2362  0.2511  0.7761
  890MPD2    C213097   1.264   0.606  14.661 -0.9147  0.0393 -0.9593
  890MPD2    C313098   1.207   0.493  14.714 -0.4710  0.1287 -0.2434
  890MPD2    C413099   1.081   0.459  14.680  0.6197 -0.3068 -0.7865
  890MPD2    C513100   1.011   0.524  14.588 -0.7488 -0.0664  0.2719
  890MPD2     H13101   1.364   0.639  14.685 -0.9676 -1.4393  1.2515
  890MPD2    H113102   1.048   0.356  14.691 -2.4124  0.8723  1.0243
  890MPD2    H213103   0.993   0.702  14.472 -1.8739 -0.3386  0.9444
  890MPD2    H313104   0.914   0.485  14.559 -0.6319 -1.4668  1.7286
  890MPD2     N13105   1.280   0.422  14.814  0.2634  0.3204  0.3144
  890MPD2    H513106   1.377   0.451  14.822  0.0599  0.8504  0.8539
  890MPD2    N113107   1.231   0.789  14.492  0.7687 -0.2978  0.0387
  890MPD2    H713108   1.169   0.836  14.427 -0.3655  0.1897  1.5018
  891MPD2     C13109   4.111   3.447  16.947  0.6875  0.1762  0.4257
  891MPD2    C113110   4.146   3.513  17.063  0.6720 -0.2162  0.2318
  891MPD2    C213111   4.196   3.441  17.171 -0.2748  0.0765 -0.0765
  891MPD2    C313112   4.222   3.305  17.155 -0.3379 -0.2414 -0.7559
  891MPD2    C413113   4.198   3.249  17.028 -0.0559  0.4734  1.1171
  891MPD2    C513114   4.142   3.318  16.927  0.4381  0.1499 -0.4310
  891MPD2     H13115   4.203   3.498  17.263  1.2248 -0.5581  0.1955
  891MPD2    H113116   4.224   3.148  16.997 -2.1933  0.8632 -1.9813
  891MPD2    H213117   4.061   3.490  16.861 -0.9397  2.0225  2.2862
  891MPD2    H313118   4.116   3.272  16.832 -0.1566 -2.1634  0.8787
  891MPD2     N13119   4.273   3.226  17.264  0.0456  0.2278  0.5230
  891MPD2    H513120   4.287   3.274  17.352 -0.2592 -2.9219  2.2808
  891MPD2    N113121   4.111   3.643  17.070 -0.2143  0.4724  0.2087
  891MPD2    H713122   4.072   3.678  16.983  0.9358 -0.1578 -0.5615
  892MPD2     C13123   0.537   0.147  14.703 -0.7718 -0.0001 -0.1662
  892MPD2    C113124   0.488   0.029  14.652 -0.0359  0.0990  0.7343
  892MPD2    C213125   0.570   4.654  14.649 -1.0525 -0.6994  0.1927
  892MPD2    C313126   0.700   4.652  14.708  0.2333  0.0083  0.4069
  892MPD2    C413127   0.754   0.041  14.742  0.7037 -0.0637  0.8842
  892MPD2    C513128   0.671   0.157  14.735  0.0631 -0.1206  0.0911
  892MPD2     H13129   0.524   4.565  14.607 -1.6250 -1.6916  2.9081
  892MPD2    H113130   0.858   0.062  14.768  0.1445  2.2262  1.2463
  892MPD2    H213131   0.468   0.230  14.716  0.1653  0.5641  1.3329
  892MPD2    H313132   0.716   0.255  14.745 -0.3905 -0.0296  1.2845
  892MPD2     N13133   0.786   4.541  14.690 -1.0013 -0.6442  0.5504
  892MPD2    H513134   0.884   4.561  14.706 -0.9001 -0.9752  0.3348
  892MPD2    N113135   0.358   0.021  14.598 -0.0133 -1.0178  0.7277
  892MPD2    H713136   0.320   4.666  14.580 -1.2057 -0.7683  1.9577
  893MPD2     C13137   1.713   3.563   1.108 -0.0655  0.1610 -0.4384
  893MPD2    C113138   1.825   3.642   1.143  0.0685  0.1168 -0.6792
  893MPD2    C213139   1.815   3.738   1.232 -0.1235 -0.1819  0.1019
  893MPD2    C313140   1.694   3.759   1.299 -0.9464 -0.3969  0.1785
  893MPD2    C413141   1.582   3.683   1.264 -0.6975  0.3884  0.1124
  893MPD2    C513142   1.591   3.594   1.165 -0.1098 -0.2494  0.1528
  893MPD2     H13143   1.904   3.798   1.246  1.1284 -2.1279  0.5173
  893MPD2    H113144   1.485   3.693   1.311 -0.8093 -1.0117  0.2062
  893MPD2    H213145   1.733   3.481   1.040 -0.7088  0.0310 -0.4666
  893MPD2    H313146   1.502   3.540   1.135 -1.2853  1.5238  0.4331
  893MPD2     N13147   1.698   3.843   1.414  0.2045 -0.4338  0.2007
  893MPD2    H513148   1.604   3.871   1.439 -0.1979 -0.3745 -1.3658
  893MPD2    N113149   1.951   3.594   1.083  0.2628  0.5876 -0.0766
  893MPD2    H713150   1.958   3.498   1.050 -0.6762  0.2576  0.6820
  894MPD2     C13151   0.734   0.395   1.252 -0.3820  0.4753  0.2172
  894MPD2    C113152   0.705   0.532   1.256  0.0187  0.5489  0.0185
  894MPD2    C213153   0.800   0.632   1.242 -0.0197 -0.7441  0.1309
  894MPD2    C313154   0.930   0.593   1.227  0.0966 -0.5753 -0.4579
  894MPD2    C413155   0.961   0.460   1.214  0.4636  0.0451 -0.1593
  894MPD2    C513156   0.869   0.360   1.232 -0.7483  0.2416 -0.6462
  894MPD2     H13157   0.775   0.737   1.239 -0.6743 -0.8414  1.8848
  894MPD2    H113158   1.063   0.425   1.223  1.4233  2.9269  0.2858
  894MPD2    H213159   0.662   0.315   1.260  0.4890 -0.6291 -2.9380
  894MPD2    H313160   0.892   0.254   1.235  0.7037  0.6150  0.9633
  894MPD2     N13161   1.025   0.693   1.236 -0.0976 -0.0295 -0.8248
  894MPD2    H513162   0.981   0.778   1.272  1.9270  1.4222 -1.7863
  894MPD2    N113163   0.572   0.576   1.258 -0.1032  0.4451  0.5553
  894MPD2    H713164   0.555   0.676   1.261 -0.9802  0.3354 -0.5941
  895MPD2     C13165   4.694   3.333  13.549  0.2195 -0.3179  0.0460
  895MPD2    C113166   4.623   3.331  13.430 -0.1740  0.0917  0.0939
  895MPD2    C213167   4.585   3.212  13.378 -0.2078  0.0662  0.0916
  895MPD2    C313168   4.635   3.095  13.428 -0.8213  0.0514  0.4546
  895MPD2    C413169   4.709   3.092  13.544 -0.4146 -0.4111  0.3161
  895MPD2    C513170   0.002   3.215  13.603 -0.2587 -0.1528  0.7601
  895MPD2     H13171   4.542   3.221  13.279 -1.3150 -1.1778  0.4594
  895MPD2    H113172   0.013   3.002  13.589 -0.6756  0.5431  2.4667
  895MPD2    H213173   4.716   3.427  13.600  0.0745  0.6304 -1.6239
  895MPD2    H313174   0.058   3.225  13.695  0.6945 -1.5062  0.3156
  895MPD2     N13175   4.608   2.960  13.375  0.0389 -0.6849  0.1581
  895MPD2    H513176   4.628   2.881  13.435 -0.6945 -1.4762 -0.6247
  895MPD2    N113177   4.587   3.450  13.354 -0.1569  0.5722 -0.6551
  895MPD2    H713178   4.509   3.443  13.289  1.1329 -1.9940 -1.9357
  896MPD2     C13179   2.769   1.274   0.823 -0.6598  0.0512  0.1110
  896MPD2    C113180   2.657   1.343   0.835  0.3142 -1.1481  0.8121
  896MPD2    C213181   2.546   1.278   0.892  0.3603  0.0594  0.5402
  896MPD2    C313182   2.555   1.145   0.929 -0.1329 -0.2168 -0.3522
  896MPD2    C413183   2.671   1.073   0.914 -1.1851 -0.3742 -0.0664
  896MPD2    C513184   2.780   1.140   0.862  0.1053  0.0806  0.1344
  896MPD2     H13185   2.455   1.332   0.913  0.0658  0.2835 -1.2562
  896MPD2    H113186   2.683   0.971   0.947 -2.4765 -0.6233 -0.3580
  896MPD2    H213187   2.860   1.317   0.782  1.9385 -4.5001  1.0556
  896MPD2    H313188   2.875   1.089   0.851 -1.3967 -2.3996 -1.2411
  896MPD2     N13189   2.439   1.086   0.987 -0.0983 -0.7901 -0.0897
  896MPD2    H513190   2.358   1.146   0.999  1.2651  0.9281  0.4186
  896MPD2    N113191   2.668   1.476   0.797  0.6929 -0.0849  0.2362
  896MPD2    H713192   2.753   1.511   0.755  0.2622  0.8391  0.1373
  897MPD2     C13193   2.611   3.066  10.860  0.0878 -0.0288  0.0719
  897MPD2    C113194   2.630   3.190  10.804 -0.2045  0.1551 -0.0475
  897MPD2    C213195   2.575   3.299  10.857 -0.1766 -0.2215 -0.3265
  897MPD2    C313196   2.516   3.294  10.986 -0.3234  0.3739  0.0980
  897MPD2    C413197   2.527   3.173  11.057 -0.3578 -0.1641 -0.3471
  897MPD2    C513198   2.570   3.061  10.990  0.8529  0.3221  0.1885
  897MPD2     H13199   2.576   3.397  10.810 -0.0080  1.7351  3.7877
  897MPD2    H113200   2.470   3.161  11.149 -0.8204 -3.9273 -1.0905
  897MPD2    H213201   2.646   2.971  10.821 -1.1833 -1.0535  1.4275
  897MPD2    H313202   2.569   2.971  11.051  0.5692 -1.4076 -2.3826
  897MPD2     N13203   2.471   3.411  11.042 -0.2765  0.3423  0.3056
  897MPD2    H513204   2.483   3.488  10.978 -0.1438 -1.1634 -1.4922
  897MPD2    N113205   2.697   3.189  10.678 -0.5496 -0.0047 -0.4134
  897MPD2    H713206   2.734   3.097  10.657 -0.3058 -0.2426  1.0967
  898MPD2     C13207   0.201   3.995  17.482  0.2368 -0.1757 -0.1582
  898MPD2    C113208   0.287   4.101  17.507  0.4110 -0.8097  0.2763
  898MPD2    C213209   0.276   4.211  17.428  0.1359  0.8348 -0.1995
  898MPD2    C313210   0.183   4.214  17.326  0.5658  0.3256  0.4085
  898MPD2    C413211   0.086   4.120  17.317 -0.3567  0.1955 -0.2004
  898MPD2    C513212   0.095   4.012  17.400 -0.1796 -0.5079 -0.3853
  898MPD2     H13213   0.328   4.305  17.442 -3.6098  2.6887  1.3244
  898MPD2    H113214   0.013   4.116  17.237 -0.6174 -0.0701  0.0511
  898MPD2    H213215   0.199   3.904  17.540  0.8281 -2.3274 -3.4840
  898MPD2    H313216   0.030   3.929  17.376  0.9405 -1.8847  1.3887
  898MPD2     N13217   0.179   4.331  17.262  0.2157 -0.3035  0.6813
  898MPD2    H513218   0.250   4.403  17.270 -0.9375  1.1632 -2.4605
  898MPD2    N113219   0.393   4.096  17.599 -0.0263  0.0114  0.3872
  898MPD2    H713220   0.451   4.179  17.603  0.0586 -0.0431  0.2958
  899MPD2     C13221   1.104   4.451  17.064  1.0020  0.1655 -0.3688
  899MPD2    C113222   1.148   4.547  17.153  0.5206  0.9949  0.4327
  899MPD2    C213223   1.125   4.536  17.287 -0.5373  0.9017  0.5612
  899MPD2    C313224   1.050   4.422  17.328 -0.5381  0.6102  0.1016
  899MPD2    C413225   1.011   4.325  17.241  0.5354 -0.6014  0.4620
  899MPD2    C513226   1.033   4.343  17.111  1.0620 -0.0877  0.1819
  899MPD2     H13227   1.151   4.611  17.360  0.2200 -0.2436  1.4805
  899MPD2    H113228   0.957   4.234  17.264  0.1562 -0.0434  1.8102
  899MPD2    H213229   1.115   4.456  16.957  1.1228  2.2262 -0.2574
  899MPD2    H313230   0.992   4.273  17.039 -0.8737  1.3977 -0.1688
  899MPD2     N13231   1.001   4.411  17.460  0.0958  0.0552 -0.6553
  899MPD2    H513232   0.929   4.343  17.482  0.1318  0.8080  1.7695
  899MPD2    N113233   1.205   4.663  17.098  0.7392 -0.0980  0.1795
  899MPD2    H713234   1.212   4.665  16.997  0.5023  1.7873  0.2017
  900MPD2     C13235   0.397   1.495  11.917  0.0299  0.5624  0.2568
  900MPD2    C113236   0.303   1.453  12.006  0.5738 -0.3794 -0.0681
  900MPD2    C213237   0.175   1.513  12.020 -0.2313  0.1745  0.8575
  900MPD2    C313238   0.150   1.617  11.944  0.0798  0.5083 -0.7145
  900MPD2    C413239   0.239   1.651  11.839  0.2139  0.1666 -0.1956
  900MPD2    C513240   0.359   1.582  11.821 -0.3504 -0.2503 -0.1011
  900MPD2     H13241   0.098   1.489  12.092  0.4120 -1.8502  0.8588
  900MPD2    H113242   0.202   1.713  11.758 -0.0795  1.1570  0.6801
  900MPD2    H213243   0.494   1.448  11.902 -1.1174 -1.3487 -1.1510
  900MPD2    H313244   0.423   1.613  11.738 -0.6214 -0.2695 -0.3163
  900MPD2     N13245   0.030   1.691  11.971  0.1704  0.2781 -0.0996
  900MPD2    H513246   4.705   1.641  12.033 -0.8643 -0.3400 -1.6464
  900MPD2    N113247   0.349   1.352  12.094  0.7659  0.3667 -0.0276
  900MPD2    H713248   0.449   1.334  12.102  0.8150  0.3046 -0.7567
  901MPD2     C13249   0.095   0.505  12.748 -0.0349  0.3752 -0.3275
  901MPD2    C113250   0.210   0.483  12.671 -0.5703 -1.0982  0.0997
  901MPD2    C213251   0.267   0.587  12.605 -0.6974 -0.0234  0.3440
  901MPD2    C313252   0.194   0.701  12.590 -0.4089  0.3456 -0.1160
  901MPD2    C413253   0.075   0.713  12.657  0.0482  0.0303 -0.1093
  901MPD2    C513254   0.031   0.621  12.744 -0.0328 -0.5369 -0.3187
  901MPD2     H13255   0.361   0.582  12.550  0.3982  0.2323  2.2155
  901MPD2    H113256   0.019   0.806  12.645  1.9866  0.9738 -1.9187
  901MPD2    H213257   0.052   0.422  12.803  1.9248  0.0247  0.6674
  901MPD2    H313258   4.676   0.646  12.796  0.0617 -1.3583  0.2323
  901MPD2     N13259   0.247   0.802  12.507  0.2989 -0.4522 -0.3224
  901MPD2    H513260   0.341   0.786  12.471  0.1523 -0.8478 -0.5215
  901MPD2    N113261   0.274   0.357  12.680 -0.1143 -0.0941  0.3641
  901MPD2    H713262   0.242   0.300  12.758 -1.5560  0.0356 -0.1195
  902MPD2     C13263   4.463   4.152  12.919  0.8167  0.4885  0.6634
  902MPD2    C113264   4.341   4.214  12.883 -0.4223 -0.9091  0.3043
  902MPD2    C213265   4.290   4.181  12.761 -0.7229 -0.5444  0.0337
  902MPD2    C313266   4.349   4.095  12.672 -0.1451  0.3539 -0.6189
  902MPD2    C413267   4.461   4.022  12.719 -0.4732  0.1080  0.7287
  902MPD2    C513268   4.515   4.049  12.840  0.2639  0.3948 -0.4724
  902MPD2     H13269   4.204   4.237  12.725  0.0310 -1.2502 -2.8506
  902MPD2    H113270   4.500   3.944  12.654  1.5903  0.0550  2.0397
  902MPD2    H213271   4.516   4.188  13.007  1.0988 -3.5073  2.1537
  902MPD2    H313272   4.601   3.992  12.872  0.7913  1.3963 -0.1071
  902MPD2     N13273   4.307   4.066  12.540 -0.0889 -0.1606  0.0792
  902MPD2    H513274   4.363   4.001  12.486  1.1329  0.3581  0.7191
  902MPD2    N113275   4.278   4.316  12.968  0.2649  0.3834 -0.2947
  902MPD2    H713276   4.186   4.334  12.930  0.4163 -0.1245 -0.9151
  903MPD2     C13277   4.196   4.257  11.644 -0.8501 -1.1134  0.0790
  903MPD2    C113278   4.140   4.282  11.765 -0.4066 -0.1060  0.5601
  903MPD2    C213279   4.011   4.328  11.778 -0.3674 -0.4627  0.1193
  903MPD2    C313280   3.944   4.362  11.664  0.1578 -0.0884  0.8257
  903MPD2    C413281   4.010   4.353  11.546  0.1897  0.6410 -0.5558
  903MPD2    C513282   4.131   4.295  11.527  0.3932 -0.2018 -0.4448
  903MPD2     H13283   3.961   4.344  11.873 -0.0944  0.3544  0.1285
  903MPD2    H113284   3.961   4.381  11.454 -0.0408  0.2915 -0.5374
  903MPD2    H213285   4.296   4.213  11.644 -0.1518  0.4872  0.7075
  903MPD2    H313286   4.173   4.292  11.427  1.5139  4.0728 -0.0809
  903MPD2     N13287   3.809   4.400  11.688 -0.1729 -0.1136  0.1295
  903MPD2    H513288   3.769   4.377  11.779  1.9431 -0.0516  1.0730
  903MPD2    N113289   4.206   4.227  11.881 -0.4969  0.1831  0.1712
  903MPD2    H713290   4.283   4.161  11.868  0.6351  1.4175  0.6171
  904MPD2     C13291   4.684   2.782  13.977 -0.3890 -0.5360 -0.6836
  904MPD2    C113292   4.677   2.921  13.985 -0.1707  0.5508  0.2340
  904MPD2    C213293   0.017   2.999  14.068  0.3244  0.5606 -0.6546
  904MPD2    C313294   0.113   2.938  14.150 -0.4197 -0.5189  0.2591
  904MPD2    C413295   0.111   2.802  14.158  0.3017  0.4779  0.1226
  904MPD2    C513296   0.038   2.732  14.069  0.4324  0.1359  0.5530
  904MPD2     H13297   0.010   3.107  14.060  0.8321  0.8161  2.5729
  904MPD2    H113298   0.186   2.747  14.212  1.5259 -0.0719 -2.1283
  904MPD2    H213299   4.621   2.717  13.917 -0.0831 -1.3021 -0.1843
  904MPD2    H313300   0.055   2.625  14.063 -0.8425 -0.0946  1.2026
  904MPD2     N13301   0.210   3.019  14.210  0.2194  0.5615 -0.4590
  904MPD2    H513302   0.212   3.116  14.180  0.7557  0.6881 -0.0192
  904MPD2    N113303   4.585   2.997  13.905  0.2331 -0.0747  0.5123
  904MPD2    H713304   4.581   3.095  13.928 -1.3077  0.1016 -0.4574
  905MPD2     C13305   4.078   3.148  13.127 -0.0090  0.5002  0.7633
  905MPD2    C113306   4.119   3.045  13.211 -0.2013 -0.4680  0.7882
  905MPD2    C213307   4.145   2.920  13.157 -0.8482  0.0961 -0.0716
  905MPD2    C313308   4.135   2.906  13.019 -0.2524  0.2369 -0.1959
  905MPD2    C413309   4.092   3.004  12.939  0.6199 -0.4591 -0.2025
  905MPD2    C513310   4.062   3.130  12.992  0.4177  0.4116 -0.2811
  905MPD2     H13311   4.173   2.841  13.225  0.5926  1.7530  1.2696
  905MPD2    H113312   4.091   2.982  12.833 -1.4213  1.4269 -0.5976
  905MPD2    H213313   4.063   3.249  13.163 -0.9381  1.3939 -2.0998
  905MPD2    H313314   4.047   3.216  12.927  0.9670  0.6079 -0.1496
  905MPD2     N13315   4.171   2.780  12.955  0.8276 -0.1058  0.3246
  905MPD2    H513316   4.170   2.772  12.854  4.0953 -0.7054  0.3174
  905MPD2    N113317   4.141   3.083  13.352  0.4936 -0.0973 -0.3050
  905MPD2    H713318   4.108   3.174  13.382  4.1707  0.8496  0.8635
  906MPD2     C13319   1.228   3.235  11.272 -0.2049  0.2473  0.1489
  906MPD2    C113320   1.141   3.256  11.166 -0.7029 -0.1333  0.7364
  906MPD2    C213321   1.010   3.211  11.176  0.0715  0.1374  1.4448
  906MPD2    C313322   0.965   3.156  11.295  0.3528  0.3866  0.0338
  906MPD2    C413323   1.051   3.131  11.400  0.0844 -0.1019 -0.1278
  906MPD2    C513324   1.182   3.168  11.381 -0.5042  0.7920  0.0755
  906MPD2     H13325   0.943   3.221  11.092  0.1679 -0.7780  1.2616
  906MPD2    H113326   1.030   3.074  11.490 -0.3722  0.0753 -0.1240
  906MPD2    H213327   1.331   3.268  11.269  0.3866 -1.5453  0.9563
  906MPD2    H313328   1.258   3.153  11.458 -1.4259 -1.7935  0.4918
  906MPD2     N13329   0.841   3.093  11.307 -0.4153  0.2490 -0.1557
  906MPD2    H513330   0.827   3.028  11.383 -3.3723  0.6166 -0.4036
  906MPD2    N113331   1.178   3.320  11.045 -0.5235  0.2031  0.2242
  906MPD2    H713332   1.101   3.352  10.987 -1.2001  1.9160  2.0827
  907MPD2     C13333   0.690   2.466  15.849  0.6663  0.1623  0.3361
  907MPD2    C113334   0.713   2.341  15.789 -0.4021 -0.1996 -0.7573
  907MPD2    C213335   0.769   2.237  15.863 -0.6041  0.1513 -0.7673
  907MPD2    C313336   0.803   2.267  15.992 -0.2355 -0.3630  0.1958
  907MPD2    C413337   0.775   2.387  16.058  0.1424 -0.1945 -0.4362
  907MPD2    C513338   0.724   2.484  15.980  0.1877  0.3299 -0.1828
  907MPD2     H13339   0.780   2.143  15.810  0.6477 -0.1638  0.0554
  907MPD2    H113340   0.801   2.397  16.162  0.6890  3.7318 -0.9612
  907MPD2    H213341   0.641   2.546  15.794  1.6751 -0.4910 -1.5239
  907MPD2    H313342   0.725   2.587  16.011  1.2063  0.8397 -1.8801
  907MPD2     N13343   0.861   2.160  16.066  0.3568  0.2121  0.6172
  907MPD2    H513344   0.846   2.074  16.014 -1.1624  1.2921 -0.7414
  907MPD2    N113345   0.671   2.318  15.655  0.0927  0.0020 -0.3235
  907MPD2    H713346   0.680   2.225  15.615 -0.3387 -1.2338  2.4401
  908MPD2     C13347   2.558   2.603  10.059 -0.2820  1.0136 -0.2821
  908MPD2    C113348   2.564   2.717   9.984  0.0021 -0.1471 -0.9280
  908MPD2    C213349   2.587   2.839  10.032  0.1949  0.7023 -0.3710
  908MPD2    C313350   2.619   2.861  10.166 -0.4227  0.0705  0.1529
  908MPD2    C413351   2.601   2.750  10.241  0.4048 -0.3651  0.2655
  908MPD2    C513352   2.576   2.626  10.191 -0.6186  0.8134 -0.0065
  908MPD2     H13353   2.586   2.920   9.961 -1.2442 -0.9309 -2.2034
  908MPD2    H113354   2.611   2.763  10.348 -1.0339 -0.3652  0.3955
  908MPD2    H213355   2.550   2.500  10.024 -2.2164  1.0508  0.0635
  908MPD2    H313356   2.576   2.537  10.253 -1.8208  1.1278  0.4583
  908MPD2     N13357   2.661   2.982  10.225  0.4023  0.3977  0.4065
  908MPD2    H513358   2.681   2.975  10.325  1.0227  0.2545  0.2683
  908MPD2    N113359   2.560   2.685   9.845 -0.3448 -0.5448 -0.4533
  908MPD2    H713360   2.526   2.592   9.823 -1.0020  0.1425 -2.2910
  909MPD2     C13361   2.871   1.391  11.914  0.4398  0.0177  0.9760
  909MPD2    C113362   2.790   1.483  11.853  0.1498 -0.8726 -0.7390
  909MPD2    C213363   2.708   1.561  11.939 -0.7830 -0.0270 -0.0970
  909MPD2    C313364   2.700   1.534  12.075  0.6155  0.2509 -0.0773
  909MPD2    C413365   2.780   1.436  12.128  0.1243 -0.0869  0.8398
  909MPD2    C513366   2.863   1.369  12.045  0.0010 -0.3699  0.0593
  909MPD2     H13367   2.639   1.632  11.896 -3.0286 -1.1279  1.6991
  909MPD2    H113368   2.785   1.420  12.235 -1.0460  1.2671  1.0891
  909MPD2    H213369   2.949   1.350  11.851  0.3403  0.3115  0.6569
  909MPD2    H313370   2.934   1.301  12.091 -0.2918 -0.8316 -0.1665
  909MPD2     N13371   2.614   1.615  12.153  0.3097 -0.2667  0.4136
  909MPD2    H513372   2.582   1.705  12.118 -0.5768 -0.9070 -0.4366
  909MPD2    N113373   2.797   1.512  11.714  0.5483  0.4394  0.0564
  909MPD2    H713374   2.766   1.606  11.688 -0.0681  0.5826  1.3174
  910MPD2     C13375   4.681   2.855  15.792 -0.5975 -0.3037 -0.3704
  910MPD2    C113376   0.041   2.790  15.723 -0.2195 -0.0468 -0.1789
  910MPD2    C213377   0.054   2.796  15.585 -0.1334 -0.4777 -0.0989
  910MPD2    C313378   4.687   2.860  15.516  0.4105  0.1795 -0.1047
  910MPD2    C413379   4.590   2.922  15.587  0.7523 -0.1932  0.0334
  910MPD2    C513380   4.585   2.921  15.728 -0.5893  0.0163  0.0140
  910MPD2     H13381   0.135   2.746  15.534 -0.8040 -2.0176  0.3443
  910MPD2    H113382   4.511   2.982  15.543 -0.5560 -0.5362  1.8840
  910MPD2    H213383   4.670   2.851  15.900 -1.1923  0.4127 -0.4020
  910MPD2    H313384   4.504   2.972  15.779  0.0717 -0.0170  1.0746
  910MPD2     N13385   4.689   2.875  15.373  0.0620 -0.0010  0.3518
  910MPD2    H513386   4.608   2.914  15.327 -0.1904  1.2773  1.8728
  910MPD2    N113387   0.134   2.707  15.789  0.0956  0.7936  0.1013
  910MPD2    H713388   0.217   2.675  15.739  0.6572  2.0289  0.2375
  911MPD2     C13389   2.835   3.153  16.450 -0.0430  0.6704 -0.2072
  911MPD2    C113390   2.863   3.281  16.484  0.4813  0.4498  1.0476
  911MPD2    C213391   2.779   3.386  16.453  0.4937 -0.3057 -0.0663
  911MPD2    C313392   2.665   3.357  16.376  0.5611  0.9148 -0.2661
  911MPD2    C413393   2.645   3.232  16.335  0.0001  0.2556  0.2468
  911MPD2    C513394   2.721   3.127  16.380 -0.1232 -0.3116 -0.0917
  911MPD2     H13395   2.802   3.490  16.471  2.1215 -0.8079  0.7756
  911MPD2    H113396   2.563   3.210  16.267  1.1499  0.3738 -1.1846
  911MPD2    H213397   2.901   3.068  16.462 -0.7839  0.0534 -0.4570
  911MPD2    H313398   2.706   3.031  16.332 -0.1995 -0.9951  1.2831
  911MPD2     N13399   2.580   3.452  16.313  0.4827 -0.4459 -0.2118
  911MPD2    H513400   2.512   3.413  16.249 -1.0926  2.2572 -0.1605
  911MPD2    N113401   2.992   3.304  16.544 -0.0377 -0.6260 -0.4232
  911MPD2    H713402   3.047   3.219  16.556  1.3918 -0.0649 -2.9996
  912MPD2     C13403   2.160   3.416  15.660 -0.2478 -0.1070 -0.1500
  912MPD2    C113404   2.168   3.418  15.796  0.6223 -0.2779 -0.0432
  912MPD2    C213405   2.080   3.347  15.868 -0.3299 -0.6272  0.2076
  912MPD2    C313406   1.996   3.253  15.809  0.2185 -0.7344 -0.4831
  912MPD2    C413407   1.996   3.237  15.669  0.3199 -0.6584  0.5571
  912MPD2    C513408   2.075   3.327  15.599 -0.3558 -0.1844  0.3024
  912MPD2     H13409   2.077   3.359  15.976  1.3281  1.6979  0.0198
  912MPD2    H113410   1.937   3.165  15.614 -0.7115  0.9864 -0.5181
  912MPD2    H213411   2.211   3.486  15.595  0.9739  0.6459  1.6222
  912MPD2    H313412   2.074   3.324  15.490 -1.2929  1.8174  0.2495
  912MPD2     N13413   1.928   3.180  15.900 -0.2460 -0.3490 -1.0330
  912MPD2    H513414   1.930   3.213  15.996 -2.2893 -0.1729 -1.0429
  912MPD2    N113415   2.255   3.514  15.856  0.2450 -0.2358 -0.4025
  912MPD2    H713416   2.300   3.578  15.790  0.5971 -0.4749 -0.3914
  913MPD2     C13417   2.516   0.564  10.763  0.4953  0.1958 -0.2985
  913MPD2    C113418   2.523   0.427  10.741 -0.7851  0.0283 -0.4049
  913MPD2    C213419   2.485   0.383  10.613  1.2526  0.3887  0.5048
  913MPD2    C313420   2.432   0.468  10.520 -0.0263 -0.6605  0.4863
  913MPD2    C413421   2.415   0.599  10.553  0.1078  0.6407  0.0687
  913MPD2    C513422   2.456   0.649  10.675 -0.1911 -0.2692  1.1237
  913MPD2     H13423   2.489   0.276  10.595 -3.1592  0.1565  0.9313
  913MPD2    H113424   2.374   0.665  10.478 -0.0449  0.2393 -0.1986
  913MPD2    H213425   2.538   0.609  10.859  1.3856 -1.2296  0.1555
  913MPD2    H313426   2.431   0.753  10.693 -1.4656 -0.4494  0.3809
  913MPD2     N13427   2.393   0.433  10.386  0.3277  0.1135  0.5243
  913MPD2    H513428   2.354   0.502  10.324 -1.0882 -1.1663 -0.0098
  913MPD2    N113429   2.570   0.342  10.846 -0.0490  0.3795 -0.8860
  913MPD2    H713430   2.614   0.394  10.921 -1.6815  0.4302  0.0347
  914MPD2     C13431   4.544   0.392  12.612 -0.6890 -0.0596 -0.4799
  914MPD2    C113432   4.623   0.374  12.503  0.2930  0.1951 -0.2409
  914MPD2    C213433   4.702   0.259  12.499  0.1995 -0.0177  0.4462
  914MPD2    C313434   4.704   0.170  12.610  0.4723 -1.0432 -0.0480
  914MPD2    C413435   4.612   0.174  12.711  0.1716  0.4826  0.2137
  914MPD2    C513436   4.528   0.294  12.711  0.3509  0.1671 -0.0132
  914MPD2     H13437   0.034   0.238  12.419  0.8279  1.0363  0.7170
  914MPD2    H113438   4.611   0.107  12.796  0.4285  0.7366  0.4152
  914MPD2    H213439   4.471   0.472  12.621 -1.0328 -0.5260  0.7855
  914MPD2    H313440   4.465   0.308  12.797  0.1935  0.8178 -0.2359
  914MPD2     N13441   0.076   0.075  12.620 -0.3571  0.0936 -0.1903
  914MPD2    H513442   0.135   0.081  12.538  1.3878  0.1798  1.0798
  914MPD2    N113443   4.645   0.489  12.424  0.1932  0.7650  0.5061
  914MPD2    H713444   4.608   0.575  12.462 -1.5277 -0.5246  1.7336
  915MPD2     C13445   3.880   4.717  15.629 -0.7312 -0.3271  0.7669
  915MPD2    C113446   3.821   0.087  15.571 -0.4297 -0.1144  0.6312
  915MPD2    C213447   3.724   0.156  15.644 -0.8153 -0.2135  0.5146
  915MPD2    C313448   3.708   0.132  15.780 -1.3241  0.1535  0.0908
  915MPD2    C413449   3.783   0.028  15.833 -0.5268  1.2744 -0.2917
  915MPD2    C513450   3.869   4.690  15.762  1.1020 -0.0816  0.4068
  915MPD2     H13451   3.664   0.231  15.594  1.2096 -0.5952 -2.5025
  915MPD2    H113452   3.764   4.724  15.931  0.5439 -0.4105 -0.7865
  915MPD2    H213453   3.934   4.655  15.559  0.1537  1.2593  0.0500
  915MPD2    H313454   3.918   4.608  15.811 -0.4309 -0.2523  1.6433
  915MPD2     N13455   3.616   0.213  15.856  0.3293 -0.0580  0.2883
  915MPD2    H513456   3.572   0.292  15.811  1.2210  1.3049  1.8118
  915MPD2    N113457   3.856   0.111  15.433 -0.0850 -0.9408  0.0212
  915MPD2    H713458   3.917   0.049  15.381 -2.0110  0.1885 -3.5470
  916MPD2     C13459   1.425   3.418  15.666  0.4804  0.3324  0.2550
  916MPD2    C113460   1.469   3.303  15.728  0.1927 -0.5834  0.8662
  916MPD2    C213461   1.557   3.223  15.661 -0.3501 -0.0309 -0.5488
  916MPD2    C313462   1.598   3.254  15.537 -1.0921  0.4387  0.0402
  916MPD2    C413463   1.560   3.371  15.475 -0.6079  1.1294  0.0792
  916MPD2    C513464   1.472   3.450  15.543  0.0605  0.1040 -0.2511
  916MPD2     H13465   1.585   3.130  15.709 -1.5298  0.5498  1.2872
  916MPD2    H113466   1.590   3.394  15.373  3.2591 -0.6504  0.7925
  916MPD2    H213467   1.363   3.494  15.712  0.4362 -1.2649  2.8863
  916MPD2    H313468   1.440   3.546  15.504  0.6824  0.7788  0.9245
  916MPD2     N13469   1.687   3.165  15.469  0.5854 -0.2499  0.1935
  916MPD2    H513470   1.692   3.073  15.512  0.2204 -0.4511 -0.1975
  916MPD2    N113471   1.415   3.277  15.857  0.6911 -0.3856 -0.4980
  916MPD2    H713472   1.371   3.359  15.899  0.8110 -1.1225  1.0723
  917MPD2     C13473   1.190   1.822  11.926  0.1753  0.2111  0.1677
  917MPD2    C113474   1.124   1.740  11.843  1.0084 -0.0271 -0.1923
  917MPD2    C213475   1.047   1.784  11.734 -0.2658 -0.7652 -0.0341
  917MPD2    C313476   1.056   1.915  11.697 -0.2453 -0.4877 -0.5176
  917MPD2    C413477   1.126   2.004  11.773 -0.2895 -0.2788 -0.6069
  917MPD2    C513478   1.181   1.955  11.891 -0.0889 -0.0274 -0.0889
  917MPD2     H13479   0.990   1.714  11.674 -2.0250 -0.6386  1.4919
  917MPD2    H113480   1.135   2.109  11.751 -3.3775  0.9286  3.8576
  917MPD2    H213481   1.257   1.795  12.007  0.2129 -1.6315 -0.4583
  917MPD2    H313482   1.237   2.024  11.953 -0.7645  0.5027 -0.0772
  917MPD2     N13483   1.010   1.961  11.574  0.6186  0.1224  0.1576
  917MPD2    H513484   1.042   2.055  11.553  1.4380  0.3609  2.5622
  917MPD2    N113485   1.143   1.603  11.879 -0.0630  0.0355  0.3416
  917MPD2    H713486   1.213   1.587  11.951 -0.7373 -0.5476  0.8767
  918MPD2     C13487   1.462   1.326  12.632  0.0885  0.1618  0.3476
  918MPD2    C113488   1.525   1.382  12.529  0.0100 -0.0054  0.7606
  918MPD2    C213489   1.462   1.384  12.404  0.3069  0.1670  0.3259
  918MPD2    C313490   1.343   1.316  12.389  0.3169  0.2217  0.2355
  918MPD2    C413491   1.290   1.245  12.488 -0.1652 -0.1784 -0.2416
  918MPD2    C513492   1.348   1.251  12.611  0.3357 -0.2712 -0.3717
  918MPD2     H13493   1.513   1.436  12.324  0.7859  0.3975  0.7783
  918MPD2    H113494   1.194   1.198  12.474 -0.0905 -0.4132  0.0371
  918MPD2    H213495   1.503   1.326  12.732  1.6070  3.2401 -0.2762
  918MPD2    H313496   1.307   1.192  12.693 -3.1861 -1.1560 -2.7640
  918MPD2     N13497   1.283   1.326  12.263 -0.2872  0.0397 -0.3458
  918MPD2    H513498   1.329   1.390  12.199  0.3427  0.4594  0.5318
  918MPD2    N113499   1.657   1.441  12.540  0.2117  0.4798 -0.9656
  918MPD2    H713500   1.688   1.476  12.449  0.5360 -0.7966 -1.3463
  919MPD2     C13501   2.365   0.274  11.329 -0.0003  0.3199 -0.0990
  919MPD2    C113502   2.363   0.138  11.324  0.3022  1.1503 -0.1305
  919MPD2    C213503   2.338   0.073  11.204  0.3456 -0.6637 -0.7342
  919MPD2    C313504   2.308   0.145  11.092 -0.0741  0.4845  0.2859
  919MPD2    C413505   2.313   0.284  11.092  0.4241  0.2058  0.1510
  919MPD2    C513506   2.335   0.347  11.217  0.3908 -0.1338 -0.0271
  919MPD2     H13507   2.346   4.702  11.214  2.1259 -0.5374 -0.7706
  919MPD2    H113508   2.293   0.340  11.000  0.3933  1.4484  0.9102
  919MPD2    H213509   2.394   0.327  11.419 -0.1432 -0.0312  0.1539
  919MPD2    H313510   2.349   0.455  11.210  0.7676 -0.2243 -0.7289
  919MPD2     N13511   2.284   0.087  10.966  0.2925  0.4084 -0.2926
  919MPD2    H513512   2.285   0.156  10.891 -0.5699 -0.6693 -1.2844
  919MPD2    N113513   2.401   0.061  11.440  0.7199 -0.8204 -0.4307
  919MPD2    H713514   2.421   4.700  11.419  2.9500  0.1490 -2.8353
  920MPD2     C13515   1.878   0.338  10.119 -0.4277  0.3100 -0.4465
  920MPD2    C113516   1.857   0.206  10.126  0.2278 -1.1087 -0.1301
  920MPD2    C213517   1.914   0.128  10.217  0.1938  0.1789  0.0029
  920MPD2    C313518   1.998   0.183  10.314 -0.7108  0.6051  0.2805
  920MPD2    C413519   2.021   0.316  10.312 -0.8432 -0.3692 -0.2259
  920MPD2    C513520   1.969   0.395  10.209 -1.0774 -0.6078 -0.1452
  920MPD2     H13521   1.905   0.020  10.214 -0.4465  0.2478 -0.4477
  920MPD2    H113522   2.084   0.369  10.383 -1.0788  0.0350 -0.3166
  920MPD2    H213523   1.844   0.403  10.039  2.0310  0.3500 -1.4642
  920MPD2    H313524   1.986   0.502  10.218 -0.9931 -0.5659 -0.7963
  920MPD2     N13525   2.048   0.090  10.411  0.0472 -0.3975 -0.8039
  920MPD2    H513526   2.033   4.728  10.401  1.7365 -0.6117 -1.2616
  920MPD2    N113527   1.781   0.144  10.018  0.6507  0.3886 -0.1134
  920MPD2    H713528   1.781   0.042  10.016 -1.4999  0.4392 -3.8107
  921MPD2     C13529   3.442   3.967  17.187 -0.0853  0.2652  0.4703
  921MPD2    C113530   3.531   3.913  17.096  0.4993  0.1238  0.1513
  921MPD2    C213531   3.486   3.827  16.999 -0.4543  0.4648  0.2167
  921MPD2    C313532   3.358   3.774  17.013 -0.4092  0.2170 -0.2515
  921MPD2    C413533   3.270   3.829  17.105  0.5303  0.6531 -0.1746
  921MPD2    C513534   3.317   3.917  17.197  0.3145 -0.6858  0.4476
  921MPD2     H13535   3.549   3.775  16.929 -1.0639  1.0591 -0.7821
  921MPD2    H113536   3.168   3.794  17.121  1.2869 -1.9304 -1.2238
  921MPD2    H213537   3.477   4.046  17.253  0.0444 -1.0345  1.9488
  921MPD2    H313538   3.248   3.958  17.270  1.3812 -0.7368  1.4663
  921MPD2     N13539   3.312   3.677  16.923 -0.3868  0.4075  0.5763
  921MPD2    H513540   3.213   3.655  16.921 -0.0211 -1.1645 -1.0847
  921MPD2    N113541   3.671   3.956  17.108 -0.8809  0.3221 -0.0485
  921MPD2    H713542   3.704   3.991  17.197  0.3509  0.3831 -0.5139
  922MPD2     C13543   0.435   2.443  17.358 -0.9843  0.1781  0.2125
  922MPD2    C113544   0.409   2.376  17.475 -0.4928  0.1418 -0.3737
  922MPD2    C213545   0.317   2.275  17.478 -0.6035  0.0339  0.3210
  922MPD2    C313546   0.253   2.235  17.365 -0.1824  0.3183  0.3491
  922MPD2    C413547   0.280   2.296  17.247  0.1731  0.5131 -0.0148
  922MPD2    C513548   0.375   2.395  17.243 -0.2652 -0.4805  0.7658
  922MPD2     H13549   0.290   2.231  17.573 -1.1476 -0.4816 -0.0683
  922MPD2    H113550   0.227   2.262  17.159 -0.4448  0.6711  0.3029
  922MPD2    H213551   0.505   2.526  17.350 -0.4390 -0.0865  2.2541
  922MPD2    H313552   0.395   2.432  17.143  2.1979 -0.7661  1.1697
  922MPD2     N13553   0.158   2.131  17.382 -0.2459 -0.3322 -0.3086
  922MPD2    H513554   0.154   2.094  17.477  2.9918 -0.4685 -0.2186
  922MPD2    N113555   0.468   2.419  17.593  0.7562 -0.1519 -0.4285
  922MPD2    H713556   0.443   2.371  17.679  0.8669 -0.5065 -0.5928
  923MPD2     C13557   0.156   3.199   9.080  0.4043 -0.5260  0.6052
  923MPD2    C113558   0.157   3.330   9.128 -0.1332  0.1613  0.1464
  923MPD2    C213559   0.226   3.351   9.245 -0.4679 -0.1503 -0.2197
  923MPD2    C313560   0.313   3.260   9.298  0.2957 -0.0070  0.1668
  923MPD2    C413561   0.315   3.130   9.246  0.2348 -0.0371  0.2669
  923MPD2    C513562   0.235   3.104   9.138 -0.3947 -0.5456  0.8280
  923MPD2     H13563   0.220   3.448   9.294  0.8668 -0.8586  1.3265
  923MPD2    H113564   0.373   3.052   9.292  1.1859  0.2893 -0.3803
  923MPD2    H213565   0.096   3.176   8.993 -0.9957  1.9376  0.9263
  923MPD2    H313566   0.235   3.013   9.078 -1.0255  0.7874 -1.1821
  923MPD2     N13567   0.389   3.277   9.417 -0.7587 -0.3630  0.4824
  923MPD2    H513568   0.420   3.193   9.464 -1.5100 -0.4487  0.8236
  923MPD2    N113569   0.066   3.425   9.074 -0.4567 -0.0213 -0.0958
  923MPD2    H713570   4.734   3.388   9.009 -1.9976  0.5195  1.2258
  924MPD2     C13571   0.985   1.408  15.770 -0.6254  0.0324  0.2168
  924MPD2    C113572   0.950   1.384  15.905  0.2129  0.0906  0.2827
  924MPD2    C213573   0.959   1.482  15.997 -0.0035 -0.3603  0.0569
  924MPD2    C313574   0.998   1.608  15.952 -0.1891 -0.3188  0.4452
  924MPD2    C413575   1.010   1.631  15.812  0.2013  0.2120 -0.3122
  924MPD2    C513576   1.003   1.531  15.723  0.6211 -0.1680 -0.1647
  924MPD2     H13577   0.951   1.467  16.104  0.5126 -0.9921  0.0025
  924MPD2    H113578   1.052   1.728  15.787 -0.0592  0.2607 -0.5740
  924MPD2    H213579   0.989   1.325  15.699 -3.4553 -0.8865  1.1279
  924MPD2    H313580   1.029   1.551  15.620  0.0815  0.1379 -0.2374
  924MPD2     N13581   1.042   1.708  16.042  0.1815  0.5096  0.0794
  924MPD2    H513582   1.055   1.800  16.000  3.1716 -0.9912 -2.2544
  924MPD2    N113583   0.921   1.251  15.946  0.0483 -0.2516  0.0967
  924MPD2    H713584   0.953   1.178  15.883 -1.0563  2.6235 -3.8316
  925MPD2     C13585   4.045   4.291  14.526 -0.6079  0.5224 -0.3891
  925MPD2    C113586   4.074   4.161  14.523 -0.1843 -0.1735 -0.4585
  925MPD2    C213587   4.076   4.093  14.644 -1.0376 -0.9185 -0.3491
  925MPD2    C313588   4.053   4.149  14.767  0.6295  0.3733 -0.1361
  925MPD2    C413589   4.037   4.286  14.767  0.6818  1.0453  0.5298
  925MPD2    C513590   4.027   4.353  14.646  0.2776  0.6113 -0.2054
  925MPD2     H13591   4.096   3.987  14.641 -1.2492 -1.0405  2.3504
  925MPD2    H113592   4.035   4.337  14.863 -0.6840  1.0406  0.4922
  925MPD2    H213593   4.044   4.348  14.434  0.7589  1.4287  0.1729
  925MPD2    H313594   4.008   4.460  14.648  0.7413  0.6640  1.4735
  925MPD2     N13595   4.037   4.091  14.889  0.7711 -0.9856 -0.0215
  925MPD2    H513596   4.028   4.153  14.970  0.9357 -0.8592 -0.0989
  925MPD2    N113597   4.101   4.091  14.405  0.5825  0.2133  0.3921
  925MPD2    H713598   4.129   3.994  14.415 -1.7171 -0.4240  0.5400
  926MPD2     C13599   2.914   2.719  14.104 -0.4659  0.4193 -0.6425
  926MPD2    C113600   2.835   2.757  13.999  0.3179  0.4162  0.2268
  926MPD2    C213601   2.885   2.753  13.869  0.5970 -0.7606  0.1854
  926MPD2    C313602   3.010   2.699  13.839 -0.6569  0.3549  0.3708
  926MPD2    C413603   3.080   2.640  13.944  0.6030  0.0243 -0.1032
  926MPD2    C513604   3.027   2.648  14.073  0.2925  0.1662  0.2702
  926MPD2     H13605   2.819   2.798  13.795  1.8804 -0.0946 -0.5569
  926MPD2    H113606   3.175   2.591  13.930  0.1551 -0.9539  0.2954
  926MPD2    H213607   2.880   2.714  14.207  0.9574  0.4867 -0.1688
  926MPD2    H313608   3.080   2.596  14.152 -0.3991  0.6597  1.0647
  926MPD2     N13609   3.056   2.682  13.704  0.2887 -0.4640  0.3215
  926MPD2    H513610   3.129   2.615  13.683  1.3703  0.7372  0.2354
  926MPD2    N113611   2.700   2.803  14.020  0.3546 -0.2515 -0.0048
  926MPD2    H713612   2.634   2.793  13.943  0.1239 -0.5870  0.2338
  927MPD2     C13613   2.948   4.259   0.386 -0.9818 -0.6455  0.0357
  927MPD2    C113614   2.908   4.324   0.265  0.0680 -0.2802  0.4762
  927MPD2    C213615   2.990   4.307   0.157 -0.1581  0.5686 -0.5712
  927MPD2    C313616   3.109   4.236   0.172  0.2240  0.0788  0.5509
  927MPD2    C413617   3.152   4.180   0.290 -0.8004 -0.0777  0.0761
  927MPD2    C513618   3.067   4.185   0.398 -0.2966  0.9464 -0.3287
  927MPD2     H13619   2.965   4.339   0.057  0.3538  0.9919 -0.5588
  927MPD2    H113620   3.243   4.125   0.309  0.0190 -0.3559 -4.6036
  927MPD2    H213621   2.894   4.266   0.479  0.3534  1.7356  0.6082
  927MPD2    H313622   3.097   4.139   0.492 -0.8058  2.8820  0.7866
  927MPD2     N13623   3.186   4.233   0.056  0.3547 -0.5094  0.3425
  927MPD2    H513624   3.159   4.299  17.730  0.0262 -2.5050 -1.3450
  927MPD2    N113625   2.780   4.383   0.263  0.2502 -0.0456  0.0351
  927MPD2    H713626   2.726   4.379   0.349  2.1514 -0.8987  1.1981
  928MPD2     C13627   0.793   3.462   1.229 -0.5500  0.2356 -0.2422
  928MPD2    C113628   0.689   3.483   1.145 -0.1298 -0.4177 -0.6621
  928MPD2    C213629   0.711   3.519   1.014 -0.0336 -0.2427  0.2490
  928MPD2    C313630   0.839   3.554   0.971  0.5982  0.6137  0.0539
  928MPD2    C413631   0.944   3.531   1.058 -0.7868  0.8215  0.0823
  928MPD2    C513632   0.923   3.485   1.184  0.8754 -0.3453 -0.2348
  928MPD2     H13633   0.640   3.534   0.934  0.5771  1.0696 -0.0411
  928MPD2    H113634   1.042   3.565   1.025 -0.6522  0.8918  0.5576
  928MPD2    H213635   0.772   3.433   1.332 -0.7212 -0.7648 -0.5589
  928MPD2    H313636   1.006   3.466   1.252  0.4987 -1.7374 -0.1711
  928MPD2     N13637   0.872   3.600   0.841  0.0487  0.3948 -0.0802
  928MPD2    H513638   0.965   3.639   0.830 -1.0065  2.5482 -1.2761
  928MPD2    N113639   0.563   3.463   1.198 -0.6169  0.5066  0.1339
  928MPD2    H713640   0.546   3.441   1.296  0.4745 -0.0611  0.1924
  929MPD2     C13641   0.543   3.671  10.374 -0.2538 -0.5953 -0.7118
  929MPD2    C113642   0.473   3.548  10.375 -0.4505 -0.1288  0.0931
  929MPD2    C213643   0.360   3.533  10.305 -0.2350 -0.3182 -0.1327
  929MPD2    C313644   0.294   3.647  10.258 -0.6168  0.1252  0.4349
  929MPD2    C413645   0.357   3.771  10.252  0.1801  0.2560  0.9331
  929MPD2    C513646   0.480   3.775  10.312  0.0602 -0.2140 -0.5187
  929MPD2     H13647   0.298   3.446  10.323 -0.5850  0.4478  2.3955
  929MPD2    H113648   0.312   3.862  10.214 -1.7388 -2.1424 -2.5686
  929MPD2    H213649   0.637   3.684  10.426  0.0757 -0.5772 -1.3185
  929MPD2    H313650   0.522   3.874  10.326  4.0551 -1.8563 -1.0405
  929MPD2     N13651   0.155   3.653  10.223 -0.1422  0.1245  0.1283
  929MPD2    H513652   0.114   3.744  10.207 -0.9231 -0.4139 -0.8937
  929MPD2    N113653   0.528   3.441  10.453  0.1578 -0.1739 -0.1207
  929MPD2    H713654   0.610   3.468  10.507 -0.6988 -1.5936  1.8601
  930MPD2     C13655   2.365   0.592  14.074  0.3807  0.5972 -0.9183
  930MPD2    C113656   2.500   0.601  14.048 -0.4699  0.3595 -0.0058
  930MPD2    C213657   2.538   0.581  13.918 -0.0712  0.2209  0.1922
  930MPD2    C313658   2.457   0.545  13.815  0.3713  0.2653 -0.1557
  930MPD2    C413659   2.323   0.542  13.841  0.1852 -0.5102  0.6730
  930MPD2    C513660   2.283   0.552  13.973 -0.0766  0.1478  0.0561
  930MPD2     H13661   2.630   0.623  13.881  1.0137 -2.2572  0.0879
  930MPD2    H113662   2.254   0.527  13.759 -0.1292  1.1918  0.6363
  930MPD2    H213663   2.333   0.607  14.177  2.1090  0.3152 -0.3421
  930MPD2    H313664   2.175   0.546  13.976 -0.0825  0.3888  0.2208
  930MPD2     N13665   2.496   0.552  13.685  0.2278 -0.6796  1.0226
  930MPD2    H513666   2.424   0.554  13.614  1.4737 -0.5029 -0.2393
  930MPD2    N113667   2.583   0.642  14.154 -0.1742 -0.2608  0.1949
  930MPD2    H713668   2.547   0.663  14.246 -2.7866 -0.2662 -0.8114
  931MPD2     C13669   2.373   4.397   0.699 -0.1615 -0.5650  0.1517
  931MPD2    C113670   2.429   4.520   0.665 -0.1129 -0.3880 -1.0748
  931MPD2    C213671   2.501   4.586   0.769 -0.0545 -0.1795 -0.0558
  931MPD2    C313672   2.522   4.528   0.887 -0.6645 -0.2865  0.0150
  931MPD2    C413673   2.458   4.410   0.919 -0.2705  0.1783  0.0421
  931MPD2    C513674   2.376   4.349   0.826  0.1783  0.0604  0.5299
  931MPD2     H13675   2.555   4.676   0.744 -0.2189 -0.1763 -0.4016
  931MPD2    H113676   2.473   4.370   1.018 -0.8494  0.4446  0.2370
  931MPD2    H213677   2.316   4.339   0.627 -1.3363  1.0846 -0.2496
  931MPD2    H313678   2.336   4.251   0.850 -3.9427  1.5101 -0.4224
  931MPD2     N13679   2.603   4.582   0.987  0.4416 -0.7497 -0.7581
  931MPD2    H513680   2.633   4.520   1.062 -1.6022 -0.4225  0.3171
  931MPD2    N113681   2.425   4.555   0.530 -0.3951 -0.5482 -0.8050
  931MPD2    H713682   2.361   4.500   0.474  0.9383 -0.2755 -2.5787
  932MPD2     C13683   3.482   4.650  11.047 -0.1962  0.5605  0.2837
  932MPD2    C113684   3.615   4.614  11.056 -0.0937  0.0091  0.4957
  932MPD2    C213685   3.640   4.490  11.120  0.5473  0.1927  0.2391
  932MPD2    C313686   3.540   4.411  11.167  0.2800  0.2394 -0.6626
  932MPD2    C413687   3.407   4.444  11.144 -0.9301 -0.1283  0.3908
  932MPD2    C513688   3.370   4.566  11.085 -0.2293  0.2089  0.1483
  932MPD2     H13689   3.742   4.461  11.140  0.6345 -0.9878 -1.8796
  932MPD2    H113690   3.329   4.379  11.182 -0.8956  0.0523  0.7664
  932MPD2    H213691   3.454   0.009  11.006  0.3371  0.2967 -0.6842
  932MPD2    H313692   3.267   4.597  11.074  0.5378  3.7782  2.6073
  932MPD2     N13693   3.564   4.291  11.232 -0.2458  0.6982 -0.0602
  932MPD2    H513694   3.480   4.253  11.273 -1.3192  2.1309 -0.9298
  932MPD2    N113695   3.723   4.694  11.021  0.4697 -0.5184  0.4440
  932MPD2    H713696   3.812   4.646  11.026 -0.7082 -2.7897 -0.4346
  933MPD2     C13697   4.515   3.497   0.892  0.6061 -0.2983  0.1313
  933MPD2    C113698   4.607   3.594   0.927  0.4165  0.2509  0.9602
  933MPD2    C213699   4.610   3.710   0.855 -0.5879 -0.9306 -0.8179
  933MPD2    C313700   4.527   3.722   0.739  0.1234 -0.1947 -0.0101
  933MPD2    C413701   4.432   3.624   0.702  0.4080  0.5140  0.4850
  933MPD2    C513702   4.429   3.510   0.786  0.2794 -0.2995  0.5958
  933MPD2     H13703   4.665   3.796   0.892 -1.1357  0.0690 -2.2807
  933MPD2    H113704   4.369   3.640   0.616 -1.3917  0.2213  1.7416
  933MPD2    H213705   4.504   3.409   0.954 -0.2228  0.4240  1.0070
  933MPD2    H313706   4.366   3.429   0.753  0.4467 -0.7408  1.3535
  933MPD2     N13707   4.551   3.838   0.662 -0.7968 -0.0179  0.0415
  933MPD2    H513708   4.624   3.900   0.696 -1.3554  0.1917  0.8550
  933MPD2    N113709   4.681   3.576   1.043 -0.4447 -0.2694 -0.1978
  933MPD2    H713710   4.681   3.483   1.085 -1.6060 -0.4963 -0.6897
  934MPD2     C13711   2.817   0.478   1.361  0.0754  0.0944 -0.1545
  934MPD2    C113712   2.797   0.445   1.233 -0.5114  0.7002 -0.3548
  934MPD2    C213713   2.671   0.411   1.198 -0.6025  0.2331 -0.0325
  934MPD2    C313714   2.568   0.410   1.292 -0.0946 -0.8990 -0.0531
  934MPD2    C413715   2.593   0.429   1.425 -0.6013 -0.6604 -0.2460
  934MPD2    C513716   2.713   0.472   1.460  0.9535  0.0185 -0.3223
  934MPD2     H13717   2.643   0.381   1.098 -1.1010  1.5596 -0.2889
  934MPD2    H113718   2.526   0.402   1.505 -2.6160 -3.1951 -2.7841
  934MPD2    H213719   2.913   0.514   1.397  0.6448 -0.9307 -0.6569
  934MPD2    H313720   2.734   0.499   1.563  2.3235 -0.2089 -0.5457
  934MPD2     N13721   2.439   0.369   1.261  0.7904  0.1158 -0.1303
  934MPD2    H513722   2.376   0.369   1.340  1.0627  0.5285  0.0873
  934MPD2    N113723   2.895   0.453   1.132 -0.0046 -0.5332 -0.1655
  934MPD2    H713724   2.868   0.445   1.035  0.1450  0.4933 -0.2957
  935MPD2     C13725   2.088   4.734   0.433  0.3101  0.3241  0.1110
  935MPD2    C113726   2.009   4.677   0.527  0.1121 -0.1148  0.2800
  935MPD2    C213727   1.999   4.729   0.654 -1.1278  0.5971 -0.4771
  935MPD2    C313728   2.089   0.095   0.693 -0.5038  1.0885  0.3062
  935MPD2    C413729   2.173   0.145   0.598 -0.0247 -0.5079 -0.1655
  935MPD2    C513730   2.168   0.101   0.469 -0.4621 -0.1660  0.2029
  935MPD2     H13731   1.938   4.675   0.726  2.6679 -0.6754  1.7561
  935MPD2    H113732   2.233   0.234   0.613 -4.0004  2.1161  0.1256
  935MPD2    H213733   2.095   4.710   0.327  0.3054  0.6886  0.0284
  935MPD2    H313734   2.233   0.151   0.398  1.5095 -1.9657  0.7567
  935MPD2     N13735   2.110   0.141   0.825 -0.1235 -0.0790  0.3957
  935MPD2    H513736   2.175   0.217   0.841  0.1966 -0.3414  0.3449
  935MPD2    N113737   1.929   4.564   0.496 -0.1578 -0.3578  0.1710
  935MPD2    H713738   1.857   4.534   0.561 -1.3681  0.7699 -0.6494
  936MPD2     C13739   4.353   2.261  12.221 -0.1210  0.7006  0.3779
  936MPD2    C113740   4.328   2.338  12.334 -0.9419 -0.0889 -0.3710
  936MPD2    C213741   4.253   2.455  12.316 -0.1992 -0.5708  0.2017
  936MPD2    C313742   4.218   2.506  12.188 -0.0548  0.6147 -0.5281
  936MPD2    C413743   4.252   2.429  12.080 -0.3384  0.3422  0.0793
  936MPD2    C513744   4.310   2.312  12.097 -0.1796  0.6492  0.3148
  936MPD2     H13745   4.219   2.515  12.400 -0.6336 -0.2541 -0.2009
  936MPD2    H113746   4.232   2.461  11.978 -2.0075  1.1726  0.6797
  936MPD2    H213747   4.395   2.161  12.228 -1.0526  0.4107  1.7680
  936MPD2    H313748   4.326   2.259  12.003  0.1470 -1.8102  1.7516
  936MPD2     N13749   4.151   2.633  12.184  0.4107  0.5308 -0.0643
  936MPD2    H513750   4.124   2.679  12.271  4.2289  2.0686  0.3167
  936MPD2    N113751   4.366   2.304  12.463 -0.0420 -0.8045  0.3810
  936MPD2    H713752   4.355   2.378  12.532 -0.2286 -1.3681  0.9642
  937MPD2     C13753   2.615   4.132  11.553 -0.1989 -0.6971  0.0014
  937MPD2    C113754   2.660   4.252  11.515 -0.3111 -0.0650  0.6437
  937MPD2    C213755   2.731   4.265  11.399  0.0145  0.0017 -0.1700
  937MPD2    C313756   2.759   4.160  11.316  0.4038  0.3771 -0.1705
  937MPD2    C413757   2.712   4.034  11.352 -0.1373  0.2055  0.1559
  937MPD2    C513758   2.639   4.021  11.469 -0.2589 -0.3159  0.6042
  937MPD2     H13759   2.754   4.365  11.367 -0.8645 -0.8971 -3.6039
  937MPD2    H113760   2.727   3.948  11.288  0.2420  0.3893  0.0056
  937MPD2    H213761   2.559   4.110  11.643 -1.8115  0.7248 -0.6528
  937MPD2    H313762   2.600   3.922  11.491  0.1932 -0.1635  2.0926
  937MPD2     N13763   2.824   4.189  11.193  0.7620 -0.2905 -0.3856
  937MPD2    H513764   2.842   4.288  11.181  0.5802  0.0835  2.3403
  937MPD2    N113765   2.612   4.382  11.561 -0.4152  0.1220 -0.0374
  937MPD2    H713766   2.663   4.463  11.528  1.2863 -0.8202  0.3213
  938MPD2     C13767   0.808   0.127   0.814  0.1848  0.0171 -0.7241
  938MPD2    C113768   0.786   0.247   0.883 -0.6762  0.2691  0.3828
  938MPD2    C213769   0.662   0.249   0.947  0.2597 -0.5260 -0.6669
  938MPD2    C313770   0.564   0.154   0.941  0.1495 -0.1672 -0.5459
  938MPD2    C413771   0.583   0.039   0.862 -0.6423  0.2332  0.4372
  938MPD2    C513772   0.711   0.023   0.809 -0.2284 -1.1380 -0.1522
  938MPD2     H13773   0.636   0.340   1.001 -0.7977 -0.4341 -1.3290
  938MPD2    H113774   0.515   4.692   0.857 -1.6415  0.9925  1.2481
  938MPD2    H213775   0.899   0.113   0.757 -0.8113 -1.1066 -2.0109
  938MPD2    H313776   0.712   4.674   0.743 -1.6507  0.0260 -1.6830
  938MPD2     N13777   0.464   0.160   1.044  0.3220  0.3647 -0.3416
  938MPD2    H513778   0.466   0.240   1.106  3.1321 -0.9678  1.2508
  938MPD2    N113779   0.867   0.365   0.894  0.1759  0.2974 -0.1864
  938MPD2    H713780   0.832   0.439   0.954 -1.0722 -2.4521  2.4609
  939MPD2     C13781   1.635   1.160   0.756  0.3434  0.0858 -0.2653
  939MPD2    C113782   1.660   1.286   0.705  0.2320  0.2783 -0.1404
  939MPD2    C213783   1.742   1.292   0.595 -0.7606 -0.1406 -0.1124
  939MPD2    C313784   1.805   1.177   0.542  0.0397 -0.2504  0.0858
  939MPD2    C413785   1.765   1.050   0.587 -0.5452 -0.4832  0.1891
  939MPD2    C513786   1.694   1.051   0.705 -0.1581 -0.3449  0.6031
  939MPD2     H13787   1.773   1.388   0.554  2.4939 -0.3340  1.8925
  939MPD2    H113788   1.793   0.952   0.550  0.4708  0.2165 -0.8766
  939MPD2    H213789   1.585   1.141   0.850  0.3619 -0.8145 -0.4398
  939MPD2    H313790   1.660   0.959   0.753 -1.2131  0.3481  1.1881
  939MPD2     N13791   1.897   1.200   0.441  0.3440  0.0502  0.1246
  939MPD2    H513792   1.899   1.298   0.415  1.1699  0.1782  0.6862
  939MPD2    N113793   1.606   1.398   0.783 -0.2919 -0.6622  0.0238
  939MPD2    H713794   1.554   1.389   0.870 -1.6735  1.7640 -0.5394
  940MPD2     C13795   1.169   2.738  12.548 -0.5085 -0.1469 -0.6366
  940MPD2    C113796   1.174   2.635  12.636  0.4195 -0.7209 -0.0393
  940MPD2    C213797   1.106   2.519  12.620 -0.5539  0.3049 -0.7879
  940MPD2    C313798   1.026   2.497  12.511  0.3511 -0.3645  0.6168
  940MPD2    C413799   1.022   2.593  12.413 -0.5754  0.3801  0.2730
  940MPD2    C513800   1.089   2.715  12.438 -0.3874  0.1769  0.2528
  940MPD2     H13801   1.104   2.448  12.702 -0.5606  0.7964 -0.3642
  940MPD2    H113802   0.953   2.579  12.330  0.7214  1.0048 -0.9231
  940MPD2    H213803   1.210   2.837  12.562  1.3275 -0.8916 -0.7743
  940MPD2    H313804   1.079   2.805  12.378  0.0182 -2.7962 -4.3048
  940MPD2     N13805   0.943   2.385  12.499 -0.3876 -0.2570  0.1309
  940MPD2    H513806   0.900   2.373  12.408 -0.7052  2.4924 -0.0973
  940MPD2    N113807   1.265   2.647  12.748  0.6855 -0.1924  0.2872
  940MPD2    H713808   1.266   2.573  12.817  2.2268  2.1430  2.8033
  941MPD2     C13809   3.785   2.154  10.205  0.3204 -0.7945  0.9291
  941MPD2    C113810   3.899   2.102  10.135  0.3516 -0.4755  0.0328
  941MPD2    C213811   3.937   1.972  10.169  0.1566  0.0811 -0.1564
  941MPD2    C313812   3.860   1.892  10.249  0.7347 -0.1310 -0.1046
  941MPD2    C413813   3.753   1.944  10.316 -0.1028 -0.0673  0.1396
  941MPD2    C513814   3.717   2.074  10.295  0.5562  0.1516 -0.3166
  941MPD2     H13815   4.023   1.927  10.120  0.4456 -0.7576  1.1159
  941MPD2    H113816   3.697   1.877  10.379 -0.8389  0.8561  0.4606
  941MPD2    H213817   3.761   2.259  10.191  1.7542 -0.5252  0.5502
  941MPD2    H313818   3.629   2.122  10.337  0.8526 -0.2504  0.7661
  941MPD2     N13819   3.878   1.747  10.255 -0.0429  0.6547  0.3514
  941MPD2    H513820   3.800   1.693  10.292 -1.5233  0.6540 -2.7699
  941MPD2    N113821   3.986   2.173  10.046  0.6290  0.4356 -0.7266
  941MPD2    H713822   4.075   2.133  10.019 -0.4573 -1.8242 -1.0354
  942MPD2     C13823   3.793   2.968   9.843  0.1338 -0.6886 -0.2971
  942MPD2    C113824   3.851   2.995   9.722  0.0419  0.3463  0.0098
  942MPD2    C213825   3.782   3.076   9.630  0.3723 -0.2782  0.0353
  942MPD2    C313826   3.650   3.115   9.653 -0.9168  0.8178  0.2272
  942MPD2    C413827   3.589   3.077   9.772  0.1289  0.4122 -0.1239
  942MPD2    C513828   3.663   3.004   9.864 -1.4679  0.0534  0.0775
  942MPD2     H13829   3.836   3.117   9.546  0.0076 -3.9125 -1.9463
  942MPD2    H113830   3.492   3.117   9.798  0.7916  1.0145  1.3993
  942MPD2    H213831   3.840   2.922   9.929 -0.5498  1.2344  1.1152
  942MPD2    H313832   3.634   2.996   9.968  1.6127 -0.8427  0.8601
  942MPD2     N13833   3.568   3.197   9.565  0.0127 -0.0384  0.0213
  942MPD2    H513834   3.471   3.214   9.589  0.4911  4.6065 -1.4663
  942MPD2    N113835   3.977   2.958   9.688  0.7614  0.0594  0.5115
  942MPD2    H713836   4.016   3.002   9.606 -0.7695  0.0967 -0.2017
  943MPD2     C13837   3.201   0.958   9.156  0.5789 -0.7892  0.2327
  943MPD2    C113838   3.114   1.006   9.252 -0.0903 -0.7674  0.0960
  943MPD2    C213839   3.157   1.102   9.342 -0.2560  0.4889  0.1627
  943MPD2    C313840   3.292   1.121   9.340 -0.0152  0.8193  0.0004
  943MPD2    C413841   3.378   1.064   9.243 -0.1559  0.4012  0.3047
  943MPD2    C513842   3.330   0.979   9.153  0.2419 -0.0343 -0.0198
  943MPD2     H13843   3.089   1.154   9.409 -2.2907 -1.3991 -0.4341
  943MPD2    H113844   3.483   1.089   9.240  0.2527 -1.2689  0.9858
  943MPD2    H213845   3.162   0.885   9.086  2.5117 -0.7132 -0.9387
  943MPD2    H313846   3.398   0.937   9.080 -1.6931 -2.0435 -0.6549
  943MPD2     N13847   3.349   1.208   9.440  0.5101 -0.4478  0.0464
  943MPD2    H513848   3.285   1.224   9.518  0.4535  2.1753 -0.5379
  943MPD2    N113849   2.971   0.968   9.241  0.2636  0.3850  0.1552
  943MPD2    H713850   2.954   0.894   9.173 -0.0405  0.8161 -0.2345
  944MPD2     C13851   2.581   1.142  11.145  0.0270 -1.0254  0.0476
  944MPD2    C113852   2.454   1.170  11.105  0.2459  0.1640  0.0681
  944MPD2    C213853   2.375   1.254  11.178 -0.2313 -0.6590  0.1091
  944MPD2    C313854   2.415   1.299  11.301 -0.1382  0.1985  0.7377
  944MPD2    C413855   2.549   1.277  11.343  0.9477 -0.5637  0.5547
  944MPD2    C513856   2.628   1.199  11.260 -0.0288 -0.1644 -0.0444
  944MPD2     H13857   2.278   1.284  11.139 -0.7409 -2.8907 -0.3344
  944MPD2    H113858   2.588   1.313  11.438 -2.0095 -0.7970  1.8873
  944MPD2    H213859   2.658   1.088  11.090  0.1263 -0.8606  0.0251
  944MPD2    H313860   2.734   1.191  11.280  0.4031  2.0356 -1.4532
  944MPD2     N13861   2.325   1.382  11.375  0.2923  0.1056 -0.2523
  944MPD2    H513862   2.236   1.409  11.335 -0.5034  0.9371  2.0977
  944MPD2    N113863   2.397   1.123  10.987 -0.2530  0.5748  0.1799
  944MPD2    H713864   2.304   1.157  10.963 -0.9271  0.4042  2.5363
    1TMC1    C113865   1.137   2.612  14.898  1.0984 -0.2445 -0.1665
    1TMC1    C213866   1.121   2.743  14.929 -0.0254  0.1197 -0.5094
    1TMC1    C313867   1.148   2.770  15.060  0.0575  0.1589 -0.4110
    1TMC1    C413868   1.180   2.512  14.987  0.2459  0.8837  1.0090
    1TMC1    C513869   1.187   2.548  15.115 -1.1687  0.3719 -0.1054
    1TMC1    C613870   1.168   2.674  15.152  0.2089 -0.9745  0.0750
    1TMC1     C13871   1.141   2.577  14.758  0.0689 -0.7416  0.2396
    1TMC1     O13872   1.207   2.652  14.688 -0.5756 -0.0504  0.9633
    1TMC1     H13873   1.099   2.822  14.858 -1.5881  0.7308  0.6424
    1TMC1    H113874   1.218   2.418  14.948 -1.0320  0.4969  0.6989
    1TMC1    H213875   1.207   2.697  15.251 -2.1566 -1.5710  1.1301
    1TMC1    C713876   1.281   2.481  15.206  0.7058 -0.2130  0.2584
    1TMC1    C813877   1.105   2.889  15.119  0.2847  0.0177  0.2265
    1TMC1    O113878   1.356   2.539  15.281 -0.4820  0.0231  0.3314
    1TMC1    O213879   1.098   2.891  15.243  0.8597 -0.4689 -0.3897
    1TMC1    O313880   1.299   2.356  15.157 -0.1638 -0.1182  0.5843
    1TMC1    H313881   1.223   2.324  15.103 -0.7846 -0.2484  1.5321
    1TMC1    O513882   1.010   2.942  15.035 -0.0910  0.3745 -0.4153
    1TMC1    H513883   1.076   2.973  14.969 -0.7016  0.2679 -1.0652
    2MPD2     C13884   0.969   2.370  14.328  0.0042 -0.4547 -0.2957
    2MPD2    C113885   1.092   2.416  14.360  0.3350  0.3221  0.6270
    2MPD2    C213886   1.124   2.454  14.492 -0.0330 -0.5480  0.0980
    2MPD2    C313887   1.034   2.435  14.590  0.2699  0.3799 -0.0591
    2MPD2    C413888   0.913   2.372  14.560 -0.2778  0.7673  0.9111
    2MPD2    C513889   0.877   2.362  14.431 -0.3363 -0.1045  0.2402
    2MPD2     H13890   1.218   2.499  14.523  0.9685 -1.9539 -0.9476
    2MPD2    H113891   0.839   2.348  14.636  0.1279  1.5689  1.5630
    2MPD2    H213892   0.938   2.356  14.225 -0.6816  2.2539 -0.4421
    2MPD2    H313893   0.777   2.330  14.405 -0.6879  0.7738  0.5344
    2MPD2     N13894   1.056   2.476  14.724  0.9096  0.0134  0.6939
    2MPD2    H513895   0.979   2.462  14.788  0.7237  0.6278  0.6125
    2MPD2    N113896   1.183   2.434  14.256  0.5570 -0.1203  0.1797
    2MPD2    H713897   1.157   2.404  14.163  0.1320 -2.0965  0.9404
    3TMC2    C113898   1.379   2.472  14.135  0.0262  0.5112  0.3134
    3TMC2    C213899   1.298   2.507  14.027  0.5131 -0.6490 -0.5151
    3TMC2    C313900   1.366   2.536  13.912 -0.5957  0.1297  0.2695
    3TMC2    C413901   1.515   2.462  14.128 -0.6618  0.5047 -0.2234
    3TMC2    C513902   1.574   2.503  14.013  0.0220  0.5014  1.1829
    3TMC2    C613903   1.503   2.528  13.895  0.3219 -0.7944 -0.9914
    3TMC2     C13904   1.318   2.455  14.270  0.9751  0.3546 -0.0382
    3TMC2     O13905   1.390   2.439  14.365 -0.7281  0.4420 -0.2116
    3TMC2     H13906   1.196   2.536  14.050  1.2453  0.8144  0.8585
    3TMC2    H113907   1.573   2.442  14.217 -1.0063 -0.8053 -0.2958
    3TMC2    H213908   1.550   2.563  13.804 -2.6871  1.4614 -1.6784
    3TMC2    C713909   1.704   2.566  14.029  0.4101  0.0308 -0.2576
    3TMC2    C813910   1.292   2.577  13.801  0.1970  0.4206 -0.3503
    3TMC2    O113911   1.778   2.517  14.116  0.4426 -0.2188  0.1098
    3TMC2    O213912   1.345   2.645  13.713 -0.0377 -0.3595 -0.3126
    3TMC2    O513913   1.164   2.586  13.837  0.2466 -0.2021 -0.3968
    3TMC2    H513914   1.144   2.514  13.901  3.7358 -0.0988  0.8598
    4TMC2    C113915   1.839   3.328  13.400  0.5680  0.2518  0.2234
    4TMC2    C213916   1.953   3.393  13.442  0.1072 -1.5066 -0.3138
    4TMC2    C313917   2.056   3.324  13.493 -0.1057 -0.1604  0.6265
    4TMC2    C413918   1.824   3.192  13.428  0.0642  0.7855 -0.4587
    4TMC2    C513919   1.928   3.124  13.489 -0.0350  0.3208  0.1347
    4TMC2    C613920   2.049   3.189  13.512 -0.3654  0.5827 -0.5054
    4TMC2     C13921   1.754   3.399  13.308  0.0292 -0.4674  0.4927
    4TMC2     O13922   1.775   3.518  13.280  0.2134  0.0457 -0.2729
    4TMC2     H13923   1.969   3.495  13.409  0.8614 -1.3777  0.4810
    4TMC2    H113924   1.727   3.146  13.410 -0.3095  1.5660 -0.4413
    4TMC2    H213925   2.136   3.132  13.543 -0.5260 -1.0647 -3.0977
    4TMC2    C713926   1.886   3.004  13.563  0.1761  0.1358 -0.1952
    4TMC2    C813927   2.187   3.381  13.489  1.0721  0.5024 -0.6069
    4TMC2    O113928   1.777   2.956  13.542  0.0193 -1.0671  0.7988
    4TMC2    O213929   2.284   3.323  13.443 -0.8760 -0.2384 -0.3650
    4TMC2    O513930   2.178   3.513  13.506 -0.0371 -0.1418 -0.4133
    4TMC2    H513931   2.097   3.519  13.560  1.4864  0.3704  1.8337
    5MPD2     C13932   1.356   3.423  12.992 -0.0914  0.3817 -0.4579
    5MPD2    C113933   1.354   3.296  13.044  0.0876 -0.3128 -0.1064
    5MPD2    C213934   1.452   3.266  13.138  0.3270 -0.4104  0.8603
    5MPD2    C313935   1.549   3.357  13.173  0.2638  0.6888 -0.1687
    5MPD2    C413936   1.546   3.485  13.109 -0.4515  0.9709  0.0959
    5MPD2    C513937   1.451   3.522  13.015  0.4166 -0.4660 -0.7458
    5MPD2     H13938   1.447   3.169  13.186 -3.0232 -0.8281 -0.3363
    5MPD2    H113939   1.609   3.563  13.149  1.1945  0.1495 -0.9048
    5MPD2    H213940   1.273   3.449  12.926 -0.6623  0.0447  0.1258
    5MPD2    H313941   1.444   3.622  12.975 -0.7730 -0.6316 -0.9524
    5MPD2     N13942   1.652   3.320  13.260  0.5795 -0.0856  0.4121
    5MPD2    H513943   1.653   3.223  13.290 -0.4302  0.2544  1.5359
    5MPD2    N113944   1.253   3.212  12.994 -1.2642  0.2847 -0.5042
    5MPD2    H713945   1.199   3.255  12.921 -0.6047  0.0677 -1.1183
    6MPD1     C13946   4.373   3.449  12.148 -0.1124 -0.3348 -0.0443
    6MPD1    C113947   4.353   3.384  12.269 -0.4121  0.3722  0.7398
    6MPD1    C213948   4.449   3.296  12.321 -0.0930 -0.0109 -0.4836
    6MPD1    C313949   4.573   3.290  12.261  0.5227 -0.7225  0.8385
    6MPD1    C413950   4.585   3.340  12.131  0.0771  0.1265 -0.2897
    6MPD1    C513951   4.478   3.412  12.077 -0.2611  0.0704 -1.0674
    6MPD1     H13952   4.433   3.252  12.419 -0.6217  0.4154 -0.3747
    6MPD1    H113953   4.680   3.324  12.083  0.5483 -0.0468  0.6977
    6MPD1    H213954   4.298   3.512  12.102  0.7069 -1.9155 -3.5242
    6MPD1    H313955   4.498   3.461  11.982 -0.4577 -0.1043 -1.1978
    6MPD1     N13956   4.692   3.234  12.311  0.1300 -0.3198  0.4272
    6MPD1    H513957   0.036   3.242  12.250 -1.0354  0.0859 -1.0439
    6MPD1    N113958   4.224   3.386  12.313 -0.1793 -0.0285  0.3515
    6MPD1    H613959   4.186   3.481  12.308  0.4837  0.1866 -0.5586
    6MPD1    H713960   4.211   3.352  12.408 -0.4175  1.8375  1.0026
    7MPD2     C13961   0.370   2.783  12.963 -0.2995 -0.9589 -0.0508
    7MPD2    C113962   0.436   2.815  12.843  0.0250 -0.3333  0.1387
    7MPD2    C213963   0.572   2.805  12.842  0.0036  0.4230  0.2053
    7MPD2    C313964   0.643   2.775  12.954 -0.1143  0.6325 -0.0938
    7MPD2    C413965   0.583   2.730  13.073  1.0414 -0.1704 -0.6399
    7MPD2    C513966   0.445   2.726  13.065 -0.0574  0.1449  0.0397
    7MPD2     H13967   0.624   2.820  12.748  2.6974 -0.0546  1.6337
    7MPD2    H113968   0.635   2.680  13.154  0.1336 -0.6547 -0.3598
    7MPD2    H213969   0.262   2.780  12.971 -0.4568 -3.2387 -3.1343
    7MPD2    H313970   0.399   2.685  13.154  0.1006  0.4883  0.2789
    7MPD2     N13971   0.784   2.784  12.942 -0.0555 -0.0370 -0.1617
    7MPD2    H513972   0.814   2.824  12.853  0.0621 -1.7114 -0.8772
    7MPD2    N113973   0.366   2.859  12.724 -0.0140 -0.0782  0.5489
    7MPD2    H713974   0.417   2.867  12.637 -1.4139  2.1058 -0.0657
    8TMC3    C113975   1.000   2.808  13.002 -0.1580  0.4021  0.4951
    8TMC3    C213976   1.066   2.908  13.071 -0.3022 -0.3402 -0.1491
    8TMC3    C313977   1.127   3.009  12.997 -0.2731  0.4365 -0.3888
    8TMC3    C413978   0.999   2.801  12.868  0.3088  0.3674 -0.1459
    8TMC3    C513979   1.041   2.917  12.800  0.1397  0.3587  0.1575
    8TMC3    C613980   1.107   3.022  12.864 -0.1301  0.4499 -0.4771
    8TMC3     C13981   0.865   2.775  13.051 -0.6907  0.8513  0.4192
    8TMC3     O13982   0.836   2.775  13.169 -0.0032 -0.1472  0.1132
    8TMC3     H13983   1.047   2.913  13.177  3.0948 -1.5294  0.4997
    8TMC3    H113984   0.958   2.723  12.805  3.3203 -1.4082  0.1081
    8TMC3    H213985   1.134   3.116  12.817  2.2066 -0.2145 -0.4603
    8TMC3    C713986   0.945   2.953  12.699 -0.2304  0.5211  0.5811
    8TMC3    C813987   1.219   3.095  13.058 -0.2005 -0.1276 -0.2634
    8TMC3    O113988   0.844   2.886  12.700  0.3983  0.0063 -0.0554
    8TMC3    O213989   1.259   3.054  13.169 -0.1449  0.3612 -0.2630
    9TMC3    C113990   0.099   3.139  12.467 -0.1692 -0.0984 -0.6182
    9TMC3    C213991   0.210   3.181  12.398  0.0610  0.0494  0.0310
    9TMC3    C313992   0.334   3.128  12.437 -0.7486 -1.1410 -0.9340
    9TMC3    C413993   0.108   3.046  12.570 -0.0718  0.1915  0.0927
    9TMC3    C513994   0.230   3.006  12.605 -0.6282 -0.1955  0.4508
    9TMC3    C613995   0.345   3.047  12.541 -0.2110 -0.2619  0.5986
    9TMC3     C13996   4.708   3.192  12.438  0.4464  0.4204  0.2508
    9TMC3     O13997   4.629   3.185  12.529 -0.0115 -0.4148 -0.2976
    9TMC3     H13998   0.211   3.255  12.318  0.5988 -0.0828 -0.0851
    9TMC3    H113999   0.027   3.015  12.635 -2.0683  2.3055 -1.4032
    9TMC3    H214000   0.441   3.050  12.593  0.7548  0.0524 -1.1843
    9TMC3    C714001   0.246   2.919  12.720  0.4060  0.1293  0.0914
    9TMC3    C814002   0.451   3.180  12.378  0.6785  0.2225  0.2493
    9TMC3    O114003   0.167   2.929  12.810  0.2597 -0.2069 -0.2448
    9TMC3    O214004   0.448   3.285  12.314 -0.0093 -0.3922  0.5450
   10MPD2     C14005   0.927   3.276  12.515 -0.4200  0.5125  0.2784
   10MPD2    C114006   0.894   3.147  12.542 -0.4082 -0.1649  0.1421
   10MPD2    C214007   0.772   3.091  12.504 -0.5631  0.1871  0.0339
   10MPD2    C314008   0.690   3.169  12.427 -0.6002  1.0762  0.2810
   10MPD2    C414009   0.723   3.302  12.399  0.2286  0.0093  0.5203
   10MPD2    C514010   0.843   3.351  12.439  0.3640 -0.1350 -0.0075
   10MPD2     H14011   0.750   2.985  12.512 -1.3867  0.4019  0.6703
   10MPD2    H114012   0.658   3.362  12.335 -1.0984 -0.8675  1.0449
   10MPD2    H214013   1.028   3.314  12.526 -0.2913  0.4561 -0.7287
   10MPD2    H314014   0.881   3.444  12.398 -0.9350  0.2532 -0.3576
   10MPD2     N14015   0.566   3.107  12.404  0.5655  0.3791 -0.1225
   10MPD2    H514016   0.556   3.012  12.438  1.0119 -0.4051 -2.1805
   10MPD2    N114017   0.971   3.071  12.634 -0.0758  0.0071  0.0459
   10MPD2    H714018   1.063   3.107  12.654  0.3861 -0.4814 -1.2028
   11MPD2     C14019   1.975   2.688  13.972  0.0437 -0.0663 -0.4720
   11MPD2    C114020   1.855   2.723  13.917 -0.9796 -0.2747 -0.1501
   11MPD2    C214021   1.854   2.819  13.819  0.1725 -0.5523  0.4098
   11MPD2    C314022   1.972   2.882  13.774  0.4256 -0.7761  0.0350
   11MPD2    C414023   2.089   2.843  13.837 -0.1924  0.5334 -0.7945
   11MPD2    C514024   2.089   2.741  13.928 -0.5934 -1.3200 -0.1840
   11MPD2     H14025   1.762   2.854  13.773  1.7232  1.4306 -1.2065
   11MPD2    H114026   2.176   2.890  13.794  0.3635 -0.2591 -0.5466
   11MPD2    H214027   1.986   2.618  14.054  1.5871 -0.7067 -1.2161
   11MPD2    H314028   2.182   2.709  13.974  0.0132 -1.6559 -1.6229
   11MPD2     N14029   1.983   2.969  13.659  0.6415  0.6212 -0.6289
   11MPD2    H514030   2.071   3.021  13.661 -0.1387  1.8903  0.5341
   11MPD2    N114031   1.729   2.666  13.948 -0.1919  0.6400  0.3189
   11MPD2    H714032   1.649   2.696  13.894  0.1268 -2.3827 -1.8818
    1MPD1     C14033   4.409   4.356  15.984 -0.6193  0.2647 -0.9074
    1MPD1    C114034   4.385   4.460  16.071 -0.1292  0.1901  0.1016
    1MPD1    C214035   4.398   4.439  16.208  0.0464 -0.0538  0.9076
    1MPD1    C314036   4.404   4.311  16.264 -0.3455 -0.3695 -0.3122
    1MPD1    C414037   4.416   4.204  16.178 -0.1759 -0.0576 -0.5654
    1MPD1    C514038   4.416   4.230  16.035 -0.4191 -0.0337 -0.0643
    1MPD1     H14039   4.414   4.516  16.283  1.9628  1.7059 -1.3026
    1MPD1    H114040   4.446   4.105  16.210 -2.8417 -0.7011 -0.1113
    1MPD1    H214041   4.414   4.377  15.878  0.2506  0.1015 -0.8988
    1MPD1    H314042   4.423   4.145  15.968  0.6039 -1.1410  1.4579
    1MPD1     N14043   4.425   4.306  16.401  0.5939 -0.6197 -0.1082
    1MPD1    H514044   4.429   4.393  16.453  1.7138 -1.0213  0.4723
    1MPD1    N114045   4.398   4.596  16.022  0.0540 -0.2205 -0.3857
    1MPD1    H614046   4.343   4.662  16.076 -1.3157 -0.8949 -0.9818
    1MPD1    H714047   4.377   4.620  15.926  2.5283 -0.7773 -1.0754
    2MPD1     C14048   4.503   0.145  17.209  0.4650  0.1712  0.2922
    2MPD1    C114049   4.558   0.029  17.259  0.6307  0.4331  0.5392
    2MPD1    C214050   4.560   4.655  17.177  0.2891  0.2926  0.1901
    2MPD1    C314051   4.530   4.664  17.051 -0.4510  0.2820  0.2282
    2MPD1    C414052   4.497   0.044  16.992 -0.0641 -0.2691 -0.3295
    2MPD1    C514053   4.479   0.153  17.075  0.5070 -0.2377 -0.6965
    2MPD1     H14054   4.589   4.557  17.213 -1.4295 -0.2468  0.0971
    2MPD1    H114055   4.456   0.050  16.892 -1.7572 -0.8072  0.3352
    2MPD1    H214056   4.490   0.235  17.267 -0.5599 -0.0977  0.4793
    2MPD1    H314057   4.437   0.243  17.031  1.6166  0.0048 -1.2526
    2MPD1     N14058   4.537   4.542  16.986 -0.2850 -0.5171 -0.0734
    2MPD1    H514059   4.556   4.456  17.037  2.2694  0.0623 -0.0749
    2MPD1    N114060   4.566   0.007  17.401  0.3245  0.0640 -0.5142
    2MPD1    H614061   4.635   4.674  17.425  1.0808  0.9591 -0.0618
    2MPD1    H714062   4.579   0.092  17.456  2.2808  0.7976 -2.1129
    3TMC3    C114063   4.509   4.382  16.805 -0.6441 -0.8708  0.0039
    3TMC3    C214064   4.548   4.281  16.882 -0.0071 -0.0128 -0.0636
    3TMC3    C314065   4.548   4.153  16.834 -0.3200 -0.4373 -0.2067
    3TMC3    C414066   4.482   4.364  16.670 -0.0466  0.5957  0.2295
    3TMC3    C514067   4.495   4.231  16.619  0.0353  1.0005 -0.2141
    3TMC3    C614068   4.542   4.127  16.696  0.8011  0.2483 -0.2777
    3TMC3     C14069   4.526   4.527  16.845 -0.1028  0.1455 -0.1162
    3TMC3     O14070   4.504   4.613  16.755  0.2862 -0.1439 -0.7404
    3TMC3     H14071   4.549   4.283  16.991 -1.3349 -1.0203 -0.0216
    3TMC3    H114072   4.464   4.451  16.607 -1.6009 -0.6125 -0.9859
    3TMC3    H214073   4.565   4.030  16.654 -0.9514  0.4689 -1.7354
    3TMC3    C714074   4.465   4.199  16.478  0.6025  0.3110 -0.2929
    3TMC3    C814075   4.546   4.038  16.919  0.8445  1.0804 -0.1087
    3TMC3    O114076   4.494   4.081  16.449  0.1138  0.3197  0.0846
    3TMC3    O214077   4.608   3.942  16.881 -0.0618  0.9798  0.0140
    4MPD1     C14078   4.459   3.832  17.394 -0.5745  0.4295 -0.0329
    4MPD1    C114079   4.404   3.955  17.382  0.8814  0.5808 -0.0404
    4MPD1    C214080   4.419   4.029  17.264  0.6956  0.0743 -0.2203
    4MPD1    C314081   4.486   3.974  17.154 -0.1512  0.0140 -0.1289
    4MPD1    C414082   4.543   3.845  17.161  0.0342 -1.1104 -0.0142
    4MPD1    C514083   4.526   3.777  17.282 -0.9499 -0.0915  0.7838
    4MPD1     H14084   4.390   4.133  17.255  1.1268  0.2143  0.0112
    4MPD1    H114085   4.591   3.807  17.071  0.4488  0.3261 -0.4117
    4MPD1    H214086   4.452   3.780  17.489  2.3512 -0.5724 -0.3659
    4MPD1    H314087   4.569   3.679  17.297  1.2118  0.9537  1.3385
    4MPD1     N14088   4.495   4.061  17.042  0.0979 -0.2759  0.4564
    4MPD1    H514089   4.438   4.145  17.053  0.9968  0.1826  1.6866
    4MPD1    N114090   4.337   4.008  17.486 -0.6536  0.6021  0.1764
    4MPD1    H614091   4.352   3.961  17.575 -1.6793 -4.1586 -2.1825
    4MPD1    H714092   4.317   4.107  17.480 -0.3231  0.5825 -1.1514
    1TCq1    O114093   4.243   4.417  10.312 -0.0613 -0.5315  0.0957
    1TCq1    C114094   4.192   4.478  10.423 -0.3371 -0.6784 -0.3062
    1TCq1    O214095   4.100   4.558  10.432  0.4992  0.2863 -0.0540
    1TCq1    C214096   4.238   4.410  10.542  0.3090  0.1267 -0.5721
    1TCq1    C314097   4.145   4.388  10.642 -0.8886 -0.4091 -0.5671
    1TCq1    C414098   4.176   4.312  10.746 -0.1393 -0.2588 -0.5993
    1TCq1    C514099   4.298   4.249  10.746  0.0058 -0.7013  0.0112
    1TCq1    C614100   4.388   4.263  10.642  0.0029 -0.0971 -0.0838
    1TCq1    C714101   4.364   4.361  10.542  0.4582  0.4837  0.3176
    1TCq1    C814102   4.529   4.246  10.664  0.7153  0.4188 -0.9674
    1TCq1    O414103   4.603   4.252  10.565  0.2566 -0.0921  0.2200
    1TCq1    C914104   4.085   4.256  10.842 -1.5455  0.5806  1.1564
    1TCq1    O514105   4.108   4.135  10.882  0.0835  0.0155  0.2382
    1TCq1    O614106   3.991   4.328  10.886 -0.1280 -0.2753  0.3118
    1TCq1    H114107   4.280   4.326  10.322  0.3596 -0.3238  0.4251
    1TCq1    H214108   4.045   4.419  10.616 -2.0498 -1.4082  2.7153
    1TCq1    H314109   4.314   4.173  10.822  0.4978  1.0955  1.6918
    1TCq1    H414110   4.434   4.382  10.462 -1.6027  0.1928 -1.5381
    2MPD1     C14111   0.208   4.200  10.939  0.0869 -0.9790 -0.3918
    2MPD1    C114112   0.108   4.266  11.017  0.4541  0.0488  0.1738
    2MPD1    C214113   4.712   4.271  10.974 -0.3918 -0.5466  0.6825
    2MPD1    C314114   4.691   4.220  10.847  1.5065 -0.2240  0.1376
    2MPD1    C414115   0.051   4.167  10.770 -0.5246  0.7677  1.0214
    2MPD1    C514116   0.181   4.157  10.814 -0.0651 -0.2664 -0.3471
    2MPD1     H14117   4.632   4.315  11.034 -0.7178  3.4291 -2.6812
    2MPD1    H114118   0.028   4.142  10.668  1.8141  1.1117  0.4249
    2MPD1    H214119   0.311   4.194  10.971  0.4171 -1.3002 -1.4894
    2MPD1    H314120   0.259   4.120  10.748 -0.1845 -1.6815  0.2921
    2MPD1     N14121   4.556   4.235  10.794  0.5644 -0.0815  0.3112
    2MPD1    H514122   4.486   4.268  10.859 -0.0634  1.7306 -1.2901
    2MPD1    N114123   0.141   4.341  11.134  0.1797  0.0890 -0.3463
    2MPD1    H614124   0.213   4.304  11.195  1.0738 -0.2521 -1.6147
    2MPD1    H714125   0.062   4.358  11.196  2.0877  0.9176  1.8063
    1TMC1    C114126   3.048   4.654   0.034 -0.1054 -0.1918  0.3842
    1TMC1    C214127   3.128   4.597   0.124 -0.2617 -1.0066  0.4931
    1TMC1    C314128   3.136   4.645   0.250  0.5189 -0.1578  0.7804
    1TMC1    C414129   2.978   0.027   0.070 -0.3705 -0.1025 -0.5294
    1TMC1    C514130   2.986   0.074   0.202 -0.5932  0.7497  0.4520
    1TMC1    C614131   3.060   0.007   0.297 -0.7419  0.7399 -0.7812
    1TMC1     C14132   3.023   4.581  17.658  0.1434 -0.0206 -0.2785
    1TMC1     O14133   3.077   4.469  17.653  0.2565 -0.5305 -0.5513
    1TMC1     H14134   3.199   4.523   0.089  0.4917 -1.1842  2.3905
    1TMC1    H114135   2.922   0.086  17.745 -2.1119  0.9843  1.7241
    1TMC1    H214136   3.075   0.049   0.396  0.8600 -1.3669 -0.1445
    1TMC1    C714137   2.906   0.193   0.231  0.1072 -0.2881 -0.4930
    1TMC1    C814138   3.233   4.574   0.341 -0.3601  0.6610 -0.2244
    1TMC1    O114139   2.891   0.288   0.161  0.0712  0.0289 -0.2061
    1TMC1    O214140   3.270   4.462   0.306 -0.5097 -0.3023  0.3920
    1TMC1    O314141   2.819   0.143   0.321 -0.3481 -0.3840  0.0516
    1TMC1    H314142   2.837   0.056   0.363 -1.3305 -1.1705 -1.1691
    1TMC1    O514143   3.208   4.599   0.473 -0.2407 -0.1083  0.1882
    1TMC1    H514144   3.203   4.695   0.495  0.0897  0.0386 -0.3760
    2MPD1     C14145   2.821   4.468  17.208 -0.4987 -0.0098  0.2104
    2MPD1    C114146   2.839   4.610  17.209 -0.4248  0.4255 -0.0046
    2MPD1    C214147   2.887   4.668  17.327  0.4489  0.1357  0.5862
    2MPD1    C314148   2.911   4.591  17.442 -0.0877  0.0061 -0.2605
    2MPD1    C414149   2.898   4.450  17.427 -0.0479  0.5491  0.3578
    2MPD1    C514150   2.849   4.390  17.315 -0.1321 -0.2619  0.3359
    2MPD1     H14151   2.896   0.039  17.334 -0.3267  0.2357 -0.0820
    2MPD1    H114152   2.931   4.382  17.505  0.7696 -0.5864 -0.9797
    2MPD1    H214153   2.774   4.413  17.127 -0.2109  0.9498 -0.6140
    2MPD1    H314154   2.831   4.283  17.311 -0.7680 -0.1904  1.5247
    2MPD1     N14155   2.960   4.658  17.561 -0.0946 -0.1050  0.3631
    2MPD1    H514156   2.962   0.022  17.573  1.0018  0.1636 -2.1336
    2MPD1    N114157   2.775   4.688  17.109 -0.2617 -0.0810  0.1007
    2MPD1    H614158   2.809   0.046  17.102  1.4370 -0.6418  0.7470
    2MPD1    H714159   2.790   4.641  17.019  0.7858  0.1788  0.1392
    1MPD1     C14160   0.043   3.619  11.573 -0.0339  0.4259  0.2636
    1MPD1    C114161   0.152   3.532  11.582  0.2342 -0.5849 -0.2569
    1MPD1    C214162   0.260   3.586  11.648 -0.2777  0.5779  0.5119
    1MPD1    C314163   0.272   3.718  11.677 -0.8125 -0.7095 -0.1359
    1MPD1    C414164   0.163   3.802  11.667  0.2661 -0.3372 -0.0523
    1MPD1    C514165   0.046   3.746  11.617 -0.0327  0.4980  0.1422
    1MPD1     H14166   0.344   3.520  11.664 -0.8823  0.1674  2.0089
    1MPD1    H114167   0.161   3.905  11.701  0.3791 -0.4325  0.2366
    1MPD1    H214168   4.684   3.600  11.527 -0.3332  0.4195  0.9029
    1MPD1    H314169   4.696   3.811  11.611 -0.6602 -0.4799 -1.1746
    1MPD1     N14170   0.398   3.757  11.726 -0.0824 -0.0361 -0.6166
    1MPD1    H514171   0.470   3.687  11.712  0.0928  0.1050 -0.4044
    1MPD1    N114172   0.134   3.393  11.561 -0.5444 -0.2670  0.1696
    1MPD1    H614173   0.064   3.379  11.489  0.4112  2.8003 -1.3169
    1MPD1    H714174   0.219   3.349  11.525  0.0944  0.6293  0.5756
    2MPD1     C14175   1.737   0.674  10.336  0.2562 -0.2166  0.0498
    2MPD1    C114176   1.749   0.599  10.449 -0.5161 -0.7526  0.3749
    2MPD1    C214177   1.721   0.462  10.442 -0.7665 -0.2941  0.1427
    2MPD1    C314178   1.655   0.409  10.332  0.7882  0.0761 -0.4023
    2MPD1    C414179   1.638   0.487  10.218 -0.4308  0.0071 -0.2804
    2MPD1    C514180   1.687   0.614  10.225  0.1552 -0.6801  0.3415
    2MPD1     H14181   1.750   0.399  10.525 -1.0460 -1.4410 -0.6166
    2MPD1    H114182   1.578   0.451  10.136  0.2034 -0.5888 -0.4838
    2MPD1    H214183   1.767   0.778  10.336 -2.0226  0.4461 -0.7971
    2MPD1    H314184   1.670   0.680  10.141  1.7915 -0.0832  0.4939
    2MPD1     N14185   1.604   0.277  10.331 -0.3671 -0.0668  0.1629
    2MPD1    H514186   1.551   0.249  10.249  0.9388 -1.7046 -0.1275
    2MPD1    N114187   1.821   0.651  10.559 -0.3643 -0.4324  0.3222
    2MPD1    H614188   1.785   0.613  10.646 -0.2575  1.0394  1.0258
    2MPD1    H714189   1.807   0.751  10.547  1.7345 -0.1374  0.3178
    3MPD1     C14190   1.394   4.254   9.749  0.8420  0.5390  0.2655
    3MPD1    C114191   1.284   4.326   9.769 -0.9455  0.8176 -0.6132
    3MPD1    C214192   1.272   4.412   9.873  0.1796  0.0501  0.0350
    3MPD1    C314193   1.386   4.438   9.938 -0.3549  0.2268  0.0887
    3MPD1    C414194   1.506   4.384   9.903 -0.1255 -0.0639 -0.0549
    3MPD1    C514195   1.510   4.293   9.803  0.0588 -0.1973  0.0166
    3MPD1     H14196   1.184   4.471   9.893  0.2546  0.5710 -1.1182
    3MPD1    H114197   1.602   4.412   9.945 -1.0438  0.6004  1.6180
    3MPD1    H214198   1.388   4.175   9.676 -2.2784 -1.2790  2.5131
    3MPD1    H314199   1.606   4.247   9.780  0.0038 -0.0343 -0.5338
    3MPD1     N14200   1.377   4.522  10.048  0.3507 -0.4367  0.7232
    3MPD1    H514201   1.285   4.535  10.088  1.1883  1.6080  1.9683
    3MPD1    N114202   1.177   4.292   9.689 -0.3680 -0.3674 -0.2903
    3MPD1    H614203   1.192   4.248   9.599 -1.2783 -3.0420  0.8616
    3MPD1    H714204   1.122   4.375   9.665 -0.3450  0.0578  1.1132
    4MPD2     C14205   0.881   4.410  11.767  0.5641  0.7093  0.5519
    4MPD2    C114206   0.900   4.278  11.737 -0.2738  0.2894  0.2821
    4MPD2    C214207   0.994   4.248  11.641  0.4133 -0.3757 -0.1222
    4MPD2    C314208   1.052   4.343  11.558  0.5355  0.2175  0.5048
    4MPD2    C414209   1.016   4.474  11.581  0.6328  0.2454 -0.4219
    4MPD2    C514210   0.941   4.505  11.690  0.1151  0.0899 -0.0782
    4MPD2     H14211   0.997   4.143  11.611  0.0293  0.0173 -1.5776
    4MPD2    H114212   1.054   4.561  11.529 -3.1633  0.5791 -2.6352
    4MPD2    H214213   0.814   4.449  11.843 -1.0460  0.7167 -0.8717
    4MPD2    H314214   0.912   4.609  11.703  4.1220  1.4152 -1.6503
    4MPD2     N14215   1.140   4.305  11.448 -0.0062  0.1862 -0.4398
    4MPD2    H514216   1.181   4.376  11.388  0.0727  0.2143 -0.3536
    4MPD2    N114217   0.836   4.171  11.804  0.0341  0.0383 -0.5466
    4MPD2    H714218   0.852   4.076  11.773  0.6958  0.0174 -0.1566
    5TMC3    C114219   0.707   4.038  11.944 -0.8298 -0.4155  0.5313
    5TMC3    C214220   0.577   4.007  11.913  0.2268  0.4019  0.3881
    5TMC3    C314221   0.555   3.889  11.851  0.3344  1.2609  0.4217
    5TMC3    C414222   0.805   3.954  11.903  0.2248  0.0229  0.1196
    5TMC3    C514223   0.777   3.842  11.830  0.9605  0.5028 -0.6643
    5TMC3    C614224   0.650   3.804  11.803  0.3515  0.0175  0.3468
    5TMC3     C14225   0.746   4.176  11.906 -1.0025  0.0754 -0.1486
    5TMC3     O14226   0.676   4.271  11.929 -0.5795 -0.0348 -0.1206
    5TMC3     H14227   0.502   4.076  11.950  0.3446  0.0661  1.2565
    5TMC3    H114228   0.908   3.979  11.929 -1.1140  2.5552  3.0915
    5TMC3    H214229   0.642   3.721  11.734  0.1880  0.0150  0.3683
    5TMC3    C714230   0.877   3.825  11.734  0.3286 -0.4346 -0.1165
    5TMC3    C814231   0.422   3.863  11.807 -0.5986  0.0997  0.1911
    5TMC3    O114232   0.969   3.908  11.731 -0.5195  0.2467  0.2678
    5TMC3    O214233   0.346   3.950  11.850  0.1324 -0.0383  0.3987
    6TMC3    C114234   1.521   0.063  10.401 -0.0447  1.1983  1.1124
    6TMC3    C214235   1.520   0.036  10.265 -0.6801 -0.0299  0.0870
    6TMC3    C314236   1.438   4.672  10.226  0.0112  0.6580 -0.3380
    6TMC3    C414237   1.462   4.722  10.494  1.1376 -0.1425 -0.4688
    6TMC3    C514238   1.375   4.623  10.451  0.1610  0.4196  0.4250
    6TMC3    C614239   1.367   4.592  10.317 -0.0155  0.2487  0.6715
    6TMC3     C14240   1.581   0.195  10.440  0.1444 -0.0243 -0.2339
    6TMC3     O14241   1.594   0.222  10.561 -0.8817 -0.6927  0.1032
    6TMC3     H14242   1.591   0.086  10.199 -0.2162  0.1435  0.7144
    6TMC3    H114243   1.471   0.014  10.598 -1.6163  1.3226 -0.6449
    6TMC3    H214244   1.309   4.507  10.282  0.6619  0.8739 -1.9719
    6TMC3    C714245   1.313   4.546  10.561 -0.3520  0.4813 -0.8926
    6TMC3    C814246   1.476   4.603  10.099  0.9550  0.0375 -0.4880
    6TMC3    O114247   1.341   4.569  10.679  0.2802 -0.1183 -0.6052
    6TMC3    O214248   1.589   4.627  10.057 -0.0727 -0.0326 -0.3914
    7MPD2     C14249   1.083   3.601  11.321  0.3389 -0.5018  0.6970
    7MPD2    C114250   1.104   3.728  11.375 -0.0549 -0.8288 -0.1258
    7MPD2    C214251   1.035   3.763  11.486 -0.3810  1.4843  0.3100
    7MPD2    C314252   0.943   3.676  11.547 -0.0959 -0.2894 -1.0955
    7MPD2    C414253   0.936   3.551  11.498  0.0760 -0.2697 -0.5614
    7MPD2    C514254   1.007   3.515  11.383  0.3580 -0.3888 -0.0321
    7MPD2     H14255   1.054   3.863  11.524  0.7218  1.6970 -0.7951
    7MPD2    H114256   0.861   3.483  11.538 -0.1256  0.2856  0.0045
    7MPD2    H214257   1.138   3.568  11.233  1.9158 -2.5623  2.4709
    7MPD2    H314258   0.990   3.413  11.349 -0.5713  0.3087 -1.6607
    7MPD2     N14259   0.865   3.711  11.662 -0.5302  0.6808 -0.1171
    7MPD2    H514260   0.791   3.648  11.691  1.0255 -0.5566  1.1048
    7MPD2    N114261   1.180   3.827  11.320 -0.0441  0.5647 -0.2062
    7MPD2    H714262   1.167   3.918  11.364  1.8783  0.4625  0.5818
    8TMC3    C114263   1.309   3.957  11.184 -0.2688 -0.0142 -0.0437
    8TMC3    C214264   1.281   4.014  11.068 -0.5609  0.3503 -0.1535
    8TMC3    C314265   1.233   4.144  11.077  0.1721  0.0045  0.1094
    8TMC3    C414266   1.308   4.026  11.301  0.2417 -0.4619  0.2197
    8TMC3    C514267   1.260   4.152  11.306 -0.4271 -0.1946  0.8017
    8TMC3    C614268   1.216   4.218  11.191 -0.2465 -0.2040 -0.3259
    8TMC3     C14269   1.256   3.824  11.204 -0.2887  0.4067 -0.8780
    8TMC3     O14270   1.256   3.740  11.115 -0.2403  0.2774  0.7100
    8TMC3     H14271   1.275   3.957  10.976 -1.1951  0.6490 -0.2990
    8TMC3    H114272   1.340   3.986  11.397 -0.2232 -2.1986 -0.3474
    8TMC3    H214273   1.197   4.325  11.200 -0.3162 -0.1701 -0.8516
    8TMC3    C714274   1.180   4.174  11.423 -0.1707  0.1296 -0.4342
    8TMC3    C814275   1.216   4.217  10.952 -0.0195  0.1003 -0.8599
    8TMC3    O114276   1.139   4.071  11.474 -1.2448  0.3274  0.4069
    8TMC3    O214277   1.224   4.333  10.961 -0.5465  0.0602  0.3864
    9MPD2     C14278   1.073   4.090  10.640 -0.1872 -0.9628 -1.1642
    9MPD2    C114279   1.151   4.174  10.721  0.3917 -0.4599 -0.5183
    9MPD2    C214280   1.200   4.300  10.675 -0.4491  0.2656 -0.2077
    9MPD2    C314281   1.165   4.348  10.556  0.2823 -0.4335 -0.1453
    9MPD2    C414282   1.084   4.272  10.474 -0.1627  0.1542  0.3515
    9MPD2    C514283   1.052   4.143  10.508  0.7147 -0.3975 -0.8033
    9MPD2     H14284   1.277   4.349  10.734 -0.6864  1.2410 -0.7019
    9MPD2    H114285   1.071   4.306  10.372  0.6414  2.9652  1.1851
    9MPD2    H214286   1.047   3.993  10.681  0.1420  0.2205  1.8907
    9MPD2    H314287   0.989   4.085  10.441 -2.9027  1.5146  0.9249
    9MPD2     N14288   1.221   4.468  10.503 -0.3883 -0.3599  0.2964
    9MPD2    H514289   1.198   4.491  10.407  0.3465  0.4661  0.3184
    9MPD2    N114290   1.177   4.135  10.851  0.2998  0.4789 -0.4141
    9MPD2    H714291   1.150   4.038  10.863 -0.4970  0.6053 -1.2026
    1MPD1     C14292   0.767   2.605  14.974 -0.4927  0.3029  0.4333
    1MPD1    C114293   0.813   2.474  14.995 -0.9143 -0.8568 -0.1154
    1MPD1    C214294   0.872   2.445  15.116 -0.2401 -0.0182 -0.5131
    1MPD1    C314295   0.871   2.533  15.225 -0.0349  0.1905 -0.4053
    1MPD1    C414296   0.819   2.659  15.202  0.3286  0.4572 -0.2951
    1MPD1    C514297   0.765   2.692  15.077  0.1329  0.5881  0.7552
    1MPD1     H14298   0.920   2.348  15.120 -1.8040 -0.7612  0.0475
    1MPD1    H114299   0.812   2.732  15.281 -1.2367 -1.0303  0.9403
    1MPD1    H214300   0.718   2.633  14.881  1.2186 -0.7924 -0.8145
    1MPD1    H314301   0.720   2.790  15.073  2.7055  1.7033 -1.0894
    1MPD1     N14302   0.927   2.506  15.359  0.1756  0.0971 -0.0077
    1MPD1    H514303   0.931   2.588  15.418  1.1766 -0.6318  0.9312
    1MPD1    N114304   0.819   2.393  14.881 -0.1760  0.7671  0.5834
    1MPD1    H614305   0.832   2.294  14.896  2.2288  0.9527 -0.2909
    1MPD1    H714306   0.741   2.415  14.819  0.5677 -0.3384 -0.7541
    2TMC2    C114307   1.118   2.304  15.727  0.7876 -0.1854 -0.0703
    2TMC2    C214308   1.087   2.414  15.806  0.8144 -0.3664  0.5681
    2TMC2    C314309   1.021   2.519  15.751  0.4747 -0.0249 -0.3310
    2TMC2    C414310   1.075   2.288  15.598 -0.7082 -0.1532  0.1866
    2TMC2    C514311   1.002   2.394  15.549  0.2197  0.5390 -0.6202
    2TMC2    C614312   0.973   2.511  15.627 -0.1531  0.0706  0.3928
    2TMC2     C14313   1.175   2.179  15.780 -0.3877 -0.2845 -0.1915
    2TMC2     O14314   1.170   2.076  15.715 -0.2361 -0.4252  0.1499
    2TMC2     H14315   1.095   2.418  15.914  1.1576 -1.9204  0.5961
    2TMC2    H114316   1.097   2.206  15.530  2.1421 -1.2634  2.4557
    2TMC2    H214317   0.907   2.591  15.596 -0.7759 -0.5940 -0.0047
    2TMC2    C714318   0.962   2.382  15.408 -0.2717 -0.1751 -0.0330
    2TMC2    C814319   0.998   2.636  15.835 -0.2455 -0.4430  0.3210
    2TMC2    O114320   0.947   2.273  15.353  0.0858  0.1401  0.4395
    2TMC2    O214321   1.018   2.638  15.957  0.5069 -0.6368  0.0024
    2TMC2    O514322   1.012   2.738  15.752  0.4853 -0.7986 -0.0798
    2TMC2    H514323   0.992   2.706  15.661 -0.0978 -0.8739  0.0750
    3MPD1     C14324   1.361   1.891  16.164  0.7041 -0.0119 -0.1240
    3MPD1    C114325   1.356   2.014  16.216 -0.3284 -1.0139 -0.1368
    3MPD1    C214326   1.319   2.114  16.123 -0.4570 -0.7104  0.4735
    3MPD1    C314327   1.285   2.090  15.989  0.5084  0.2196 -0.1400
    3MPD1    C414328   1.300   1.962  15.949 -0.3788 -0.4155  0.8208
    3MPD1    C514329   1.333   1.866  16.033 -0.3632  0.2423 -0.2487
    3MPD1     H14330   1.318   2.218  16.153  2.7895  0.1862 -2.5506
    3MPD1    H114331   1.295   1.924  15.847 -0.4064  0.6550  0.4241
    3MPD1    H214332   1.403   1.802  16.209  0.6679  0.5440  0.9932
    3MPD1    H314333   1.360   1.769  15.994 -0.2587  0.0761  0.2308
    3MPD1     N14334   1.229   2.195  15.913 -0.1177 -0.0849 -0.6158
    3MPD1    H514335   1.226   2.287  15.955 -2.0678 -1.5448  2.4816
    3MPD1    N114336   1.418   2.038  16.345  0.0281  0.4577  0.2757
    3MPD1    H614337   1.375   2.110  16.403  0.1792 -0.1035  1.0961
    3MPD1    H714338   1.411   1.956  16.405 -0.2756 -1.1840 -2.0020
    1TMC1    C114339   4.200   1.850  12.981  0.5264 -0.7914  0.0263
    1TMC1    C214340   4.090   1.820  12.904 -0.1318  0.0774 -0.3326
    1TMC1    C314341   3.975   1.808  12.958  0.1768  0.3854 -0.5625
    1TMC1    C414342   4.180   1.864  13.123  0.2068  0.2211 -0.5149
    1TMC1    C514343   4.054   1.870  13.169  0.3402  0.2114 -0.5311
    1TMC1    C614344   3.947   1.835  13.089  0.6490 -0.5351  0.6784
    1TMC1     C14345   4.333   1.823  12.928 -0.5619 -0.4871  0.3476
    1TMC1     O14346   4.341   1.816  12.803  0.4874 -0.5634  1.0057
    1TMC1     H14347   4.105   1.805  12.798  1.5325  2.1755 -0.3762
    1TMC1    H114348   4.255   1.907  13.188 -1.8311  0.6384  1.5393
    1TMC1    H214349   3.844   1.842  13.123 -0.0201  2.0283 -1.8214
    1TMC1    C714350   4.029   1.861  13.311  0.4895  0.1596 -0.7233
    1TMC1    C814351   3.866   1.801  12.878  0.3021  0.8147 -1.4033
    1TMC1    O114352   3.922   1.889  13.363  0.3700 -0.9321  0.2805
    1TMC1    O214353   3.759   1.845  12.913  0.6418  0.5223 -0.0281
    1TMC1    O314354   4.085   1.736  13.330  0.0006 -0.3074 -0.1199
    1TMC1    H314355   4.177   1.742  13.296  0.5815 -1.2767  1.2534
    1TMC1    O514356   3.887   1.695  12.801  0.5435  0.5278  0.8476
    1TMC1    H514357   3.983   1.675  12.793  0.1672 -0.7364 -0.4347
    2MPD2     C14358   4.596   1.716  12.885  0.0475 -0.8345 -0.7730
    2MPD2    C114359   4.566   1.789  13.002 -0.1644  0.0050 -0.9074
    2MPD2    C214360   4.658   1.793  13.108  0.4788 -0.5780 -0.1392
    2MPD2    C314361   0.041   1.722  13.090  0.0429 -1.0028  0.3602
    2MPD2    C414362   0.066   1.648  12.978  0.2336 -0.6506 -0.4666
    2MPD2    C514363   4.714   1.644  12.871  0.0823  0.7266 -0.3741
    2MPD2     H14364   4.630   1.856  13.191 -0.8928  0.6670 -1.5216
    2MPD2    H114365   0.154   1.588  12.956  0.5221 -1.0270  1.7760
    2MPD2    H214366   4.536   1.733  12.796  1.2740 -1.5437 -1.7369
    2MPD2    H314367   4.731   1.586  12.781  0.0061 -1.2024  0.8441
    2MPD2     N14368   0.132   1.724  13.190 -0.4348  0.0916 -0.4513
    2MPD2    H514369   0.119   1.794  13.263 -1.5467 -1.9028  1.2659
    2MPD2    N114370   4.432   1.835  13.025 -0.2165  0.0325  0.0715
    2MPD2    H714371   4.413   1.846  13.124  0.7244  1.3912  0.1155
    3TCq1    O114372   0.441   2.141  13.460 -0.4556 -0.4549 -0.3056
    3TCq1    C114373   0.391   2.102  13.340  0.0627  0.0977  0.5088
    3TCq1    O214374   0.294   2.158  13.291  0.4987 -0.1099  0.1280
    3TCq1    C214375   0.425   1.959  13.328  0.3535 -0.2636  0.0443
    3TCq1    C314376   0.532   1.904  13.389  0.6427 -0.1346  0.0465
    3TCq1    C414377   0.549   1.771  13.370  0.1946 -0.2256 -0.5507
    3TCq1    C514378   0.460   1.692  13.315 -0.0464 -0.1710 -0.7759
    3TCq1    C614379   0.348   1.749  13.258 -0.1674 -0.0392 -0.8192
    3TCq1    C714380   0.331   1.883  13.273  0.3048 -0.7065 -0.6173
    3TCq1    C814381   0.257   1.669  13.186  0.4500 -0.1959 -0.0826
    3TCq1    O414382   0.295   1.572  13.129  0.6305  0.1880 -0.2904
    3TCq1    C914383   0.663   1.710  13.425  0.1964 -0.0989 -0.3354
    3TCq1    O514384   0.668   1.585  13.420 -0.2567  0.3327  0.0072
    3TCq1    O614385   0.748   1.782  13.491 -0.0161  0.0387  0.0993
    3TCq1    H114386   0.538   2.129  13.468 -0.2889  0.6243 -0.6709
    3TCq1    H214387   0.596   1.956  13.459 -0.9872  1.8723  0.0628
    3TCq1    H314388   0.473   1.585  13.303  0.1617  0.0230 -2.2454
    3TCq1    H414389   0.247   1.941  13.238  0.1103 -0.8434 -0.3785
    1MPD2     C14390   4.293   2.410  14.980 -0.2582  0.2703 -0.0910
    1MPD2    C114391   4.172   2.480  14.963  0.3401  0.1630  0.1028
    1MPD2    C214392   4.052   2.411  14.985  0.4998 -0.3769  0.3137
    1MPD2    C314393   4.051   2.276  15.019  0.2511  0.3274 -1.3362
    1MPD2    C414394   4.170   2.210  15.034  0.5347 -0.7421 -0.1991
    1MPD2    C514395   4.284   2.275  15.005  0.4772 -0.0229  0.0584
    1MPD2     H14396   3.956   2.457  14.967  0.5984  0.0384  0.8315
    1MPD2    H114397   4.171   2.110  15.073  0.6098 -0.6407  0.0574
    1MPD2    H214398   4.391   2.454  14.966  1.5345 -2.6841  3.0584
    1MPD2    H314399   4.380   2.231  15.028 -0.1577 -0.7336  1.3166
    1MPD2     N14400   3.932   2.205  15.051  0.2066 -0.8969  0.2466
    1MPD2    H514401   3.946   2.107  15.073 -0.0745 -1.6279 -2.8283
    1MPD2    N114402   4.175   2.617  14.939 -0.1050 -0.3511  0.2248
    1MPD2    H714403   4.263   2.654  14.906  0.5959 -1.7251  0.5695
    2TMC3    C114404   4.094   2.828  14.886 -0.3191 -0.1798  0.7361
    2TMC3    C214405   3.980   2.910  14.912 -0.1142 -0.2902  0.7497
    2TMC3    C314406   3.905   2.958  14.809  1.3554 -0.3790  0.1263
    2TMC3    C414407   4.126   2.803  14.752 -0.4611  0.2813 -0.2870
    2TMC3    C514408   4.056   2.858  14.655 -0.3150 -0.0999 -0.2186
    2TMC3    C614409   3.944   2.931  14.680 -0.6214 -0.0208  0.1292
    2TMC3     C14410   4.066   2.700  14.950  0.1833 -0.4247  0.0153
    2TMC3     O14411   3.960   2.682  15.006  0.1289  0.0624  0.2223
    2TMC3     H14412   3.949   2.932  15.014  2.4484 -2.3175  1.9476
    2TMC3    H114413   4.210   2.740  14.726  1.0847  1.9556  0.6399
    2TMC3    H214414   3.880   2.950  14.595  1.5677 -1.1340 -1.7746
    2TMC3    C714415   4.100   2.837  14.516 -0.2126 -0.4443  0.9908
    2TMC3    C814416   3.763   2.957  14.833  0.1240 -0.2938 -0.8790
    2TMC3    O114417   4.160   2.734  14.496 -0.3016 -0.0247 -0.8681
    2TMC3    O214418   3.692   3.031  14.768  0.0535 -0.1784 -0.1400
    3TCq1    O114419   3.657   3.639  13.779 -0.0615 -0.2399  0.5753
    3TCq1    C114420   3.760   3.575  13.721  0.1695 -0.1977  0.6446
    3TCq1    O214421   3.768   3.530  13.609 -0.2411 -0.4738  0.2929
    3TCq1    C214422   3.854   3.546  13.827 -0.5162  0.1992  0.2378
    3TCq1    C314423   3.879   3.636  13.927 -0.0448  0.4780  0.8283
    3TCq1    C414424   3.974   3.617  14.022 -0.1505 -0.5698 -0.0881
    3TCq1    C514425   4.055   3.506  14.012 -0.3164  0.6292 -0.3007
    3TCq1    C614426   4.026   3.410  13.913  0.1975 -0.1494 -0.2800
    3TCq1    C714427   3.924   3.430  13.821  0.6345 -0.2900 -0.3594
    3TCq1    C814428   4.079   3.276  13.921  0.3558  0.5957  0.4368
    3TCq1    O414429   4.093   3.217  13.816 -0.3613 -0.2395 -0.0315
    3TCq1    C914430   3.990   3.718  14.126  0.0873  0.4073 -0.7410
    3TCq1    O514431   3.896   3.805  14.135 -0.0471 -0.4299 -0.2681
    3TCq1    O614432   4.078   3.694  14.215 -0.5090 -0.0542 -0.2484
    3TCq1    H114433   3.668   3.650  13.876  1.4541 -0.4846  0.4340
    3TCq1    H214434   3.818   3.725  13.939  0.4201  1.3635 -3.3983
    3TCq1    H314435   4.140   3.495  14.078 -1.6679 -3.0766  0.8480
    3TCq1    H414436   3.906   3.362  13.739 -1.8915  1.2623 -1.0995
    4MPD2     C14437   4.141   3.002  14.029 -0.4081  0.1263  0.1868
    4MPD2    C114438   4.097   3.107  14.104 -0.0165 -0.4003 -0.6605
    4MPD2    C214439   4.057   3.076  14.233 -0.2581  0.4412  0.5162
    4MPD2    C314440   4.099   2.960  14.294  0.9863 -1.0739  0.1461
    4MPD2    C414441   4.167   2.870  14.219 -0.3671  0.3376  0.3343
    4MPD2    C514442   4.188   2.887  14.086 -0.4035  0.2977 -0.1067
    4MPD2     H14443   4.013   3.159  14.287 -0.3972 -0.3756  1.6513
    4MPD2    H114444   4.199   2.779  14.270  1.7272 -0.5049 -2.4542
    4MPD2    H214445   4.149   3.010  13.921  1.6566 -1.5471  0.1985
    4MPD2    H314446   4.224   2.812  14.015  0.8852  2.4568 -1.7181
    4MPD2     N14447   4.079   2.947  14.434 -0.1023 -0.1261 -0.4837
    4MPD2    H514448   4.048   3.030  14.484 -1.5641 -0.6000 -0.6156
    4MPD2    N114449   4.071   3.239  14.051 -0.1197  0.0234  0.1863
    4MPD2    H714450   4.043   3.314  14.114 -0.1998  1.0454 -1.0763
    5TMC2    C114451   3.475   2.227  15.106  0.0970  0.3408  0.5381
    5TMC2    C214452   3.466   2.185  15.239 -0.5576  0.3989 -0.4990
    5TMC2    C314453   3.579   2.138  15.294 -0.3622 -0.5380 -1.3613
    5TMC2    C414454   3.584   2.199  15.034  0.2022 -0.0320 -0.2310
    5TMC2    C514455   3.701   2.154  15.094 -0.3945 -0.1124  0.1464
    5TMC2    C614456   3.699   2.126  15.229  0.3923 -0.3286 -0.8261
    5TMC2     C14457   3.421   2.362  15.083  0.2359  0.4860 -1.0534
    5TMC2     O14458   3.314   2.398  15.138 -0.4235 -0.1400  0.3022
    5TMC2     H14459   3.377   2.210  15.296 -0.4911  0.3213 -0.3626
    5TMC2    H114460   3.590   2.236  14.932 -0.8000 -1.8992 -0.9694
    5TMC2    H214461   3.787   2.084  15.277 -0.0750 -0.9516 -0.5183
    5TMC2    C714462   3.803   2.251  15.059 -0.4099 -0.1810  0.6966
    5TMC2    C814463   3.579   2.117  15.436 -0.7053 -0.3195 -0.1174
    5TMC2    O114464   3.755   2.356  15.018  0.4055 -0.0943 -0.1312
    5TMC2    O214465   3.685   2.115  15.502 -0.1351  0.3299  0.4900
    5TMC2    O514466   3.466   2.060  15.474 -0.5222  0.0244  0.0032
    5TMC2    H514467   3.412   2.023  15.401  0.6224 -1.7063  0.0242
    6MPD2     C14468   3.503   2.848  14.913 -0.6343 -0.4590 -0.1391
    6MPD2    C114469   3.622   2.777  14.910  0.5433  0.4224 -0.4105
    6MPD2    C214470   3.624   2.643  14.944 -0.2067  0.4495 -0.3457
    6MPD2    C314471   3.505   2.579  14.974 -0.4079  0.7782  0.0586
    6MPD2    C414472   3.385   2.647  14.968  0.0460  0.1222  0.0832
    6MPD2    C514473   3.388   2.780  14.939 -0.2766 -0.6915  0.7836
    6MPD2     H14474   3.719   2.593  14.953  1.6376  3.7786 -1.3951
    6MPD2    H114475   3.292   2.601  14.999  0.0023 -0.3346 -0.7330
    6MPD2    H214476   3.497   2.954  14.893  2.1308 -0.4079 -0.8170
    6MPD2    H314477   3.301   2.844  14.948  0.6235  0.7749 -0.9635
    6MPD2     N14478   3.515   2.441  15.020 -0.3544  0.3716  0.1679
    6MPD2    H514479   3.609   2.404  15.012 -0.8896 -0.9050 -0.3784
    6MPD2    N114480   3.745   2.832  14.883 -0.1199 -0.0244 -0.4102
    6MPD2    H714481   3.822   2.766  14.891  0.8711  1.6635  4.0237
  945NH3     N114482   3.652   2.693  12.529 -0.8098  0.6208  0.3371
  945NH3     H214483   3.690   2.775  12.575 -0.3201  0.2095  0.6590
  945NH3     H314484   3.721   2.670  12.458 -1.9635 -3.4995  0.5616
  945NH3     H414485   3.643   2.617  12.595 -0.8913 -1.2397 -1.8156
  946SOD     NA14486   1.559   4.247  17.065  0.5372  0.3033 -0.2718
  947SOD     NA14487   3.886   4.534   7.492 -0.2905 -0.0222  0.2082
  948SOD     NA14488   1.909   0.603   7.388 -0.5603  0.1163 -0.1289
  949SOD     NA14489   4.584   4.099   5.217 -0.0369  0.1908 -0.4738
  950SOD     NA14490   0.277   2.342  13.162  0.3063  0.1531  0.3830
  951SOD     NA14491   1.665   0.014  11.456  0.1267 -0.2697  0.2553
  952SOD     NA14492   1.860   1.927  15.819 -0.0827  0.0663 -0.2465
  953SOD     NA14493   4.567   2.998  14.389 -0.3063  0.2547  0.5832
  954SOL     OW14494   3.623   4.103   3.629 -0.2586 -0.0444  0.3621
  954SOL    HW114495   3.598   4.145   3.711 -1.7685  0.8495 -0.5459
  954SOL    HW214496   3.646   4.015   3.658 -0.4176  0.2260  1.3087
  955SOL     OW14497   2.525   0.345   7.647 -0.3940  0.4397 -0.1066
  955SOL    HW114498   2.522   0.325   7.741 -0.2908  0.2712 -0.1397
  955SOL    HW214499   2.613   0.314   7.626 -0.6843 -2.1868  2.5409
  956SOL     OW14500   3.385   3.008   3.822  0.2454 -0.1015 -0.2237
  956SOL    HW114501   3.475   2.998   3.790  0.5576 -0.4382  0.7511
  956SOL    HW214502   3.386   3.088   3.874  1.4825  0.5162 -1.1825
  957SOL     OW14503   1.764   2.551  11.972  0.0977  0.1422 -0.4041
  957SOL    HW114504   1.741   2.641  11.995 -0.8792 -0.1325 -0.2949
  957SOL    HW214505   1.787   2.565  11.880  0.5365  0.7721 -0.2050
  958SOL     OW14506   3.026   4.524   2.963  0.1004 -0.2092 -0.7324
  958SOL    HW114507   3.074   4.476   3.030 -0.3363 -1.1708 -1.1054
  958SOL    HW214508   3.045   4.474   2.884 -0.4718  1.9367 -2.2396
  959SOL     OW14509   4.119   3.465   2.637  0.3607  0.7151 -0.1865
  959SOL    HW114510   4.037   3.438   2.678  1.5528  0.5350  2.0256
  959SOL    HW214511   4.115   3.558   2.657  2.4812  0.8131 -0.2382
  960SOL     OW14512   3.460   3.955   9.083 -0.0808 -0.2810 -0.4617
  960SOL    HW114513   3.529   3.897   9.116 -1.9017 -1.6528  0.9553
  960SOL    HW214514   3.436   4.000   9.164 -3.4353 -1.9491 -0.5222
  961SOL     OW14515   3.472   3.419  15.977  0.9106 -0.7070 -0.0832
  961SOL    HW114516   3.390   3.441  16.021  0.6244  0.4509 -1.2109
  961SOL    HW214517   3.460   3.329  15.948 -2.5394  0.2765 -1.7436
  962SOL     OW14518   2.136   3.975   1.286  0.1851 -1.1325  0.2273
  962SOL    HW114519   2.064   3.942   1.341 -0.1646 -0.6590  0.0538
  962SOL    HW214520   2.134   3.913   1.213 -2.4605  0.8381 -1.3696
  963SOL     OW14521   3.168   3.521  11.360 -0.1113 -0.6087  0.2005
  963SOL    HW114522   3.247   3.529  11.307 -0.8755  3.2638 -0.3233
  963SOL    HW214523   3.127   3.600  11.327 -2.2397 -1.7923  0.0263
  964SOL     OW14524   0.205   4.637   4.527  0.1501 -0.0986 -0.2480
  964SOL    HW114525   0.198   4.584   4.448  0.0550 -1.1528  0.4661
  964SOL    HW214526   0.278   4.588   4.566  0.2570 -0.7910 -1.3235
  965SOL     OW14527   3.070   2.820   8.290  0.1711  0.1293 -0.2021
  965SOL    HW114528   3.138   2.771   8.244 -2.0830 -1.1787 -2.1458
  965SOL    HW214529   3.094   2.909   8.263 -1.0628  0.6847  0.5481
  966SOL     OW14530   3.643   0.457   6.563  0.1963  0.0908  0.4083
  966SOL    HW114531   3.673   0.367   6.556  0.7346  0.2516  0.6702
  966SOL    HW214532   3.728   0.496   6.547  0.1253 -0.4639 -1.2533
  967SOL     OW14533   1.605   3.474   7.309 -0.0817  0.6248 -0.0723
  967SOL    HW114534   1.511   3.488   7.322 -0.0246  0.1416  0.9041
  967SOL    HW214535   1.620   3.485   7.216  2.1937 -2.7710 -0.1167
  968SOL     OW14536   2.023   3.826   8.725  0.3237  0.2254  0.3513
  968SOL    HW114537   2.086   3.850   8.657 -1.5612  2.5178 -0.5877
  968SOL    HW214538   1.988   3.909   8.757  1.2475  0.2035  1.4476
  969SOL     OW14539   0.947   2.307  16.743  0.1014 -0.8125  0.0211
  969SOL    HW114540   1.011   2.280  16.677 -0.3535  1.7327 -1.4443
  969SOL    HW214541   0.872   2.327  16.687 -0.2923 -0.2236  0.7623
  970SOL     OW14542   0.387   3.640   0.125  0.1951 -0.0448 -0.0421
  970SOL    HW114543   0.354   3.712   0.071  1.2284 -0.7096 -1.5618
  970SOL    HW214544   0.415   3.576   0.060 -0.2211 -0.3709  0.1011
  971SOL     OW14545   1.704   2.448   4.424  0.5177 -0.2464  0.0417
  971SOL    HW114546   1.702   2.474   4.332  0.9245  0.8029  0.3244
  971SOL    HW214547   1.760   2.512   4.468 -1.4206  1.3277  0.2127
  972SOL     OW14548   2.870   3.045   6.829  0.0388 -0.2451 -0.6382
  972SOL    HW114549   2.777   3.071   6.829  0.5937  1.7236 -0.4915
  972SOL    HW214550   2.867   2.960   6.787 -2.4208 -1.6393  2.3174
  973SOL     OW14551   0.651   1.534   1.930  0.6893  0.0180 -0.5492
  973SOL    HW114552   0.633   1.610   1.875 -0.1705 -1.3112 -2.0986
  973SOL    HW214553   0.692   1.467   1.875 -1.0618 -0.9873 -0.6260
  974SOL     OW14554   0.265   2.045   6.649  0.0011 -0.3381  0.3185
  974SOL    HW114555   0.230   1.975   6.704  0.1840 -0.3507  0.4215
  974SOL    HW214556   0.245   2.120   6.705  0.3467 -0.2764  0.3614
  975SOL     OW14557   3.952   3.604   8.521 -0.0724 -0.4747  0.6870
  975SOL    HW114558   3.925   3.694   8.506  0.0734 -0.2288  1.8826
  975SOL    HW214559   3.934   3.576   8.431 -0.9210  3.0821 -0.2207
  976SOL     OW14560   3.117   3.842  15.371 -0.0160  0.2762  0.4034
  976SOL    HW114561   3.172   3.900  15.422  1.2362 -0.8961  0.3691
  976SOL    HW214562   3.123   3.871  15.280  1.8280  1.4707  0.9240
  977SOL     OW14563   0.785   4.113  17.092 -0.1779 -0.1607  0.6968
  977SOL    HW114564   0.776   4.033  17.040 -0.3960 -0.1155  0.6683
  977SOL    HW214565   0.809   4.172  17.021  1.2041 -3.4595 -1.6025
  978SOL     OW14566   3.563   1.962   5.180 -0.9760  0.5126  0.5271
  978SOL    HW114567   3.643   2.008   5.205 -0.5139  0.4465 -0.8185
  978SOL    HW214568   3.537   1.924   5.264  1.0740 -0.2922  0.8115
  979SOL     OW14569   1.581   1.787   5.390 -0.1410 -0.5207  0.2252
  979SOL    HW114570   1.621   1.871   5.368 -0.9807  0.0222  0.7958
  979SOL    HW214571   1.556   1.791   5.482  0.4119  1.6904  0.2678
  980SOL     OW14572   0.636   1.254   4.213 -0.5027 -0.0807 -0.3543
  980SOL    HW114573   0.637   1.167   4.172 -0.5608 -0.0269 -0.4687
  980SOL    HW214574   0.572   1.233   4.281  0.2321  0.8649  0.6232
  981SOL     OW14575   0.799   1.433   5.442  0.3474  1.0489 -0.5767
  981SOL    HW114576   0.842   1.518   5.453  2.6677  0.0400 -1.9261
  981SOL    HW214577   0.843   1.388   5.515  1.2533 -0.7227 -2.2158
  982SOL     OW14578   0.708   0.106  13.625 -0.3825 -0.3617 -0.2272
  982SOL    HW114579   0.775   0.040  13.607  1.8167  1.9538 -0.4983
  982SOL    HW214580   0.745   0.184  13.584  0.7802 -0.1497  1.2095
  983SOL     OW14581   4.070   1.115   3.260  0.2112 -0.2716  0.2388
  983SOL    HW114582   4.101   1.027   3.238  3.7956  1.2890 -1.0112
  983SOL    HW214583   4.128   1.149   3.327  1.8551 -0.2022 -1.2198
  984SOL     OW14584   1.848   3.530   4.646  0.2916 -0.6986  0.0355
  984SOL    HW114585   1.877   3.620   4.659 -1.6923  0.2992 -2.3721
  984SOL    HW214586   1.858   3.516   4.552  0.6550 -0.7317  0.0801
  985SOL     OW14587   3.603   1.235   2.523  0.1523  0.1851  0.6412
  985SOL    HW114588   3.602   1.330   2.512  0.5418  0.0558 -0.4456
  985SOL    HW214589   3.530   1.215   2.465  0.8978  0.1589 -0.2737
  986SOL     OW14590   2.564   0.584   8.186 -0.1772  0.4638 -0.2403
  986SOL    HW114591   2.510   0.549   8.116  1.0419 -0.1325 -0.8789
  986SOL    HW214592   2.515   0.553   8.262 -2.3752 -1.1465 -2.3131
  987SOL     OW14593   2.455   2.194   4.974 -0.4927  0.4244  0.2022
  987SOL    HW114594   2.366   2.165   4.951  1.0425 -3.0764 -1.2583
  987SOL    HW214595   2.480   2.146   5.053 -0.6051 -0.1292 -0.0967
  988SOL     OW14596   4.259   0.449   7.006  0.1966 -0.7749 -0.7880
  988SOL    HW114597   4.252   0.523   6.945  2.2873  0.2395  0.1746
  988SOL    HW214598   4.305   0.481   7.084 -1.6386  0.1879 -0.1066
  989SOL     OW14599   1.563   1.604  14.428 -0.3272 -0.7339  0.0989
  989SOL    HW114600   1.539   1.562  14.345  2.3656 -2.3801  0.1483
  989SOL    HW214601   1.517   1.549  14.490 -0.6704 -1.0878 -0.4694
  990SOL     OW14602   3.123   3.220   8.924 -0.0523  0.0498 -0.1286
  990SOL    HW114603   3.209   3.258   8.904 -0.4752  1.0561 -0.0587
  990SOL    HW214604   3.079   3.305   8.925  0.1138  0.1400 -0.3549
  991SOL     OW14605   2.695   1.192   2.850  0.3114 -0.1000  0.3125
  991SOL    HW114606   2.703   1.179   2.756 -0.7533  0.2387  0.1810
  991SOL    HW214607   2.779   1.163   2.885  0.0156  1.4294  2.3333
  992SOL     OW14608   1.443   4.172   3.778 -0.2447 -0.5286  0.1208
  992SOL    HW114609   1.465   4.246   3.722 -1.6951 -0.7551 -0.7543
  992SOL    HW214610   1.347   4.172   3.773 -0.2478  0.8743  0.3016
  993SOL     OW14611   4.640   2.887   8.286  0.1080  0.2441 -0.0852
  993SOL    HW114612   4.609   2.898   8.196 -0.3656 -2.2240 -0.2304
  993SOL    HW214613   4.596   2.802   8.294 -0.3304  0.6213  1.6557
  994SOL     OW14614   0.366   2.428   2.223  0.1844  0.3175  0.1777
  994SOL    HW114615   0.383   2.353   2.281  0.9833  0.4763  0.1353
  994SOL    HW214616   0.437   2.413   2.161  0.3420 -0.5558  0.5641
  995SOL     OW14617   0.204   2.546   7.649 -0.1118 -0.8935 -0.9985
  995SOL    HW114618   0.115   2.512   7.658 -0.0388 -0.2161  2.3804
  995SOL    HW214619   0.213   2.592   7.733 -0.8568 -2.1562 -0.2116
  996SOL     OW14620   4.637   1.516   9.673 -0.6146  0.6162 -0.4435
  996SOL    HW114621   4.547   1.484   9.685 -1.3285  2.8831  0.2123
  996SOL    HW214622   4.688   1.454   9.620 -1.8552 -0.7846  0.0041
  997SOL     OW14623   2.735   4.457   7.552  0.3123 -0.1798  0.3033
  997SOL    HW114624   2.794   4.511   7.604  1.6355 -0.2549 -1.1171
  997SOL    HW214625   2.712   4.521   7.485  0.5749 -0.3666  0.0384
  998SOL     OW14626   0.129   3.586  17.044 -0.3629  0.2128  0.1913
  998SOL    HW114627   0.107   3.521  17.111 -0.8020 -2.4619 -2.4792
  998SOL    HW214628   0.224   3.590  17.051 -0.1844 -2.3854 -0.5672
  999SOL     OW14629   3.228   4.485   8.823  0.5582  0.2624 -0.2005
  999SOL    HW114630   3.267   4.434   8.894  1.4125  0.2281 -0.6982
  999SOL    HW214631   3.160   4.536   8.868  1.1486 -0.8083  1.9363
 1000SOL     OW14632   4.671   4.472   4.830  0.1583 -0.0535 -0.3168
 1000SOL    HW114633   4.702   4.524   4.905  4.6231 -1.1066 -1.4405
 1000SOL    HW214634   4.640   4.539   4.769 -1.7850  0.7754  1.5704
 1001SOL     OW14635   0.323   0.998   3.516  0.4699 -0.0820 -0.0354
 1001SOL    HW114636   0.263   0.941   3.467  2.4435 -0.9565 -1.4327
 1001SOL    HW214637   0.376   0.938   3.568  0.6153  1.2572  1.3399
 1002SOL     OW14638   2.054   0.389   6.660 -0.1455  0.5162 -0.1660
 1002SOL    HW114639   2.102   0.454   6.712  0.8668 -1.0733  0.8726
 1002SOL    HW214640   1.963   0.414   6.676 -0.9957 -0.8325 -2.9344
 1003SOL     OW14641   1.530   3.246   9.324 -0.8484 -0.6493 -0.2972
 1003SOL    HW114642   1.535   3.333   9.363  2.4665 -0.7757 -0.4497
 1003SOL    HW214643   1.436   3.232   9.328 -0.3518 -3.7875 -0.1450
 1004SOL     OW14644   2.619   2.488   6.953  0.1617 -0.3735 -0.8639
 1004SOL    HW114645   2.656   2.484   7.041  0.4463  1.2472 -0.9120
 1004SOL    HW214646   2.526   2.465   6.959  0.3847 -0.6812  1.2565
 1005SOL     OW14647   1.994   1.439   4.957 -0.0164 -0.2075  0.4963
 1005SOL    HW114648   2.001   1.355   5.003 -0.4277 -0.3927  0.2153
 1005SOL    HW214649   1.903   1.442   4.929  0.2894  1.6360 -0.2602
 1006SOL     OW14650   3.737   3.434  17.461 -0.4191  0.3334 -0.1603
 1006SOL    HW114651   3.653   3.449  17.417 -1.5665  0.5416  2.0635
 1006SOL    HW214652   3.762   3.526  17.470  1.7237 -0.3238  0.5175
 1007SOL     OW14653   2.426   1.259   9.291  0.3540  0.0675 -0.3469
 1007SOL    HW114654   2.460   1.215   9.213 -2.3328 -2.6485 -0.0049
 1007SOL    HW214655   2.353   1.199   9.306  0.4918 -0.3541 -1.3637
 1008SOL     OW14656   3.213   2.133   8.882 -0.2190  0.1828  0.2447
 1008SOL    HW114657   3.128   2.089   8.887 -1.2827  2.1046 -1.0526
 1008SOL    HW214658   3.244   2.147   8.971  1.9305  2.1760 -0.8083
 1009SOL     OW14659   0.103   3.318   2.911  0.1212  0.1096  0.1630
 1009SOL    HW114660   0.065   3.321   2.824  2.2804  1.6498 -0.7148
 1009SOL    HW214661   0.117   3.411   2.933  0.2264 -0.6773  3.4086
 1010SOL     OW14662   0.722   1.427  15.576  0.4368  0.2698  0.1643
 1010SOL    HW114663   0.810   1.411  15.540 -1.1666 -3.6590 -1.9262
 1010SOL    HW214664   0.715   1.522  15.565  0.0890 -0.0247 -2.2940
 1011SOL     OW14665   2.052   4.253   4.369 -0.6375 -0.3378  0.0095
 1011SOL    HW114666   2.012   4.340   4.364  1.1759  0.6452  3.0346
 1011SOL    HW214667   2.083   4.249   4.278  0.8647 -0.3937  0.5308
 1012SOL     OW14668   2.210   3.025   8.373  0.3627 -0.4806 -0.6277
 1012SOL    HW114669   2.270   2.980   8.433  2.6705  2.7906 -0.4384
 1012SOL    HW214670   2.125   3.005   8.413  0.4363 -2.1178 -1.3009
 1013SOL     OW14671   3.515   3.265  10.151 -0.0361  0.7071 -0.1584
 1013SOL    HW114672   3.467   3.240  10.072  0.5200  3.6699 -1.3953
 1013SOL    HW214673   3.478   3.205  10.216  2.4768 -0.1363  0.4916
 1014SOL     OW14674   4.606   0.130   4.014 -0.3311  0.0859  0.7740
 1014SOL    HW114675   4.676   0.066   4.026 -1.9566 -2.1402 -1.4838
 1014SOL    HW214676   4.655   0.210   3.997 -1.8600  0.4785 -1.7651
 1015SOL     OW14677   1.541   1.663  11.112 -0.1230  0.0428  0.0270
 1015SOL    HW114678   1.485   1.588  11.090  0.4785  0.2628 -2.2026
 1015SOL    HW214679   1.540   1.707  11.027 -0.9209  1.1398  0.6072
 1016SOL     OW14680   2.591   0.174  17.396 -0.3452 -0.5268 -0.0832
 1016SOL    HW114681   2.580   0.262  17.360  1.5475 -0.9783 -1.8195
 1016SOL    HW214682   2.635   0.173  17.481 -0.8807 -0.7511  0.1910
 1017SOL     OW14683   0.723   3.970  17.378  0.4145 -0.0413  0.0145
 1017SOL    HW114684   0.640   3.929  17.352 -1.2712  0.9770  3.8436
 1017SOL    HW214685   0.711   4.058  17.342  0.5216  0.0138  0.1143
 1018SOL     OW14686   1.670   0.576  15.106  0.0995 -0.2243  0.7652
 1018SOL    HW114687   1.678   0.517  15.181 -0.0762 -0.4707  0.5890
 1018SOL    HW214688   1.752   0.565  15.058  0.2466  3.7828  0.0591
 1019SOL     OW14689   3.737   4.519   8.786 -0.2546 -0.4334 -0.9844
 1019SOL    HW114690   3.775   4.547   8.870 -0.7805 -3.9272  0.3927
 1019SOL    HW214691   3.660   4.575   8.783 -0.3977 -0.6058 -0.5998
 1020SOL     OW14692   4.493   3.576   7.339  0.6216  0.0968  0.2667
 1020SOL    HW114693   4.552   3.599   7.267  0.6850 -3.2275 -0.7308
 1020SOL    HW214694   4.436   3.653   7.336  1.3645  0.6501  0.1762
 1021SOL     OW14695   0.287   1.283   6.119  0.4959  0.2550 -0.0537
 1021SOL    HW114696   0.256   1.328   6.197 -0.6122  1.4449 -1.1820
 1021SOL    HW214697   0.307   1.201   6.164 -0.8842  0.7615  1.5094
 1022SOL     OW14698   2.224   3.553   1.653 -0.2421  0.0860 -0.3784
 1022SOL    HW114699   2.184   3.557   1.740  1.4298  0.5209  0.3726
 1022SOL    HW214700   2.235   3.647   1.639  1.4817 -0.3511 -1.9258
 1023SOL     OW14701   0.219   4.096  13.850 -0.0659 -0.4876 -0.5936
 1023SOL    HW114702   0.140   4.147  13.834 -0.0700  0.4458  2.2669
 1023SOL    HW214703   0.191   4.039  13.921 -1.0540 -0.1943 -0.7475
 1024SOL     OW14704   0.583   1.290   3.787 -0.1953  0.8691  0.1202
 1024SOL    HW114705   0.611   1.340   3.711 -1.3416 -2.2470 -2.3639
 1024SOL    HW214706   0.604   1.197   3.777 -1.0904  0.7478 -0.6794
 1025SOL     OW14707   4.488   3.218   4.090 -0.5504  0.1996  0.5139
 1025SOL    HW114708   4.530   3.303   4.077  0.2568 -0.1435  0.9040
 1025SOL    HW214709   4.528   3.176   4.014  0.0600  0.7458  0.5337
 1026SOL     OW14710   1.979   1.786   9.529  0.6519 -0.1605 -0.1798
 1026SOL    HW114711   2.025   1.767   9.447 -0.8079  1.4185 -1.3869
 1026SOL    HW214712   1.898   1.744   9.501  0.3948  0.8449 -0.9690
 1027SOL     OW14713   1.663   1.480   5.336 -0.1930 -0.6624 -0.2655
 1027SOL    HW114714   1.675   1.462   5.429  2.2351  0.3074 -0.3909
 1027SOL    HW214715   1.659   1.576   5.342 -0.1618 -0.5864 -1.3907
 1028SOL     OW14716   1.393   2.684   1.765  0.5869 -0.4321 -0.1593
 1028SOL    HW114717   1.318   2.677   1.707  0.8290 -4.0439 -0.0102
 1028SOL    HW214718   1.459   2.685   1.696  1.0038 -0.5479  0.2354
 1029SOL     OW14719   1.273   3.859   6.175 -0.4609 -0.1178 -0.5828
 1029SOL    HW114720   1.328   3.801   6.123  1.5412  0.7164  0.6300
 1029SOL    HW214721   1.248   3.921   6.106  1.4818 -0.7526 -1.8583
 1030SOL     OW14722   2.821   3.955  15.161  0.0146  0.5184  0.2253
 1030SOL    HW114723   2.825   3.954  15.065 -1.3410  0.8520  0.1728
 1030SOL    HW214724   2.910   3.983  15.181  1.5726 -3.2349 -1.4404
 1031SOL     OW14725   1.484   4.407   5.851  0.0952  0.6240  0.1928
 1031SOL    HW114726   1.578   4.402   5.830 -0.5322 -2.2197 -2.0573
 1031SOL    HW214727   1.450   4.337   5.796  0.3185  0.2888  0.4787
 1032SOL     OW14728   1.683   0.790   4.231 -0.7699 -0.0953  0.6897
 1032SOL    HW114729   1.638   0.851   4.289 -1.5181  0.3514 -0.3596
 1032SOL    HW214730   1.610   0.735   4.202  0.8410 -2.1339  0.4712
 1033SOL     OW14731   0.897   3.511   2.287  0.0306  0.6637  0.7056
 1033SOL    HW114732   0.820   3.480   2.238  1.1397 -0.4870 -0.2954
 1033SOL    HW214733   0.933   3.570   2.221 -1.1188  1.2584  0.6004
 1034SOL     OW14734   3.299   2.092   7.201  0.2914  0.5029  0.2668
 1034SOL    HW114735   3.342   2.123   7.280 -0.9658  0.1236  1.1133
 1034SOL    HW214736   3.209   2.092   7.235  0.4932 -0.0956  0.7978
 1035SOL     OW14737   4.386   0.763   6.033  0.6152 -0.3359  0.8627
 1035SOL    HW114738   4.415   0.735   5.946 -1.0148  0.8255 -0.0495
 1035SOL    HW214739   4.361   0.678   6.067 -0.4889 -0.4885 -0.3141
 1036SOL     OW14740   4.229   1.320  11.181  0.2758 -0.0705  0.0943
 1036SOL    HW114741   4.318   1.301  11.211  0.3291 -1.7298 -1.0934
 1036SOL    HW214742   4.238   1.366  11.097 -3.1007 -1.1371 -0.8707
 1037SOL     OW14743   3.705   3.716  14.268 -0.2152  0.5963 -0.4413
 1037SOL    HW114744   3.737   3.669  14.345 -1.2479  2.8083  1.3303
 1037SOL    HW214745   3.781   3.748  14.219  1.5940 -3.3009 -0.1566
 1038SOL     OW14746   4.446   4.353   2.898 -0.0980 -0.7506  0.7629
 1038SOL    HW114747   4.492   4.411   2.958  0.0098 -0.7576  0.6876
 1038SOL    HW214748   4.484   4.266   2.904 -1.2027 -1.3716 -0.9578
 1039SOL     OW14749   0.796   0.157   9.737  0.4375  0.0773  0.0567
 1039SOL    HW114750   0.881   0.196   9.719 -0.7679  2.2628 -1.0067
 1039SOL    HW214751   0.811   0.124   9.826  0.4976  1.3274  0.5181
 1040SOL     OW14752   0.059   2.767   4.426  0.6106  0.3817 -0.7020
 1040SOL    HW114753   4.702   2.753   4.440  1.0415 -1.8294 -0.1106
 1040SOL    HW214754   0.062   2.863   4.433 -2.6228  0.6058 -1.9344
 1041SOL     OW14755   0.666   3.736   8.205 -0.0223 -0.4709 -0.0348
 1041SOL    HW114756   0.754   3.770   8.217  0.6850 -1.2998 -3.0296
 1041SOL    HW214757   0.659   3.678   8.281 -0.7989 -0.5113 -0.1347
 1042SOL     OW14758   4.066   1.191   1.152  0.4837  0.8502 -0.6587
 1042SOL    HW114759   3.982   1.152   1.177  1.1281 -0.7881 -1.0836
 1042SOL    HW214760   4.067   1.176   1.057  1.3971  0.2124 -0.5454
 1043SOL     OW14761   3.450   1.504   3.308 -0.2037  0.0810 -0.1325
 1043SOL    HW114762   3.494   1.585   3.337  1.4996  0.6498 -4.2611
 1043SOL    HW214763   3.378   1.489   3.370  1.0952 -0.9735  1.1426
 1044SOL     OW14764   3.000   2.561   4.121  0.5316 -0.0416  0.1895
 1044SOL    HW114765   3.017   2.564   4.215 -3.3883 -0.1650  0.9215
 1044SOL    HW214766   2.935   2.490   4.119  2.3617 -1.7242 -0.0795
 1045SOL     OW14767   1.191   2.325   6.954 -0.2545  0.3186 -0.0571
 1045SOL    HW114768   1.210   2.415   6.980 -0.3811 -0.2422  1.9695
 1045SOL    HW214769   1.118   2.342   6.894  0.6066  1.9144 -0.6636
 1046SOL     OW14770   0.522   1.433   8.359 -0.5866  0.1861 -0.2224
 1046SOL    HW114771   0.578   1.492   8.308 -0.1068 -0.9849 -1.0446
 1046SOL    HW214772   0.546   1.456   8.449  2.3822  1.6866 -1.3843
 1047SOL     OW14773   3.473   3.879   4.486 -0.1344 -0.1107  0.6535
 1047SOL    HW114774   3.526   3.811   4.445 -0.4378  1.0327 -1.6041
 1047SOL    HW214775   3.463   3.945   4.417 -2.1171  0.1809  1.2210
 1048SOL     OW14776   1.394   0.051  13.522  0.2938 -0.1545 -0.4308
 1048SOL    HW114777   1.480   0.041  13.561  0.9938  0.3016 -1.8510
 1048SOL    HW214778   1.346   0.076  13.601 -0.8605  1.7631 -1.7235
 1049SOL     OW14779   2.959   1.062   7.967 -0.8868  0.5496 -0.3690
 1049SOL    HW114780   2.873   1.042   7.931 -0.9412  1.5676 -0.8112
 1049SOL    HW214781   3.006   0.995   7.918 -0.4098  0.4941  0.1556
 1050SOL     OW14782   2.193   0.055  16.322 -0.1192 -0.1388 -0.1750
 1050SOL    HW114783   2.172   0.141  16.357  0.6039 -0.8166  1.9381
 1050SOL    HW214784   2.267   0.026  16.376 -1.8599 -2.8397  0.7291
 1051SOL     OW14785   1.745   0.273   6.316  0.0607 -0.0440  0.2286
 1051SOL    HW114786   1.729   0.205   6.250  1.1640  0.7361 -0.8379
 1051SOL    HW214787   1.839   0.264   6.330  0.3159  0.8490 -0.8411
 1052SOL     OW14788   2.901   0.042  11.694  0.0701 -0.1133  0.0844
 1052SOL    HW114789   2.931   0.133  11.689 -0.5410  0.1044  0.4135
 1052SOL    HW214790   2.975   0.002  11.648  1.9585  0.3269  2.7761
 1053SOL     OW14791   1.937   4.195   7.252  0.4100  0.1825 -0.3939
 1053SOL    HW114792   1.842   4.206   7.248  0.7879  3.2970 -0.3405
 1053SOL    HW214793   1.964   4.211   7.161 -0.6693  0.4543 -0.6674
 1054SOL     OW14794   1.659   3.261   1.277 -0.3679  0.0043 -0.6101
 1054SOL    HW114795   1.751   3.288   1.278 -0.7269  1.2312 -0.4183
 1054SOL    HW214796   1.621   3.304   1.354  0.6522  0.6596 -0.4681
 1055SOL     OW14797   1.199   3.921   8.932  0.0082  0.5191  0.1729
 1055SOL    HW114798   1.237   3.908   8.845 -0.1182 -1.7142  0.4518
 1055SOL    HW214799   1.275   3.925   8.991  0.7208  0.6926 -0.7521
 1056SOL     OW14800   1.581   0.546   4.173  0.0986  0.6443  0.2645
 1056SOL    HW114801   1.624   0.503   4.247  1.5091  1.3614 -0.1289
 1056SOL    HW214802   1.491   0.539   4.205 -0.0138 -0.1991 -0.2432
 1057SOL     OW14803   3.973   3.628  12.283 -0.0576  0.0584  0.1531
 1057SOL    HW114804   3.971   3.680  12.363 -1.5581 -0.0474  0.1729
 1057SOL    HW214805   4.055   3.654  12.239  1.0030 -0.0853  2.0343
 1058SOL     OW14806   3.667   0.706   5.739 -0.0343  0.0906 -0.3314
 1058SOL    HW114807   3.681   0.764   5.664  2.3848  0.7705  0.6498
 1058SOL    HW214808   3.574   0.688   5.727 -0.1140  0.0745  0.3177
 1059SOL     OW14809   0.706   2.555  17.138 -0.1225  0.0115  0.4151
 1059SOL    HW114810   0.756   2.498  17.079 -0.7142 -0.0226 -0.0535
 1059SOL    HW214811   0.757   2.635  17.127  1.0900 -0.5465  2.0248
 1060SOL     OW14812   3.062   0.753  10.431 -0.1495  0.5950 -0.1181
 1060SOL    HW114813   3.146   0.738  10.387  0.2041  1.4642  0.2495
 1060SOL    HW214814   2.997   0.741  10.362  0.1580 -0.5415 -0.2043
 1061SOL     OW14815   0.544   2.148   1.297  0.0206  0.1231 -0.9442
 1061SOL    HW114816   0.552   2.053   1.304  0.1537  0.3164  1.5663
 1061SOL    HW214817   0.518   2.175   1.385 -1.4320  0.3656 -1.4508
 1062SOL     OW14818   4.706   2.376   5.686 -0.5664 -0.0382  0.2511
 1062SOL    HW114819   4.705   2.282   5.703  0.0313  0.3262  2.2265
 1062SOL    HW214820   4.616   2.399   5.710 -1.1857 -1.2631 -0.8339
 1063SOL     OW14821   4.172   4.449   2.689 -0.2746 -0.2091  0.0286
 1063SOL    HW114822   4.086   4.423   2.658  0.6128 -1.4866 -1.3957
 1063SOL    HW214823   4.147   4.538   2.715  2.8493  0.2938  1.3891
 1064SOL     OW14824   1.291   3.197   3.017 -0.0204  0.0019 -0.1324
 1064SOL    HW114825   1.378   3.189   2.979  0.9128  0.8332  1.8133
 1064SOL    HW214826   1.268   3.288   2.995 -0.8570  0.0502  0.9165
 1065SOL     OW14827   3.769   2.239  13.515 -0.1896  0.6991 -0.1449
 1065SOL    HW114828   3.704   2.271  13.577 -0.6935  3.1695 -1.9944
 1065SOL    HW214829   3.802   2.160  13.560  0.1488  1.7405  1.4556
 1066SOL     OW14830   1.992   1.394   2.780 -0.5391 -0.7368  0.4955
 1066SOL    HW114831   1.936   1.392   2.858 -0.1635 -1.4981  0.7503
 1066SOL    HW214832   1.983   1.482   2.744 -1.7250 -0.1025  2.3317
 1067SOL     OW14833   4.493   0.448   2.540  0.1527 -0.4907  0.4709
 1067SOL    HW114834   4.440   0.527   2.528  0.7590 -0.1925 -0.1838
 1067SOL    HW214835   4.430   0.379   2.517 -1.1448  0.6170  0.6788
 1068SOL     OW14836   2.183   1.892   1.721 -0.2433 -0.2432 -0.4138
 1068SOL    HW114837   2.258   1.836   1.742 -0.6735 -0.1022  1.4887
 1068SOL    HW214838   2.119   1.869   1.788 -0.3047  3.3333  0.7519
 1069SOL     OW14839   3.318   1.075  10.441  0.0170 -0.3646 -0.0376
 1069SOL    HW114840   3.368   0.994  10.454 -1.1351 -0.4915  3.5277
 1069SOL    HW214841   3.263   1.064  10.518 -0.5251  1.1306 -0.2149
 1070SOL     OW14842   4.569   0.236   2.728  0.8002 -0.1000  0.0476
 1070SOL    HW114843   4.558   0.316   2.676  0.3526  0.3509  0.8181
 1070SOL    HW214844   4.529   0.171   2.670  1.7788 -0.1187 -0.6080
 1071SOL     OW14845   4.324   0.057   5.854 -0.2135 -0.4260 -0.2311
 1071SOL    HW114846   4.415   0.034   5.835 -0.0432  2.1639 -2.6138
 1071SOL    HW214847   4.279   4.715   5.824  1.0975 -1.4676  0.5415
 1072SOL     OW14848   3.829   2.427   6.094  0.3989  0.3117 -0.0626
 1072SOL    HW114849   3.738   2.398   6.108  0.4760  0.0227 -0.1749
 1072SOL    HW214850   3.842   2.424   6.000 -0.3847 -0.7248 -0.1408
 1073SOL     OW14851   3.187   3.329   4.856 -0.2342  0.3921  0.2786
 1073SOL    HW114852   3.200   3.239   4.827 -0.1228  0.7620 -0.8348
 1073SOL    HW214853   3.274   3.369   4.851  0.6896 -1.6319  0.0234
 1074SOL     OW14854   4.318   0.869  16.139 -0.2216  0.3048 -0.8347
 1074SOL    HW114855   4.389   0.933  16.144  0.1711 -0.1574 -0.4428
 1074SOL    HW214856   4.301   0.864  16.233  0.6800 -0.2238 -0.6988
 1075SOL     OW14857   1.756   0.920   3.313 -0.0231  0.2142 -0.1162
 1075SOL    HW114858   1.696   0.914   3.239  1.1141  1.5569 -1.1446
 1075SOL    HW214859   1.763   0.827   3.334  0.4311  0.2649 -0.0602
 1076SOL     OW14860   1.289   4.417   3.875  0.2554  0.6257  0.1455
 1076SOL    HW114861   1.331   4.489   3.828  1.1559 -0.9845 -1.4971
 1076SOL    HW214862   1.301   4.439   3.967  1.1361 -3.1465  0.9223
 1077SOL     OW14863   3.255   3.193   4.573  0.1502  0.3014  0.6873
 1077SOL    HW114864   3.334   3.167   4.525 -2.0726 -0.2008 -2.6617
 1077SOL    HW214865   3.218   3.107   4.593  2.9695 -1.1940 -0.4986
 1078SOL     OW14866   0.364   0.153   8.411 -0.0223  0.1688 -0.5754
 1078SOL    HW114867   0.380   0.059   8.411  3.6128  0.7876 -0.1876
 1078SOL    HW214868   0.269   0.159   8.396 -0.5294  1.3069  3.2157
 1079SOL     OW14869   1.118   3.460   2.976  0.3444  0.5132  0.4701
 1079SOL    HW114870   1.027   3.487   2.992 -0.0472 -0.5397  0.0083
 1079SOL    HW214871   1.150   3.515   2.904 -0.6275  2.3227  1.4172
 1080SOL     OW14872   1.901   2.961   1.282 -0.2066  0.9110 -0.1910
 1080SOL    HW114873   1.957   2.963   1.359  0.6644 -1.1263 -0.7946
 1080SOL    HW214874   1.877   3.054   1.274 -0.8971  0.8348  1.0111
 1081SOL     OW14875   3.040   2.769  16.313  0.1434  0.4110 -0.1645
 1081SOL    HW114876   2.974   2.779  16.382 -0.5801 -3.3510 -0.3186
 1081SOL    HW214877   3.118   2.778  16.368  0.8241  0.0682 -1.0689
 1082SOL     OW14878   3.926   0.592   6.148  0.2131 -0.2193 -0.0937
 1082SOL    HW114879   3.916   0.581   6.053 -0.1430 -1.8228  0.1269
 1082SOL    HW214880   3.833   0.589   6.168  0.8066 -2.0179  2.3665
 1083SOL     OW14881   0.681   4.115   3.257 -0.3697  0.5526 -0.5248
 1083SOL    HW114882   0.623   4.130   3.182 -1.0950 -0.1174 -0.0998
 1083SOL    HW214883   0.735   4.193   3.256  1.4585 -0.6834  1.0957
 1084SOL     OW14884   3.384   0.767   8.796  0.0114 -0.2196 -0.1238
 1084SOL    HW114885   3.307   0.823   8.806  0.3280  0.6889 -2.7556
 1084SOL    HW214886   3.365   0.691   8.851  0.6586  0.4690  1.0626
 1085SOL     OW14887   1.529   0.014   5.797  0.3395 -0.1084 -0.4526
 1085SOL    HW114888   1.556   4.719   5.711  2.3119  1.4839 -0.4135
 1085SOL    HW214889   1.607   0.055   5.833  0.1052  0.9826 -1.1868
 1086SOL     OW14890   0.355   0.131   4.445  0.6949 -0.6027  0.4437
 1086SOL    HW114891   0.290   0.085   4.498 -0.9310  2.4585  1.0978
 1086SOL    HW214892   0.406   0.058   4.409  0.4032 -1.1068  1.0626
 1087SOL     OW14893   2.138   2.122  12.635 -0.2031 -0.2736 -0.2577
 1087SOL    HW114894   2.152   2.217  12.640 -0.0012 -0.3041 -0.2552
 1087SOL    HW214895   2.188   2.106  12.556 -1.2730  1.3088 -1.2557
 1088SOL     OW14896   3.294   3.260   2.200  0.4085 -0.4939  0.2313
 1088SOL    HW114897   3.354   3.277   2.272  0.7839 -0.5216 -0.0764
 1088SOL    HW214898   3.292   3.353   2.177  1.9953 -0.4312  0.3441
 1089SOL     OW14899   2.116   2.816   3.452 -0.0109 -0.0094 -0.3943
 1089SOL    HW114900   2.112   2.890   3.513  0.8429 -1.3715  1.3228
 1089SOL    HW214901   2.079   2.854   3.372 -0.3262  0.5884  0.0373
 1090SOL     OW14902   4.290   1.596   6.251  0.5631  0.2182 -0.4494
 1090SOL    HW114903   4.307   1.572   6.160  2.2918 -1.9065  0.4529
 1090SOL    HW214904   4.199   1.625   6.240  0.3753 -0.0203  0.5367
 1091SOL     OW14905   1.127   4.142   2.667 -0.0456 -0.7397 -0.4317
 1091SOL    HW114906   1.222   4.135   2.659  0.3406  1.1403  2.6501
 1091SOL    HW214907   1.114   4.215   2.727 -0.6390  0.1224 -1.6054
 1092SOL     OW14908   2.562   1.946   1.572  0.3759  0.0932  0.3006
 1092SOL    HW114909   2.648   1.924   1.535  0.0548 -1.9740  0.7475
 1092SOL    HW214910   2.574   1.901   1.656  1.9417  0.3807  0.2377
 1093SOL     OW14911   1.785   2.032  11.478 -0.0239  0.5591  0.2428
 1093SOL    HW114912   1.793   1.952  11.426  0.7391 -0.8569  2.5579
 1093SOL    HW214913   1.715   2.012  11.539  0.6918  1.8442  1.5035
 1094SOL     OW14914   3.545   4.675   5.398 -0.0395  0.0856  0.5939
 1094SOL    HW114915   3.572   4.594   5.355 -0.3536 -0.5546  1.5959
 1094SOL    HW214916   3.458   4.691   5.361 -1.0046 -3.6081  1.2905
 1095SOL     OW14917   2.199   3.555   9.088  0.0378 -0.1081 -0.2725
 1095SOL    HW114918   2.183   3.649   9.094  1.3414  0.0039  1.3132
 1095SOL    HW214919   2.115   3.521   9.057 -0.1103 -0.7452  0.8207
 1096SOL     OW14920   0.903   2.933   5.016  0.1296  0.2768  0.2007
 1096SOL    HW114921   0.886   2.988   4.940 -1.1639 -0.1418  0.1824
 1096SOL    HW214922   0.818   2.895   5.038 -0.7247  0.0075 -3.5199
 1097SOL     OW14923   1.156   3.542   1.779 -0.2611 -0.7839 -0.5140
 1097SOL    HW114924   1.245   3.509   1.768 -0.2593 -1.0603  0.2958
 1097SOL    HW214925   1.171   3.633   1.755  0.3976 -1.0220 -1.0017
 1098SOL     OW14926   4.119   2.195   4.281 -0.1514 -0.3504  0.5878
 1098SOL    HW114927   4.060   2.215   4.354  0.2017 -0.4658  0.9004
 1098SOL    HW214928   4.079   2.261   4.223 -2.0932 -1.3197  0.8304
 1099SOL     OW14929   0.333   4.195   9.260  0.2885 -0.0174 -0.1971
 1099SOL    HW114930   0.296   4.111   9.235 -0.3061  0.5977 -1.3666
 1099SOL    HW214931   0.423   4.168   9.277 -0.0131 -0.6395  0.3973
 1100SOL     OW14932   3.176   2.146   9.808  0.1681 -0.0307 -0.0138
 1100SOL    HW114933   3.102   2.146   9.747  0.0311  2.3404  0.1190
 1100SOL    HW214934   3.173   2.058   9.844 -0.1754  0.5178  1.3247
 1101SOL     OW14935   0.137   3.319   7.663  0.4402 -0.2516  0.1637
 1101SOL    HW114936   0.176   3.406   7.663 -0.9422  0.3666 -0.4251
 1101SOL    HW214937   0.059   3.334   7.610 -0.1887 -1.0692  0.8590
 1102SOL     OW14938   4.628   1.112  13.317 -0.2793  0.3687  0.0476
 1102SOL    HW114939   4.620   1.030  13.365  3.5850 -0.7249 -1.1976
 1102SOL    HW214940   4.563   1.156  13.372 -1.0016 -1.5228  0.7165
 1103SOL     OW14941   0.720   3.093  17.515  0.2043 -0.3458  0.3420
 1103SOL    HW114942   0.684   3.180  17.499  1.2165  0.1293  0.6181
 1103SOL    HW214943   0.646   3.038  17.540 -1.1504  0.4043 -2.0205
 1104SOL     OW14944   3.535   1.742  15.629  0.7727  0.3095 -0.2350
 1104SOL    HW114945   3.514   1.812  15.691  2.8875  1.5836 -0.9861
 1104SOL    HW214946   3.452   1.695  15.616  1.4957 -0.7159 -1.1545
 1105SOL     OW14947   0.353   1.624   6.495 -0.3885 -0.0851 -0.0540
 1105SOL    HW114948   0.386   1.639   6.406 -0.1280 -0.9098 -0.0952
 1105SOL    HW214949   0.400   1.694   6.541 -0.7715  0.3527 -0.3299
 1106SOL     OW14950   0.964   3.358   5.099 -0.0333 -0.2283 -0.2488
 1106SOL    HW114951   1.011   3.278   5.078  0.8762 -0.0393  1.0043
 1106SOL    HW214952   1.044   3.411   5.111 -0.3706  0.0437  0.8416
 1107SOL     OW14953   0.659   3.094   5.114  0.7629 -0.6408  0.4955
 1107SOL    HW114954   0.609   3.024   5.070  0.3376  0.2860 -0.4962
 1107SOL    HW214955   0.691   3.144   5.038 -1.1770  0.5705  0.4890
 1108SOL     OW14956   0.616   2.781   4.169  0.0917  0.0760  0.0541
 1108SOL    HW114957   0.704   2.747   4.153 -1.2686 -2.6212 -1.6437
 1108SOL    HW214958   0.593   2.747   4.255  1.5139 -0.6383  0.1640
 1109SOL     OW14959   0.397   4.510   4.960  0.2002 -0.4483 -0.2060
 1109SOL    HW114960   0.443   4.533   5.040  1.5105 -4.1246  0.0776
 1109SOL    HW214961   0.324   4.464   5.001  0.5920  0.7676  1.8365
 1110SOL     OW14962   4.009   0.867   5.482 -0.1815 -0.1638  0.4777
 1110SOL    HW114963   4.016   0.950   5.435 -1.2592  0.3070  1.1490
 1110SOL    HW214964   3.975   0.803   5.418 -0.7607 -0.8344  1.4600
 1111SOL     OW14965   1.032   3.441   6.183 -0.3996  0.2152 -0.5557
 1111SOL    HW114966   1.036   3.372   6.117 -3.9840 -0.5556  0.0614
 1111SOL    HW214967   1.031   3.395   6.268 -0.5717  0.5022 -0.4038
 1112SOL     OW14968   4.516   3.940   4.459 -0.2131  0.2092 -0.8759
 1112SOL    HW114969   4.464   3.861   4.476  1.0116 -0.6205 -0.9094
 1112SOL    HW214970   4.439   3.995   4.449  0.1944  0.6197 -1.7414
 1113SOL     OW14971   4.692   2.649   8.520  0.2339  0.3253 -0.1313
 1113SOL    HW114972   4.711   2.579   8.459  0.1242  1.5032 -1.5217
 1113SOL    HW214973   4.610   2.691   8.494 -0.6980 -2.2381 -1.3151
 1114SOL     OW14974   0.055   1.323   1.670 -0.3049 -0.2898 -0.2926
 1114SOL    HW114975   4.697   1.323   1.659 -0.1192 -2.6350 -1.8047
 1114SOL    HW214976   0.070   1.256   1.736  1.5449 -1.5077 -1.9547
 1115SOL     OW14977   3.751   0.972   3.739 -0.7882 -0.1364  0.2370
 1115SOL    HW114978   3.684   1.031   3.706 -0.3982  0.9811  1.4457
 1115SOL    HW214979   3.817   1.040   3.754 -1.2362  0.5023 -0.6870
 1116SOL     OW14980   0.318   0.708   6.940 -0.4515 -0.2689 -0.1462
 1116SOL    HW114981   0.272   0.785   6.975  1.5251  0.5949  0.5669
 1116SOL    HW214982   0.398   0.724   6.990 -0.0992 -0.1724 -0.7430
 1117SOL     OW14983   0.336   3.264   8.062  0.2995 -0.2689  0.2646
 1117SOL    HW114984   0.336   3.340   8.004 -0.3953  0.8028  1.7018
 1117SOL    HW214985   0.399   3.212   8.012  0.0107  1.1252 -1.5636
 1118SOL     OW14986   2.987   4.476   0.787  0.3458 -0.7534  0.0567
 1118SOL    HW114987   3.064   4.457   0.733  0.4248  0.3504 -0.2260
 1118SOL    HW214988   2.955   4.557   0.748 -1.3055 -1.3408  0.1778
 1119SOL     OW14989   0.432   1.988   7.481 -0.0808 -0.0273 -0.0633
 1119SOL    HW114990   0.476   1.926   7.423  1.1304 -0.7962  1.6895
 1119SOL    HW214991   0.345   1.947   7.480  0.6796 -1.5785 -1.5325
 1120SOL     OW14992   3.065   4.234  12.763 -0.2748  0.2697 -0.4441
 1120SOL    HW114993   2.970   4.220  12.760 -0.4612  1.6529 -1.0367
 1120SOL    HW214994   3.100   4.214  12.676  0.6301  0.0872 -0.0439
 1121SOL     OW14995   3.642   3.307   2.465 -0.2980 -0.5982  0.2269
 1121SOL    HW114996   3.685   3.280   2.385 -0.1185 -1.3646  0.5866
 1121SOL    HW214997   3.641   3.403   2.457  1.4783 -0.6121 -0.2075
 1122SOL     OW14998   1.421   1.773   8.000  0.1857 -0.7854  0.6760
 1122SOL    HW114999   1.384   1.752   7.914 -0.5840  0.3345  0.7427
 1122SOL    HW215000   1.341   1.812   8.034  0.6706 -1.0310  2.0733
 1123SOL     OW15001   3.612   2.560   1.569  0.0415 -0.3005 -0.1029
 1123SOL    HW115002   3.677   2.612   1.617 -1.1478  2.3499 -1.3916
 1123SOL    HW215003   3.620   2.472   1.605 -0.3974 -1.3580 -2.5766
 1124SOL     OW15004   2.836   1.571   3.771 -0.1261  0.0562  0.7932
 1124SOL    HW115005   2.878   1.572   3.685  0.1772 -0.6215  0.9325
 1124SOL    HW215006   2.768   1.638   3.770 -0.4789 -0.3064  0.5320
 1125SOL     OW15007   1.662   0.630   3.406 -0.0715  0.5137  0.2972
 1125SOL    HW115008   1.642   0.539   3.428  1.0187 -0.2011 -1.6625
 1125SOL    HW215009   1.616   0.682   3.472 -0.8925 -0.4003  0.4316
 1126SOL     OW15010   0.637   4.244   5.141 -0.2821 -0.1046 -0.2675
 1126SOL    HW115011   0.721   4.201   5.161  0.8349  1.4729 -1.6576
 1126SOL    HW215012   0.647   4.292   5.059 -0.9910 -0.8803 -0.8071
 1127SOL     OW15013   4.382   1.334   5.155  0.2171 -0.3233 -0.0611
 1127SOL    HW115014   4.424   1.344   5.240  1.8383  0.5117 -0.9519
 1127SOL    HW215015   4.333   1.253   5.170 -0.2304 -0.0082  0.1678
 1128SOL     OW15016   2.618   3.786  11.116  0.1261  0.4845  0.3622
 1128SOL    HW115017   2.663   3.867  11.091  0.1578  0.0795 -0.9119
 1128SOL    HW215018   2.597   3.748  11.031 -0.7458  0.3063  0.6521
 1129SOL     OW15019   3.611   3.206   2.728 -0.2116  0.0366  0.9542
 1129SOL    HW115020   3.635   3.251   2.647 -0.6344 -1.1914  0.1485
 1129SOL    HW215021   3.697   3.202   2.770  0.4444  0.9720 -0.3118
 1130SOL     OW15022   2.509   3.996   1.200  0.1519  0.3755 -0.6068
 1130SOL    HW115023   2.476   3.931   1.261  0.5543  1.1987  0.4843
 1130SOL    HW215024   2.531   4.065   1.263  1.6575 -1.1066  0.4949
 1131SOL     OW15025   4.538   3.094  11.159  0.1029 -0.4513  0.0892
 1131SOL    HW115026   4.494   3.029  11.104 -0.1886 -0.3341  0.1861
 1131SOL    HW215027   4.483   3.103  11.237  1.2112 -1.3538  0.9662
 1132SOL     OW15028   1.453   1.958  17.288 -0.1181  0.3976 -0.6206
 1132SOL    HW115029   1.432   2.038  17.240  0.2690 -0.0996 -1.6228
 1132SOL    HW215030   1.406   1.891  17.238 -0.9588 -0.2111  1.0017
 1133SOL     OW15031   3.389   2.498   5.142  0.1110  0.2238 -0.3580
 1133SOL    HW115032   3.334   2.454   5.078  2.7744 -2.1273 -1.0258
 1133SOL    HW215033   3.388   2.588   5.110 -2.7770  0.9266  1.7950
 1134SOL     OW15034   0.381   3.445  17.665 -0.1712  0.1502 -0.0371
 1134SOL    HW115035   0.294   3.463  17.631 -0.2597 -1.3639 -0.5858
 1134SOL    HW215036   0.377   3.350  17.663  0.3807  0.1469 -0.8286
 1135SOL     OW15037   2.057   1.307   3.861 -0.0631  0.2389  0.5067
 1135SOL    HW115038   2.104   1.232   3.825  0.5625 -0.5551  2.9494
 1135SOL    HW215039   2.037   1.362   3.785 -1.0132  0.1925  0.7202
 1136SOL     OW15040   3.698   4.087  15.836 -0.1773 -0.3570 -0.3941
 1136SOL    HW115041   3.738   4.000  15.841  0.0360 -0.3086 -1.3334
 1136SOL    HW215042   3.772   4.139  15.806  0.3599 -0.6786  0.3552
 1137SOL     OW15043   3.742   1.452  17.257  0.2012  0.8036 -0.4482
 1137SOL    HW115044   3.801   1.383  17.226 -0.0182  0.1491  0.5957
 1137SOL    HW215045   3.766   1.530  17.207  0.4899  0.0536 -1.4954
 1138SOL     OW15046   3.590   3.177   8.266 -0.2576 -0.3010 -0.9279
 1138SOL    HW115047   3.594   3.097   8.213  0.4854 -1.0215  0.2319
 1138SOL    HW215048   3.615   3.239   8.198  3.3865 -2.1952 -1.3322
 1139SOL     OW15049   0.434   2.309   6.115 -0.3520 -0.3540  0.8503
 1139SOL    HW115050   0.339   2.314   6.107 -0.2553 -2.1236 -1.3837
 1139SOL    HW215051   0.444   2.218   6.089  0.0003 -0.2680  0.6844
 1140SOL     OW15052   3.388   1.818  17.597  0.0608 -0.2554  0.0971
 1140SOL    HW115053   3.344   1.852  17.519 -0.6982 -1.3275  0.0598
 1140SOL    HW215054   3.442   1.895  17.615  1.8350 -1.5964  0.4740
 1141SOL     OW15055   4.361   1.576  12.600 -0.3566  0.2725  0.0168
 1141SOL    HW115056   4.427   1.537  12.544 -1.0538  0.4582 -0.9271
 1141SOL    HW215057   4.385   1.668  12.608 -0.4574  0.5814 -3.4200
 1142SOL     OW15058   4.304   4.235  15.081 -0.0987 -0.1352  0.0058
 1142SOL    HW115059   4.354   4.248  15.001  1.6171  1.7849  1.3913
 1142SOL    HW215060   4.356   4.288  15.141  0.8001  0.2220 -1.0943
 1143SOL     OW15061   0.304   3.155  13.906 -0.5257 -0.0274 -0.2134
 1143SOL    HW115062   0.276   3.231  13.856 -0.0719 -0.1221 -0.6093
 1143SOL    HW215063   0.269   3.081  13.856  0.6954 -0.6889 -0.1097
 1144SOL     OW15064   2.104   0.469  12.136 -0.6469 -0.0392 -0.1818
 1144SOL    HW115065   2.049   0.545  12.158 -0.5189 -0.6895  2.2940
 1144SOL    HW215066   2.050   0.399  12.171 -1.5638  1.2153  0.9363
 1145SOL     OW15067   2.871   4.178   6.623 -0.0566 -0.2188 -0.1481
 1145SOL    HW115068   2.850   4.123   6.698  1.3229 -1.2246 -0.4967
 1145SOL    HW215069   2.781   4.201   6.603  0.4215  0.2676 -1.7546
 1146SOL     OW15070   2.099   0.387   8.418  0.0620 -0.5299  0.3521
 1146SOL    HW115071   2.003   0.380   8.417  0.1398 -1.1943 -1.1338
 1146SOL    HW215072   2.126   0.439   8.342 -0.3984  0.6420  0.9845
 1147SOL     OW15073   2.064   3.492   1.379  0.0867 -0.0475  0.0369
 1147SOL    HW115074   2.072   3.471   1.472 -1.0874 -0.2684  0.0957
 1147SOL    HW215075   2.152   3.528   1.371  0.6289 -1.5396 -0.7639
 1148SOL     OW15076   4.560   3.882  12.391 -0.2369  0.5671 -0.5067
 1148SOL    HW115077   4.560   3.798  12.346  0.9010  1.5841 -2.3594
 1148SOL    HW215078   4.620   3.869  12.464 -0.6086 -0.8939 -0.4619
 1149SOL     OW15079   0.952   4.518  11.249 -0.4535  0.2224  0.8068
 1149SOL    HW115080   0.926   4.609  11.234  0.3884  0.5270  1.1864
 1149SOL    HW215081   0.883   4.495  11.310 -1.7740  2.0315  0.0005
 1150SOL     OW15082   1.337   3.659   4.955 -0.3679 -0.1003  0.0025
 1150SOL    HW115083   1.371   3.664   4.866  1.0918  0.7870  0.6071
 1150SOL    HW215084   1.414   3.641   5.009 -1.4382  0.3702  1.6997
 1151SOL     OW15085   0.608   2.014   3.207 -0.1034  0.1291 -0.4341
 1151SOL    HW115086   0.659   2.091   3.229 -0.6453  0.5811 -0.7623
 1151SOL    HW215087   0.600   1.980   3.296  0.9990 -1.6824 -1.0242
 1152SOL     OW15088   1.347   1.287   8.835 -0.2179  0.4419  0.1807
 1152SOL    HW115089   1.439   1.261   8.836 -0.1553  0.7234  1.1211
 1152SOL    HW215090   1.339   1.273   8.929 -1.0779 -0.0498  0.0337
 1153SOL     OW15091   2.251   2.763   9.140 -0.5091  0.2826  0.3231
 1153SOL    HW115092   2.304   2.814   9.079 -0.5273  1.7243  1.5148
 1153SOL    HW215093   2.265   2.673   9.112 -1.2363  0.2954 -0.0778
 1154SOL     OW15094   1.318   1.930   4.170  0.4057  0.2245 -0.1152
 1154SOL    HW115095   1.241   1.922   4.227 -0.2002  0.1618 -0.9451
 1154SOL    HW215096   1.276   1.974   4.096  0.9832  2.5026  0.8856
 1155SOL     OW15097   0.303   1.138   7.139 -0.1713  0.0448 -0.6489
 1155SOL    HW115098   0.286   1.231   7.156 -1.6545 -0.6959  1.8823
 1155SOL    HW215099   0.398   1.148   7.128  0.0811  0.6068  1.9540
 1156SOL     OW15100   3.713   1.770  12.075 -0.0919 -0.2186 -0.0543
 1156SOL    HW115101   3.742   1.778  11.985 -1.5572 -0.6733 -0.5655
 1156SOL    HW215102   3.750   1.851  12.110 -0.3338  0.5499 -1.5884
 1157SOL     OW15103   3.165   4.153  12.991 -0.6478 -0.2852  0.1224
 1157SOL    HW115104   3.187   4.064  12.965  0.2585 -1.1691  3.8828
 1157SOL    HW215105   3.149   4.181  12.901 -0.8454  0.7018  0.4709
 1158SOL     OW15106   1.245   1.439  17.108 -0.0856  0.0726 -0.0369
 1158SOL    HW115107   1.234   1.519  17.159  2.1016 -0.0354  0.5752
 1158SOL    HW215108   1.302   1.467  17.037  1.3899 -2.0379  0.3142
 1159SOL     OW15109   2.238   0.575  13.456 -0.0014  0.9720  0.5624
 1159SOL    HW115110   2.213   0.624  13.378 -2.5253 -0.3552  0.5406
 1159SOL    HW215111   2.180   0.603  13.527  1.9986  0.3408  2.4569
 1160SOL     OW15112   1.694   3.047  12.225  0.2490 -0.3893 -0.2513
 1160SOL    HW115113   1.742   2.969  12.197  0.3553 -0.6304  0.5923
 1160SOL    HW215114   1.717   3.050  12.318 -1.8199  0.9385  0.2159
 1161SOL     OW15115   0.686   4.373   4.857 -0.2377  0.6849 -0.4002
 1161SOL    HW115116   0.683   4.452   4.803 -0.4095  0.1802 -1.1239
 1161SOL    HW215117   0.706   4.305   4.793 -2.2084 -1.9694  1.8393
 1162SOL     OW15118   1.832   2.560   1.027  0.8727 -0.5211 -0.1185
 1162SOL    HW115119   1.883   2.641   1.027  0.4111 -0.2351  2.1187
 1162SOL    HW215120   1.744   2.587   1.055  1.3177 -0.8220  1.5605
 1163SOL     OW15121   0.660   1.270   3.516  0.2676 -0.0818 -0.3640
 1163SOL    HW115122   0.714   1.246   3.440  1.5152  1.4351  0.0443
 1163SOL    HW215123   0.579   1.238   3.478  0.8626 -0.8235 -1.0194
 1164SOL     OW15124   1.769   2.585   8.356 -0.1216 -0.3637  0.1650
 1164SOL    HW115125   1.827   2.639   8.303  0.9421 -0.6676  1.0216
 1164SOL    HW215126   1.825   2.569   8.432  1.9282  1.9437 -0.8757
 1165SOL     OW15127   4.534   2.733   5.360  0.5065  0.3536  0.1093
 1165SOL    HW115128   4.598   2.716   5.430  1.3750  0.1834 -0.7164
 1165SOL    HW215129   4.591   2.748   5.285  1.3568 -0.5584  0.5663
 1166SOL     OW15130   0.356   4.508  14.882  0.3199  0.5456  0.5647
 1166SOL    HW115131   0.438   4.554  14.866 -0.1729  1.8997  1.9862
 1166SOL    HW215132   0.325   4.566  14.951 -1.2912 -1.6347  1.6699
 1167SOL     OW15133   3.478   2.514  11.214  0.3228  0.2161  0.1155
 1167SOL    HW115134   3.449   2.474  11.296  0.0333 -1.5185 -0.8231
 1167SOL    HW215135   3.400   2.555  11.177  1.9859  2.3164 -1.0865
 1168SOL     OW15136   2.586   3.215  11.847  0.0740  0.0953  0.8646
 1168SOL    HW115137   2.660   3.176  11.800 -1.3095  0.5994 -1.7113
 1168SOL    HW215138   2.620   3.239  11.933  0.4743 -0.2120  0.7967
 1169SOL     OW15139   2.344   1.398  12.942  0.1864 -0.5799  0.1536
 1169SOL    HW115140   2.435   1.415  12.968  0.3347  0.2613 -0.9321
 1169SOL    HW215141   2.327   1.475  12.888  4.4279  1.0940  1.2044
 1170SOL     OW15142   0.701   4.634  13.265  0.0877  0.1496 -0.1926
 1170SOL    HW115143   0.760   4.709  13.271 -2.8610  2.5889 -1.5050
 1170SOL    HW215144   0.693   4.606  13.357 -0.6779 -0.2384 -0.3779
 1171SOL     OW15145   3.557   2.076   1.542 -0.2351 -0.3984 -0.1258
 1171SOL    HW115146   3.614   2.010   1.581 -0.8698 -2.2161 -2.2783
 1171SOL    HW215147   3.487   2.021   1.507  1.5549 -3.6306  1.3626
 1172SOL     OW15148   3.426   3.616   2.474 -0.3096  0.7467  0.4312
 1172SOL    HW115149   3.416   3.566   2.555 -0.0260  2.3026  1.4171
 1172SOL    HW215150   3.337   3.611   2.438 -0.4905  1.9907  0.6994
 1173SOL     OW15151   2.227   0.543   1.753 -0.2997  0.1756 -0.1623
 1173SOL    HW115152   2.311   0.582   1.730 -0.5074  0.6242 -0.1794
 1173SOL    HW215153   2.175   0.620   1.777 -2.2982 -0.4224 -2.5062
 1174SOL     OW15154   1.231   3.364  11.756 -0.5395  0.0887  0.5191
 1174SOL    HW115155   1.161   3.390  11.816 -0.5823  2.0420 -0.3963
 1174SOL    HW215156   1.298   3.343  11.821  0.5623  0.2053 -0.5891
 1175SOL     OW15157   0.761   0.981   4.145 -0.0705  0.5252 -0.9018
 1175SOL    HW115158   0.734   0.952   4.232  1.7342  2.8073  0.4303
 1175SOL    HW215159   0.701   0.921   4.101 -1.4030  2.2228 -1.3921
 1176SOL     OW15160   1.306   1.870  10.954  0.6947  0.6559 -0.1468
 1176SOL    HW115161   1.366   1.834  10.890  1.7217  1.4264  0.3817
 1176SOL    HW215162   1.364   1.937  10.991  1.6355  0.1042 -0.6354
 1177SOL     OW15163   1.075   1.917   8.569  0.0316  0.6714  0.1453
 1177SOL    HW115164   1.116   1.872   8.496  0.2712 -1.5523  1.6293
 1177SOL    HW215165   1.130   1.994   8.581 -2.4008  2.4238  0.1203
 1178SOL     OW15166   2.492   1.485   3.910 -0.8259  0.0099 -0.2100
 1178SOL    HW115167   2.439   1.477   3.989  2.7166  0.8708  2.2250
 1178SOL    HW215168   2.549   1.560   3.924 -1.6327  0.0661  2.7093
 1179SOL     OW15169   2.326   4.550   8.427  0.0436 -0.2566  0.0359
 1179SOL    HW115170   2.321   4.643   8.448 -0.5328 -0.4731  0.8535
 1179SOL    HW215171   2.421   4.535   8.426 -0.1564 -1.5835  1.2373
 1180SOL     OW15172   0.267   4.174   6.235 -0.2265  0.0043  0.5512
 1180SOL    HW115173   0.198   4.128   6.187  0.6355 -2.0480  1.2894
 1180SOL    HW215174   0.269   4.249   6.175 -2.6451 -0.1581  0.2722
 1181SOL     OW15175   3.383   2.278  14.705 -0.2050  0.5343  0.5356
 1181SOL    HW115176   3.349   2.221  14.635 -0.1409 -1.5928  2.2371
 1181SOL    HW215177   3.317   2.265  14.773 -1.4638 -1.1285 -0.9927
 1182SOL     OW15178   4.632   3.660   6.412 -0.0614  0.1848 -0.4285
 1182SOL    HW115179   4.539   3.650   6.389 -0.3681  0.5650  0.6701
 1182SOL    HW215180   4.642   3.754   6.402  0.8702  0.3178  1.7964
 1183SOL     OW15181   1.181   0.710   5.000  0.0352 -0.0459 -0.4554
 1183SOL    HW115182   1.100   0.665   5.024 -0.7495  0.8538 -1.4336
 1183SOL    HW215183   1.249   0.687   5.064  0.9879 -0.0797 -1.4644
 1184SOL     OW15184   4.472   0.941   5.590 -0.5715 -0.3875  0.1511
 1184SOL    HW115185   4.472   0.868   5.651  1.5291  0.5123  1.2422
 1184SOL    HW215186   4.475   1.018   5.648  0.3531  0.6557 -1.2690
 1185SOL     OW15187   3.540   1.324   4.343 -0.2013 -0.1970 -0.5713
 1185SOL    HW115188   3.524   1.417   4.335  2.8559  0.5217  1.4844
 1185SOL    HW215189   3.624   1.326   4.389 -0.8441  1.8680  0.4945
 1186SOL     OW15190   1.027   2.936   6.332  0.4610 -0.1689 -0.5051
 1186SOL    HW115191   1.071   3.016   6.360 -2.5191  1.8423 -1.5047
 1186SOL    HW215192   1.000   2.966   6.245  1.1396  2.0520  0.0296
 1187SOL     OW15193   0.509   0.576   5.664 -0.7418  0.2067 -0.0898
 1187SOL    HW115194   0.560   0.512   5.614 -0.8727  1.8028 -2.2313
 1187SOL    HW215195   0.575   0.641   5.689 -0.7559  0.0841  0.2666
 1188SOL     OW15196   2.654   3.327   6.241  0.2301 -0.5491 -0.0116
 1188SOL    HW115197   2.578   3.344   6.297 -0.1505  0.1613 -0.7468
 1188SOL    HW215198   2.724   3.368   6.291 -0.6430  0.4109  0.4252
 1189SOL     OW15199   1.775   4.516  10.227 -0.2492  0.1599  0.3541
 1189SOL    HW115200   1.721   4.573  10.172 -1.1739  0.3417  1.4529
 1189SOL    HW215201   1.780   4.437  10.172 -0.9911 -0.4437  1.1674
 1190SOL     OW15202   2.915   0.488  16.844  0.2749 -0.5890 -0.1052
 1190SOL    HW115203   2.957   0.570  16.869 -0.8122 -0.3812  1.0179
 1190SOL    HW215204   2.936   0.484  16.750 -0.0431  2.0625 -0.2749
 1191SOL     OW15205   0.792   4.345   2.479  0.2286  0.2192 -0.3520
 1191SOL    HW115206   0.760   4.426   2.519  1.0812 -0.4033  1.5799
 1191SOL    HW215207   0.714   4.319   2.431 -1.0338  0.8835  1.3217
 1192SOL     OW15208   2.017   2.722   5.286  0.2668 -0.2654  0.5111
 1192SOL    HW115209   1.998   2.688   5.198 -1.2929  1.0936  0.3191
 1192SOL    HW215210   2.052   2.639   5.319 -1.9242 -1.0903  0.7544
 1193SOL     OW15211   3.494   1.175   7.861 -0.2222 -0.0467 -0.2584
 1193SOL    HW115212   3.492   1.230   7.784 -0.4305  0.6763  0.2641
 1193SOL    HW215213   3.575   1.209   7.898  0.9829 -2.4518 -0.6531
 1194SOL     OW15214   4.490   4.568   3.763 -0.6011  0.1914  0.0910
 1194SOL    HW115215   4.399   4.570   3.793 -0.6682 -0.3860 -0.0819
 1194SOL    HW215216   4.485   4.543   3.671  0.1102 -1.6406  0.5620
 1195SOL     OW15217   0.457   1.258   5.483 -0.3870  0.2740 -0.4320
 1195SOL    HW115218   0.465   1.178   5.534 -0.3118  1.1916  0.9784
 1195SOL    HW215219   0.374   1.233   5.443 -2.1450  1.0565  2.7579
 1196SOL     OW15220   2.288   0.519   1.473  0.2872  0.1457  0.0840
 1196SOL    HW115221   2.255   0.518   1.563  1.4897  1.1580  0.5451
 1196SOL    HW215222   2.356   0.579   1.506  0.0900  0.4553 -0.0694
 1197SOL     OW15223   4.566   3.145   7.525  0.1685  0.0241 -0.0710
 1197SOL    HW115224   4.594   3.109   7.609 -1.5235 -1.7881 -0.2947
 1197SOL    HW215225   4.635   3.106   7.471 -0.0221 -0.2283 -0.1306
 1198SOL     OW15226   1.944   2.135   9.068  0.6238  0.1279 -0.1522
 1198SOL    HW115227   1.871   2.109   9.012  1.3119 -1.5227 -0.2759
 1198SOL    HW215228   1.970   2.044   9.084  2.1479  0.6310  0.1526
 1199SOL     OW15229   2.407   0.355   2.513 -0.5767  0.5873 -0.0946
 1199SOL    HW115230   2.454   0.336   2.594 -0.2367  1.0067 -0.1892
 1199SOL    HW215231   2.324   0.318   2.541  0.2856 -1.0546  0.2989
 1200SOL     OW15232   3.934   0.680   4.748 -0.4259 -0.1433  0.3755
 1200SOL    HW115233   3.932   0.690   4.652  0.4060  2.1946  0.5844
 1200SOL    HW215234   3.950   0.769   4.779  0.4529 -0.3593  0.5333
 1201SOL     OW15235   1.755   2.123   1.454 -0.1416  0.1292  0.3964
 1201SOL    HW115236   1.794   2.038   1.473  1.8408  0.5445 -1.8584
 1201SOL    HW215237   1.755   2.168   1.539  1.6405  1.7987 -0.4899
 1202SOL     OW15238   0.013   0.080   4.641  0.6500 -0.1400  0.4759
 1202SOL    HW115239   0.071   0.009   4.615 -1.3184 -0.7808 -2.0593
 1202SOL    HW215240   4.668   0.059   4.597  0.5471  1.1525  0.0335
 1203SOL     OW15241   4.547   1.928   8.730 -0.1891  0.3524 -0.6253
 1203SOL    HW115242   4.465   1.905   8.773  0.6819 -1.6490 -0.0715
 1203SOL    HW215243   4.516   1.968   8.649 -0.9400 -0.4082 -0.7020
 1204SOL     OW15244   3.522   4.608   3.491  0.2554 -0.0251  0.4753
 1204SOL    HW115245   3.548   4.545   3.558  0.1742 -0.9036 -0.3247
 1204SOL    HW215246   3.584   4.681   3.494 -0.9912  1.0351  0.7460
 1205SOL     OW15247   1.645   1.885   6.665  0.6034 -0.4284 -0.3000
 1205SOL    HW115248   1.646   1.940   6.743  1.0125 -2.3772  1.0983
 1205SOL    HW215249   1.596   1.933   6.599 -0.1078 -0.9461 -0.1474
 1206SOL     OW15250   0.668   0.704  14.521 -0.1828 -0.3305  0.1063
 1206SOL    HW115251   0.647   0.615  14.491 -0.6988 -0.8706  2.0481
 1206SOL    HW215252   0.588   0.716  14.572  0.5010  0.1070  1.0872
 1207SOL     OW15253   3.107   1.514   6.018 -0.2086 -0.0787  0.2191
 1207SOL    HW115254   3.048   1.526   6.093 -1.7247  0.9072 -1.1249
 1207SOL    HW215255   3.169   1.587   6.021  0.5279 -0.5939 -2.2647
 1208SOL     OW15256   0.600   0.676   8.803  0.3330 -0.3558  0.1786
 1208SOL    HW115257   0.562   0.762   8.823  1.0235 -0.1762  0.6854
 1208SOL    HW215258   0.565   0.614   8.867 -1.2055 -0.5772 -0.8582
 1209SOL     OW15259   4.553   4.276   7.694  0.4385 -0.2348  0.0454
 1209SOL    HW115260   4.471   4.242   7.731 -0.2255 -0.0414 -1.2382
 1209SOL    HW215261   4.596   4.312   7.771  0.7764  2.6295 -1.4633
 1210SOL     OW15262   2.289   2.548   2.094 -0.2076  0.0758 -0.3213
 1210SOL    HW115263   2.354   2.511   2.154  2.0941  1.7169 -1.7834
 1210SOL    HW215264   2.202   2.516   2.115  0.5037 -2.6352 -1.5469
 1211SOL     OW15265   3.722   3.132   3.509  0.0321 -0.8560  0.9089
 1211SOL    HW115266   3.741   3.094   3.423  3.1553  1.4889  0.5670
 1211SOL    HW215267   3.811   3.147   3.540 -0.0398 -0.2498  0.8168
 1212SOL     OW15268   4.670   3.811   2.775 -0.3658 -0.0703 -0.2120
 1212SOL    HW115269   4.602   3.839   2.713 -1.8447  1.2234  2.0194
 1212SOL    HW215270   4.637   3.840   2.860 -0.7140  0.7769 -0.6345
 1213SOL     OW15271   0.548   0.511   5.085 -0.0319  0.3476 -0.1983
 1213SOL    HW115272   0.562   0.446   5.016  1.8952  0.1095  0.4130
 1213SOL    HW215273   0.459   0.493   5.116  0.1020  1.8164  1.0837
 1214SOL     OW15274   1.151   1.594   3.588 -0.1212 -0.1965  0.5630
 1214SOL    HW115275   1.153   1.500   3.606 -3.7119 -0.4325 -0.3227
 1214SOL    HW215276   1.144   1.591   3.492  2.0890 -1.9434  0.4444
 1215SOL     OW15277   1.565   2.974   7.390 -0.4342 -0.3881 -0.6555
 1215SOL    HW115278   1.637   2.919   7.359  0.3353 -0.2147  0.8220
 1215SOL    HW215279   1.573   3.046   7.328  1.5202  0.0702  0.1176
 1216SOL     OW15280   3.730   2.261   7.224  0.1575  0.4781  0.9336
 1216SOL    HW115281   3.688   2.329   7.172 -3.0185 -2.6298 -0.5537
 1216SOL    HW215282   3.701   2.187   7.171 -0.3587  1.7458 -0.5317
 1217SOL     OW15283   0.044   0.738   8.941  0.6065  0.4825  0.0241
 1217SOL    HW115284   0.014   0.828   8.926  1.5179  0.3426 -2.6821
 1217SOL    HW215285   4.722   0.695   8.879  2.6569 -2.5307  0.1584
 1218SOL     OW15286   3.801   1.671   3.281  0.0875  0.2784 -0.8087
 1218SOL    HW115287   3.851   1.634   3.208 -0.3957  1.2479 -1.6390
 1218SOL    HW215288   3.861   1.733   3.322  0.6632 -1.4969  1.0141
 1219SOL     OW15289   1.670   2.385   0.645 -0.0827 -0.2242 -0.6571
 1219SOL    HW115290   1.638   2.365   0.733  1.9155 -0.3432  0.0445
 1219SOL    HW215291   1.761   2.354   0.647  0.0937  0.4643  1.9565
 1220SOL     OW15292   0.888   0.193   5.862 -0.3091  0.2116  0.2739
 1220SOL    HW115293   0.973   0.204   5.821  0.0283  0.9922  1.1885
 1220SOL    HW215294   0.890   0.269   5.920  1.2253  1.1394 -1.0100
 1221SOL     OW15295   2.259   0.904   6.308  0.1816  0.1027  0.3912
 1221SOL    HW115296   2.210   0.986   6.309  0.2179  0.1310 -0.4182
 1221SOL    HW215297   2.346   0.942   6.321 -0.1585  0.5720  1.3469
 1222SOL     OW15298   1.336   0.043   6.007  0.3037 -0.4510  0.0426
 1222SOL    HW115299   1.393   4.708   6.033  1.6667  1.4174  2.2681
 1222SOL    HW215300   1.397   0.085   5.945  0.1998 -1.0163 -0.4450
 1223SOL     OW15301   1.214   2.610  16.294  0.4462  0.0018  0.6013
 1223SOL    HW115302   1.284   2.675  16.300  1.8868 -1.5552  0.8634
 1223SOL    HW215303   1.141   2.663  16.262  1.1806  1.8730  2.0141
 1224SOL     OW15304   4.319   2.110   3.643 -0.1603  0.0169  0.5116
 1224SOL    HW115305   4.387   2.089   3.579 -1.3456  1.3631 -1.2016
 1224SOL    HW215306   4.368   2.098   3.724  2.7618 -1.1422 -1.4330
 1225SOL     OW15307   2.445   1.628   8.692 -0.7749  0.3971  0.4688
 1225SOL    HW115308   2.393   1.562   8.737  1.2395 -0.3083  1.7427
 1225SOL    HW215309   2.503   1.655   8.763  2.4512 -1.8382 -1.3101
 1226SOL     OW15310   4.264   2.096   0.032  0.6099  0.0979 -0.2194
 1226SOL    HW115311   4.173   2.071   0.012 -0.6373  2.0751  3.0303
 1226SOL    HW215312   4.255   2.189   0.053  0.4993  0.2616 -0.9878
 1227SOL     OW15313   3.884   4.297   7.519 -0.4277 -0.1126 -0.3934
 1227SOL    HW115314   3.819   4.275   7.586  0.4086  1.2888  0.8927
 1227SOL    HW215315   3.895   4.216   7.470  0.2409 -1.2505  1.6474
 1228SOL     OW15316   2.459   0.299   7.899 -0.4519 -0.2964  0.2133
 1228SOL    HW115317   2.416   0.239   7.960  1.0424 -0.6786  0.9021
 1228SOL    HW215318   2.398   0.372   7.910  0.5731  0.9544 -2.4106
 1229SOL     OW15319   3.463   3.175   7.952  0.1053 -0.3337 -0.1190
 1229SOL    HW115320   3.416   3.127   8.020  3.0919 -0.0780  2.1595
 1229SOL    HW215321   3.484   3.109   7.887  0.5638 -0.3345  0.0276
 1230SOL     OW15322   2.671   2.824   6.745 -0.6037 -0.3877 -0.2146
 1230SOL    HW115323   2.603   2.756   6.738  0.5312 -1.4473 -0.9470
 1230SOL    HW215324   2.626   2.907   6.759 -0.4608 -0.0231 -1.8564
 1231SOL     OW15325   0.759   0.614   7.435  0.4098 -0.4619 -0.2629
 1231SOL    HW115326   0.818   0.660   7.495  1.6204 -2.5460  0.1417
 1231SOL    HW215327   0.820   0.592   7.365  0.4049  1.0720 -0.7438
 1232SOL     OW15328   1.921   0.018   6.758 -1.4034 -0.1482  0.1989
 1232SOL    HW115329   1.898   0.010   6.666 -1.4763 -0.3666  0.2373
 1232SOL    HW215330   1.868   0.097   6.770 -1.9836 -0.2065 -1.8967
 1233SOL     OW15331   3.790   0.923   4.010 -0.3174  0.4127 -0.5153
 1233SOL    HW115332   3.780   0.941   3.916 -0.1909 -0.1865 -0.6436
 1233SOL    HW215333   3.721   0.976   4.050 -0.6854 -0.9408  0.6344
 1234SOL     OW15334   1.403   1.320   2.972 -0.0643 -0.2813 -0.2094
 1234SOL    HW115335   1.417   1.254   3.040 -1.9869  1.1793  1.6272
 1234SOL    HW215336   1.482   1.368   2.997  0.0697 -0.4218 -0.3665
 1235SOL     OW15337   4.263   2.229   7.308  0.2433  0.5085 -0.2494
 1235SOL    HW115338   4.189   2.205   7.363  1.6574 -0.2195  1.3414
 1235SOL    HW215339   4.258   2.324   7.317 -0.4769  0.6125 -1.6109
 1236SOL     OW15340   1.230   4.091   8.613  0.0566  0.3338 -0.1832
 1236SOL    HW115341   1.222   4.151   8.687 -1.7514  0.4053 -0.4278
 1236SOL    HW215342   1.257   4.008   8.652 -1.7144  0.1656  0.7082
 1237SOL     OW15343   3.338   0.316   6.811  0.3144 -0.4574 -0.2458
 1237SOL    HW115344   3.368   0.270   6.734  0.3024 -1.0084  0.0814
 1237SOL    HW215345   3.287   0.382   6.763 -0.3370 -0.9494 -0.2361
 1238SOL     OW15346   4.356   1.427   2.867  0.1235 -0.6094 -0.1807
 1238SOL    HW115347   4.282   1.375   2.837 -0.7389  0.2882  0.3590
 1238SOL    HW215348   4.432   1.376   2.841  0.3816  0.3263 -1.2511
 1239SOL     OW15349   4.284   2.187   6.693 -0.1363 -0.0367 -0.2079
 1239SOL    HW115350   4.216   2.206   6.629 -0.3161 -1.3772 -0.4203
 1239SOL    HW215351   4.306   2.278   6.711 -0.7208 -0.1512  1.0557
 1240SOL     OW15352   0.132   3.702   6.600 -0.3409 -0.6876  0.9193
 1240SOL    HW115353   0.168   3.790   6.605  0.4046 -1.0090  1.2309
 1240SOL    HW215354   0.040   3.727   6.592 -0.1918 -0.4029  0.0886
 1241SOL     OW15355   3.816   3.305  16.991 -0.4866  0.7077 -0.2874
 1241SOL    HW115356   3.904   3.272  17.010 -0.4824  1.9248  1.7775
 1241SOL    HW215357   3.825   3.399  17.005  0.8498  1.1301 -3.8318
 1242SOL     OW15358   4.452   4.066   6.207 -0.0218 -0.3993  0.2267
 1242SOL    HW115359   4.398   4.139   6.238  0.7749  0.9466 -1.5585
 1242SOL    HW215360   4.387   3.996   6.195  1.6432 -2.2520  2.0633
 1243SOL     OW15361   0.568   2.112   8.922  0.2097 -0.1035  0.1445
 1243SOL    HW115362   0.573   2.172   8.848  1.5308 -0.6590 -0.2199
 1243SOL    HW215363   0.603   2.160   8.998  1.2275  2.2181 -1.7698
 1244SOL     OW15364   3.080   1.147   0.046 -0.0791 -0.3532  0.2615
 1244SOL    HW115365   3.116   1.102  17.716 -0.7995 -2.2223  1.0329
 1244SOL    HW215366   3.114   1.089   0.114  0.0930 -0.0557  0.4292
 1245SOL     OW15367   3.483   2.502  10.517  0.2920  0.0604 -0.1201
 1245SOL    HW115368   3.479   2.454  10.434 -1.9416  1.4547 -0.8266
 1245SOL    HW215369   3.540   2.577  10.499  0.8196 -0.4638 -0.6230
 1246SOL     OW15370   2.906   1.671  13.260  0.3742 -0.6597  0.6679
 1246SOL    HW115371   2.840   1.602  13.255 -1.0809  0.7767 -0.0275
 1246SOL    HW215372   2.983   1.618  13.281  0.3768 -1.0756 -0.3901
 1247SOL     OW15373   2.477   1.251   6.890  0.1989  0.0551 -0.1180
 1247SOL    HW115374   2.523   1.323   6.847  0.8420 -0.3931 -0.1772
 1247SOL    HW215375   2.385   1.274   6.881  0.7337  2.2396  0.0861
 1248SOL     OW15376   0.779   4.117   4.041 -0.1291 -0.0484 -0.1348
 1248SOL    HW115377   0.725   4.094   4.117 -1.3589 -0.4549 -1.1372
 1248SOL    HW215378   0.819   4.198   4.074  3.3137 -2.1949  0.9877
 1249SOL     OW15379   0.331   4.602  17.476  0.0083  0.2027  0.3486
 1249SOL    HW115380   0.405   4.640  17.522  0.4504 -0.6053  0.3011
 1249SOL    HW215381   0.383   4.547  17.416 -0.5997 -0.4418  0.4102
 1250SOL     OW15382   3.350   4.157   5.184  0.1844 -0.2102 -0.0709
 1250SOL    HW115383   3.387   4.098   5.250  0.1020 -0.5740 -0.3483
 1250SOL    HW215384   3.285   4.208   5.233  1.3805  1.6628 -0.4413
 1251SOL     OW15385   3.355   0.224   6.236 -0.0169  0.3517 -0.1101
 1251SOL    HW115386   3.376   0.224   6.143  0.2007  0.6823 -0.0619
 1251SOL    HW215387   3.419   0.163   6.272  1.7133  0.3722 -3.1333
 1252SOL     OW15388   3.691   1.945  17.603 -0.5350 -0.0825  0.2665
 1252SOL    HW115389   3.609   1.982  17.571 -1.3033 -1.7581  0.3019
 1252SOL    HW215390   3.758   2.011  17.586  0.1785 -1.0548 -0.7193
 1253SOL     OW15391   1.196   3.848  16.008 -0.0105 -0.6856 -0.6020
 1253SOL    HW115392   1.159   3.894  15.933  0.1615 -2.5970 -1.8447
 1253SOL    HW215393   1.285   3.883  16.009  0.7996 -2.7876  3.0275
 1254SOL     OW15394   0.334   4.623   2.434  0.0635  0.6646 -0.6266
 1254SOL    HW115395   0.242   4.614   2.410 -0.1139  0.4129  0.1534
 1254SOL    HW215396   0.378   4.593   2.354 -0.9457 -0.7103 -0.6646
 1255SOL     OW15397   1.870   2.340   1.320 -0.7158 -0.3277  0.5354
 1255SOL    HW115398   1.843   2.278   1.388 -0.5567 -1.8087 -0.7600
 1255SOL    HW215399   1.868   2.420   1.374 -0.1750 -0.1629  0.3166
 1256SOL     OW15400   2.326   4.097  15.305  0.6507 -0.0064 -0.1915
 1256SOL    HW115401   2.295   4.186  15.287  1.9929  0.3064 -0.9533
 1256SOL    HW215402   2.324   4.086  15.400  1.0505  0.4912 -0.1251
 1257SOL     OW15403   0.622   3.798   2.253 -0.2502 -0.1992 -0.1623
 1257SOL    HW115404   0.629   3.831   2.164  1.2980 -0.6149 -0.1891
 1257SOL    HW215405   0.665   3.876   2.288 -0.2435 -0.1584 -0.2620
 1258SOL     OW15406   3.946   1.910   1.229 -0.2843  0.2531 -0.1018
 1258SOL    HW115407   4.016   1.954   1.277 -0.2050 -0.3992  0.3702
 1258SOL    HW215408   3.927   1.963   1.151 -0.3913  2.4490  1.4072
 1259SOL     OW15409   1.342   0.222   7.276 -0.4152 -0.3030 -0.4113
 1259SOL    HW115410   1.354   0.202   7.369  1.9615 -0.6232 -0.7875
 1259SOL    HW215411   1.326   0.316   7.283  0.6876 -0.1657  0.4376
 1260SOL     OW15412   3.782   2.028   5.586 -0.1956  0.3012 -0.2364
 1260SOL    HW115413   3.840   2.024   5.662 -2.5596 -0.1915  1.5462
 1260SOL    HW215414   3.830   1.973   5.525  0.0990 -0.1180  0.3802
 1261SOL     OW15415   0.222   0.266   8.148 -0.1416 -0.5260  0.7381
 1261SOL    HW115416   0.199   0.318   8.225 -0.4241 -0.3118  0.5086
 1261SOL    HW215417   0.140   0.226   8.118 -0.2793  0.1521  0.1938
 1262SOL     OW15418   4.345   1.811  15.802  0.2977 -0.3253 -0.2924
 1262SOL    HW115419   4.353   1.719  15.777 -1.4520 -0.6857  0.4764
 1262SOL    HW215420   4.324   1.858  15.721 -1.4372 -1.2141 -0.3354
 1263SOL     OW15421   0.691   3.860   7.413  0.3579  0.0285  0.3912
 1263SOL    HW115422   0.687   3.801   7.488 -2.3085 -0.6739 -0.3108
 1263SOL    HW215423   0.600   3.886   7.398  1.0231  1.4917 -1.1767
 1264SOL     OW15424   0.928   0.259   6.201  0.3809 -0.2919 -0.6940
 1264SOL    HW115425   0.927   0.334   6.142  1.7703  1.6727  1.7536
 1264SOL    HW215426   0.989   0.195   6.164 -0.6262 -2.4199  1.2508
 1265SOL     OW15427   3.433   3.304  13.343 -1.1049  0.4919  0.5925
 1265SOL    HW115428   3.396   3.392  13.335  0.2463  1.0832  0.8849
 1265SOL    HW215429   3.523   3.319  13.315 -0.8209 -0.4978  0.9862
 1266SOL     OW15430   2.296   0.472  11.632 -0.1219  0.1744  0.0240
 1266SOL    HW115431   2.331   0.383  11.638  1.9319  0.9888  0.1361
 1266SOL    HW215432   2.244   0.468  11.713 -1.4173 -1.8732 -0.8962
 1267SOL     OW15433   3.327   0.918  16.960 -0.3329  0.1996  0.1640
 1267SOL    HW115434   3.388   0.907  17.033  1.3715 -1.7140 -1.5508
 1267SOL    HW215435   3.379   0.955  16.889  0.8281 -0.4323  0.6855
 1268SOL     OW15436   1.537   1.993   8.690  0.2415  0.1156 -0.0673
 1268SOL    HW115437   1.549   1.905   8.725 -3.0526 -0.9594 -1.6935
 1268SOL    HW215438   1.444   2.007   8.705  0.1038  1.0569 -1.8112
 1269SOL     OW15439   1.842   2.186   7.508  0.0496  0.3827 -0.1530
 1269SOL    HW115440   1.802   2.099   7.515  0.8107  0.0380 -0.0837
 1269SOL    HW215441   1.797   2.235   7.577 -1.4918 -0.1048 -0.8128
 1270SOL     OW15442   2.790   1.496   4.417 -0.0844  0.1694  0.0966
 1270SOL    HW115443   2.833   1.426   4.465  1.4557  2.2924  1.8186
 1270SOL    HW215444   2.700   1.467   4.429 -0.1162 -0.1575 -0.9206
 1271SOL     OW15445   0.497   3.951   8.278 -0.6068 -0.0035  0.2640
 1271SOL    HW115446   0.552   3.884   8.237  0.8579 -0.5424  3.1630
 1271SOL    HW215447   0.460   3.898   8.349 -0.2899  0.3328  0.6793
 1272SOL     OW15448   4.164   3.208   7.576  0.0591  0.2408  0.3509
 1272SOL    HW115449   4.239   3.208   7.516  0.0448  0.4755  0.3329
 1272SOL    HW215450   4.167   3.125   7.623 -2.8954 -0.8352 -1.3152
 1273SOL     OW15451   2.759   3.186  14.190  0.2453  0.0465  0.1548
 1273SOL    HW115452   2.809   3.163  14.111 -0.8683 -0.1581 -0.4830
 1273SOL    HW215453   2.780   3.280  14.189 -1.0544  0.3411  1.5452
 1274SOL     OW15454   3.527   0.671   6.680 -0.4018 -0.0327  0.2398
 1274SOL    HW115455   3.542   0.578   6.664 -0.4771 -0.1312  0.7423
 1274SOL    HW215456   3.613   0.708   6.658  0.2609 -1.4339  0.5113
 1275SOL     OW15457   2.062   2.108   0.894  0.3459 -0.0709  0.2481
 1275SOL    HW115458   2.114   2.121   0.973 -0.9912  1.0731  0.9409
 1275SOL    HW215459   1.982   2.156   0.917 -0.3718 -1.0158 -0.2577
 1276SOL     OW15460   3.087   4.366  15.222 -0.2779 -0.5823  0.5312
 1276SOL    HW115461   3.158   4.406  15.172 -0.1797 -0.0343  1.1053
 1276SOL    HW215462   3.126   4.280  15.241 -0.9359 -0.9840  0.0590
 1277SOL     OW15463   2.502   4.111  14.227 -0.4965  0.0075  0.1746
 1277SOL    HW115464   2.468   4.038  14.176 -0.5562  0.3617 -0.2981
 1277SOL    HW215465   2.592   4.081  14.236 -0.5402 -0.1403  0.1099
 1278SOL     OW15466   0.687   4.066  16.137  0.2296 -0.7199  0.4661
 1278SOL    HW115467   0.778   4.077  16.108 -0.1565  1.2754  0.0389
 1278SOL    HW215468   0.680   4.141  16.196 -0.4232  0.5536 -1.2141
 1279SOL     OW15469   3.028   2.942   3.197 -0.1692 -0.0493 -0.4268
 1279SOL    HW115470   2.979   2.862   3.185 -0.1768 -0.2004  0.5454
 1279SOL    HW215471   3.094   2.917   3.262 -0.4409 -0.7376 -0.4205
 1280SOL     OW15472   1.518   4.407   3.652 -0.3076  0.0175 -0.1965
 1280SOL    HW115473   1.470   4.476   3.605  1.1458 -0.7049 -2.7424
 1280SOL    HW215474   1.567   4.457   3.717  0.5510 -0.1581 -0.7172
 1281SOL     OW15475   3.814   1.857   2.089 -0.1527 -0.7472 -0.0973
 1281SOL    HW115476   3.809   1.783   2.150 -0.6218 -0.5031  0.1678
 1281SOL    HW215477   3.796   1.924   2.155  1.1972  0.0135 -0.5129
 1282SOL     OW15478   3.867   4.527   6.954  0.2071 -0.5700  0.4530
 1282SOL    HW115479   3.876   4.613   6.912 -1.7777 -0.0290  1.1570
 1282SOL    HW215480   3.786   4.555   6.996  1.1411  2.3058  0.3057
 1283SOL     OW15481   2.731   3.857   3.263 -0.3377  0.1070  0.5451
 1283SOL    HW115482   2.733   3.865   3.168 -0.1936 -0.2576  0.5190
 1283SOL    HW215483   2.691   3.939   3.291  0.5762  1.0580 -0.9030
 1284SOL     OW15484   2.293   0.190   3.498 -0.1016 -0.1253  0.5855
 1284SOL    HW115485   2.225   0.216   3.559  0.0392  1.0640  0.2414
 1284SOL    HW215486   2.244   0.175   3.417 -0.2096 -2.4197  1.0881
 1285SOL     OW15487   3.583   2.695   5.559 -0.5239 -0.2921  0.7210
 1285SOL    HW115488   3.534   2.616   5.582 -1.1289 -0.2296 -0.3453
 1285SOL    HW215489   3.514   2.760   5.561 -1.0171 -0.6519 -3.3450
 1286SOL     OW15490   1.936   3.009   4.328 -0.0738 -0.6952  0.7861
 1286SOL    HW115491   1.848   2.983   4.301  0.7956 -1.4288 -1.3322
 1286SOL    HW215492   1.988   3.017   4.248 -2.1886  0.1695 -0.5161
 1287SOL     OW15493   0.473   4.350   2.541 -0.3486  0.4951 -0.2074
 1287SOL    HW115494   0.486   4.372   2.633 -0.5263  2.0874 -0.5567
 1287SOL    HW215495   0.378   4.344   2.535 -0.1935  0.4754 -2.7897
 1288SOL     OW15496   2.545   0.297   2.252  0.6991  0.5307 -0.0044
 1288SOL    HW115497   2.604   0.221   2.253  0.7294  0.6149  4.1402
 1288SOL    HW215498   2.553   0.339   2.337 -0.5427  0.0739  0.3377
 1289SOL     OW15499   1.956   0.252   9.139  0.3204  0.4113  0.1054
 1289SOL    HW115500   2.043   0.276   9.172 -0.5052  0.4501  2.2658
 1289SOL    HW215501   1.924   0.332   9.098  1.0618  0.4831 -0.3286
 1290SOL     OW15502   2.258   4.601   6.115 -0.0828  0.3768  0.0084
 1290SOL    HW115503   2.232   4.509   6.115 -1.1886  0.6853  0.0724
 1290SOL    HW215504   2.239   4.623   6.023  0.9810 -1.3747 -0.6304
 1291SOL     OW15505   3.110   1.419   2.331  0.1278 -0.5609  0.4493
 1291SOL    HW115506   3.068   1.457   2.408  0.5652 -0.1225  0.4721
 1291SOL    HW215507   3.071   1.332   2.327 -2.5343  0.6156  0.4161
 1292SOL     OW15508   0.059   1.776  16.351 -0.0702  0.0243 -0.1532
 1292SOL    HW115509   0.080   1.855  16.302 -1.2805 -0.2296 -1.0807
 1292SOL    HW215510   4.713   1.744  16.315 -0.4722  0.3178  0.5035
 1293SOL     OW15511   2.952   2.759   7.384  0.5286 -1.0076 -0.0240
 1293SOL    HW115512   2.929   2.679   7.337 -1.7127  0.8228 -2.0445
 1293SOL    HW215513   2.948   2.821   7.311 -1.2836  0.6998  1.5485
 1294SOL     OW15514   0.189   2.545   1.713  0.1329  0.3680 -0.0370
 1294SOL    HW115515   0.166   2.604   1.642  1.0051 -1.2133 -1.6111
 1294SOL    HW215516   0.114   2.563   1.770  0.5782 -0.9385  0.9798
 1295SOL     OW15517   2.718   0.002  11.901 -0.2491  0.0959  0.2212
 1295SOL    HW115518   2.736   0.095  11.913  0.7452 -0.1553  0.7614
 1295SOL    HW215519   2.769   4.730  11.820 -0.7306  0.7172 -0.1558
 1296SOL     OW15520   1.229   2.588   2.479  0.1949  0.8244 -0.1114
 1296SOL    HW115521   1.316   2.618   2.452 -0.7223  0.3361 -3.5932
 1296SOL    HW215522   1.207   2.648   2.550 -1.9533  1.7001 -1.4982
 1297SOL     OW15523   3.686   4.262   8.853 -0.2486  0.2497 -0.0086
 1297SOL    HW115524   3.638   4.292   8.930 -1.1522 -0.1516 -0.4225
 1297SOL    HW215525   3.711   4.349   8.820  1.2305  0.1845  0.9578
 1298SOL     OW15526   1.616   1.916   2.825  0.1502  0.0126  0.1684
 1298SOL    HW115527   1.548   1.931   2.759  0.6402 -1.2700 -0.6260
 1298SOL    HW215528   1.614   1.994   2.881 -0.7339  1.4722 -1.9183
 1299SOL     OW15529   1.037   3.407  16.969 -0.0868  0.0493 -0.1448
 1299SOL    HW115530   1.054   3.347  16.896  0.2900 -0.6972  0.5448
 1299SOL    HW215531   1.050   3.344  17.040  2.2929  0.9156  0.1968
 1300SOL     OW15532   3.709   0.315  11.787  0.5888  0.1854  0.2354
 1300SOL    HW115533   3.619   0.347  11.776  0.2992 -1.0755 -1.1635
 1300SOL    HW215534   3.761   0.358  11.719  1.2706  0.7154  1.1083
 1301SOL     OW15535   4.276   2.504   2.955 -0.0439  0.1167  0.0929
 1301SOL    HW115536   4.231   2.541   2.879 -0.3706 -0.1278  0.1640
 1301SOL    HW215537   4.313   2.583   2.995  3.0644 -0.4188 -1.7246
 1302SOL     OW15538   1.171   0.120   1.002  0.2474  0.7326  0.1329
 1302SOL    HW115539   1.200   0.189   1.062 -0.9247  0.5047  0.9540
 1302SOL    HW215540   1.126   0.162   0.929  0.9259 -1.9221 -1.8150
 1303SOL     OW15541   3.655   2.867   5.344  0.4391  0.0830  0.1978
 1303SOL    HW115542   3.611   2.940   5.389 -0.5104  0.2805 -1.0376
 1303SOL    HW215543   3.660   2.805   5.417  0.1550  0.6585  0.7144
 1304SOL     OW15544   2.867   3.429   2.277 -0.1553  0.0417  0.3780
 1304SOL    HW115545   2.961   3.417   2.292  0.2976 -0.3464 -2.8011
 1304SOL    HW215546   2.846   3.350   2.226 -1.6856 -0.1225  1.2616
 1305SOL     OW15547   3.915   1.847  12.433 -0.0956  0.5833 -0.6342
 1305SOL    HW115548   3.880   1.767  12.472 -2.1515  1.0741 -1.4364
 1305SOL    HW215549   4.006   1.834  12.459 -0.9586  1.6413  2.9096
 1306SOL     OW15550   1.325   0.665   8.032 -0.0928  0.4598 -0.6480
 1306SOL    HW115551   1.271   0.717   7.973 -0.5847  1.2913  0.5205
 1306SOL    HW215552   1.335   0.587   7.977  1.8448  1.2268 -1.4020
 1307SOL     OW15553   1.322   3.090   6.681 -0.4178 -0.4098  0.0459
 1307SOL    HW115554   1.328   3.161   6.745 -1.4462 -1.4022  1.2622
 1307SOL    HW215555   1.400   3.105   6.628 -0.6088  2.5974  0.6468
 1308SOL     OW15556   2.550   1.290  11.769  0.2091 -0.1755  0.0204
 1308SOL    HW115557   2.523   1.366  11.718  0.9936  1.3477  1.8826
 1308SOL    HW215558   2.615   1.333  11.825 -0.1462  0.7820 -0.3064
 1309SOL     OW15559   0.553   4.118   3.024  0.1092  0.1343  0.0611
 1309SOL    HW115560   0.488   4.188   3.026  1.7029  1.5484  1.4248
 1309SOL    HW215561   0.504   4.061   2.964  0.1290 -0.9933  1.1025
 1310SOL     OW15562   2.896   3.939   5.971  0.0250 -0.4482 -0.0553
 1310SOL    HW115563   2.817   3.931   6.025 -0.0756 -0.3710 -0.1902
 1310SOL    HW215564   2.868   3.937   5.880 -1.9345 -0.8826  0.5477
 1311SOL     OW15565   3.612   2.663   8.485 -0.2584 -0.8266 -0.0664
 1311SOL    HW115566   3.685   2.719   8.513  0.2345 -2.2763  1.5065
 1311SOL    HW215567   3.539   2.725   8.491 -1.5371 -2.5016  1.4183
 1312SOL     OW15568   4.492   3.976   5.733  0.2394 -0.1086  0.0457
 1312SOL    HW115569   4.475   4.048   5.795  2.6059  1.6515 -1.3373
 1312SOL    HW215570   4.552   4.023   5.676  0.7588 -1.2129 -0.3144
 1313SOL     OW15571   3.946   4.511   2.546 -0.2168  0.4417 -0.2369
 1313SOL    HW115572   3.914   4.453   2.477 -0.1338 -1.7818  1.5854
 1313SOL    HW215573   3.863   4.519   2.593 -0.6633  1.2626 -1.1668
 1314SOL     OW15574   4.098   0.619   2.313 -0.1510 -0.5478 -0.0975
 1314SOL    HW115575   4.029   0.591   2.373 -1.0382  2.1377  0.1371
 1314SOL    HW215576   4.061   0.577   2.236  0.1541 -0.9242 -0.0371
 1315SOL     OW15577   2.576   3.906   8.040  0.4378  0.1756 -0.5772
 1315SOL    HW115578   2.481   3.905   8.024  0.1022 -1.6868  1.5171
 1315SOL    HW215579   2.600   3.838   7.977  1.3162 -0.2709  0.2418
 1316SOL     OW15580   0.123   2.468   2.619  0.0777 -0.4080  0.5745
 1316SOL    HW115581   0.059   2.456   2.549 -0.3432 -3.3079  1.4509
 1316SOL    HW215582   0.209   2.464   2.577  0.4666 -0.7232  1.3909
 1317SOL     OW15583   2.095   4.524   1.167 -0.3166  0.9925 -0.0603
 1317SOL    HW115584   2.082   4.430   1.157  1.7518  0.5342  1.3581
 1317SOL    HW215585   2.189   4.518   1.148 -0.2080  2.3258  0.1049
 1318SOL     OW15586   2.127   1.241   6.769 -0.0970  0.3073 -0.2133
 1318SOL    HW115587   2.033   1.226   6.767  0.2103 -1.6103 -0.0360
 1318SOL    HW215588   2.147   1.232   6.863 -0.8413 -0.0419 -0.0837
 1319SOL     OW15589   0.659   3.613   5.387 -0.0450 -0.0300  0.6128
 1319SOL    HW115590   0.687   3.694   5.345 -1.9361 -0.4841 -1.5909
 1319SOL    HW215591   0.709   3.547   5.339 -0.9951 -0.6600  0.4809
 1320SOL     OW15592   1.174   0.812  10.968 -0.0255 -0.0149  0.0719
 1320SOL    HW115593   1.098   0.870  10.979  0.5289  0.3282  2.0549
 1320SOL    HW215594   1.151   0.758  11.044 -0.7204 -0.4957 -0.4874
 1321SOL     OW15595   1.721   2.335   2.601 -0.0515  0.9779 -0.4182
 1321SOL    HW115596   1.695   2.382   2.680  1.4347 -0.5954  1.0173
 1321SOL    HW215597   1.816   2.342   2.599 -0.0072  0.2528 -0.9543
 1322SOL     OW15598   4.626   3.239   8.284 -0.1802 -0.5018 -0.2888
 1322SOL    HW115599   4.720   3.222   8.291  0.0926  1.4750  1.1365
 1322SOL    HW215600   4.610   3.268   8.374  2.2627 -0.9937  0.2911
 1323SOL     OW15601   3.998   0.821  15.401 -0.4368  0.7405  0.0257
 1323SOL    HW115602   3.964   0.891  15.345  0.3900  1.5680  0.5510
 1323SOL    HW215603   3.980   0.866  15.483 -0.6492  0.2190  0.2647
 1324SOL     OW15604   2.471   3.304  13.225 -0.4611 -0.3408 -0.5436
 1324SOL    HW115605   2.437   3.331  13.311  2.2854  1.6060 -0.0649
 1324SOL    HW215606   2.440   3.375  13.169  2.2187  2.4719  1.5145
 1325SOL     OW15607   2.080   0.584   6.288 -0.4793 -0.0647 -0.0807
 1325SOL    HW115608   2.101   0.623   6.203  1.5388 -2.0348 -0.4737
 1325SOL    HW215609   1.985   0.578   6.274 -0.3713  1.2189 -1.3743
 1326SOL     OW15610   0.678   4.364   5.900 -0.7148 -0.4029  0.5283
 1326SOL    HW115611   0.689   4.292   5.961  1.0249 -0.7696 -0.2031
 1326SOL    HW215612   0.668   4.433   5.966 -2.3831 -1.0861  0.9890
 1327SOL     OW15613   1.148   1.451   8.785 -0.0680  0.3192 -0.1415
 1327SOL    HW115614   1.229   1.400   8.801  0.2003  0.3700 -1.3409
 1327SOL    HW215615   1.178   1.535   8.751 -1.7823  1.0947  0.2832
 1328SOL     OW15616   3.984   1.907   4.606 -0.5309  0.0905 -0.1545
 1328SOL    HW115617   3.980   1.860   4.523  0.8405 -0.5235  0.1237
 1328SOL    HW215618   3.949   1.989   4.571  3.5373  0.3154 -3.5147
 1329SOL     OW15619   3.004   3.241  16.168  0.2241 -0.4206  0.1645
 1329SOL    HW115620   2.924   3.262  16.218 -0.3476  0.6205 -1.2046
 1329SOL    HW215621   2.970   3.165  16.120  0.2509 -1.0305  1.0984
 1330SOL     OW15622   1.215   2.068   7.052  0.0357  0.1197 -0.0415
 1330SOL    HW115623   1.153   2.069   6.979  0.1439 -1.5149 -0.1551
 1330SOL    HW215624   1.224   2.163   7.052  0.5014  0.0752 -1.1820
 1331SOL     OW15625   1.004   4.699   3.939  0.1516  0.8820 -0.0861
 1331SOL    HW115626   0.970   0.045   3.973 -0.5561 -0.1134  1.6369
 1331SOL    HW215627   0.994   4.649   4.020  0.5885 -1.2974 -1.3773
 1332SOL     OW15628   0.946   2.369   8.632 -0.3645 -0.5448  0.3437
 1332SOL    HW115629   1.003   2.369   8.555 -0.8010 -1.4890  0.0229
 1332SOL    HW215630   0.917   2.278   8.627  1.2404 -1.0900  1.0524
 1333SOL     OW15631   0.073   0.208  12.064 -0.3108 -0.3463 -0.0356
 1333SOL    HW115632   0.052   0.283  12.120 -1.6147  0.4769 -1.6254
 1333SOL    HW215633   0.057   0.242  11.975  0.1775  0.4391  0.1757
 1334SOL     OW15634   0.348   4.060  12.706 -0.0093 -0.6771  0.3022
 1334SOL    HW115635   0.406   4.096  12.773 -0.4029  0.8258 -0.1587
 1334SOL    HW215636   0.379   3.970  12.718 -0.8752 -1.2836 -1.9425
 1335SOL     OW15637   0.469   1.769   7.254  0.5925 -0.6185 -0.0553
 1335SOL    HW115638   0.563   1.754   7.266  0.6396  0.0100  0.3633
 1335SOL    HW215639   0.435   1.681   7.271 -1.2263  0.1760  0.3263
 1336SOL     OW15640   2.644   1.323   3.649  0.4728  0.2504 -0.3338
 1336SOL    HW115641   2.679   1.404   3.684  0.6653  0.5870 -1.3052
 1336SOL    HW215642   2.550   1.345   3.649  0.7501  1.4158  0.3401
 1337SOL     OW15643   3.416   2.317   2.320  0.1482  0.7056 -0.3323
 1337SOL    HW115644   3.394   2.315   2.413  1.5207  1.2833  0.0031
 1337SOL    HW215645   3.338   2.338   2.268 -0.8795  0.8187  1.2389
 1338SOL     OW15646   0.537   1.779  17.107 -0.2545 -0.3094 -0.3047
 1338SOL    HW115647   0.630   1.764  17.123 -0.6413 -2.2548  0.1481
 1338SOL    HW215648   0.528   1.724  17.029  2.3279 -0.6406 -0.3576
 1339SOL     OW15649   1.607   0.215  11.368 -0.0588 -0.9069 -0.3524
 1339SOL    HW115650   1.539   0.264  11.322 -0.4466 -1.9990 -0.9464
 1339SOL    HW215651   1.682   0.272  11.351 -0.2028  0.1606  2.5157
 1340SOL     OW15652   4.110   0.828   5.205  0.2301  0.3656  0.9178
 1340SOL    HW115653   4.124   0.747   5.254  0.3085 -1.2377 -1.7891
 1340SOL    HW215654   4.049   0.803   5.135  1.9120 -0.6883 -0.1514
 1341SOL     OW15655   2.875   0.437   3.972 -0.1732  0.4426  0.1868
 1341SOL    HW115656   2.905   0.521   4.008 -2.1979  0.3881  2.0067
 1341SOL    HW215657   2.951   0.426   3.915  0.3749  1.8949  0.6306
 1342SOL     OW15658   3.722   1.645   5.951 -0.3069  0.1801 -0.0598
 1342SOL    HW115659   3.685   1.724   5.913 -0.4164  0.5371  0.7984
 1342SOL    HW215660   3.649   1.606   6.001  1.1943 -1.5331  0.8187
 1343SOL     OW15661   1.218   3.008   2.583 -0.0197 -0.1227  0.3793
 1343SOL    HW115662   1.236   2.965   2.500  0.5003  2.2794 -0.7579
 1343SOL    HW215663   1.129   2.981   2.607  0.0205 -2.0821 -1.7216
 1344SOL     OW15664   4.060   2.616   4.300  0.7109  0.0144  0.2766
 1344SOL    HW115665   3.996   2.600   4.370 -3.0198  1.2241 -2.8621
 1344SOL    HW215666   4.119   2.673   4.349  0.4494  0.9947 -0.5729
 1345SOL     OW15667   4.140   3.146  11.146 -0.5905  0.2760 -0.2858
 1345SOL    HW115668   4.208   3.107  11.202 -1.7194 -1.0829  0.1295
 1345SOL    HW215669   4.147   3.088  11.070 -0.7177  0.7764 -0.6767
 1346SOL     OW15670   0.260   0.500  13.263 -0.1534 -0.6295 -0.1434
 1346SOL    HW115671   0.215   0.426  13.223 -0.9400 -0.4197  0.3407
 1346SOL    HW215672   0.217   0.566  13.209 -3.6557 -1.3008  1.8451
 1347SOL     OW15673   2.288   1.679   2.131  0.0694 -0.2920 -0.1013
 1347SOL    HW115674   2.295   1.688   2.226 -0.5529  0.2155 -0.1028
 1347SOL    HW215675   2.378   1.689   2.102 -0.1115  1.2226 -0.1212
 1348SOL     OW15676   3.621   2.374   8.580 -0.6632 -0.3997 -0.2438
 1348SOL    HW115677   3.709   2.373   8.618 -0.8768  0.2264  0.2727
 1348SOL    HW215678   3.606   2.468   8.590 -0.6672 -0.3842 -0.3857
 1349SOL     OW15679   3.826   2.437  12.081  0.1430 -0.0931  0.1082
 1349SOL    HW115680   3.810   2.483  11.998  1.6533 -0.3239 -0.3069
 1349SOL    HW215681   3.906   2.393  12.052  0.4099  0.1918  0.4269
 1350SOL     OW15682   1.196   3.375   2.095  0.6312 -0.3933 -0.4586
 1350SOL    HW115683   1.191   3.331   2.180 -1.3835 -0.7482 -0.7535
 1350SOL    HW215684   1.112   3.419   2.083  0.5511 -0.2658  0.5288
 1351SOL     OW15685   2.754   2.873   1.537  0.0344 -0.0163 -0.1712
 1351SOL    HW115686   2.721   2.794   1.494  2.2729 -1.2598  0.4397
 1351SOL    HW215687   2.786   2.831   1.617 -0.7097  1.0003  0.6603
 1352SOL     OW15688   1.946   0.568  15.042  0.1069  0.2498 -0.7333
 1352SOL    HW115689   1.948   0.638  15.108 -3.0496 -0.7322  0.4350
 1352SOL    HW215690   2.031   0.529  15.061 -0.4002  1.2544  3.6781
 1353SOL     OW15691   0.614   1.487   8.615 -0.1742 -0.2029  0.0113
 1353SOL    HW115692   0.694   1.479   8.668 -1.0595 -0.2536  1.3279
 1353SOL    HW215693   0.552   1.437   8.668 -0.1255 -1.3076 -0.9673
 1354SOL     OW15694   0.064   2.997   0.650 -0.1615  0.1606 -0.0218
 1354SOL    HW115695   0.066   3.005   0.555 -0.4848  2.1780  0.1329
 1354SOL    HW215696   0.089   3.088   0.669 -0.0574 -0.0590  0.8754
 1355SOL     OW15697   1.955   2.246   5.023  0.3939  0.2687 -0.0361
 1355SOL    HW115698   1.920   2.274   5.107  1.6753  0.8713  0.2967
 1355SOL    HW215699   1.929   2.155   5.012 -0.3472  0.2941  1.6147
 1356SOL     OW15700   0.963   2.835   0.053  0.5773  0.0702 -0.2782
 1356SOL    HW115701   1.026   2.768   0.078 -1.2214 -0.7795  1.9731
 1356SOL    HW215702   1.016   2.905   0.015  0.3117  0.0288 -0.7344
 1357SOL     OW15703   4.012   4.450   3.796  0.3694 -0.4482 -0.4225
 1357SOL    HW115704   4.003   4.355   3.804 -2.4841 -0.2874 -1.9347
 1357SOL    HW215705   3.984   4.463   3.706 -0.4700 -1.5750 -0.3239
 1358SOL     OW15706   0.984   1.429   1.606  0.4973  0.6656  0.5135
 1358SOL    HW115707   1.037   1.460   1.679  0.3754 -1.1899  1.3804
 1358SOL    HW215708   1.053   1.413   1.541 -0.4242 -1.0445 -0.0332
 1359SOL     OW15709   1.955   1.813   6.124 -0.3304 -0.8593  0.5001
 1359SOL    HW115710   1.882   1.874   6.130 -0.3280 -0.5269 -2.9727
 1359SOL    HW215711   2.019   1.879   6.153  0.0770 -1.4238  0.8838
 1360SOL     OW15712   1.274   3.179   7.519  0.2194 -0.1740  0.6033
 1360SOL    HW115713   1.363   3.170   7.552  1.2298 -0.4713 -2.2026
 1360SOL    HW215714   1.227   3.102   7.550 -0.2099 -1.0644 -2.2335
 1361SOL     OW15715   4.146   0.462  11.603  0.3883 -0.1706  0.2497
 1361SOL    HW115716   4.138   0.538  11.661 -0.3031 -0.6738  0.8280
 1361SOL    HW215717   4.064   0.413  11.614  1.9745 -2.2860  2.5986
 1362SOL     OW15718   3.278   0.626   3.323 -0.2336  0.4949  0.1848
 1362SOL    HW115719   3.348   0.570   3.356  0.7929  0.2037 -2.4804
 1362SOL    HW215720   3.246   0.558   3.265  1.3567  0.9668 -1.2665
 1363SOL     OW15721   3.952   0.558   5.556 -0.4026 -0.6552  0.8218
 1363SOL    HW115722   4.020   0.584   5.494 -0.6140  1.4136  1.4407
 1363SOL    HW215723   4.014   0.543   5.627 -0.8066 -1.1210  1.0736
 1364SOL     OW15724   2.013   2.567  14.951 -0.1198 -0.2092  0.1599
 1364SOL    HW115725   1.989   2.660  14.958  1.7224  0.2766  0.1676
 1364SOL    HW215726   1.998   2.555  14.858  0.6847 -2.9644  0.3897
 1365SOL     OW15727   1.009   1.080   9.135  0.4153 -0.5106 -0.2252
 1365SOL    HW115728   0.997   1.157   9.191  1.0691 -0.1882 -0.5346
 1365SOL    HW215729   1.063   1.120   9.068 -0.9478 -0.3756 -1.2407
 1366SOL     OW15730   2.729   1.464  13.264  0.7768 -0.1189 -0.1848
 1366SOL    HW115731   2.661   1.502  13.319 -0.3700  0.4788 -2.0368
 1366SOL    HW215732   2.786   1.413  13.322  0.9468 -0.4330 -0.6265
 1367SOL     OW15733   1.701   0.325  11.000  0.0383  0.2797 -0.3826
 1367SOL    HW115734   1.650   0.245  10.984 -1.9971  1.9416 -2.3384
 1367SOL    HW215735   1.705   0.362  10.911  0.4918 -0.7500 -0.7890
 1368SOL     OW15736   0.840   1.396   2.692  0.1629  0.1029  0.7027
 1368SOL    HW115737   0.771   1.463   2.694  1.4941  1.5400 -1.3909
 1368SOL    HW215738   0.905   1.426   2.629 -0.5963  0.9945  0.3446
 1369SOL     OW15739   4.719   0.061   8.410 -0.1714 -0.0442 -0.2456
 1369SOL    HW115740   4.719   0.065   8.506  2.1008  0.4619 -0.2707
 1369SOL    HW215741   4.630   0.091   8.395  0.1403 -0.0528 -2.0845
 1370SOL     OW15742   1.883   3.661   4.309  0.6005  0.6378 -0.4095
 1370SOL    HW115743   1.899   3.748   4.344  0.3399 -0.4385  2.4042
 1370SOL    HW215744   1.967   3.615   4.313  0.1571  0.1336  3.5202
 1371SOL     OW15745   1.245   0.308   9.273 -0.2344  0.1222  0.0694
 1371SOL    HW115746   1.263   0.375   9.339  0.5759 -0.8331  0.8083
 1371SOL    HW215747   1.165   0.348   9.239 -0.0924  1.2479  1.0613
 1372SOL     OW15748   0.886   3.752  10.751  0.3141 -0.1029 -0.1215
 1372SOL    HW115749   0.848   3.666  10.735 -0.0353  0.0531 -0.1257
 1372SOL    HW215750   0.804   3.794  10.779  0.1523  0.0611 -0.8495
 1373SOL     OW15751   1.723   0.818   4.630  0.5825  0.1586 -0.9924
 1373SOL    HW115752   1.717   0.910   4.604  2.3003  0.4881 -0.2304
 1373SOL    HW215753   1.631   0.797   4.644  0.3171  1.3072 -1.0711
 1374SOL     OW15754   4.583   0.005   5.794 -0.0058  0.1020  0.0284
 1374SOL    HW115755   4.565   4.659   5.840  1.9835 -2.1538 -3.3137
 1374SOL    HW215756   4.673   0.019   5.823  0.0026 -2.2387  1.1344
 1375SOL     OW15757   3.338   1.899   8.010  0.3330  0.7763 -0.4134
 1375SOL    HW115758   3.424   1.931   8.037  0.8550 -1.5629  0.7304
 1375SOL    HW215759   3.279   1.950   8.065  0.6832 -0.6084  1.2551
 1376SOL     OW15760   1.416   1.288   2.290  0.9726  0.2757 -0.4273
 1376SOL    HW115761   1.411   1.379   2.262 -1.6904 -0.1235 -1.2042
 1376SOL    HW215762   1.469   1.248   2.221 -0.0734  1.0731 -1.6851
 1377SOL     OW15763   0.862   4.320  11.067  0.6984 -0.1458  0.9566
 1377SOL    HW115764   0.902   4.395  11.112  0.4689  0.8926 -0.5700
 1377SOL    HW215765   0.900   4.248  11.117  2.5890  1.2309  1.4825
 1378SOL     OW15766   0.636   2.955   7.847  0.0922 -0.2987  0.4744
 1378SOL    HW115767   0.623   2.910   7.764  0.8223  0.2380  0.0676
 1378SOL    HW215768   0.713   2.905   7.875  1.8090  1.7987 -0.5072
 1379SOL     OW15769   3.033   3.388   6.107  0.0363 -0.4907 -0.0063
 1379SOL    HW115770   3.121   3.406   6.076  0.6765 -0.3086  1.9006
 1379SOL    HW215771   3.045   3.302   6.146  1.5873  0.6105  1.8998
 1380SOL     OW15772   1.389   3.369  15.202  0.2415 -0.3182  0.3445
 1380SOL    HW115773   1.343   3.383  15.284 -0.0499  0.2103  0.0916
 1380SOL    HW215774   1.432   3.453  15.190 -1.1881  0.5788  1.4960
 1381SOL     OW15775   0.909   3.257   1.907  0.5953 -0.1184 -0.2540
 1381SOL    HW115776   0.848   3.295   1.844  0.3887 -1.5896 -0.9356
 1381SOL    HW215777   0.892   3.313   1.983 -0.6697 -0.2161 -0.4630
 1382SOL     OW15778   4.220   0.845   3.490 -0.3769  0.4822 -0.4016
 1382SOL    HW115779   4.281   0.918   3.491  0.9617 -0.6423  1.2931
 1382SOL    HW215780   4.193   0.843   3.399  1.6029  0.8898 -0.9995
 1383SOL     OW15781   3.800   1.703  13.496  0.3860  0.5039  0.2364
 1383SOL    HW115782   3.866   1.750  13.445 -1.0535  3.7728  1.3928
 1383SOL    HW215783   3.845   1.663  13.571 -1.7824  2.4777  2.6183
 1384SOL     OW15784   2.543   4.680   8.256 -0.5707  0.2664 -0.2117
 1384SOL    HW115785   2.613   4.627   8.218  1.2370  2.8538 -0.4656
 1384SOL    HW215786   2.498   4.705   8.175 -0.1386  3.2596  0.4635
 1385SOL     OW15787   2.758   4.416   3.639 -0.1875 -0.0951 -0.2261
 1385SOL    HW115788   2.740   4.502   3.600  0.2975  0.6735  1.2141
 1385SOL    HW215789   2.849   4.401   3.613  0.5539 -0.4477  2.5402
 1386SOL     OW15790   4.062   1.240   4.500  0.0278  0.0282 -0.8199
 1386SOL    HW115791   4.108   1.323   4.485  1.5808 -0.9708 -1.6138
 1386SOL    HW215792   4.130   1.201   4.554 -1.2854 -0.4384  0.5173
 1387SOL     OW15793   3.765   4.646   1.880  0.0876 -0.2447  0.2987
 1387SOL    HW115794   3.801   4.607   1.960 -2.6328  0.0215  1.6416
 1387SOL    HW215795   3.827   4.619   1.812 -0.5712 -1.9610  0.3743
 1388SOL     OW15796   0.732   1.713  17.326 -0.3576  0.2081 -0.3142
 1388SOL    HW115797   0.696   1.800  17.310 -0.0168  0.0023 -2.1969
 1388SOL    HW215798   0.769   1.702  17.238 -0.0693  1.2770 -0.3239
 1389SOL     OW15799   0.383   2.232   2.752  0.1078  0.3919 -0.2309
 1389SOL    HW115800   0.415   2.294   2.686 -1.0116  0.3513 -0.8078
 1389SOL    HW215801   0.293   2.217   2.723 -0.9300  1.1622  2.5853
 1390SOL     OW15802   2.046   0.826   9.642 -0.3908  0.5279  0.0948
 1390SOL    HW115803   2.098   0.905   9.631  1.5040 -0.1264  4.1973
 1390SOL    HW215804   2.076   0.776   9.565  2.3831  0.6176  1.1100
 1391SOL     OW15805   3.333   3.686   9.372  0.2562 -0.2477  0.0892
 1391SOL    HW115806   3.326   3.781   9.375 -1.3842 -0.3421 -1.0635
 1391SOL    HW215807   3.400   3.675   9.304  0.6129 -0.0846  0.4132
 1392SOL     OW15808   2.824   2.272   1.132  0.1130  0.2218  0.6830
 1392SOL    HW115809   2.917   2.281   1.155  0.3279  0.0546 -0.1231
 1392SOL    HW215810   2.817   2.292   1.039 -1.0743 -1.9788  0.3007
 1393SOL     OW15811   3.134   2.685   9.255 -0.5142 -0.1717 -0.2167
 1393SOL    HW115812   3.175   2.647   9.334 -0.2803  0.0977 -0.2103
 1393SOL    HW215813   3.071   2.744   9.296 -1.5178  0.5426 -2.7976
 1394SOL     OW15814   3.635   2.740   3.519  0.3570 -0.4165 -0.2975
 1394SOL    HW115815   3.631   2.645   3.501  0.4610 -0.3262 -0.8068
 1394SOL    HW215816   3.592   2.763   3.436  3.1526 -1.1505 -1.9822
 1395SOL     OW15817   3.145   4.243   9.279 -0.2272  0.5876 -0.2581
 1395SOL    HW115818   3.126   4.163   9.328  1.0205  1.0633  0.9807
 1395SOL    HW215819   3.211   4.282   9.336 -0.8900 -0.5635  1.2773
 1396SOL     OW15820   0.512   4.434   5.676 -0.2127 -0.6758 -0.1579
 1396SOL    HW115821   0.444   4.481   5.723  0.2141 -1.0799  0.8648
 1396SOL    HW215822   0.574   4.430   5.748  0.0353 -0.6685 -0.3694
 1397SOL     OW15823   2.134   3.365   5.518 -0.5674 -0.1855 -0.1938
 1397SOL    HW115824   2.085   3.416   5.454 -1.2704  3.5244  3.2995
 1397SOL    HW215825   2.219   3.398   5.490 -0.9596  1.8720  1.0864
 1398SOL     OW15826   0.923   3.678   6.078 -0.2198  0.7223  0.3147
 1398SOL    HW115827   0.954   3.594   6.110  0.9382  1.6389  1.6216
 1398SOL    HW215828   0.926   3.740   6.151 -3.9513  0.0120  1.1065
 1399SOL     OW15829   3.146   2.212  16.041 -0.4307 -0.4190  0.0307
 1399SOL    HW115830   3.119   2.265  16.116 -0.1275 -0.5562  0.2383
 1399SOL    HW215831   3.084   2.237  15.972 -0.4003 -0.7318 -0.1081
 1400SOL     OW15832   0.711   0.589   3.772 -0.2024 -0.1226  0.8433
 1400SOL    HW115833   0.753   0.641   3.703  1.3470 -1.7327  0.5924
 1400SOL    HW215834   0.758   0.506   3.768 -1.6472 -0.8746 -0.9807
 1401SOL     OW15835   1.153   0.284  13.646 -0.3195 -0.1115  0.0067
 1401SOL    HW115836   1.175   0.292  13.553  0.8422 -1.1477  0.1877
 1401SOL    HW215837   1.085   0.351  13.646  2.0259  2.2586 -0.1654
 1402SOL     OW15838   2.141   1.178   4.776 -0.2115 -0.2751  0.3096
 1402SOL    HW115839   2.066   1.170   4.835 -1.0576 -0.1588 -0.7621
 1402SOL    HW215840   2.213   1.188   4.838 -2.1326  1.6570  2.2182
 1403SOL     OW15841   2.632   1.975   2.432 -0.5719 -0.4431  0.6933
 1403SOL    HW115842   2.645   1.916   2.358  2.3049 -1.2014  1.7867
 1403SOL    HW215843   2.699   2.043   2.419 -1.8956  0.6645 -0.2789
 1404SOL     OW15844   0.255   1.444  15.736 -0.3678 -0.1938  0.6759
 1404SOL    HW115845   0.330   1.470  15.791 -1.4175  1.8142  1.1432
 1404SOL    HW215846   0.188   1.456  15.803 -0.5504 -2.7791  0.9731
 1405SOL     OW15847   3.328   2.258   1.580 -0.2721  0.5136  0.0172
 1405SOL    HW115848   3.319   2.353   1.573 -1.1605  0.2632 -2.2703
 1405SOL    HW215849   3.414   2.246   1.539 -0.2516  3.3469 -0.8398
 1406SOL     OW15850   0.723   3.120   3.086 -0.1225 -0.2002 -0.2272
 1406SOL    HW115851   0.700   3.133   2.994  0.5955  0.8917 -0.2471
 1406SOL    HW215852   0.640   3.096   3.128  0.3794  1.0965  1.5117
 1407SOL     OW15853   0.390   0.764   5.161 -0.1961 -0.0031 -0.3753
 1407SOL    HW115854   0.295   0.752   5.155  0.1160 -3.0198  0.4712
 1407SOL    HW215855   0.403   0.743   5.253 -1.3557  1.7921  0.1926
 1408SOL     OW15856   1.075   0.461  12.683 -0.1477  0.2621 -0.7428
 1408SOL    HW115857   1.008   0.395  12.665 -0.9641  0.9511 -0.2246
 1408SOL    HW215858   1.059   0.488  12.773  1.2919 -1.6128  0.0663
 1409SOL     OW15859   1.946   3.066  17.183 -0.4244  0.2115 -0.2582
 1409SOL    HW115860   2.031   3.055  17.225 -0.1079  1.4061 -0.5916
 1409SOL    HW215861   1.972   3.018  17.104  0.1016  0.1189 -0.0339
 1410SOL     OW15862   4.535   2.930  11.712 -0.1364  0.1833  0.3174
 1410SOL    HW115863   4.460   2.974  11.670  0.7381  0.5439 -0.8648
 1410SOL    HW215864   4.490   2.861  11.761  0.1608 -0.0294  0.2887
 1411SOL     OW15865   0.069   4.673   6.443  0.0108  0.0539 -0.5749
 1411SOL    HW115866   4.718   4.643   6.419 -0.2557 -0.5390  1.1684
 1411SOL    HW215867   0.063   0.028   6.416 -2.4106  0.6757  1.9631
 1412SOL     OW15868   1.634   2.398   1.162 -0.2545 -0.4216 -0.3661
 1412SOL    HW115869   1.722   2.391   1.198 -0.7285 -1.1965  0.6219
 1412SOL    HW215870   1.579   2.387   1.240  2.5916 -1.2531  1.5027
 1413SOL     OW15871   0.357   0.687   2.540  0.2185 -0.3772 -0.3596
 1413SOL    HW115872   0.426   0.652   2.596 -0.0198 -2.8457 -1.6246
 1413SOL    HW215873   0.407   0.720   2.465  0.9434  2.5241  1.3787
 1414SOL     OW15874   3.310   1.182   4.478 -0.4025 -0.1031 -0.2310
 1414SOL    HW115875   3.382   1.243   4.493  1.4672 -2.3184 -0.2387
 1414SOL    HW215876   3.308   1.174   4.383  1.5723  1.9087 -0.4484
 1415SOL     OW15877   1.535   1.102   7.724 -0.0347 -0.0005  0.4056
 1415SOL    HW115878   1.515   1.189   7.759 -3.3430 -0.2874 -0.7662
 1415SOL    HW215879   1.477   1.049   7.779 -0.1182  0.8090  1.0971
 1416SOL     OW15880   3.506   3.026  16.047 -0.0155  0.2252 -0.9824
 1416SOL    HW115881   3.424   3.074  16.056  0.9225  1.6078  0.2673
 1416SOL    HW215882   3.477   2.936  16.036 -0.2470  0.2032 -0.1658
 1417SOL     OW15883   3.811   3.008   1.907 -0.2311 -0.2880 -0.1155
 1417SOL    HW115884   3.840   3.098   1.917  0.7332 -0.2899 -2.9586
 1417SOL    HW215885   3.733   3.005   1.962  0.8367 -1.5853  1.3048
 1418SOL     OW15886   3.248   0.692   6.373 -0.1544 -0.1744  0.2110
 1418SOL    HW115887   3.290   0.610   6.348  0.6209  0.8011 -1.6606
 1418SOL    HW215888   3.321   0.750   6.352 -0.1679  1.1419  3.7071
 1419SOL     OW15889   1.393   0.418   2.959  0.0850  0.1959 -0.4642
 1419SOL    HW115890   1.342   0.389   3.035  1.6146  0.1834  0.5548
 1419SOL    HW215891   1.447   0.339   2.954 -0.4841 -0.3435  1.6345
 1420SOL     OW15892   4.190   3.908   6.904 -0.0607  0.7960 -0.0864
 1420SOL    HW115893   4.180   4.002   6.886  1.4780  1.3959  2.1570
 1420SOL    HW215894   4.278   3.900   6.868  0.3002  0.7588  0.8109
 1421SOL     OW15895   1.152   0.862   6.423  0.1974  0.1701  0.2289
 1421SOL    HW115896   1.067   0.831   6.393 -0.4823 -0.4883  2.7729
 1421SOL    HW215897   1.189   0.785   6.468  0.3537  1.4354  2.2697
 1422SOL     OW15898   2.460   2.293   2.036  1.0187 -0.6129  0.0658
 1422SOL    HW115899   2.368   2.306   2.059  1.8850  0.3451  2.9836
 1422SOL    HW215900   2.449   2.220   1.975 -0.6294  0.0257 -0.3850
 1423SOL     OW15901   2.701   1.617   8.856  0.2547  0.0535  0.2480
 1423SOL    HW115902   2.759   1.672   8.908 -0.1263  1.7482 -1.0951
 1423SOL    HW215903   2.704   1.528   8.891  0.9100 -0.7467 -1.8595
 1424SOL     OW15904   0.426   3.859   7.522 -0.6533 -0.3226  0.1297
 1424SOL    HW115905   0.423   3.937   7.577 -1.1942 -0.9613  1.0034
 1424SOL    HW215906   0.468   3.800   7.584  2.8384  0.7083 -1.2350
 1425SOL     OW15907   3.223   2.785   3.793  0.3176 -0.2607  0.5470
 1425SOL    HW115908   3.290   2.846   3.822  0.5948  0.6235 -1.9578
 1425SOL    HW215909   3.262   2.768   3.707  0.5277  1.5640  0.2909
 1426SOL     OW15910   3.862   0.559   8.237 -0.4412 -0.0536  0.3790
 1426SOL    HW115911   3.912   0.491   8.192  0.9827  2.0478 -1.2230
 1426SOL    HW215912   3.776   0.517   8.238 -0.5595  0.0666 -3.8232
 1427SOL     OW15913   1.074   4.421  13.320  0.2600 -0.9940  0.1661
 1427SOL    HW115914   1.040   4.468  13.396  1.0652 -2.3327  1.3531
 1427SOL    HW215915   1.135   4.480  13.277 -0.6432 -0.7333 -0.7643
 1428SOL     OW15916   3.531   2.991  13.047  0.1583  0.1509 -0.6195
 1428SOL    HW115917   3.520   2.934  12.971  0.4497  0.7891 -1.1455
 1428SOL    HW215918   3.626   2.983  13.051  0.2676  1.0917 -1.1752
 1429SOL     OW15919   2.222   0.998  11.340 -0.2987 -0.2926  0.1220
 1429SOL    HW115920   2.286   0.962  11.279 -0.8859 -0.6397 -0.2899
 1429SOL    HW215921   2.270   1.069  11.383  0.1538 -0.2674 -0.4325
 1430SOL     OW15922   2.247   0.359   7.292 -0.8072  0.1811 -0.1351
 1430SOL    HW115923   2.328   0.309   7.279 -0.3749  0.9731 -0.5146
 1430SOL    HW215924   2.231   0.330   7.381  2.5627  0.5638  0.6125
 1431SOL     OW15925   0.856   0.134  17.152  0.1174  0.3900  0.7568
 1431SOL    HW115926   0.863   0.090  17.237 -4.2994 -0.2756  0.7934
 1431SOL    HW215927   0.849   0.062  17.090 -0.7360  1.0779  0.0660
 1432SOL     OW15928   0.717   0.739   9.400  0.5042  0.1601  0.2194
 1432SOL    HW115929   0.749   0.801   9.466  0.3106  1.5740 -1.0280
 1432SOL    HW215930   0.774   0.752   9.324 -0.7772 -0.4201 -0.8223
 1433SOL     OW15931   2.271   3.223   3.556 -0.3499  0.2533 -0.4597
 1433SOL    HW115932   2.289   3.154   3.492 -2.3351 -0.5675 -0.1273
 1433SOL    HW215933   2.335   3.287   3.526 -1.3525  0.9975 -1.0337
 1434SOL     OW15934   2.897   1.285   4.618 -0.4596 -0.2290 -0.5898
 1434SOL    HW115935   2.856   1.300   4.703 -0.6457  1.2030 -0.9275
 1434SOL    HW215936   2.977   1.240   4.645 -1.0128 -1.3857 -0.8805
 1435SOL     OW15937   2.926   4.386   9.199 -0.3047  0.1534  0.4175
 1435SOL    HW115938   2.934   4.451   9.269  1.9204  2.1120 -1.6566
 1435SOL    HW215939   2.998   4.326   9.219 -1.5154 -1.7193 -0.8333
 1436SOL     OW15940   3.376   2.924  15.645 -0.3176 -0.2524 -0.5076
 1436SOL    HW115941   3.319   2.847  15.639 -1.3662  0.5055 -0.0605
 1436SOL    HW215942   3.315   2.989  15.612  0.9885  0.4855 -1.4952
 1437SOL     OW15943   3.001   3.041   4.639 -0.0390 -0.1163  0.4428
 1437SOL    HW115944   2.968   2.952   4.642 -1.8565  0.5785  1.1314
 1437SOL    HW215945   2.998   3.067   4.547  2.5316  0.3968  0.4878
 1438SOL     OW15946   1.320   0.698  13.713 -0.2101  0.2951 -0.5067
 1438SOL    HW115947   1.301   0.612  13.751 -2.7489  0.3021 -1.7429
 1438SOL    HW215948   1.415   0.696  13.710 -0.2444  3.0053 -3.3036
 1439SOL     OW15949   3.289   4.327   5.563  0.7433 -0.4349 -0.1142
 1439SOL    HW115950   3.341   4.396   5.602  2.7730 -0.1589 -3.3594
 1439SOL    HW215951   3.305   4.266   5.635 -0.8701 -0.3771  0.3055
 1440SOL     OW15952   1.584   0.797   8.033  0.3347 -0.4314  0.3530
 1440SOL    HW115953   1.504   0.749   8.056 -1.5040  1.9979 -0.9675
 1440SOL    HW215954   1.563   0.887   8.058  0.9820 -0.4143  0.8200
 1441SOL     OW15955   1.517   2.457   4.877  0.5590 -0.3812 -0.0466
 1441SOL    HW115956   1.600   2.413   4.857  1.6166  1.0932  1.1431
 1441SOL    HW215957   1.496   2.492   4.790 -0.6754 -1.2769 -0.1038
 1442SOL     OW15958   1.295   3.531  12.151 -0.2203  0.1279 -0.8897
 1442SOL    HW115959   1.389   3.529  12.134 -0.0768  1.4462 -0.2070
 1442SOL    HW215960   1.271   3.456  12.206 -1.3314  0.2449 -1.2042
 1443SOL     OW15961   4.021   3.844   8.045  0.0363 -0.0116 -0.0895
 1443SOL    HW115962   3.950   3.780   8.048 -0.0732  0.1110 -0.0456
 1443SOL    HW215963   4.095   3.788   8.020 -0.7025 -0.5075 -1.2136
 1444SOL     OW15964   2.151   1.446   3.153  0.3613 -0.6081  0.2425
 1444SOL    HW115965   2.112   1.508   3.215  0.5480 -0.8229  0.5758
 1444SOL    HW215966   2.241   1.453   3.184 -0.0544 -0.1242  1.3445
 1445SOL     OW15967   0.777   3.028   6.194  0.2339  0.5184 -0.6213
 1445SOL    HW115968   0.753   3.081   6.270  1.0994  1.3944 -0.9640
 1445SOL    HW215969   0.778   2.946   6.244 -0.1660  0.7174 -0.2873
 1446SOL     OW15970   2.858   3.140  13.167 -0.1076  0.5320 -0.1598
 1446SOL    HW115971   2.884   3.049  13.156 -0.3615  0.7823 -2.7166
 1446SOL    HW215972   2.935   3.176  13.122 -0.0222  0.9984  0.3507
 1447SOL     OW15973   3.382   4.257   8.644 -0.3587  0.4279  1.0294
 1447SOL    HW115974   3.416   4.187   8.700 -1.7108 -0.2620  1.0090
 1447SOL    HW215975   3.318   4.290   8.708 -2.2596 -2.1992  0.4845
 1448SOL     OW15976   0.283   3.215  17.086 -0.1021 -0.4994 -0.2265
 1448SOL    HW115977   0.211   3.272  17.060 -0.5890 -0.8907  0.2590
 1448SOL    HW215978   0.239   3.130  17.092 -1.0022 -0.0541 -0.5506
 1449SOL     OW15979   2.400   2.594   4.068 -0.4367 -0.1688  0.3569
 1449SOL    HW115980   2.346   2.547   4.130 -0.5769 -0.2826  0.1487
 1449SOL    HW215981   2.371   2.683   4.088 -0.0727 -0.0816  0.5079
 1450SOL     OW15982   3.430   4.727  11.908 -0.0322 -0.6358  0.0169
 1450SOL    HW115983   3.504   0.012  11.851  0.2301 -3.8789 -0.8971
 1450SOL    HW215984   3.412   0.076  11.947 -1.3180 -1.0945  0.4513
 1451SOL     OW15985   0.450   2.909   6.914  0.1711 -0.1898 -0.1301
 1451SOL    HW115986   0.485   2.831   6.872 -0.1380 -0.1356 -0.4926
 1451SOL    HW215987   0.524   2.970   6.920 -0.4018  0.3790  1.1499
 1452SOL     OW15988   2.920   2.746   6.826  0.0369 -0.4913 -0.3903
 1452SOL    HW115989   2.835   2.752   6.783 -1.2874 -0.4811  2.2206
 1452SOL    HW215990   2.964   2.683   6.769 -0.6039 -1.7143  0.4792
 1453SOL     OW15991   0.243   0.623   3.408  0.1231 -0.1282 -0.1095
 1453SOL    HW115992   0.303   0.604   3.480  0.3099  1.8843  0.2757
 1453SOL    HW215993   0.293   0.694   3.368  0.3877  0.0023  0.4517
 1454SOL     OW15994   2.069   2.501   7.962 -0.1606  0.2160  0.2471
 1454SOL    HW115995   2.071   2.594   7.984  0.3879  0.8219 -2.3646
 1454SOL    HW215996   2.118   2.469   8.038 -0.9180  3.3002  2.0549
 1455SOL     OW15997   0.214   0.460   2.285 -0.5145  0.2083  0.1321
 1455SOL    HW115998   0.124   0.456   2.252  0.6489  0.0656 -2.9822
 1455SOL    HW215999   0.240   0.542   2.243 -0.8675  0.4470  0.3781
 1456SOL     OW16000   0.071   1.885  14.415 -0.2576 -0.1086 -0.0170
 1456SOL    HW116001   4.725   1.838  14.421 -0.2524  0.2236  3.0061
 1456SOL    HW216002   0.103   1.855  14.500 -1.3931 -2.1492 -0.3089
 1457SOL     OW16003   4.656   4.423   8.648 -0.1912 -0.0758  0.3984
 1457SOL    HW116004   4.733   4.451   8.698 -0.5217  0.8887  0.3646
 1457SOL    HW216005   4.622   4.370   8.720  0.7987 -1.3690 -0.0770
 1458SOL     OW16006   2.493   0.430   6.969 -0.1287 -0.6064  0.0158
 1458SOL    HW116007   2.410   0.399   7.006 -0.0933  1.7933  2.0980
 1458SOL    HW216008   2.484   0.387   6.884  1.7227  2.0565 -1.4942
 1459SOL     OW16009   1.776   4.341   4.228 -0.4192 -0.0273 -0.0496
 1459SOL    HW116010   1.806   4.353   4.138  0.3734 -1.6021  0.0092
 1459SOL    HW216011   1.810   4.424   4.261 -2.5490 -0.2318  2.6618
 1460SOL     OW16012   1.284   1.834   4.484  0.3235 -0.0793 -0.1133
 1460SOL    HW116013   1.314   1.919   4.517 -1.6848  0.8932 -0.7572
 1460SOL    HW216014   1.197   1.847   4.447  0.6676 -0.4339 -1.0679
 1461SOL     OW16015   0.687   2.784  14.582  0.2019  0.5694 -0.2435
 1461SOL    HW116016   0.682   2.856  14.644  0.6239 -0.7898  1.3679
 1461SOL    HW216017   0.779   2.757  14.583 -0.2277 -0.9369 -0.3983
 1462SOL     OW16018   3.412   3.118  13.536  0.2765 -0.4509 -0.3090
 1462SOL    HW116019   3.420   3.162  13.451  0.4652  0.7652  0.3409
 1462SOL    HW216020   3.502   3.129  13.567  0.3370 -0.6039 -0.4289
 1463SOL     OW16021   0.546   2.715  13.835  0.1729 -0.3185 -0.5613
 1463SOL    HW116022   0.481   2.670  13.780 -0.5496 -3.2741  2.6820
 1463SOL    HW216023   0.505   2.700  13.920 -1.8166  0.4436 -1.3820
 1464SOL     OW16024   0.140   4.317   0.942 -0.3172 -0.2229  0.1012
 1464SOL    HW116025   0.175   4.243   0.893 -2.1993  0.3985 -2.1964
 1464SOL    HW216026   0.155   4.386   0.877 -1.0742 -0.0165  0.1447
 1465SOL     OW16027   3.100   4.036   4.169 -0.1564 -0.0137  0.8344
 1465SOL    HW116028   3.059   4.123   4.179  0.1288  0.2189 -0.0074
 1465SOL    HW216029   3.139   4.046   4.082  2.0684  0.2864  1.8812
 1466SOL     OW16030   4.025   1.632  15.525  0.3902  0.0012  0.4896
 1466SOL    HW116031   3.973   1.555  15.547 -1.2042  0.7042 -0.8744
 1466SOL    HW216032   3.981   1.710  15.559  0.6816 -0.5133  2.0602
 1467SOL     OW16033   1.533   0.479   8.935 -0.4128 -0.4991  0.1187
 1467SOL    HW116034   1.549   0.398   8.985 -0.8900 -0.2601  0.6530
 1467SOL    HW216035   1.515   0.540   9.006  0.8185 -0.8337  0.7293
 1468SOL     OW16036   0.976   4.550   8.976 -0.6103 -0.2303 -0.3784
 1468SOL    HW116037   0.992   4.644   8.974  0.6552 -0.4244  0.5566
 1468SOL    HW216038   0.885   4.554   9.005 -0.4337  2.5634 -0.1518
 1469SOL     OW16039   1.368   2.427   3.878 -0.4764  0.2146  0.3615
 1469SOL    HW116040   1.347   2.417   3.971  0.4831 -2.7418  0.2789
 1469SOL    HW216041   1.436   2.494   3.872 -0.2110 -0.1639 -0.8993
 1470SOL     OW16042   1.564   4.173  12.696  0.0199 -0.3288 -0.7933
 1470SOL    HW116043   1.586   4.117  12.622  2.3796 -0.6663  0.1775
 1470SOL    HW216044   1.499   4.216  12.640 -0.9998 -0.1556  0.5209
 1471SOL     OW16045   1.752   1.022   4.924 -0.5026 -0.3327 -0.6566
 1471SOL    HW116046   1.710   1.005   4.840  0.0395  1.4323 -1.3008
 1471SOL    HW216047   1.674   1.033   4.978 -1.1984 -1.1209 -1.5061
 1472SOL     OW16048   0.048   2.015   3.889  0.2206 -0.0761  0.5412
 1472SOL    HW116049   0.144   2.019   3.889  0.2094  0.1225  1.4833
 1472SOL    HW216050   0.043   2.018   3.984 -0.4165 -1.2180  0.5427
 1473SOL     OW16051   4.322   1.186   6.334  0.0714  0.4941 -0.0300
 1473SOL    HW116052   4.288   1.210   6.248  0.1652 -2.2780 -0.8508
 1473SOL    HW216053   4.271   1.246   6.388 -0.5825 -1.5748  1.6483
 1474SOL     OW16054   0.040   2.940   3.757 -0.0421 -0.3555 -0.3765
 1474SOL    HW116055   4.716   2.903   3.694  1.1934 -0.7347 -1.3534
 1474SOL    HW216056   0.116   2.882   3.751  0.6737  0.4792  0.5433
 1475SOL     OW16057   3.708   1.478   1.714  1.1200 -0.0244  0.3374
 1475SOL    HW116058   3.796   1.500   1.744  1.1947 -0.4441  0.4243
 1475SOL    HW216059   3.710   1.532   1.635 -0.3344 -0.5525 -0.0534
 1476SOL     OW16060   4.474   4.177   5.924 -0.2293 -0.0467  0.0394
 1476SOL    HW116061   4.460   4.128   6.005 -2.0518 -0.4533 -0.5271
 1476SOL    HW216062   4.562   4.213   5.935 -0.3636  0.8192 -1.7311
 1477SOL     OW16063   2.845   1.806   7.983  0.6560  0.1245  0.2477
 1477SOL    HW116064   2.802   1.872   8.038 -0.2171 -0.1961 -0.0445
 1477SOL    HW216065   2.796   1.726   8.002 -0.0078  0.8094  1.4063
 1478SOL     OW16066   0.469   0.387   6.909  0.5914  0.2812  0.5063
 1478SOL    HW116067   0.469   0.305   6.860  3.0257  0.9546 -0.6527
 1478SOL    HW216068   0.398   0.367   6.970 -0.0193 -2.1736 -0.9989
 1479SOL     OW16069   4.140   4.322   2.945  0.4119  0.0768  0.3050
 1479SOL    HW116070   4.125   4.315   2.851  0.8952 -0.0654  0.2394
 1479SOL    HW216071   4.230   4.355   2.935 -0.3625  2.7784  2.3626
 1480SOL     OW16072   1.493   3.765   0.456  0.2206  0.1092  0.2964
 1480SOL    HW116073   1.471   3.695   0.518  1.7182  0.5026  1.2895
 1480SOL    HW216074   1.403   3.795   0.448  0.1367  0.3675  2.1895
 1481SOL     OW16075   4.085   1.492   6.824  0.0875  0.0045  0.3273
 1481SOL    HW116076   4.162   1.443   6.853  0.8223 -0.5285 -2.5560
 1481SOL    HW216077   4.035   1.416   6.795  0.6845 -1.2939  2.7480
 1482SOL     OW16078   3.771   4.007  14.261  0.4855  0.6596  0.5113
 1482SOL    HW116079   3.712   3.934  14.279  2.9669 -1.4271  0.3232
 1482SOL    HW216080   3.838   3.955  14.216  0.7489  0.7186  0.8365
 1483SOL     OW16081   2.568   3.515   6.616 -0.0985  0.2349  0.5302
 1483SOL    HW116082   2.614   3.434   6.596  1.3474  1.2742 -0.4216
 1483SOL    HW216083   2.522   3.482   6.693  0.8485  0.4488  1.1937
 1484SOL     OW16084   1.727   4.110   6.519 -0.2374  0.0757 -0.2079
 1484SOL    HW116085   1.764   4.157   6.594  0.7623 -1.0723  0.0312
 1484SOL    HW216086   1.666   4.056   6.569 -0.6582 -0.7476 -1.6170
 1485SOL     OW16087   0.085   0.892   3.707  0.2785  0.3294 -0.0579
 1485SOL    HW116088   0.093   0.849   3.622  0.4974 -0.4986  0.3796
 1485SOL    HW216089   0.036   0.970   3.680  1.9397  0.9400 -1.3282
 1486SOL     OW16090   2.986   0.303  10.293 -0.4699  0.5944 -0.2825
 1486SOL    HW116091   3.038   0.334  10.366 -1.0253  0.6217  0.1075
 1486SOL    HW216092   3.022   0.219  10.264  0.8272  1.0353  0.0590
 1487SOL     OW16093   0.505   1.637   1.525 -0.3542 -0.0063 -0.1039
 1487SOL    HW116094   0.435   1.573   1.542  0.2730 -0.7060 -0.1357
 1487SOL    HW216095   0.569   1.578   1.484  1.1343  2.8723 -1.9160
 1488SOL     OW16096   2.251   3.825   6.539 -0.1366  0.1890 -0.2911
 1488SOL    HW116097   2.241   3.731   6.527  1.9919 -0.2379  1.3636
 1488SOL    HW216098   2.268   3.829   6.633 -1.7680  2.0594 -0.0846
 1489SOL     OW16099   4.704   1.687   4.768 -0.0697  0.1824  0.3142
 1489SOL    HW116100   4.629   1.633   4.791  0.8380 -1.1945  0.0720
 1489SOL    HW216101   0.013   1.622   4.714 -1.8928  0.0809 -1.1047
 1490SOL     OW16102   2.422   4.700  16.772 -0.0535 -0.2909  0.1354
 1490SOL    HW116103   2.370   4.620  16.781  0.6717 -0.5289  2.2401
 1490SOL    HW216104   2.410   4.732  16.862  1.4955  1.7916 -0.4305
 1491SOL     OW16105   4.140   2.162  17.051  0.2339 -0.2237  0.2693
 1491SOL    HW116106   4.216   2.117  17.015  2.0527  2.5094  0.6480
 1491SOL    HW216107   4.087   2.198  16.980 -0.0824  1.3521  1.2828
 1492SOL     OW16108   3.734   1.465   3.457 -0.2397  1.1430 -0.2018
 1492SOL    HW116109   3.824   1.445   3.484 -0.3531  0.2487 -0.5052
 1492SOL    HW216110   3.742   1.542   3.400  1.2365 -1.7553 -3.8858
 1493SOL     OW16111   2.944   2.988  11.803  0.4459 -0.0404  0.0259
 1493SOL    HW116112   2.910   3.037  11.877  1.0264  2.2881 -1.2565
 1493SOL    HW216113   2.913   3.043  11.731  0.9411 -0.9151 -0.8481
 1494SOL     OW16114   2.744   2.901  10.543  0.6915 -0.3594  0.1454
 1494SOL    HW116115   2.836   2.890  10.567  0.4650  1.1478  1.6700
 1494SOL    HW216116   2.718   2.809  10.536  2.0265 -0.5732 -2.2066
 1495SOL     OW16117   1.087   2.115   9.837  0.2411  0.5489 -0.0628
 1495SOL    HW116118   0.998   2.099   9.806 -0.2632  0.8615  1.2081
 1495SOL    HW216119   1.067   2.189   9.894  0.2179  1.3941 -1.1721
 1496SOL     OW16120   3.530   0.165   2.481  0.1736 -0.4858 -0.3626
 1496SOL    HW116121   3.541   0.124   2.567  0.1394  0.4752  0.0937
 1496SOL    HW216122   3.520   0.259   2.494  1.9572 -0.2117 -0.9698
 1497SOL     OW16123   3.157   0.105   0.934  0.2397  0.0613 -0.0842
 1497SOL    HW116124   3.067   0.135   0.926  0.1718 -0.1603 -0.1622
 1497SOL    HW216125   3.153   0.064   1.021  0.9399 -2.2529 -1.1340
 1498SOL     OW16126   1.032   0.839   6.727  0.1120  0.8625 -1.0885
 1498SOL    HW116127   1.106   0.815   6.671 -1.4806 -1.0451 -2.3247
 1498SOL    HW216128   0.968   0.774   6.700  0.9880 -0.2436 -0.4795
 1499SOL     OW16129   0.810   2.001   9.786  0.1668 -0.1414 -0.4873
 1499SOL    HW116130   0.850   1.916   9.809  3.3626  0.8596 -2.3057
 1499SOL    HW216131   0.717   1.980   9.791  0.3173 -0.2612  1.5624
 1500SOL     OW16132   1.454   1.729  10.784  0.1815 -0.2151 -0.7820
 1500SOL    HW116133   1.412   1.643  10.783 -0.6356  0.1531  0.5635
 1500SOL    HW216134   1.448   1.753  10.692  0.5012  0.7110 -0.5689
 1501SOL     OW16135   0.588   0.212   9.157 -0.0558  0.4183 -0.1699
 1501SOL    HW116136   0.606   0.297   9.198 -1.0103  0.9817 -0.9106
 1501SOL    HW216137   0.598   0.233   9.064  3.4512 -2.2076 -0.3607
 1502SOL     OW16138   0.167   3.223   0.070 -0.0330  0.4223  0.6059
 1502SOL    HW116139   0.078   3.251   0.049  0.8044  2.5712 -0.1349
 1502SOL    HW216140   0.177   3.236   0.164  1.3525 -0.9512  0.6531
 1503SOL     OW16141   0.852   3.149   8.237  0.1445 -0.2362 -0.1318
 1503SOL    HW116142   0.815   3.069   8.200  0.9093  0.7830 -3.1023
 1503SOL    HW216143   0.826   3.207   8.166  2.1285  1.4716  0.5278
 1504SOL     OW16144   1.371   1.635   4.639 -0.7176  0.4289 -0.6796
 1504SOL    HW116145   1.299   1.592   4.685  0.1733 -2.7942 -2.3394
 1504SOL    HW216146   1.318   1.692   4.583  0.7483  0.9825 -1.4805
 1505SOL     OW16147   1.754   4.714   8.658 -0.0686  0.0702 -0.8096
 1505SOL    HW116148   1.799   0.032   8.723  0.5275 -2.4857  0.9603
 1505SOL    HW216149   1.747   4.631   8.706 -0.6081  0.1043 -0.8365
 1506SOL     OW16150   3.515   3.536   8.090 -0.3098 -0.5708 -0.1135
 1506SOL    HW116151   3.498   3.521   7.997 -1.7148 -0.3042  0.1103
 1506SOL    HW216152   3.428   3.535   8.130 -0.4229 -0.2805 -0.3538
 1507SOL     OW16153   4.445   1.518   3.469  0.2474  0.7699 -0.1951
 1507SOL    HW116154   4.461   1.609   3.442 -1.1476  1.1864  0.4010
 1507SOL    HW216155   4.526   1.494   3.513  0.2023 -1.6807 -1.4669
 1508SOL     OW16156   1.087   3.293   5.837 -0.2814 -1.0687  0.1661
 1508SOL    HW116157   1.080   3.247   5.753 -2.4582  0.7562 -0.6556
 1508SOL    HW216158   0.996   3.324   5.842 -0.1749 -0.5010 -1.4266
 1509SOL     OW16159   0.797   1.833   6.112 -0.3536  0.3969  0.4966
 1509SOL    HW116160   0.772   1.888   6.038 -1.5924  0.0360  0.6486
 1509SOL    HW216161   0.719   1.778   6.119 -0.2317  0.4570  2.4715
 1510SOL     OW16162   3.467   1.104   1.604 -0.3409 -0.0139  0.4382
 1510SOL    HW116163   3.557   1.091   1.575 -1.3071 -1.0934 -2.0337
 1510SOL    HW216164   3.482   1.165   1.677 -0.5089  2.9121 -1.9837
 1511SOL     OW16165   4.530   0.078   3.569 -0.1216  0.1131  0.2837
 1511SOL    HW116166   4.534   0.065   3.664  0.6066  1.4702  0.4395
 1511SOL    HW216167   4.580   0.159   3.559 -0.4511  0.4142  1.0574
 1512SOL     OW16168   2.496   4.280   4.861  0.1252 -0.6381  0.3166
 1512SOL    HW116169   2.465   4.193   4.835 -1.2208  0.3589 -1.3847
 1512SOL    HW216170   2.446   4.305   4.938  0.2987  1.2911 -0.1914
 1513SOL     OW16171   1.564   1.216   5.337  0.0639 -0.0851  0.3533
 1513SOL    HW116172   1.500   1.264   5.389 -0.4284 -0.0339 -0.3125
 1513SOL    HW216173   1.602   1.297   5.302 -0.3362 -0.6864 -1.4727
 1514SOL     OW16174   2.561   0.043  13.111  0.0126  0.3696 -0.3631
 1514SOL    HW116175   2.629   0.001  13.058  1.6438  1.1591  1.1043
 1514SOL    HW216176   2.603   0.121  13.147  1.5032 -0.2783 -0.7227
 1515SOL     OW16177   3.918   2.972   4.896 -0.5306 -0.1821 -0.0271
 1515SOL    HW116178   3.951   3.020   4.971  0.6415 -1.6812  0.4216
 1515SOL    HW216179   3.861   3.041   4.863  0.4488  1.0144  0.8236
 1516SOL     OW16180   3.542   1.100   8.448 -0.1219  0.1627 -0.2430
 1516SOL    HW116181   3.592   1.182   8.443 -1.2960  0.7030 -2.8551
 1516SOL    HW216182   3.520   1.083   8.357 -0.8873  1.3959 -0.2889
 1517SOL     OW16183   1.101   1.297  10.016  0.7296  0.2181 -0.0846
 1517SOL    HW116184   1.159   1.334   9.950  0.8787  1.1076  0.5518
 1517SOL    HW216185   1.091   1.206   9.986 -0.0244  0.4299 -0.4629
 1518SOL     OW16186   2.691   2.500   7.557 -0.3525  0.2897  0.2363
 1518SOL    HW116187   2.727   2.575   7.605  2.2880 -1.5589  1.1508
 1518SOL    HW216188   2.612   2.544   7.527 -0.6217  0.4769  1.2134
 1519SOL     OW16189   1.685   0.051   0.817  0.1795 -0.8116  0.3419
 1519SOL    HW116190   1.626   0.083   0.885 -0.2976  0.9858 -0.9372
 1519SOL    HW216191   1.774   0.070   0.848  0.2893 -2.8105  1.2456
 1520SOL     OW16192   2.905   1.763   2.988 -0.8279 -0.1072 -0.5073
 1520SOL    HW116193   2.986   1.713   2.996  1.3820  3.3608 -0.8201
 1520SOL    HW216194   2.897   1.781   3.081 -0.6928 -1.1436 -0.2978
 1521SOL     OW16195   0.502   4.001   5.164  0.5638  0.6736 -0.3279
 1521SOL    HW116196   0.545   4.073   5.211  1.1404 -1.6716  2.7519
 1521SOL    HW216197   0.466   4.045   5.087 -1.3212  2.6663  1.6669
 1522SOL     OW16198   1.488   0.236   4.248  0.5803  0.0441 -0.1277
 1522SOL    HW116199   1.413   0.216   4.193 -0.4878  1.9491  0.6560
 1522SOL    HW216200   1.452   0.299   4.310  0.5542  0.6871 -0.7926
 1523SOL     OW16201   0.334   3.619   3.050 -0.0921 -0.0270  0.1642
 1523SOL    HW116202   0.398   3.673   3.004  1.0587  0.1309  1.9372
 1523SOL    HW216203   0.386   3.540   3.060  1.3726  0.7536 -1.3700
 1524SOL     OW16204   2.837   2.195   8.046 -0.0330  0.0495 -0.6716
 1524SOL    HW116205   2.799   2.158   8.125  0.5923  0.3649 -0.2305
 1524SOL    HW216206   2.850   2.112   8.000  1.1167 -0.5306  0.7103
 1525SOL     OW16207   2.368   3.324   2.642  1.1028 -0.1156 -0.6120
 1525SOL    HW116208   2.405   3.236   2.636 -1.5378 -1.3365  0.8995
 1525SOL    HW216209   2.438   3.364   2.695  0.9794  0.4103 -0.8479
 1526SOL     OW16210   1.642   4.082   8.477  0.4404  0.0699  0.2343
 1526SOL    HW116211   1.707   4.106   8.410 -1.2012  1.5674 -0.8195
 1526SOL    HW216212   1.635   4.164   8.527  0.2944 -0.0952  0.4826
 1527SOL     OW16213   1.988   4.141  16.577  0.0668 -0.6425  0.3958
 1527SOL    HW116214   2.042   4.064  16.562  0.0003 -0.1223 -2.5673
 1527SOL    HW216215   1.946   4.145  16.490  1.7379 -1.1826 -0.4259
 1528SOL     OW16216   0.293   1.263  11.694  0.1723 -0.1036  0.6524
 1528SOL    HW116217   0.231   1.219  11.637  1.9470 -0.9426 -0.6448
 1528SOL    HW216218   0.235   1.291  11.765 -1.7174 -1.0821 -0.5100
 1529SOL     OW16219   1.434   4.443  17.023 -0.0985 -0.4999  0.1210
 1529SOL    HW116220   1.452   4.497  17.100  2.6484  1.4678 -1.9005
 1529SOL    HW216221   1.392   4.509  16.967 -0.0217  0.7005  1.4678
 1530SOL     OW16222   4.671   3.564  12.866 -0.1571 -0.3102 -0.4070
 1530SOL    HW116223   4.661   3.543  12.773 -0.0936  1.4876 -0.8189
 1530SOL    HW216224   4.632   3.485  12.904 -0.3542  0.3919  0.8299
 1531SOL     OW16225   3.140   3.612  15.517  0.0091 -0.2816 -0.2308
 1531SOL    HW116226   3.118   3.695  15.475  0.5576  0.5927  1.2140
 1531SOL    HW216227   3.122   3.631  15.609 -0.0104  1.2873 -0.5598
 1532SOL     OW16228   2.834   3.365   7.484 -0.0995 -0.2149  0.1432
 1532SOL    HW116229   2.887   3.441   7.509  0.5894 -0.4597 -0.5689
 1532SOL    HW216230   2.794   3.406   7.408  4.0478  0.2679 -1.7844
 1533SOL     OW16231   4.098   3.006   8.351 -0.3030 -0.1758  0.2378
 1533SOL    HW116232   4.076   3.089   8.393  2.2095  0.8155 -0.3684
 1533SOL    HW216233   4.011   2.972   8.330  0.0438 -2.4259  2.5184
 1534SOL     OW16234   3.287   3.980   2.679  0.0779  0.3578  0.7737
 1534SOL    HW116235   3.284   3.899   2.628 -2.3435 -1.7420  4.2686
 1534SOL    HW216236   3.196   4.010   2.688 -0.1044 -0.1467  0.6277
 1535SOL     OW16237   4.316   1.064  15.844 -0.2152  0.2577 -0.5795
 1535SOL    HW116238   4.377   0.998  15.811  0.2067  0.5576 -0.4008
 1535SOL    HW216239   4.346   1.143  15.799  1.2240  1.1442  1.9189
 1536SOL     OW16240   3.188   2.240   0.756  0.0285  0.3535  0.7902
 1536SOL    HW116241   3.164   2.186   0.830  0.5581 -0.6584  0.2232
 1536SOL    HW216242   3.221   2.315   0.806  0.8401  1.3942 -1.3126
 1537SOL     OW16243   1.006   3.594   2.026  0.0969  0.3390 -0.1842
 1537SOL    HW116244   0.924   3.597   1.978  0.9545  1.1631 -1.6073
 1537SOL    HW216245   1.059   3.586   1.947  2.1030 -1.9135  1.3647
 1538SOL     OW16246   3.680   4.176   4.764  0.1049 -0.8845  0.1479
 1538SOL    HW116247   3.657   4.209   4.677  0.4626 -1.4688 -0.1638
 1538SOL    HW216248   3.603   4.130   4.797 -3.3707  4.9125  0.1922
 1539SOL     OW16249   4.404   3.034   1.629 -0.3990 -0.3823  0.4606
 1539SOL    HW116250   4.417   2.982   1.709  0.5962  0.8812  1.1157
 1539SOL    HW216251   4.456   3.113   1.642 -1.1212  0.3108 -0.9018
 1540SOL     OW16252   0.476   3.212   6.206 -0.4904  0.0479 -0.1890
 1540SOL    HW116253   0.508   3.209   6.297  2.6111 -4.0118 -1.4005
 1540SOL    HW216254   0.387   3.242   6.222 -0.9777 -1.1047 -0.8048
 1541SOL     OW16255   1.023   2.237   6.111  0.6146 -0.4917 -0.4355
 1541SOL    HW116256   0.964   2.311   6.095 -1.2822 -1.6667  1.1275
 1541SOL    HW216257   1.027   2.241   6.207 -0.2082 -1.2752 -0.3650
 1542SOL     OW16258   2.666   2.850   3.790 -0.2004 -0.5438 -0.3930
 1542SOL    HW116259   2.736   2.807   3.742  1.3599 -0.5957  1.9109
 1542SOL    HW216260   2.601   2.864   3.721 -0.1792  0.4521 -0.2082
 1543SOL     OW16261   1.743   4.362   5.927 -0.0435  0.6178  0.8347
 1543SOL    HW116262   1.737   4.371   6.022  0.0153 -0.4414  0.9410
 1543SOL    HW216263   1.699   4.277   5.918 -0.1168  0.6040  1.3364
 1544SOL     OW16264   1.510   1.419  11.833  0.0149  0.1530  0.2919
 1544SOL    HW116265   1.483   1.332  11.863  0.7967 -0.1876  0.0265
 1544SOL    HW216266   1.499   1.404  11.739  0.5489  2.7014 -0.1855
 1545SOL     OW16267   3.873   3.962   3.434 -0.1730 -0.2415 -0.3577
 1545SOL    HW116268   3.823   3.920   3.504 -0.5187 -0.7246 -0.8969
 1545SOL    HW216269   3.925   3.886   3.407 -0.2757 -0.2705 -0.4719
 1546SOL     OW16270   2.712   2.630  10.530 -0.4403  0.0528  0.2038
 1546SOL    HW116271   2.630   2.615  10.483 -0.3999  0.1572  0.1015
 1546SOL    HW216272   2.777   2.572  10.490 -1.2076 -0.3353 -0.4750
 1547SOL     OW16273   1.629   4.439  11.648  0.7266  0.1723 -0.1216
 1547SOL    HW116274   1.669   4.490  11.578 -2.8982  0.4903 -1.9695
 1547SOL    HW216275   1.535   4.451  11.631  1.7945  2.4377 -4.4466
 1548SOL     OW16276   1.846   1.904  14.644 -0.2232 -0.0436  0.0198
 1548SOL    HW116277   1.772   1.962  14.627 -0.6211  0.2932  2.9462
 1548SOL    HW216278   1.914   1.968  14.623 -1.2109  1.1307  0.4126
 1549SOL     OW16279   0.845   3.591   3.121  0.5732  0.0792 -0.0194
 1549SOL    HW116280   0.794   3.580   3.201 -1.0874  0.5524 -1.0043
 1549SOL    HW216281   0.846   3.687   3.114  1.6923 -0.0135 -1.2063
 1550SOL     OW16282   4.142   3.943   2.148 -0.2069 -0.0854 -0.7346
 1550SOL    HW116283   4.203   3.918   2.217 -1.1107 -1.7194 -0.5317
 1550SOL    HW216284   4.155   4.037   2.156 -3.8088  0.4569 -0.9341
 1551SOL     OW16285   0.540   0.961   2.585 -0.0847  0.9115 -0.0794
 1551SOL    HW116286   0.608   0.896   2.570  0.1751  1.5117 -1.4824
 1551SOL    HW216287   0.593   1.041   2.589  3.0383 -1.1338 -0.4371
 1552SOL     OW16288   4.636   1.687   1.242  0.4326  0.1801  0.0579
 1552SOL    HW116289   4.602   1.766   1.200 -1.4576 -0.4084  0.4755
 1552SOL    HW216290   4.696   1.717   1.311 -3.9407  4.2348  2.0827
 1553SOL     OW16291   1.739   4.194   8.859 -0.2379 -0.0534  0.1471
 1553SOL    HW116292   1.762   4.167   8.948 -0.2403 -1.3128 -0.2309
 1553SOL    HW216293   1.664   4.136   8.844 -0.8005  0.7347 -0.1083
 1554SOL     OW16294   0.355   4.311  16.386  0.2082  0.3049  0.0590
 1554SOL    HW116295   0.374   4.394  16.431 -1.4256 -0.1002  1.4986
 1554SOL    HW216296   0.300   4.342  16.313 -1.6107  1.3433  1.8688
 1555SOL     OW16297   2.653   2.443   5.691  0.3982 -0.5791 -0.1400
 1555SOL    HW116298   2.679   2.353   5.714 -0.3411 -0.9314 -0.6853
 1555SOL    HW216299   2.613   2.434   5.605  3.2328 -0.1969 -1.4739
 1556SOL     OW16300   4.495   2.170   7.517  0.1107  0.4913  0.0147
 1556SOL    HW116301   4.448   2.104   7.466  0.4274  1.1107 -1.0738
 1556SOL    HW216302   4.550   2.207   7.448  1.6470  0.3225  1.1682
 1557SOL     OW16303   0.722   1.660  11.801 -0.6567  0.3726 -0.5262
 1557SOL    HW116304   0.678   1.641  11.884 -0.5501 -1.1778 -0.8095
 1557SOL    HW216305   0.815   1.637  11.813 -0.8464  0.4916  1.1839
 1558SOL     OW16306   3.960   3.141   8.016  0.2131 -0.4416  0.4887
 1558SOL    HW116307   4.006   3.062   7.990 -2.3697 -1.5565 -0.6811
 1558SOL    HW216308   3.927   3.114   8.101 -0.8742 -2.5840 -0.6144
 1559SOL     OW16309   1.158   3.743  14.581 -0.0046 -0.2832 -0.1282
 1559SOL    HW116310   1.094   3.748  14.651  1.5359  0.1594  1.2587
 1559SOL    HW216311   1.132   3.819  14.528  0.2086 -0.1354 -0.0199
 1560SOL     OW16312   3.786   4.435   7.301  0.7002 -0.8806  0.0600
 1560SOL    HW116313   3.717   4.373   7.277  1.4562 -1.9401  0.5922
 1560SOL    HW216314   3.753   4.506   7.246 -0.0440 -1.3725 -0.1328
 1561SOL     OW16315   4.477   3.638  15.848 -0.5838  0.4282  0.5802
 1561SOL    HW116316   4.495   3.545  15.865  0.0829  0.2526 -1.1383
 1561SOL    HW216317   4.386   3.649  15.874 -0.8427 -0.4614  0.0553
 1562SOL     OW16318   0.677   2.508   7.010  0.1044 -0.5413 -0.1719
 1562SOL    HW116319   0.725   2.430   7.038  0.0590 -0.4180  0.2423
 1562SOL    HW216320   0.642   2.548   7.089 -0.0687  0.3554 -0.7042
 1563SOL     OW16321   2.165   1.047   5.147  0.3790 -0.1972 -0.1500
 1563SOL    HW116322   2.233   1.084   5.091 -0.1796  1.2221  0.0926
 1563SOL    HW216323   2.192   1.076   5.235  1.6115 -2.3226  0.1893
 1564SOL     OW16324   0.689   0.023   1.251  0.6155  0.0586 -0.1825
 1564SOL    HW116325   0.644   0.040   1.168  1.5608  0.4831 -0.6119
 1564SOL    HW216326   0.779   0.010   1.222  0.4487  0.5092 -0.9112
 1565SOL     OW16327   4.561   2.802   3.605  0.1645  0.4224 -0.1585
 1565SOL    HW116328   4.622   2.764   3.542  0.4720 -1.5970  1.3375
 1565SOL    HW216329   4.481   2.819   3.555  0.8302 -0.8435 -1.6475
 1566SOL     OW16330   2.564   0.325   2.733  0.0480 -0.0759 -0.0366
 1566SOL    HW116331   2.585   0.403   2.784 -0.2177  1.7110 -2.6527
 1566SOL    HW216332   2.531   0.263   2.798 -1.0683  1.6530  1.0472
 1567SOL     OW16333   2.961   2.726   3.860 -0.3580  0.1631  0.1416
 1567SOL    HW116334   3.047   2.741   3.821 -0.8936  0.1110 -1.0637
 1567SOL    HW216335   2.979   2.706   3.952 -1.9154 -1.9688 -0.0130
 1568SOL     OW16336   2.641   3.611   3.321 -0.2026  0.3452  0.0649
 1568SOL    HW116337   2.717   3.568   3.361  0.1801 -1.8539 -3.0893
 1568SOL    HW216338   2.669   3.703   3.323 -0.8785  0.5280  1.5359
 1569SOL     OW16339   2.602   3.926   8.320  0.2149 -0.0645 -0.2252
 1569SOL    HW116340   2.608   3.891   8.231 -1.2468  1.1433 -0.7876
 1569SOL    HW216341   2.545   3.866   8.369  0.1717 -0.9584 -1.3732
 1570SOL     OW16342   4.066   0.268   5.570 -0.2964  0.5934  0.4269
 1570SOL    HW116343   4.024   0.214   5.638 -0.6069 -0.8154 -0.8645
 1570SOL    HW216344   3.983   0.311   5.547 -1.3839 -1.7719 -0.1881
 1571SOL     OW16345   1.659   2.011  16.167 -0.1717 -0.2326  0.5816
 1571SOL    HW116346   1.660   1.916  16.180  0.7711 -0.5059 -1.4852
 1571SOL    HW216347   1.568   2.023  16.192 -0.3025 -1.6887  0.8393
 1572SOL     OW16348   2.159   1.576  13.712  0.4049 -0.3640 -0.4059
 1572SOL    HW116349   2.068   1.604  13.708 -0.0611 -2.0169 -1.3264
 1572SOL    HW216350   2.200   1.657  13.743  1.9366 -0.9999 -0.7430
 1573SOL     OW16351   3.217   0.533  17.260 -0.4730  0.1517  0.3529
 1573SOL    HW116352   3.305   0.541  17.224 -0.7067  0.4488 -0.1524
 1573SOL    HW216353   3.199   0.626  17.272 -0.2924 -0.0503  2.1923
 1574SOL     OW16354   0.497   4.717  15.147  0.1878 -0.2440 -0.0244
 1574SOL    HW116355   0.493   4.706  15.242 -0.9837  0.6380  0.0365
 1574SOL    HW216356   0.566   0.045  15.135  1.9805 -2.1207  0.0877
 1575SOL     OW16357   2.274   1.420  16.555 -0.2591 -0.3617 -0.3899
 1575SOL    HW116358   2.339   1.421  16.485  0.5232 -1.6586  0.3329
 1575SOL    HW216359   2.229   1.339  16.534  0.0647 -1.2145  2.1449
 1576SOL     OW16360   0.368   0.857  15.059  0.3895 -0.0983 -0.1636
 1576SOL    HW116361   0.380   0.910  15.137  1.8912 -0.7688  0.0718
 1576SOL    HW216362   0.281   0.821  15.074  0.8306  0.0285  2.5916
 1577SOL     OW16363   1.713   0.042   5.203  0.2753 -0.1306 -0.3848
 1577SOL    HW116364   1.732   4.687   5.181  0.6099  0.0719 -0.9360
 1577SOL    HW216365   1.796   0.079   5.173  0.1657 -0.1907 -0.7545
 1578SOL     OW16366   0.638   3.468  17.042 -0.0612  0.0743  0.3151
 1578SOL    HW116367   0.697   3.461  17.118  0.0336 -5.1258 -0.2786
 1578SOL    HW216368   0.575   3.534  17.069  0.9534  1.4624 -0.6900
 1579SOL     OW16369   2.522   0.555   5.516 -0.3461 -0.0872  0.3148
 1579SOL    HW116370   2.581   0.540   5.590 -0.8552  0.2979  0.7975
 1579SOL    HW216371   2.437   0.519   5.541  0.4164 -0.7767  1.8776
 1580SOL     OW16372   0.017   1.727  17.667  0.2231  0.0867 -0.2368
 1580SOL    HW116373   0.018   1.747   0.014 -2.5913  0.8675 -0.3593
 1580SOL    HW216374   4.661   1.705  17.661  0.3320 -0.4430  0.0908
 1581SOL     OW16375   1.228   1.859  13.745 -0.5475 -0.2309  0.3095
 1581SOL    HW116376   1.233   1.941  13.793  0.9188  0.4295 -0.9612
 1581SOL    HW216377   1.150   1.875  13.693 -0.3350  1.1671  0.4349
 1582SOL     OW16378   0.236   0.005   3.419 -0.2770  0.2608  0.1434
 1582SOL    HW116379   0.227   4.649   3.436 -1.0856  0.0034 -1.5932
 1582SOL    HW216380   0.230   0.047   3.505  3.1168  2.0737 -0.4629
 1583SOL     OW16381   0.760   1.522   9.535  0.1436  0.2101  0.0765
 1583SOL    HW116382   0.688   1.585   9.544 -0.7723 -0.8327  0.1390
 1583SOL    HW216383   0.754   1.516   9.439 -0.4817 -2.4557  0.2710
 1584SOL     OW16384   0.524   2.798   5.978 -0.1950  0.2642  0.4326
 1584SOL    HW116385   0.501   2.707   5.960  0.4519  0.1804  0.0235
 1584SOL    HW216386   0.471   2.842   5.911  0.2780 -2.4958 -1.7609
 1585SOL     OW16387   2.779   0.529   0.773  0.0615  0.4598 -0.2905
 1585SOL    HW116388   2.728   0.573   0.841  1.2853 -1.1229  1.6412
 1585SOL    HW216389   2.727   0.450   0.760  0.9780 -0.1557 -0.2608
 1586SOL     OW16390   1.052   2.307   9.061 -0.7882  0.3647 -0.1507
 1586SOL    HW116391   1.022   2.367   8.992  2.2432 -0.2270 -1.9890
 1586SOL    HW216392   0.995   2.234   9.036 -1.7325  0.7464  0.9160
 1587SOL     OW16393   2.002   0.821  10.951 -0.5996  0.0583  0.5796
 1587SOL    HW116394   1.916   0.812  10.991 -0.1278 -1.0520  1.3417
 1587SOL    HW216395   2.049   0.774  11.020  1.6549  1.9347  0.3146
 1588SOL     OW16396   2.672   4.545  14.341  0.4146 -0.0732  0.3616
 1588SOL    HW116397   2.619   4.465  14.335  0.6959 -0.2390  0.1362
 1588SOL    HW216398   2.760   4.511  14.325  0.4293  0.5248 -0.8053
 1589SOL     OW16399   4.528   4.419   5.615 -0.3302 -0.1240 -0.5025
 1589SOL    HW116400   4.519   4.463   5.700 -0.6561 -1.0312 -0.0660
 1589SOL    HW216401   4.443   4.449   5.583 -1.3761  0.3322  2.6500
 1590SOL     OW16402   4.723   1.325   2.008  0.0583  0.1842  0.2786
 1590SOL    HW116403   0.012   1.256   2.069  2.5299  0.9104  0.0500
 1590SOL    HW216404   4.631   1.300   1.997 -0.0329  0.1854  1.0352
 1591SOL     OW16405   2.292   2.493   0.958  0.3281  0.5535 -0.1101
 1591SOL    HW116406   2.256   2.433   1.023  2.0983  1.1095  1.3616
 1591SOL    HW216407   2.348   2.438   0.904 -0.5342  0.7280 -1.1872
 1592SOL     OW16408   3.082   3.938   3.065 -0.6437  0.0546 -0.5902
 1592SOL    HW116409   3.159   3.983   3.102 -1.5756  0.1542  1.2533
 1592SOL    HW216410   3.083   3.858   3.117  1.2138  1.2888  1.2709
 1593SOL     OW16411   2.662   0.250  15.292  0.9097 -0.1642 -0.0043
 1593SOL    HW116412   2.722   0.177  15.272 -0.5740 -1.0061 -1.4105
 1593SOL    HW216413   2.612   0.203  15.358  1.3178 -3.7244 -2.2076
 1594SOL     OW16414   3.936   3.712   7.445 -0.5400 -0.0153 -0.0300
 1594SOL    HW116415   3.995   3.646   7.409 -1.2931  0.0363 -1.3427
 1594SOL    HW216416   3.865   3.666   7.490 -0.1193  0.1104  0.7667
 1595SOL     OW16417   2.694   3.787   4.072  0.4143 -0.8274 -0.3840
 1595SOL    HW116418   2.696   3.713   4.132 -0.3229 -0.6159 -0.1073
 1595SOL    HW216419   2.602   3.812   4.078  1.1076  2.8355 -4.6502
 1596SOL     OW16420   4.707   3.904   9.429  0.2634  0.0355  0.2391
 1596SOL    HW116421   0.063   3.912   9.448 -0.0010  2.1079  0.7007
 1596SOL    HW216422   4.701   3.809   9.436 -1.2427  0.0919 -0.1686
 1597SOL     OW16423   0.655   4.509   7.908  0.1968  0.1652 -0.0838
 1597SOL    HW116424   0.649   4.593   7.952  1.2539  0.9567 -1.4469
 1597SOL    HW216425   0.610   4.535   7.828  0.1289  2.1455  0.5959
 1598SOL     OW16426   2.774   1.512   1.358  0.8313 -0.1451  0.3474
 1598SOL    HW116427   2.824   1.478   1.284  0.8048 -1.4115  0.9233
 1598SOL    HW216428   2.841   1.530   1.425  1.3226 -0.2908 -0.1037
 1599SOL     OW16429   0.916   2.457   9.774 -0.5290 -0.0538  0.6141
 1599SOL    HW116430   0.966   2.440   9.853 -0.6747 -0.2832  0.6554
 1599SOL    HW216431   0.932   2.551   9.757 -0.5292 -0.0275  0.7632
 1600SOL     OW16432   1.297   3.666   6.616  0.2433  0.2606 -0.3206
 1600SOL    HW116433   1.341   3.665   6.701 -1.2776 -1.9198  0.4137
 1600SOL    HW216434   1.247   3.586   6.629  0.5598  0.4316  1.9549
 1601SOL     OW16435   2.604   1.011  11.776 -0.6876  0.1145 -0.2058
 1601SOL    HW116436   2.549   1.089  11.782  0.2467  0.6400  1.3170
 1601SOL    HW216437   2.672   1.056  11.725 -0.6242  1.3735  0.9931
 1602SOL     OW16438   1.769   1.583   3.294 -0.1642  0.3968  0.3003
 1602SOL    HW116439   1.827   1.659   3.290  0.3218  0.0673  1.2429
 1602SOL    HW216440   1.694   1.626   3.335  0.2824 -0.9643  2.5249
 1603SOL     OW16441   2.710   3.871   2.962 -0.2731 -0.2669 -0.0489
 1603SOL    HW116442   2.685   3.953   2.920  1.4890  1.4040  2.1817
 1603SOL    HW216443   2.667   3.816   2.896 -1.3114  0.7660 -0.2238
 1604SOL     OW16444   2.381   0.131   6.251  0.1944 -0.5701 -0.4953
 1604SOL    HW116445   2.411   0.125   6.342  0.1241 -2.8473 -0.6154
 1604SOL    HW216446   2.286   0.128   6.263  0.2267 -0.5641 -0.2276
 1605SOL     OW16447   3.152   0.372  10.521 -0.7429 -0.1041 -0.5425
 1605SOL    HW116448   3.238   0.397  10.490 -1.8816  0.4750 -3.2635
 1605SOL    HW216449   3.176   0.305  10.584 -0.9322  0.4290  0.0993
 1606SOL     OW16450   1.847   2.125   2.835  0.0023  0.1248  0.2253
 1606SOL    HW116451   1.850   2.074   2.916  0.1311  0.4184  0.4048
 1606SOL    HW216452   1.916   2.190   2.846 -1.0224  0.7309  3.1680
 1607SOL     OW16453   0.582   4.270   2.292 -0.2881 -0.0395  0.1644
 1607SOL    HW116454   0.567   4.275   2.386 -0.5328 -0.3592  0.1417
 1607SOL    HW216455   0.532   4.190   2.276 -1.5371  1.2445 -2.4146
 1608SOL     OW16456   3.213   4.460   2.187  0.7057 -0.0208  0.0895
 1608SOL    HW116457   3.229   4.508   2.268  0.5612 -0.6282  0.4793
 1608SOL    HW216458   3.190   4.532   2.129  1.4234  0.9625  1.0202
 1609SOL     OW16459   2.049   0.107   2.939 -0.4998  0.7066  0.3533
 1609SOL    HW116460   1.977   0.141   2.886 -1.5843 -1.1250  0.6568
 1609SOL    HW216461   2.052   0.171   3.010  0.0871  1.5308 -0.4005
 1610SOL     OW16462   1.502   2.497   6.179 -0.0757 -0.5663  0.4792
 1610SOL    HW116463   1.580   2.550   6.158 -1.5196  1.0499 -0.8782
 1610SOL    HW216464   1.453   2.528   6.102 -2.3531 -0.8518  1.8239
 1611SOL     OW16465   3.347   2.807   5.175  0.1628  0.1235  0.1827
 1611SOL    HW116466   3.437   2.805   5.208  0.1681 -1.0839  0.1187
 1611SOL    HW216467   3.299   2.852   5.244  1.4628  0.8249  0.6225
 1612SOL     OW16468   3.212   4.517  16.649 -0.1319  0.1878  0.2607
 1612SOL    HW116469   3.168   4.531  16.733 -1.5930  0.4303 -0.5549
 1612SOL    HW216470   3.230   4.608  16.625  1.6238 -0.5954 -1.3842
 1613SOL     OW16471   4.358   0.766   4.201 -0.0728  0.8452 -0.4776
 1613SOL    HW116472   4.322   0.796   4.118 -0.8378 -0.9698 -0.8137
 1613SOL    HW216473   4.445   0.804   4.190 -0.5484  2.0241 -0.1321
 1614SOL     OW16474   2.555   3.912   8.726 -0.2274  0.1669  0.3565
 1614SOL    HW116475   2.621   3.894   8.793  2.5954 -1.2701 -2.8887
 1614SOL    HW216476   2.485   3.850   8.745  0.8410 -0.4989  2.0938
 1615SOL     OW16477   0.073   3.679  13.730  0.2884 -0.5570  0.2471
 1615SOL    HW116478   4.732   3.708  13.776  0.3667  0.5726 -0.3246
 1615SOL    HW216479   0.030   3.643  13.652  3.4443 -0.2823 -1.6259
 1616SOL     OW16480   3.782   0.643   9.610 -0.1592 -0.0570 -0.3825
 1616SOL    HW116481   3.781   0.713   9.544 -3.0056  2.0386  1.9184
 1616SOL    HW216482   3.712   0.667   9.671 -0.4233 -0.3771 -0.5596
 1617SOL     OW16483   0.705   4.255   8.118  0.2041  0.0218  0.5338
 1617SOL    HW116484   0.786   4.225   8.157 -0.5028 -1.9717  0.4566
 1617SOL    HW216485   0.705   4.343   8.157 -1.7339  0.2901 -0.0391
 1618SOL     OW16486   1.704   4.522   5.047 -0.3242 -0.4703  0.3831
 1618SOL    HW116487   1.615   4.489   5.060  0.1662 -1.1805  1.9173
 1618SOL    HW216488   1.697   4.545   4.954 -1.1461  1.0536  0.8295
 1619SOL     OW16489   0.082   1.794   6.544  0.1073 -0.6191  0.1857
 1619SOL    HW116490   0.002   1.741   6.537 -1.0566  1.3639 -1.6784
 1619SOL    HW216491   0.106   1.758   6.629  1.2530 -0.2739 -0.0005
 1620SOL     OW16492   3.940   4.499   8.182  0.6140  0.0932 -0.0171
 1620SOL    HW116493   3.962   4.518   8.274 -1.1781  0.7866  0.2612
 1620SOL    HW216494   3.877   4.428   8.194 -0.3566  1.0388  0.4711
 1621SOL     OW16495   4.077   2.751   7.517  0.3545  0.1633 -0.2891
 1621SOL    HW116496   4.043   2.811   7.450 -0.3966 -0.0427 -0.0983
 1621SOL    HW216497   4.058   2.806   7.593  1.9449 -0.9187  0.8784
 1622SOL     OW16498   0.329   0.074  16.551 -0.1412 -0.2543 -0.1045
 1622SOL    HW116499   0.319   0.153  16.498  0.7856 -0.0785 -0.0294
 1622SOL    HW216500   0.255   0.083  16.611 -0.6652 -0.7763 -0.6798
 1623SOL     OW16501   0.591   2.537   6.211 -0.1425  0.2102  0.4394
 1623SOL    HW116502   0.542   2.458   6.189  1.1079 -0.1101 -1.1675
 1623SOL    HW216503   0.547   2.580   6.285 -0.1729 -0.5041  0.8348
 1624SOL     OW16504   0.433   2.806  15.422 -0.0312  0.0149 -0.0809
 1624SOL    HW116505   0.358   2.852  15.387  0.0584 -0.7920 -1.3602
 1624SOL    HW216506   0.439   2.747  15.347  0.0525 -1.5874  1.1696
 1625SOL     OW16507   1.847   0.467   5.784 -0.6345 -0.0736 -0.3373
 1625SOL    HW116508   1.856   0.458   5.689  2.4679  2.1990 -0.2594
 1625SOL    HW216509   1.821   0.559   5.792  3.7316  1.1222 -0.1816
 1626SOL     OW16510   3.599   2.096   6.242  0.2809 -0.4363  0.4270
 1626SOL    HW116511   3.507   2.105   6.214  0.4403  1.5698  0.4984
 1626SOL    HW216512   3.595   2.148   6.322  2.4848  0.8852 -0.3014
 1627SOL     OW16513   1.801   0.789  11.116  0.1211 -0.2396 -0.0173
 1627SOL    HW116514   1.774   0.806  11.206 -2.6577  1.9834 -1.2518
 1627SOL    HW216515   1.737   0.728  11.079 -0.9697  1.2852 -0.6543
 1628SOL     OW16516   3.189   4.359   0.625  0.6438 -0.0588  0.2631
 1628SOL    HW116517   3.193   4.440   0.573  2.5257 -1.1683 -1.3283
 1628SOL    HW216518   3.197   4.291   0.558  3.5804 -0.6761  1.2927
 1629SOL     OW16519   0.043   3.749   1.922 -0.1698 -0.2795  0.0174
 1629SOL    HW116520   4.720   3.818   1.952 -0.4446 -0.5009 -0.0217
 1629SOL    HW216521   4.730   3.702   1.856 -1.4233  1.1398 -0.0373
 1630SOL     OW16522   4.613   2.770  16.760 -0.2450  0.5577  0.2749
 1630SOL    HW116523   4.581   2.843  16.814 -0.2019 -0.8906  2.2411
 1630SOL    HW216524   4.681   2.819  16.713 -0.4692  0.8959  0.3035
 1631SOL     OW16525   1.640   3.571   4.837 -0.7057 -0.5012 -0.0413
 1631SOL    HW116526   1.714   3.549   4.780  1.3607  0.7504  2.1563
 1631SOL    HW216527   1.638   3.488   4.885 -2.2996 -0.2740  0.2880
 1632SOL     OW16528   3.147   0.084   8.802 -0.1287  0.5423  0.4721
 1632SOL    HW116529   3.063   0.103   8.759 -0.6331  2.0640  2.1177
 1632SOL    HW216530   3.200   0.160   8.776  2.3662 -1.4889 -0.2969
 1633SOL     OW16531   1.979   1.606   2.619  0.2880  0.2626 -0.6011
 1633SOL    HW116532   1.951   1.685   2.664 -0.3740 -0.3791  0.1262
 1633SOL    HW216533   1.962   1.639   2.530 -1.2222  0.6737 -0.1596
 1634SOL     OW16534   0.166   2.708   7.316  0.3373 -0.1623  0.7006
 1634SOL    HW116535   0.245   2.762   7.322  1.6910 -2.0014 -0.6928
 1634SOL    HW216536   0.119   2.720   7.399  0.2746  0.7485  0.5322
 1635SOL     OW16537   3.644   0.397   1.762 -0.1794 -0.2898 -0.3996
 1635SOL    HW116538   3.645   0.442   1.678  0.5311 -3.0157 -1.8167
 1635SOL    HW216539   3.660   0.307   1.734  0.9656  0.1709 -1.2277
 1636SOL     OW16540   0.905   4.541   2.106  0.0162  0.4040  0.2271
 1636SOL    HW116541   0.912   4.554   2.200  1.2049  0.0182  0.1943
 1636SOL    HW216542   0.815   4.539   2.073 -0.4036 -0.3532  1.4134
 1637SOL     OW16543   0.730   2.524   2.735 -0.2250 -0.0515 -0.1480
 1637SOL    HW116544   0.708   2.513   2.827 -0.6324  1.1720 -0.0917
 1637SOL    HW216545   0.813   2.477   2.734 -1.6995 -2.6394 -2.0904
 1638SOL     OW16546   4.250   3.605   2.376  0.2271 -1.0021  0.7057
 1638SOL    HW116547   4.237   3.693   2.410  0.9132 -0.5958 -0.0766
 1638SOL    HW216548   4.324   3.570   2.426  2.0312  2.8155  0.6501
 1639SOL     OW16549   3.205   1.683   4.086 -0.4022 -0.1143  0.5738
 1639SOL    HW116550   3.254   1.764   4.074 -0.3744 -0.3740 -1.0522
 1639SOL    HW216551   3.127   1.699   4.033 -1.2270 -0.1962  1.7826
 1640SOL     OW16552   1.130   0.565   2.570  0.3250  0.1971  0.4462
 1640SOL    HW116553   1.143   0.545   2.477 -0.8782 -0.0684  0.3462
 1640SOL    HW216554   1.218   0.540   2.600 -0.2985 -3.5817 -0.8371
 1641SOL     OW16555   0.276   1.865   6.328  0.4996 -0.1823 -0.2971
 1641SOL    HW116556   0.230   1.789   6.292  0.1208 -1.4809  2.9558
 1641SOL    HW216557   0.240   1.853   6.416  0.3915 -4.5034 -0.9291
 1642SOL     OW16558   3.405   4.673   0.779 -0.6080 -0.2375  0.3201
 1642SOL    HW116559   3.498   4.691   0.771 -0.6775 -0.3633 -0.7091
 1642SOL    HW216560   3.405   4.578   0.769 -1.3655 -0.2177  0.0728
 1643SOL     OW16561   3.250   0.841   4.514  0.3775  0.6588 -0.0405
 1643SOL    HW116562   3.201   0.917   4.485 -2.2827 -1.5776 -1.3669
 1643SOL    HW216563   3.261   0.850   4.609 -1.1357  0.6154  0.1325
 1644SOL     OW16564   1.150   3.266   5.577 -0.3683 -0.2048 -0.1184
 1644SOL    HW116565   1.113   3.338   5.527 -0.5575 -0.0270  0.2806
 1644SOL    HW216566   1.242   3.293   5.578 -0.4904  0.2795 -2.7189
 1645SOL     OW16567   2.001   0.880   5.507  0.3380 -0.0016 -0.0887
 1645SOL    HW116568   1.979   0.844   5.593  0.4372 -1.1441 -0.5468
 1645SOL    HW216569   1.944   0.957   5.509  0.3309 -0.0681  2.0369
 1646SOL     OW16570   0.883   1.248  12.175  0.3757 -0.0334 -0.1423
 1646SOL    HW116571   0.958   1.248  12.233  0.9461  1.6562 -0.8895
 1646SOL    HW216572   0.813   1.221  12.234  0.6442  0.4060  0.3681
 1647SOL     OW16573   4.540   1.406   7.279 -0.4109 -0.0049  0.2371
 1647SOL    HW116574   4.511   1.456   7.354  0.3887 -1.2660  1.3885
 1647SOL    HW216575   4.455   1.396   7.235 -0.3442 -0.6887  0.2626
 1648SOL     OW16576   0.824   4.722  12.561  0.4291  0.0865  0.6209
 1648SOL    HW116577   0.748   4.685  12.607  2.0468 -0.3951  2.8570
 1648SOL    HW216578   0.806   4.696  12.470  1.0565  1.0159  0.2386
 1649SOL     OW16579   1.613   0.619   7.807 -1.0566  0.0870  0.4553
 1649SOL    HW116580   1.705   0.607   7.784 -1.3536  0.0783 -0.6950
 1649SOL    HW216581   1.609   0.711   7.833 -0.7980  0.2706 -0.1696
 1650SOL     OW16582   1.709   3.420   2.293  0.1785  0.1619  0.3412
 1650SOL    HW116583   1.614   3.422   2.288  0.0653 -0.5007  2.1287
 1650SOL    HW216584   1.719   3.348   2.355  0.9786 -0.0731 -0.0629
 1651SOL     OW16585   3.727   1.842   7.418  0.2082 -0.4812  0.1681
 1651SOL    HW116586   3.681   1.790   7.352  1.4051 -1.7654  0.3447
 1651SOL    HW216587   3.713   1.782   7.491 -1.0373 -0.7573 -0.2983
 1652SOL     OW16588   0.136   0.044  12.306  0.2622 -0.1666  0.1601
 1652SOL    HW116589   0.111   4.697  12.267  0.2839 -0.7726  1.4420
 1652SOL    HW216590   0.109   0.103  12.236 -0.3845 -1.3042 -0.5523
 1653SOL     OW16591   1.344   2.753   8.725  0.3997 -0.5795 -0.5071
 1653SOL    HW116592   1.406   2.729   8.657 -1.2469 -0.3420 -2.0743
 1653SOL    HW216593   1.263   2.738   8.677 -0.9066  1.8583  0.9185
 1654SOL     OW16594   0.601   0.397   3.405 -0.5083  0.0607  0.1907
 1654SOL    HW116595   0.677   0.395   3.347  0.9457  0.4001  2.0714
 1654SOL    HW216596   0.547   0.325   3.372  0.0988  0.2027 -1.1294
 1655SOL     OW16597   1.394   3.633  17.507  0.5402 -0.2853  0.6087
 1655SOL    HW116598   1.427   3.699  17.569 -0.9263 -0.0772  1.1626
 1655SOL    HW216599   1.478   3.613  17.465 -0.2320  0.9614 -1.5106
 1656SOL     OW16600   3.286   1.755   6.008  0.3227 -0.5252 -0.3191
 1656SOL    HW116601   3.365   1.707   6.033  0.4962 -0.4846 -0.7949
 1656SOL    HW216602   3.282   1.815   6.083 -0.4927  0.6369 -1.3006
 1657SOL     OW16603   4.462   1.658  10.444  0.0868  0.6909 -0.7867
 1657SOL    HW116604   4.390   1.600  10.417  0.3046 -0.5852  1.3912
 1657SOL    HW216605   4.429   1.747  10.439  0.2092  0.7733 -0.0992
 1658SOL     OW16606   3.999   4.566   8.451  0.3434 -0.1779  0.2302
 1658SOL    HW116607   4.024   4.496   8.511 -0.3433 -2.4434 -2.0894
 1658SOL    HW216608   4.057   4.635   8.483 -1.5156  2.0304 -1.1335
 1659SOL     OW16609   0.494   4.619   0.266  0.0181 -0.4961 -0.0354
 1659SOL    HW116610   0.439   4.582   0.335  2.0270 -0.4197  1.6003
 1659SOL    HW216611   0.551   4.672   0.322 -0.7050 -1.6143  1.7626
 1660SOL     OW16612   2.145   3.616   3.864  0.2964  0.2632  0.3032
 1660SOL    HW116613   2.093   3.639   3.787  2.2982 -2.2661 -1.8143
 1660SOL    HW216614   2.085   3.565   3.919 -1.7373 -1.2311 -3.2812
 1661SOL     OW16615   3.183   0.739  11.689  0.1078  0.7233 -0.5484
 1661SOL    HW116616   3.227   0.769  11.769  1.1571  0.3139 -0.9814
 1661SOL    HW216617   3.231   0.779  11.617 -0.3485  1.2178 -0.5773
 1662SOL     OW16618   1.912   2.547   6.520 -0.0506  0.3857 -0.4358
 1662SOL    HW116619   1.908   2.624   6.464  1.8662  0.9943  0.2951
 1662SOL    HW216620   1.852   2.570   6.591 -0.2049 -1.4583  0.0397
 1663SOL     OW16621   0.371   2.639   9.807  0.0324 -0.1718 -0.5196
 1663SOL    HW116622   0.466   2.643   9.798 -0.0809  1.2286 -1.1731
 1663SOL    HW216623   0.341   2.549   9.794 -3.6118  1.1084 -1.0159
 1664SOL     OW16624   3.495   3.976   2.832  0.2860  0.1046  0.3118
 1664SOL    HW116625   3.510   3.888   2.867 -1.2037  0.0507  0.8237
 1664SOL    HW216626   3.412   3.970   2.784  1.0310  0.0196 -0.9670
 1665SOL     OW16627   4.112   1.938   3.585 -0.4093  0.1373 -0.2144
 1665SOL    HW116628   4.158   2.016   3.617 -2.0904  0.3000  1.7709
 1665SOL    HW216629   4.101   1.880   3.660  0.4363  1.7093  1.1388
 1666SOL     OW16630   1.767   3.203   9.428 -0.2312 -0.5548 -0.2028
 1666SOL    HW116631   1.688   3.230   9.381 -0.5531 -0.5253  0.3601
 1666SOL    HW216632   1.807   3.144   9.364  0.1062 -0.3009 -0.2260
 1667SOL     OW16633   4.452   0.814   3.885 -0.1824 -0.1880  0.3924
 1667SOL    HW116634   4.383   0.879   3.896 -0.3785 -0.2895 -0.2457
 1667SOL    HW216635   4.401   0.735   3.903  0.0090 -0.5334 -0.5820
 1668SOL     OW16636   1.363   3.066   4.567 -0.2305 -0.2431  0.0802
 1668SOL    HW116637   1.427   3.132   4.592 -1.3652  0.8789  0.0372
 1668SOL    HW216638   1.383   3.067   4.474  1.3517  1.1396  0.4243
 1669SOL     OW16639   4.292   4.097   8.808  0.0412 -0.1255  0.4627
 1669SOL    HW116640   4.379   4.132   8.826  0.6393 -1.6878  0.5491
 1669SOL    HW216641   4.314   4.050   8.728 -1.9037  0.5582 -0.4794
 1670SOL     OW16642   1.299   1.372   9.837  0.4659 -0.2820  0.5246
 1670SOL    HW116643   1.363   1.302   9.829  0.0170 -0.7547  1.0899
 1670SOL    HW216644   1.300   1.403   9.746 -1.6869 -0.0548  0.5902
 1671SOL     OW16645   0.082   3.536  12.189  0.0008 -0.0531  0.5012
 1671SOL    HW116646   0.172   3.540  12.220 -0.5706 -0.7101  2.2736
 1671SOL    HW216647   0.093   3.574  12.102  0.2745  0.2481  0.6689
 1672SOL     OW16648   3.623   3.179  17.508 -0.2816 -0.1119  0.2423
 1672SOL    HW116649   3.685   3.168  17.580 -0.9525  0.1356  0.8595
 1672SOL    HW216650   3.674   3.249  17.466 -0.4992  0.5529  1.0969
 1673SOL     OW16651   1.571   2.009  11.068  0.2670 -0.6540 -0.2864
 1673SOL    HW116652   1.602   2.097  11.048 -1.6308 -0.3670 -2.0405
 1673SOL    HW216653   1.649   1.957  11.048  1.0320  0.0702  0.8208
 1674SOL     OW16654   4.067   3.215   1.726 -0.0726 -0.6562 -0.7129
 1674SOL    HW116655   4.047   3.285   1.787  1.9732  1.1309 -2.1055
 1674SOL    HW216656   4.149   3.178   1.756 -1.6060 -4.9722 -1.8297
 1675SOL     OW16657   3.575   4.052   4.024  0.7434 -0.0632 -0.6415
 1675SOL    HW116658   3.524   4.126   3.992  1.8442  1.0900  0.2619
 1675SOL    HW216659   3.526   4.033   4.104 -0.1792 -0.6402 -1.3370
 1676SOL     OW16660   2.937   2.046   2.938  0.5440 -0.1713  0.3017
 1676SOL    HW116661   2.949   2.048   2.843 -0.1357 -1.1104  0.1943
 1676SOL    HW216662   2.943   1.952   2.951 -4.4152 -0.4337  0.5926
 1677SOL     OW16663   0.653   4.498  10.575 -0.1837  0.3608 -0.5482
 1677SOL    HW116664   0.649   4.592  10.558 -1.9031  0.3092 -0.4403
 1677SOL    HW216665   0.748   4.494  10.580 -0.2391 -0.2002 -0.0620
 1678SOL     OW16666   1.574   3.503   6.048 -0.4129  0.3931  0.5745
 1678SOL    HW116667   1.598   3.410   6.054 -1.4906  0.1200  0.5397
 1678SOL    HW216668   1.656   3.550   6.065 -1.4146  2.5861 -0.6485
 1679SOL     OW16669   1.294   1.039   4.191  0.1299  0.0346  0.2147
 1679SOL    HW116670   1.353   0.995   4.252  0.8723  1.1058  0.2752
 1679SOL    HW216671   1.307   0.989   4.110 -0.2485  0.7043 -0.2596
 1680SOL     OW16672   4.464   3.660   4.299  0.0863 -0.1751 -0.4293
 1680SOL    HW116673   4.508   3.659   4.213  0.7011 -5.6188 -0.0033
 1680SOL    HW216674   4.372   3.649   4.276 -0.1387 -0.4891  0.6373
 1681SOL     OW16675   3.878   0.444   2.497 -0.2122  0.6680  0.1741
 1681SOL    HW116676   3.782   0.450   2.496 -0.0932  2.8861  0.6107
 1681SOL    HW216677   3.888   0.354   2.467  2.1064  0.8703  0.3291
 1682SOL     OW16678   0.977   3.072   4.345  0.7436  0.3029  0.4980
 1682SOL    HW116679   0.925   3.000   4.380 -0.4385 -0.0562 -2.0138
 1682SOL    HW216680   0.921   3.083   4.268  0.8127  3.2847  0.8551
 1683SOL     OW16681   0.348   2.088   1.988  0.1879  0.1298  0.6515
 1683SOL    HW116682   0.391   2.170   1.962  0.0769  0.3319  1.0955
 1683SOL    HW216683   0.267   2.095   1.938  0.0768 -0.5644  0.7455
 1684SOL     OW16684   2.893   4.592   3.259 -0.3753 -0.1931 -0.2167
 1684SOL    HW116685   2.839   4.631   3.191  1.7560  0.5897 -1.4645
 1684SOL    HW216686   2.956   4.549   3.202 -1.5220 -0.4138 -1.2998
 1685SOL     OW16687   4.616   3.218   0.568  0.2358  0.0236  0.1323
 1685SOL    HW116688   4.521   3.222   0.581 -0.1122  0.7181 -2.6288
 1685SOL    HW216689   4.627   3.144   0.509 -0.7613  0.0152 -0.0410
 1686SOL     OW16690   0.417   2.315  13.955  0.0989  0.3453 -0.5159
 1686SOL    HW116691   0.500   2.315  14.004 -0.3548  0.3612  0.2613
 1686SOL    HW216692   0.357   2.343  14.024  0.0492 -1.0183 -0.0042
 1687SOL     OW16693   2.124   3.139   5.982  0.4259 -0.3617 -0.4925
 1687SOL    HW116694   2.047   3.089   5.953  1.5542 -1.5380 -1.4681
 1687SOL    HW216695   2.125   3.207   5.915  1.3343  1.0101  0.9135
 1688SOL     OW16696   4.332   0.533  16.139 -0.2143  0.6952  0.2242
 1688SOL    HW116697   4.341   0.508  16.047  2.3896  1.7990  0.1629
 1688SOL    HW216698   4.268   0.604  16.130 -0.5977  0.5637  1.8569
 1689SOL     OW16699   3.188   2.143   6.547 -0.4727 -0.7075 -0.0306
 1689SOL    HW116700   3.212   2.051   6.536 -0.9860 -0.7617 -0.7112
 1689SOL    HW216701   3.116   2.129   6.608  0.7536  0.1579  1.6342
 1690SOL     OW16702   3.573   2.216   9.525 -0.2723 -0.0548  0.6431
 1690SOL    HW116703   3.607   2.136   9.486  0.6365  0.8796 -0.4864
 1690SOL    HW216704   3.603   2.197   9.614 -2.7688  0.9162  1.6988
 1691SOL     OW16705   1.774   4.032   9.888 -0.2338 -0.1611 -0.6066
 1691SOL    HW116706   1.722   4.039   9.808  0.4477 -0.2913 -1.0608
 1691SOL    HW216707   1.712   3.985   9.943  2.4899 -2.8291  0.2075
 1692SOL     OW16708   1.610   1.805   1.507  0.1060  0.7869 -0.1369
 1692SOL    HW116709   1.574   1.739   1.448  0.4207  1.4629 -1.1004
 1692SOL    HW216710   1.697   1.777   1.534 -0.0142  0.5147 -0.0399
 1693SOL     OW16711   3.894   3.832   3.778 -0.0279 -0.0346  0.2119
 1693SOL    HW116712   3.970   3.851   3.723 -0.3095  0.2348 -0.0918
 1693SOL    HW216713   3.907   3.894   3.850 -2.2217  0.7317 -0.0345
 1694SOL     OW16714   1.457   0.978   1.055  0.3046 -0.3698  0.2525
 1694SOL    HW116715   1.430   0.888   1.038  1.1826  0.0842 -3.4535
 1694SOL    HW216716   1.426   1.014   0.972 -0.7712 -3.0414 -0.4995
 1695SOL     OW16717   3.696   0.223   0.697  0.2330 -0.7667 -0.3388
 1695SOL    HW116718   3.609   0.261   0.709  1.2378  1.1962  0.6909
 1695SOL    HW216719   3.681   0.141   0.650  1.5860  0.6626 -3.2771
 1696SOL     OW16720   0.468   4.202   5.510  0.0753  0.4595 -0.5478
 1696SOL    HW116721   0.459   4.259   5.586 -2.9381  0.4823 -0.9131
 1696SOL    HW216722   0.546   4.150   5.529 -0.2817 -1.2229 -3.7307
 1697SOL     OW16723   2.611   1.352   1.958  0.2129  0.1219  0.0098
 1697SOL    HW116724   2.533   1.337   1.904  0.0168  0.0922  0.3044
 1697SOL    HW216725   2.677   1.339   1.890  1.9981  1.5550  1.4907
 1698SOL     OW16726   3.200   2.423   9.878  0.3961  0.1423 -0.2012
 1698SOL    HW116727   3.231   2.365   9.808 -0.0380  1.4309 -1.4757
 1698SOL    HW216728   3.205   2.363   9.952 -0.5980  0.0814 -0.1758
 1699SOL     OW16729   1.381   0.112   4.810 -0.3187 -0.4188  0.3098
 1699SOL    HW116730   1.418   0.127   4.897  2.2404 -0.2771 -0.8131
 1699SOL    HW216731   1.289   0.111   4.839 -0.8936 -1.0083 -1.4884
 1700SOL     OW16732   3.564   3.800   7.523 -0.2803  0.1421  0.4108
 1700SOL    HW116733   3.627   3.735   7.555 -0.2001 -0.2050 -0.4567
 1700SOL    HW216734   3.508   3.746   7.468 -1.1271  0.1142  1.3039
 1701SOL     OW16735   3.842   1.750  15.185 -0.1577  0.1518  0.2632
 1701SOL    HW116736   3.884   1.836  15.187  1.0147 -0.4029 -0.2289
 1701SOL    HW216737   3.825   1.740  15.278  2.0457 -2.5429  0.3803
 1702SOL     OW16738   3.904   4.626  11.356 -0.3652 -0.7090 -0.8041
 1702SOL    HW116739   3.854   4.546  11.375 -0.1735 -0.4248  0.9540
 1702SOL    HW216740   3.916   4.619  11.262 -1.3725 -0.9737 -0.9208
 1703SOL     OW16741   2.957   2.150  15.835 -0.3163  0.0721  0.0693
 1703SOL    HW116742   2.907   2.099  15.899 -0.8082  0.7397  0.2046
 1703SOL    HW216743   2.998   2.082  15.781  1.9116  0.9393  0.6358
 1704SOL     OW16744   2.358   3.719   4.400  0.1016 -0.4931  0.7706
 1704SOL    HW116745   2.393   3.639   4.361  0.2907 -0.0925  0.1280
 1704SOL    HW216746   2.407   3.794   4.366 -1.0676  0.5882  1.4657
 1705SOL     OW16747   0.886   2.109   5.837 -0.1646  0.6674  0.1517
 1705SOL    HW116748   0.949   2.151   5.896 -2.6032  1.9850  1.7771
 1705SOL    HW216749   0.862   2.186   5.786  1.8154  0.5508 -0.9488
 1706SOL     OW16750   3.321   4.593  13.806 -0.3887 -0.5021  0.3091
 1706SOL    HW116751   3.353   4.681  13.791 -0.2088 -0.3781  1.3980
 1706SOL    HW216752   3.228   4.600  13.785 -0.8528 -3.1498  1.4965
 1707SOL     OW16753   0.187   0.241   5.936 -0.7951  0.2410  0.0362
 1707SOL    HW116754   0.096   0.266   5.916 -0.4159  1.9808  0.5552
 1707SOL    HW216755   0.240   0.307   5.893  0.1116  0.0668  0.8875
 1708SOL     OW16756   3.440   4.320   4.959  0.6993  0.5411  0.2716
 1708SOL    HW116757   3.386   4.317   4.881 -2.0766 -0.5402  2.2208
 1708SOL    HW216758   3.427   4.234   5.000  0.1003  1.1497  1.3785
 1709SOL     OW16759   2.204   3.285  10.816  0.4153 -0.5298 -0.6644
 1709SOL    HW116760   2.266   3.311  10.748  0.3367  0.5698 -0.3047
 1709SOL    HW216761   2.132   3.347  10.804  0.7139 -0.4124 -1.8002
 1710SOL     OW16762   1.463   3.416   3.153 -0.6461  0.0685  0.8062
 1710SOL    HW116763   1.541   3.363   3.139 -0.4067  1.5036 -3.1204
 1710SOL    HW216764   1.505   3.484   3.206 -0.6096 -0.7555  1.8301
 1711SOL     OW16765   4.547   2.394   3.636  0.2002  0.1140  0.4778
 1711SOL    HW116766   4.598   2.313   3.642  0.3741  0.0316 -2.2199
 1711SOL    HW216767   4.504   2.395   3.721  2.3648  0.2693  1.5626
 1712SOL     OW16768   0.777   2.808  12.277 -0.1928  0.3622  0.3579
 1712SOL    HW116769   0.797   2.785  12.368 -0.1255  0.8096  0.4570
 1712SOL    HW216770   0.863   2.820  12.238 -0.3839 -1.5974 -0.6615
 1713SOL     OW16771   0.840   1.572   3.484  0.0414  0.0424 -0.4749
 1713SOL    HW116772   0.749   1.564   3.455 -0.1186 -0.3004  0.1296
 1713SOL    HW216773   0.871   1.620   3.407  2.9523  0.4600  0.9301
 1714SOL     OW16774   4.626   0.699   1.697 -0.0964 -0.2018 -0.3064
 1714SOL    HW116775   4.661   0.611   1.686  0.2131 -0.2167  0.7644
 1714SOL    HW216776   4.531   0.689   1.691 -0.6254  4.7141 -0.2845
 1715SOL     OW16777   3.100   1.355   4.121  0.2225 -0.5484  0.1791
 1715SOL    HW116778   3.081   1.427   4.181 -0.2995  0.2169 -0.8953
 1715SOL    HW216779   3.028   1.362   4.058  0.2318  1.9709  0.4492
 1716SOL     OW16780   0.176   2.280   3.576 -0.0203 -0.0809  0.3802
 1716SOL    HW116781   0.197   2.191   3.548  0.5319 -0.8002  3.0380
 1716SOL    HW216782   0.109   2.260   3.641  0.3234 -1.4659  0.3107
 1717SOL     OW16783   1.027   1.766   2.849  0.4600 -0.5384  0.3471
 1717SOL    HW116784   1.088   1.807   2.910 -0.6110  1.3425  0.1531
 1717SOL    HW216785   1.070   1.681   2.854 -0.1149 -0.7746  1.2165
 1718SOL     OW16786   0.766   2.225   2.693  0.1451 -0.3279  0.5265
 1718SOL    HW116787   0.749   2.168   2.767  0.9234  1.2915  1.9652
 1718SOL    HW216788   0.704   2.294   2.717 -0.1811 -0.4138 -0.0860
 1719SOL     OW16789   2.299   1.802  13.764  0.0993 -0.0251 -0.0847
 1719SOL    HW116790   2.278   1.886  13.806  2.5226  1.2911 -1.5196
 1719SOL    HW216791   2.264   1.830  13.679  0.6564  1.8873  0.3040
 1720SOL     OW16792   2.517   4.479   5.467 -0.3439  0.4000  0.1111
 1720SOL    HW116793   2.565   4.399   5.491 -0.6247 -0.2187 -1.3761
 1720SOL    HW216794   2.560   4.553   5.511  1.0337 -0.3266 -0.0264
 1721SOL     OW16795   3.208   3.817   6.730 -0.8502 -0.0119  0.2089
 1721SOL    HW116796   3.280   3.781   6.783 -1.7663 -0.2890  1.2681
 1721SOL    HW216797   3.259   3.866   6.665  0.5191  0.1801  1.4167
 1722SOL     OW16798   2.265   1.081   4.057  0.0627  0.2781 -0.3807
 1722SOL    HW116799   2.328   1.123   3.999  0.4515 -0.9698 -0.8556
 1722SOL    HW216800   2.198   1.058   3.993 -0.3085 -0.1588  0.1670
 1723SOL     OW16801   3.794   4.380   7.956  0.3204 -0.6435  0.4579
 1723SOL    HW116802   3.850   4.453   7.982  1.4768 -1.8563  1.3727
 1723SOL    HW216803   3.856   4.328   7.905 -0.8574 -1.0228 -0.5931
 1724SOL     OW16804   4.139   2.334   3.706  0.3236  0.1201 -0.4311
 1724SOL    HW116805   4.161   2.427   3.716  2.0986 -0.6400  2.8205
 1724SOL    HW216806   4.218   2.282   3.692  0.4408 -0.1692  1.3274
 1725SOL     OW16807   1.981   4.193   5.552  0.3905  0.2089  0.3119
 1725SOL    HW116808   1.971   4.208   5.646  2.6221 -0.3917  0.6501
 1725SOL    HW216809   2.005   4.281   5.522 -0.7225  0.7228  0.9022
 1726SOL     OW16810   1.355   2.535   6.437 -0.3746  0.0574 -0.1392
 1726SOL    HW116811   1.402   2.598   6.491 -0.9129  1.6409 -1.5276
 1726SOL    HW216812   1.412   2.513   6.363  0.2654  1.2075  0.0122
 1727SOL     OW16813   3.831   3.840   8.480 -0.1447  0.2838  0.2630
 1727SOL    HW116814   3.782   3.861   8.400  2.0657  0.3463 -1.0725
 1727SOL    HW216815   3.852   3.929   8.506 -1.5976  1.7443 -3.5628
 1728SOL     OW16816   1.676   3.882   8.931  0.1866  0.0037 -0.3298
 1728SOL    HW116817   1.670   3.787   8.943  1.8611  0.1512  1.7563
 1728SOL    HW216818   1.632   3.889   8.847 -1.4167  0.4280  0.5606
 1729SOL     OW16819   2.384   2.321   3.155 -0.1112 -0.1987 -0.1563
 1729SOL    HW116820   2.480   2.316   3.162 -0.3045 -3.6197 -0.0283
 1729SOL    HW216821   2.350   2.308   3.243 -1.3813 -1.2354 -0.7957
 1730SOL     OW16822   4.073   3.988   0.202 -0.4858  0.2734  0.1629
 1730SOL    HW116823   4.075   3.936   0.282 -1.7795  0.6825  0.4557
 1730SOL    HW216824   4.151   4.045   0.205 -0.2954  0.1019 -1.5012
 1731SOL     OW16825   2.720   0.477   5.727  0.0423  0.7253  0.0919
 1731SOL    HW116826   2.766   0.395   5.745  0.1301  0.4698 -1.2605
 1731SOL    HW216827   2.795   0.536   5.716  0.3649  0.4963  1.0627
 1732SOL     OW16828   4.102   0.508   3.776  0.0271  0.3671  0.4359
 1732SOL    HW116829   4.053   0.575   3.728 -0.3939 -2.4696 -3.0784
 1732SOL    HW216830   4.179   0.505   3.720 -0.9725 -3.6911 -0.7123
 1733SOL     OW16831   3.442   1.393   6.748 -0.1589 -0.4476  0.2753
 1733SOL    HW116832   3.421   1.390   6.655 -0.6416  0.3103  0.3650
 1733SOL    HW216833   3.356   1.389   6.790 -0.1933  0.4966  0.2988
 1734SOL     OW16834   1.312   0.873  15.648 -0.3214 -0.2034  0.4375
 1734SOL    HW116835   1.234   0.818  15.648  0.0256 -0.7099 -1.6925
 1734SOL    HW216836   1.378   0.828  15.699  1.5493 -0.5886 -2.3191
 1735SOL     OW16837   2.447   2.748   4.849 -0.5254 -0.7412  0.4096
 1735SOL    HW116838   2.453   2.816   4.916  0.6735 -0.9602  0.5283
 1735SOL    HW216839   2.515   2.778   4.788  0.2789 -0.8585  1.2439
 1736SOL     OW16840   1.387   1.637  13.654  0.4014  0.4394  0.4816
 1736SOL    HW116841   1.321   1.569  13.665  0.4076  0.2515 -0.7069
 1736SOL    HW216842   1.331   1.709  13.684 -0.0394 -0.6838  2.4031
 1737SOL     OW16843   2.344   0.896  14.187 -0.6264 -0.1938 -0.1855
 1737SOL    HW116844   2.309   0.982  14.161 -2.7938 -0.3280  2.2704
 1737SOL    HW216845   2.400   0.873  14.114  0.3511  0.6247  0.3098
 1738SOL     OW16846   3.530   1.533  16.720 -0.2204  0.5826  0.0751
 1738SOL    HW116847   3.492   1.620  16.731  0.8151  0.8069  1.7793
 1738SOL    HW216848   3.579   1.521  16.801 -1.0641 -1.8079  0.2247
 1739SOL     OW16849   2.398   4.034   6.154  0.3957  0.3625  0.3146
 1739SOL    HW116850   2.352   4.006   6.233 -1.0001 -0.2837 -0.7102
 1739SOL    HW216851   2.487   4.048   6.185  1.5675 -1.5965 -2.1288
 1740SOL     OW16852   2.239   1.386   0.743  0.2606  0.2339 -0.5039
 1740SOL    HW116853   2.315   1.427   0.785  0.5884 -0.9308  0.0236
 1740SOL    HW216854   2.265   1.400   0.652  2.6136  0.8002  0.2460
 1741SOL     OW16855   1.863   3.336   7.856 -0.5779  0.2266 -0.1113
 1741SOL    HW116856   1.913   3.415   7.878 -0.7063  0.4379 -0.5771
 1741SOL    HW216857   1.924   3.292   7.797 -0.2494  1.4186 -0.6670
 1742SOL     OW16858   0.585   2.182   5.216 -0.0423 -0.3994  0.5556
 1742SOL    HW116859   0.634   2.229   5.284 -0.8417 -0.6616  1.3089
 1742SOL    HW216860   0.549   2.262   5.178 -1.1688 -0.7292  0.9281
 1743SOL     OW16861   0.594   1.180   6.240  0.1142  0.1742  0.8339
 1743SOL    HW116862   0.558   1.092   6.249  2.5272 -1.0925 -1.7706
 1743SOL    HW216863   0.664   1.178   6.306 -0.1778 -2.0230  1.0632
 1744SOL     OW16864   0.437   1.191   3.357 -0.5901  0.0212 -0.2568
 1744SOL    HW116865   0.396   1.115   3.398 -1.7252  0.6839 -0.1622
 1744SOL    HW216866   0.493   1.150   3.291  1.6034 -0.0426  1.6253
 1745SOL     OW16867   3.329   2.846   5.542  0.2082  0.4569 -0.2151
 1745SOL    HW116868   3.243   2.877   5.568 -0.8938 -0.4101 -2.8419
 1745SOL    HW216869   3.308   2.759   5.509  0.2309  0.9825 -1.6237
 1746SOL     OW16870   1.003   0.879   5.981 -0.0104 -0.1632 -0.4670
 1746SOL    HW116871   0.922   0.898   5.933  0.2124  0.9620 -0.4034
 1746SOL    HW216872   0.982   0.921   6.064  0.0433 -1.1719  0.0577
 1747SOL     OW16873   1.013   1.402   8.554  0.3875  0.0794  0.2661
 1747SOL    HW116874   0.976   1.489   8.566 -0.5667 -0.2877  0.0131
 1747SOL    HW216875   1.066   1.394   8.633 -1.7035 -0.1729  1.6309
 1748SOL     OW16876   0.711   1.171   1.311 -0.3646 -0.4539 -0.3784
 1748SOL    HW116877   0.803   1.194   1.323  0.2312 -1.9223 -2.1026
 1748SOL    HW216878   0.710   1.075   1.305 -0.1910 -0.2565 -3.4056
 1749SOL     OW16879   1.013   2.617  11.028 -0.0817  0.3661 -0.1818
 1749SOL    HW116880   1.012   2.588  10.937 -1.9825 -0.1463  0.0080
 1749SOL    HW216881   0.988   2.708  11.012 -1.2336  0.1568  0.4444
 1750SOL     OW16882   4.613   0.371  16.377 -0.3735  0.4276  0.4506
 1750SOL    HW116883   4.577   0.460  16.384 -1.1795  0.0369  1.1635
 1750SOL    HW216884   4.602   0.357  16.471 -2.5512  1.1140  0.2922
 1751SOL     OW16885   1.105   4.589   5.914 -0.3515  0.0220 -0.1741
 1751SOL    HW116886   1.184   4.623   5.871  0.8037 -2.2262  0.1615
 1751SOL    HW216887   1.049   4.578   5.837 -0.8705 -0.6549  0.3114
 1752SOL     OW16888   0.022   3.876   7.373 -1.1669 -0.1111 -0.3500
 1752SOL    HW116889   4.690   3.918   7.322 -0.5352  0.6711 -0.5523
 1752SOL    HW216890   0.002   3.915   7.458  0.8432  2.6025 -1.1402
 1753SOL     OW16891   1.335   2.963  12.314 -0.3787 -0.0089 -0.2808
 1753SOL    HW116892   1.400   2.989  12.379 -1.0906 -1.8920  1.1895
 1753SOL    HW216893   1.370   2.996  12.231 -0.5956  1.0787  0.0607
 1754SOL     OW16894   1.963   1.909   4.243 -0.8002 -0.7888 -0.0706
 1754SOL    HW116895   2.011   1.929   4.324 -1.1029 -2.2855  0.4742
 1754SOL    HW216896   2.008   1.825   4.230  0.1685 -0.1768 -0.6847
 1755SOL     OW16897   4.215   3.476   2.957  0.5169 -0.2152 -0.0285
 1755SOL    HW116898   4.186   3.481   2.866  2.6480 -0.7897 -0.7393
 1755SOL    HW216899   4.287   3.413   2.952 -0.3856 -1.1113 -1.7434
 1756SOL     OW16900   0.321   4.479   7.916 -0.8154 -0.0912  0.5823
 1756SOL    HW116901   0.278   4.470   7.831  1.7580  0.3912 -0.7854
 1756SOL    HW216902   0.339   4.573   7.924 -1.9888  0.2522 -0.7645
 1757SOL     OW16903   4.134   0.205   3.413 -0.1148  0.4891 -0.1108
 1757SOL    HW116904   4.142   0.139   3.344  0.3660  1.9585 -1.4661
 1757SOL    HW216905   4.131   0.148   3.490  0.1806 -0.9361 -1.1518
 1758SOL     OW16906   1.533   2.455   6.683 -1.2037  0.3226  0.0704
 1758SOL    HW116907   1.573   2.420   6.762  0.2291  1.2351 -0.2508
 1758SOL    HW216908   1.484   2.530   6.717 -0.8912  0.3586  0.4373
 1759SOL     OW16909   3.151   2.351  17.124  0.2140  0.0285 -0.2062
 1759SOL    HW116910   3.190   2.324  17.207  0.3092  1.7130  0.2945
 1759SOL    HW216911   3.072   2.399  17.149 -0.5693 -1.3239 -0.0964
 1760SOL     OW16912   0.178   3.248   5.265  0.1407  0.4639 -0.1503
 1760SOL    HW116913   0.194   3.300   5.186  1.5822  1.1830  0.6068
 1760SOL    HW216914   0.265   3.249   5.305 -0.0854 -0.8401  0.3949
 1761SOL     OW16915   3.468   1.422   0.934  0.1333 -0.0306  0.3347
 1761SOL    HW116916   3.405   1.421   0.862  1.4608 -0.1927 -0.8215
 1761SOL    HW216917   3.553   1.422   0.889  0.1463  1.3686  0.3425
 1762SOL     OW16918   2.722   3.701   1.917 -0.1137 -0.5501  0.7440
 1762SOL    HW116919   2.649   3.713   1.977  0.0730 -0.1391  0.8818
 1762SOL    HW216920   2.694   3.617   1.880 -1.4577 -0.0832  0.6929
 1763SOL     OW16921   0.113   2.517   1.365  0.3251  0.4080 -0.2706
 1763SOL    HW116922   0.058   2.458   1.416  0.6030  0.0453 -0.3837
 1763SOL    HW216923   0.071   2.599   1.390 -1.7575  0.2015 -3.0378
 1764SOL     OW16924   3.518   4.045   6.100  0.1716 -0.1345  0.2187
 1764SOL    HW116925   3.498   4.114   6.037 -1.9504 -1.0818 -0.1330
 1764SOL    HW216926   3.435   3.997   6.092  1.3458 -1.9208 -1.3729
 1765SOL     OW16927   0.104   4.128   5.204 -0.0548 -0.0360 -0.6339
 1765SOL    HW116928   0.096   4.065   5.132  0.9760 -0.1713 -0.6290
 1765SOL    HW216929   0.148   4.202   5.163 -0.3549  2.0405  2.7983
 1766SOL     OW16930   4.580   3.366   8.513  0.1453 -0.2652  0.1763
 1766SOL    HW116931   4.526   3.313   8.572 -2.7157  2.4639  0.0146
 1766SOL    HW216932   4.561   3.451   8.553  0.4291  0.0979 -0.4646
 1767SOL     OW16933   0.467   2.102   7.914  0.2240  0.2502  0.1039
 1767SOL    HW116934   0.421   2.186   7.908  2.0663  1.0845 -1.9910
 1767SOL    HW216935   0.395   2.047   7.882  0.3924 -1.1100  2.0926
 1768SOL     OW16936   3.160   2.855  11.144  0.2494  0.5042  0.2273
 1768SOL    HW116937   3.122   2.940  11.167  1.2356  1.4669 -1.6755
 1768SOL    HW216938   3.243   2.886  11.107  0.2026  1.6092  1.0493
 1769SOL     OW16939   3.830   0.512   6.995 -0.6298  0.3609 -0.4574
 1769SOL    HW116940   3.868   0.468   7.070 -0.0743  1.6373  0.0104
 1769SOL    HW216941   3.743   0.532   7.031 -1.0032 -1.6111 -0.2476
 1770SOL     OW16942   1.686   2.113   6.862  0.3503 -0.0322 -0.3529
 1770SOL    HW116943   1.706   2.096   6.954 -1.5202 -2.9915 -0.5218
 1770SOL    HW216944   1.616   2.178   6.863 -1.6935 -2.2485  0.9638
 1771SOL     OW16945   4.362   4.394   4.423 -0.0229 -0.4499 -0.4142
 1771SOL    HW116946   4.328   4.483   4.426 -1.1966 -0.8847 -0.5968
 1771SOL    HW216947   4.397   4.388   4.512 -2.0067  1.2897  0.4754
 1772SOL     OW16948   2.349   4.009   7.609 -0.8796  0.2900  0.1889
 1772SOL    HW116949   2.305   3.977   7.688  0.5565  0.2587  0.9782
 1772SOL    HW216950   2.416   3.943   7.593 -2.5789 -1.3260 -0.2090
 1773SOL     OW16951   3.640   0.061  11.769 -0.9191 -0.2196  0.0551
 1773SOL    HW116952   3.724   0.022  11.792 -0.6081  1.0316  1.0105
 1773SOL    HW216953   3.656   0.153  11.787 -0.2844  0.2168 -2.7340
 1774SOL     OW16954   3.283   4.083   5.722 -0.2162  0.3334  0.0033
 1774SOL    HW116955   3.239   4.005   5.756 -1.1290  0.3393 -1.1221
 1774SOL    HW216956   3.245   4.083   5.634 -0.4806 -2.8282  0.1170
 1775SOL     OW16957   0.780   0.459   8.226  0.0764  0.5477 -0.0569
 1775SOL    HW116958   0.729   0.382   8.251 -0.5830  1.1989  0.5769
 1775SOL    HW216959   0.784   0.516   8.302  0.0323 -0.3598  0.6328
 1776SOL     OW16960   0.200   3.950   3.199 -0.2850 -0.4121  0.6860
 1776SOL    HW116961   0.171   3.932   3.288 -2.1186  1.2906  0.4516
 1776SOL    HW216962   0.285   3.985   3.225  0.4341 -0.7640 -1.1586
 1777SOL     OW16963   1.407   0.449   7.888  0.5971  0.2625 -0.2850
 1777SOL    HW116964   1.475   0.505   7.849  0.1550  0.1250 -1.2264
 1777SOL    HW216965   1.439   0.362   7.865  1.0138 -0.2059  1.9819
 1778SOL     OW16966   0.469   0.383   4.522 -0.3969  0.0219 -0.1065
 1778SOL    HW116967   0.412   0.313   4.489  0.8484 -0.6311 -0.8615
 1778SOL    HW216968   0.397   0.441   4.546 -0.5949 -0.4071  0.3343
 1779SOL     OW16969   4.128   4.471   2.013 -0.1584  0.1161 -0.3576
 1779SOL    HW116970   4.043   4.441   2.045 -0.8653 -0.6853 -3.0495
 1779SOL    HW216971   4.099   4.551   1.969 -1.5766 -0.1029  0.1698
 1780SOL     OW16972   4.454   3.616   2.723  0.5275 -0.1137  0.8488
 1780SOL    HW116973   4.442   3.634   2.816 -1.0989  1.5138  0.3281
 1780SOL    HW216974   4.444   3.705   2.692 -0.0239 -0.6950 -0.6155
 1781SOL     OW16975   0.557   4.032   3.900 -0.1993 -0.0176  0.2750
 1781SOL    HW116976   0.578   4.061   3.812  1.4124 -0.6164  0.4636
 1781SOL    HW216977   0.641   4.052   3.941  0.1557  1.1409 -1.0467
 1782SOL     OW16978   0.070   4.689   4.048 -0.2716 -0.1341  0.0834
 1782SOL    HW116979   0.023   4.609   4.072  1.0450 -0.3761  1.7877
 1782SOL    HW216980   0.129   4.657   3.979  1.2266  0.0306  1.2964
 1783SOL     OW16981   0.646   4.403  13.123 -0.4706  0.9724  0.2734
 1783SOL    HW116982   0.581   4.366  13.182 -0.7682  0.3679 -0.4508
 1783SOL    HW216983   0.699   4.453  13.186  1.1536 -0.6089  0.1450
 1784SOL     OW16984   3.650   3.788  17.703  0.3837 -0.2944 -0.7396
 1784SOL    HW116985   3.631   3.869  17.655 -1.9168 -0.7543 -0.6103
 1784SOL    HW216986   3.596   3.724  17.654 -1.5729  0.2188  0.7599
 1785SOL     OW16987   0.330   3.641  11.327 -0.7624 -0.6766  0.1485
 1785SOL    HW116988   0.303   3.575  11.391  0.9942 -0.9799  0.5503
 1785SOL    HW216989   0.252   3.693  11.305 -0.0909  0.1571 -0.2456
 1786SOL     OW16990   2.649   4.161   7.815 -0.2956  0.6119  0.1976
 1786SOL    HW116991   2.633   4.195   7.902  0.2047  0.0119  0.5277
 1786SOL    HW216992   2.744   4.159   7.826 -0.0634  0.1458 -1.9014
 1787SOL     OW16993   4.075   0.341   5.227 -0.8326 -0.6901 -0.8702
 1787SOL    HW116994   4.156   0.289   5.227 -0.8743 -0.7740  1.4755
 1787SOL    HW216995   4.041   0.343   5.138  1.7612 -0.5841 -1.8653
 1788SOL     OW16996   1.713   3.390   8.318 -0.1992 -0.1672 -0.3254
 1788SOL    HW116997   1.730   3.308   8.365 -1.4834 -1.6883 -2.4819
 1788SOL    HW216998   1.724   3.356   8.229  0.5611 -1.1783  0.1503
 1789SOL     OW16999   0.478   1.063  15.678 -0.6217  0.1889 -0.2439
 1789SOL    HW117000   0.476   1.155  15.654  1.8760  0.5330  0.7795
 1789SOL    HW217001   0.389   1.063  15.712 -0.9405  0.5251 -1.0950
 1790SOL     OW17002   3.613   1.944   8.706  0.3300  0.0868  0.1757
 1790SOL    HW117003   3.537   1.933   8.762  0.1493 -1.0305 -0.2920
 1790SOL    HW217004   3.622   2.039   8.703  0.8634 -0.0051 -1.5228
 1791SOL     OW17005   2.523   0.221   5.752  0.2542 -0.1678  0.8438
 1791SOL    HW117006   2.497   0.200   5.842  3.0154  0.1114  1.7116
 1791SOL    HW217007   2.577   0.297   5.774  0.7596 -0.1063 -0.6580
 1792SOL     OW17008   2.985   3.306   1.971 -0.3382 -0.0618  0.2207
 1792SOL    HW117009   2.972   3.234   1.910 -0.1698 -0.3650  0.5461
 1792SOL    HW217010   2.969   3.259   2.052  1.0383 -0.2799  0.3755
 1793SOL     OW17011   4.295   0.245   1.793 -0.1335  0.4418  0.0577
 1793SOL    HW117012   4.358   0.256   1.722 -0.2301  0.8723  0.0424
 1793SOL    HW217013   4.354   0.225   1.866  0.3156 -1.4467 -0.8204
 1794SOL     OW17014   3.411   2.895   6.229  0.0882 -0.1664  0.1927
 1794SOL    HW117015   3.458   2.830   6.282 -2.1283 -0.3864  1.9125
 1794SOL    HW217016   3.348   2.834   6.191  0.0339 -0.7458  1.1952
 1795SOL     OW17017   0.164   3.522   1.786 -0.4555 -0.1086 -0.1873
 1795SOL    HW117018   0.072   3.538   1.807 -0.2178  0.9126  0.0557
 1795SOL    HW217019   0.170   3.428   1.805 -2.4119 -0.0577  0.6540
 1796SOL     OW17020   3.550   3.066   6.742  0.1225 -0.0587 -0.7770
 1796SOL    HW117021   3.538   3.153   6.779 -0.3105  0.3122 -1.7762
 1796SOL    HW217022   3.632   3.081   6.694 -0.8384  1.1368 -2.0706
 1797SOL     OW17023   2.338   3.343   6.289 -0.4211  0.1855  0.4955
 1797SOL    HW117024   2.311   3.369   6.201 -1.5679 -0.1726  0.7492
 1797SOL    HW217025   2.291   3.261   6.301  0.5661 -0.4367  0.0859
 1798SOL     OW17026   0.491   3.599   9.202 -0.6584 -0.1312 -0.1923
 1798SOL    HW117027   0.423   3.552   9.250 -1.0348  0.8939  0.2881
 1798SOL    HW217028   0.563   3.538   9.215  0.7388  0.8495 -3.3623
 1799SOL     OW17029   2.592   3.173   8.100  0.5081  0.0117  0.4715
 1799SOL    HW117030   2.520   3.158   8.039  3.1601 -0.4680 -2.5605
 1799SOL    HW217031   2.612   3.080   8.112  0.1116  0.1359  2.1923
 1800SOL     OW17032   0.981   3.453   1.601 -0.1507  0.2446  0.0435
 1800SOL    HW117033   0.985   3.530   1.543  1.7725  0.2855  0.2343
 1800SOL    HW217034   1.042   3.481   1.669  0.1805  0.8893 -0.5121
 1801SOL     OW17035   0.782   0.393  12.857 -0.2370  0.2018 -0.0416
 1801SOL    HW117036   0.786   0.299  12.845  1.3326  0.1487  0.8604
 1801SOL    HW217037   0.866   0.422  12.895 -0.4912  1.8988 -0.7550
 1802SOL     OW17038   2.212   3.411  16.432  0.4461  0.6492 -0.0006
 1802SOL    HW117039   2.247   3.331  16.472 -0.4214  1.5154  2.4286
 1802SOL    HW217040   2.260   3.480  16.478  0.5025  0.6310 -0.0319
 1803SOL     OW17041   3.090   0.367   2.950  0.3805 -0.0740  0.0340
 1803SOL    HW117042   3.022   0.355   3.017 -1.3874  0.9537 -1.5691
 1803SOL    HW217043   3.031   0.381   2.875  1.2814  2.4204 -0.2231
 1804SOL     OW17044   2.767   2.869   5.758 -0.5545  0.6270  0.1483
 1804SOL    HW117045   2.694   2.820   5.796 -1.4085 -0.0425 -2.3771
 1804SOL    HW217046   2.719   2.917   5.692 -0.1852 -1.1504 -1.4226
 1805SOL     OW17047   1.661   2.042  13.487  0.3119  0.0348  0.0132
 1805SOL    HW117048   1.687   2.032  13.395  1.5183  0.0912  0.3557
 1805SOL    HW217049   1.577   1.998  13.495 -1.3175  2.8176 -1.8105
 1806SOL     OW17050   0.726   2.614   5.832 -0.5851 -0.5473  0.1518
 1806SOL    HW117051   0.724   2.709   5.823  1.9046 -0.4704  0.6083
 1806SOL    HW217052   0.633   2.601   5.851 -1.0556 -1.0584 -2.5180
 1807SOL     OW17053   4.307   3.658  14.113  0.2281 -0.2733 -0.1594
 1807SOL    HW117054   4.218   3.665  14.146  1.1415  0.2219  2.1516
 1807SOL    HW217055   4.288   3.718  14.041 -0.0125  1.8079  1.6531
 1808SOL     OW17056   4.472   4.444   8.170  0.1052 -0.0214 -0.0263
 1808SOL    HW117057   4.382   4.473   8.156 -0.7675 -1.6310  2.3668
 1808SOL    HW217058   4.479   4.466   8.263  2.3979 -3.1177  0.5190
 1809SOL     OW17059   3.285   2.044   5.125  0.1568  0.0446 -0.4869
 1809SOL    HW117060   3.374   2.075   5.139  0.0296 -1.2834  3.1307
 1809SOL    HW217061   3.299   1.963   5.077 -1.5961 -0.1187 -0.7344
 1810SOL     OW17062   4.071   3.391  13.340 -0.1711 -0.0194  0.7761
 1810SOL    HW117063   3.981   3.416  13.360 -0.3734 -0.0108 -0.1540
 1810SOL    HW217064   4.109   3.463  13.291  1.6432 -0.4556  1.5288
 1811SOL     OW17065   1.778   2.885   8.647 -0.1629  0.3646  0.4655
 1811SOL    HW117066   1.764   2.961   8.703 -0.3093  0.4654  0.2923
 1811SOL    HW217067   1.790   2.808   8.703 -0.3863 -0.7543 -0.9983
 1812SOL     OW17068   3.428   3.027  11.978 -0.5627  0.6394  0.5375
 1812SOL    HW117069   3.453   3.076  12.055  0.9070 -0.4131  0.7336
 1812SOL    HW217070   3.340   3.061  11.965 -1.2029 -0.5883  1.6001
 1813SOL     OW17071   2.292   3.635   3.441 -0.0740  0.1817  0.4183
 1813SOL    HW117072   2.297   3.685   3.360 -1.0129 -1.4085 -0.6266
 1813SOL    HW217073   2.293   3.697   3.515  0.0590 -2.3257  2.5137
 1814SOL     OW17074   2.428   0.364  12.000  0.3678 -0.2018  0.0814
 1814SOL    HW117075   2.344   0.352  11.957 -0.0716  1.2520  0.5256
 1814SOL    HW217076   2.462   0.438  11.949 -2.4621  1.4827  0.6196
 1815SOL     OW17077   3.591   4.215  10.052 -0.2218  0.0906 -0.3999
 1815SOL    HW117078   3.639   4.281  10.002  1.2139 -0.2228  0.5804
 1815SOL    HW217079   3.658   4.161  10.093 -0.7143  1.7930  2.7349
 1816SOL     OW17080   4.603   0.892   0.018  0.1177  0.2556  0.1893
 1816SOL    HW117081   4.694   0.864   0.018 -0.1736 -0.6776  0.6764
 1816SOL    HW217082   4.605   0.988   0.020  0.5924  0.2706 -0.8374
 1817SOL     OW17083   2.160   0.082   8.337 -0.3131  0.3984 -0.4210
 1817SOL    HW117084   2.189   0.161   8.383  2.4197 -0.8198 -0.0865
 1817SOL    HW217085   2.087   0.051   8.390  1.7817 -0.9125  1.6387
 1818SOL     OW17086   4.277   3.130  11.643  0.0216 -0.7339 -0.5071
 1818SOL    HW117087   4.216   3.086  11.702  0.3928  1.4569  1.5365
 1818SOL    HW217088   4.288   3.214  11.689 -0.1947 -0.3009 -1.2573
 1819SOL     OW17089   1.899   3.872   9.123  0.2685 -0.2266  0.1583
 1819SOL    HW117090   1.839   3.828   9.182  0.3897  1.5180  1.5770
 1819SOL    HW217091   1.858   3.858   9.037 -1.9971 -2.0172  1.5336
 1820SOL     OW17092   0.916   1.191   5.266  0.1985 -0.5737 -0.2073
 1820SOL    HW117093   0.851   1.198   5.197 -0.7158 -2.7716  0.4094
 1820SOL    HW217094   0.990   1.240   5.232 -0.3225  0.6149  0.3838
 1821SOL     OW17095   1.367   3.886   1.427  0.3902  0.0214  0.2954
 1821SOL    HW117096   1.316   3.807   1.441  2.0121 -1.1653 -0.4716
 1821SOL    HW217097   1.314   3.948   1.477 -1.5630  1.4185 -3.5449
 1822SOL     OW17098   3.466   4.031   1.944 -0.3153 -0.3133  0.3946
 1822SOL    HW117099   3.560   4.029   1.957 -0.2282 -1.0905 -0.3702
 1822SOL    HW217100   3.451   4.122   1.971  2.3568  0.2629 -0.0333
 1823SOL     OW17101   4.498   1.156   5.778 -0.4645 -0.1130 -0.0661
 1823SOL    HW117102   4.404   1.140   5.771 -0.5201 -0.0373  0.4863
 1823SOL    HW217103   4.506   1.223   5.847 -0.2530  0.7161 -0.8907
 1824SOL     OW17104   2.415   3.489   8.020 -0.3953 -0.2013 -0.3034
 1824SOL    HW117105   2.392   3.555   8.085  0.2408 -1.2792  1.0081
 1824SOL    HW217106   2.399   3.404   8.060 -0.8643  0.5059  1.0131
 1825SOL     OW17107   3.374   3.877   3.723  0.3726  0.4284 -0.1919
 1825SOL    HW117108   3.394   3.807   3.661 -3.0127 -0.4387 -0.2651
 1825SOL    HW217109   3.393   3.942   3.655  2.0741  0.7337  0.5682
 1826SOL     OW17110   0.639   2.807   6.645  0.4819  0.3525  0.2367
 1826SOL    HW117111   0.584   2.752   6.700  0.1169 -1.5053 -2.0526
 1826SOL    HW217112   0.663   2.885   6.696  0.9526 -0.9718  2.0537
 1827SOL     OW17113   1.794   4.293  10.055 -0.2537 -0.1160  0.2565
 1827SOL    HW117114   1.764   4.244   9.978  0.7710  3.8900 -2.7271
 1827SOL    HW217115   1.875   4.333  10.023 -1.1430  1.3282 -0.1906
 1828SOL     OW17116   2.017   2.131   2.413  0.6043  0.2806  0.4362
 1828SOL    HW117117   1.976   2.097   2.334  1.5218  2.5167 -1.0079
 1828SOL    HW217118   2.069   2.058   2.447  2.9769  2.8296  2.2514
 1829SOL     OW17119   2.911   4.308   7.141  0.2464 -0.2905 -0.3268
 1829SOL    HW117120   2.966   4.261   7.079 -0.6110 -0.5644 -0.8824
 1829SOL    HW217121   2.946   4.267   7.220 -0.8333  2.0793  1.4221
 1830SOL     OW17122   0.124   3.077   9.907 -0.6148 -0.5968 -0.1645
 1830SOL    HW117123   0.186   3.006   9.889  0.0640  0.3270 -1.5443
 1830SOL    HW217124   0.184   3.150   9.894 -1.0253 -0.0275  1.2370
 1831SOL     OW17125   1.929   2.861   4.600  0.8643 -0.1831  0.1800
 1831SOL    HW117126   1.957   2.913   4.525  0.5165 -0.4111 -0.1100
 1831SOL    HW217127   2.008   2.823   4.638  1.8219 -1.0647 -2.7117
 1832SOL     OW17128   3.560   2.619  15.310  0.2081 -0.1838 -0.3394
 1832SOL    HW117129   3.555   2.710  15.341  1.6441  0.6664 -2.6135
 1832SOL    HW217130   3.569   2.561  15.386 -1.3517  0.7283  0.5316
 1833SOL     OW17131   0.278   4.312  16.807 -0.1222  0.0988 -0.1573
 1833SOL    HW117132   0.308   4.284  16.893  0.7179 -2.1272 -1.1797
 1833SOL    HW217133   0.355   4.300  16.752 -2.4101 -0.9551 -3.1288
 1834SOL     OW17134   1.430   0.994   9.537  0.2806  0.0173 -0.5096
 1834SOL    HW117135   1.351   0.945   9.514  1.0880 -0.7324 -1.6753
 1834SOL    HW217136   1.390   1.081   9.530 -1.0591 -0.5520  0.1515
 1835SOL     OW17137   1.043   1.085   6.884 -0.1172  0.2859  0.2254
 1835SOL    HW117138   1.059   0.994   6.860 -2.5818 -0.4643  1.4149
 1835SOL    HW217139   1.118   1.118   6.834  0.4031 -1.4053 -0.1047
 1836SOL     OW17140   4.507   0.670   4.707  0.5812 -0.1188 -0.3543
 1836SOL    HW117141   4.458   0.702   4.783  0.5350 -0.1660 -0.3641
 1836SOL    HW217142   4.443   0.604   4.681  1.1496 -0.7737 -0.0762
 1837SOL     OW17143   0.322   2.053  10.495  0.1477 -0.0024 -0.3418
 1837SOL    HW117144   0.323   2.018  10.584  1.0508  0.5438 -0.1384
 1837SOL    HW217145   0.240   2.103  10.488  0.6427  0.5398 -2.0923
 1838SOL     OW17146   2.385   0.263   5.140 -0.4080  0.1155 -0.0239
 1838SOL    HW117147   2.305   0.250   5.190 -0.9328  0.4050 -0.7889
 1838SOL    HW217148   2.419   0.346   5.172  0.7236  0.4538 -2.0923
 1839SOL     OW17149   1.298   2.459   7.456  0.0155  0.0628  0.3094
 1839SOL    HW117150   1.309   2.459   7.551 -2.0425  3.5318  0.5454
 1839SOL    HW217151   1.238   2.386   7.440  1.2821 -0.6931 -1.0713
 1840SOL     OW17152   2.526   0.113   2.958 -0.4087  0.3653  0.0056
 1840SOL    HW117153   2.451   0.055   2.949 -0.7050  1.0709 -2.0831
 1840SOL    HW217154   2.495   0.201   2.978 -0.0601  0.5506 -0.2802
 1841SOL     OW17155   0.173   1.554   6.051  0.1282  0.1838 -0.0582
 1841SOL    HW117156   0.267   1.560   6.068  0.3362  0.7166 -1.3971
 1841SOL    HW217157   0.138   1.533   6.138  0.5797  0.1353  0.1120
 1842SOL     OW17158   2.131   0.791   7.705 -0.1050  0.2414  0.4147
 1842SOL    HW117159   2.199   0.836   7.655  0.7149 -0.7122  0.6765
 1842SOL    HW217160   2.127   0.850   7.780 -2.8464  2.0078 -1.1169
 1843SOL     OW17161   2.785   0.031   2.898  0.0480 -0.6743 -0.0287
 1843SOL    HW117162   2.784   4.682   2.939  2.9408 -0.6717  0.0125
 1843SOL    HW217163   2.693   0.057   2.897  1.0527  2.7674 -0.8493
 1844SOL     OW17164   3.499   3.446   6.171 -0.6431  0.1965  0.2572
 1844SOL    HW117165   3.553   3.525   6.161 -2.3291  1.1320 -1.5028
 1844SOL    HW217166   3.456   3.462   6.254 -1.8402 -0.4338 -0.2486
 1845SOL     OW17167   4.064   0.599  17.080 -0.1173  0.1257 -0.1448
 1845SOL    HW117168   4.146   0.633  17.046 -2.1307  3.5673 -1.5774
 1845SOL    HW217169   4.006   0.659  17.033  0.4313 -0.1766 -1.1983
 1846SOL     OW17170   2.271   1.836   6.364 -0.1666  0.6452 -0.3709
 1846SOL    HW117171   2.298   1.917   6.408 -1.5426  0.6894  0.3960
 1846SOL    HW217172   2.242   1.777   6.434  1.7860 -0.0513 -0.1666
 1847SOL     OW17173   0.040   2.446   3.344 -0.1229 -0.3678  0.1821
 1847SOL    HW117174   0.096   2.404   3.409  3.1749 -1.5026 -3.3782
 1847SOL    HW217175   0.080   2.396   3.273 -2.5240 -0.1054 -1.3439
 1848SOL     OW17176   0.640   3.165   5.979 -0.2540  0.2343  0.5652
 1848SOL    HW117177   0.676   3.093   6.031  0.5740  1.4649  1.6831
 1848SOL    HW217178   0.576   3.200   6.040  0.7462  0.4173  1.5125
 1849SOL     OW17179   1.132   2.662   4.017  0.0676  0.5061  0.4748
 1849SOL    HW117180   1.148   2.568   4.027  0.9354  0.8307  2.1153
 1849SOL    HW217181   1.224   2.689   4.018  0.2405 -0.0710  0.1793
 1850SOL     OW17182   2.761   1.357   4.168  0.3532 -0.8185 -0.5763
 1850SOL    HW117183   2.756   1.379   4.261  0.6402 -0.5186 -0.6308
 1850SOL    HW217184   2.714   1.274   4.158  2.8440 -2.2574 -0.2483
 1851SOL     OW17185   0.321   0.732   0.405  0.2201 -0.1481 -0.1475
 1851SOL    HW117186   0.337   0.821   0.375  0.7984  0.1528  1.0871
 1851SOL    HW217187   0.368   0.728   0.487  1.1379 -1.1506 -0.7205
 1852SOL     OW17188   3.237   3.463   8.098  0.1948  0.1713 -0.0384
 1852SOL    HW117189   3.143   3.450   8.112 -0.0858  3.3623  1.1033
 1852SOL    HW217190   3.278   3.381   8.124 -0.9350 -1.0113 -1.9349
 1853SOL     OW17191   4.179   2.842   4.347 -0.4530 -0.1247  1.0001
 1853SOL    HW117192   4.207   2.847   4.256  1.3494  3.8527  1.7930
 1853SOL    HW217193   4.231   2.914   4.383  1.9257 -1.1221 -0.4327
 1854SOL     OW17194   0.918   1.295   4.150  0.6589 -0.6648 -0.5149
 1854SOL    HW117195   0.946   1.295   4.058  2.0645 -0.5386 -0.0900
 1854SOL    HW217196   0.823   1.291   4.149  0.5635  1.2272  1.2490
 1855SOL     OW17197   0.610   4.291  13.526 -0.0079 -0.1380 -0.3029
 1855SOL    HW117198   0.640   4.375  13.490 -0.2694  1.2293  2.6446
 1855SOL    HW217199   0.691   4.244  13.547  0.4554  0.2584 -1.1936
 1856SOL     OW17200   0.623   2.847   3.712 -0.0433 -0.0867  0.3284
 1856SOL    HW117201   0.558   2.788   3.673 -1.4797  0.1438  2.3760
 1856SOL    HW217202   0.564   2.912   3.751  1.4266  0.8024  1.0557
 1857SOL     OW17203   4.203   0.150   1.179 -0.2610 -0.0202 -0.5110
 1857SOL    HW117204   4.278   0.107   1.138  0.2396 -0.3856  0.7960
 1857SOL    HW217205   4.130   0.130   1.120  0.1814 -0.5821 -0.8555
 1858SOL     OW17206   4.223   3.386  11.232  0.0124 -0.5930 -0.2126
 1858SOL    HW117207   4.166   3.386  11.309  1.4063  0.2054  0.8227
 1858SOL    HW217208   4.187   3.311  11.185  1.2906 -0.7691 -0.8856
 1859SOL     OW17209   2.304   2.454   7.019 -0.2555 -0.0677 -0.0890
 1859SOL    HW117210   2.286   2.363   7.044  2.3288 -1.2460 -2.4540
 1859SOL    HW217211   2.282   2.504   7.098 -0.3309 -1.2436  0.6479
 1860SOL     OW17212   0.614   3.744  14.863 -0.1887  0.3616 -0.1360
 1860SOL    HW117213   0.702   3.723  14.894 -1.1693  0.8718  2.9927
 1860SOL    HW217214   0.602   3.836  14.885 -1.3817 -0.0394  0.9130
 1861SOL     OW17215   4.664   3.468   5.651  0.1731  0.0697 -0.4006
 1861SOL    HW117216   4.578   3.492   5.618  0.5953  1.4107 -0.5317
 1861SOL    HW217217   4.643   3.420   5.731 -0.1008 -1.8656 -1.6259
 1862SOL     OW17218   1.768   4.622   3.142  0.5359 -0.1794  0.3746
 1862SOL    HW117219   1.716   4.701   3.162  2.5159  1.1859  0.1116
 1862SOL    HW217220   1.711   4.554   3.179  0.2611  0.9928  2.1201
 1863SOL     OW17221   3.684   1.648  13.202 -0.1130  0.5904  0.0462
 1863SOL    HW117222   3.680   1.593  13.124  1.3732  0.6246 -0.0622
 1863SOL    HW217223   3.730   1.596  13.268 -0.7065 -0.3803 -0.2922
 1864SOL     OW17224   1.170   2.231   8.002  0.3185 -0.8024 -0.3463
 1864SOL    HW117225   1.112   2.284   8.057  2.1406 -0.8878  1.6528
 1864SOL    HW217226   1.258   2.255   8.028 -0.1510 -1.5990  1.9427
 1865SOL     OW17227   3.993   1.279   6.682 -0.3894  0.0918  0.4407
 1865SOL    HW117228   3.904   1.297   6.653  0.1134  1.1146 -0.4698
 1865SOL    HW217229   3.974   1.187   6.704  2.2010 -0.2271  1.4335
 1866SOL     OW17230   2.557   1.135   9.019 -0.0627 -0.0577  0.3995
 1866SOL    HW117231   2.587   1.219   8.985  1.2691 -1.1186 -1.0741
 1866SOL    HW217232   2.552   1.096   8.931 -2.7351 -1.6234  1.2257
 1867SOL     OW17233   0.985   2.399   6.808  0.6712 -0.1973 -0.3639
 1867SOL    HW117234   0.972   2.491   6.833 -0.8325 -0.1698 -1.2317
 1867SOL    HW217235   1.005   2.407   6.714 -0.2738  2.5767 -0.3399
 1868SOL     OW17236   3.773   1.648   5.611 -0.1938  0.6603  0.3086
 1868SOL    HW117237   3.832   1.679   5.542  0.9413  0.0775  1.0207
 1868SOL    HW217238   3.702   1.711   5.625 -0.8245  0.3030 -1.3201
 1869SOL     OW17239   0.575   1.963   4.734 -0.1706 -0.6124  0.0797
 1869SOL    HW117240   0.634   2.016   4.786 -0.4388 -0.6359  0.4037
 1869SOL    HW217241   0.601   1.878   4.771  0.9851  0.3185  1.3665
 1870SOL     OW17242   1.932   2.310   1.015  0.7389  0.1642  0.0518
 1870SOL    HW117243   1.900   2.284   1.101  1.9745  2.0024  1.0696
 1870SOL    HW217244   1.898   2.400   1.008  0.3041  0.1691  2.2716
 1871SOL     OW17245   2.003   4.170  15.015 -0.3598 -0.5649  0.2456
 1871SOL    HW117246   2.074   4.199  15.072 -2.4081  4.3870  0.2853
 1871SOL    HW217247   2.000   4.240  14.949  1.3340  0.7174  1.5221
 1872SOL     OW17248   4.716   4.446   4.163  0.3703 -0.2903 -0.2065
 1872SOL    HW117249   0.008   4.364   4.122  0.0908 -0.5813  0.1793
 1872SOL    HW217250   4.644   4.422   4.222  0.7711 -0.6016  0.1560
 1873SOL     OW17251   3.556   4.601   1.453 -0.1673  0.2506 -0.3364
 1873SOL    HW117252   3.506   4.675   1.487 -1.6098  0.6737 -3.4419
 1873SOL    HW217253   3.508   4.568   1.377  1.8238  0.7548 -1.8321
 1874SOL     OW17254   1.766   4.644  10.583 -0.3974  0.4330  0.1847
 1874SOL    HW117255   1.791   4.723  10.631 -1.5454  0.8858  0.0292
 1874SOL    HW217256   1.720   4.596  10.653  2.4868  0.9729  2.4660
 1875SOL     OW17257   0.841   3.199  16.007  0.4120  0.2774 -0.4714
 1875SOL    HW117258   0.826   3.281  16.053 -2.1853 -0.7623  0.5703
 1875SOL    HW217259   0.774   3.203  15.939  1.0634  0.0338 -1.1223
 1876SOL     OW17260   1.365   3.322  17.032 -0.6294 -0.0557  0.0631
 1876SOL    HW117261   1.457   3.342  17.021 -0.8332  0.5530 -0.5144
 1876SOL    HW217262   1.359   3.265  16.955 -2.2900 -0.4618  0.4977
 1877SOL     OW17263   3.212   3.412  15.708 -0.1641 -0.2354 -0.6860
 1877SOL    HW117264   3.289   3.356  15.717 -0.0759  0.4816  2.7734
 1877SOL    HW217265   3.217   3.425  15.613 -0.7089 -0.4871 -0.7503
 1878SOL     OW17266   0.401   0.143  14.221 -0.2681 -0.1464  0.1179
 1878SOL    HW117267   0.430   0.077  14.157 -0.7087 -1.6630  1.4753
 1878SOL    HW217268   0.486   0.180  14.244 -0.5861 -0.9021  2.4947
 1879SOL     OW17269   3.826   3.420   4.012  0.0843 -0.0537 -0.2000
 1879SOL    HW117270   3.864   3.345   4.057 -0.5974 -1.0537 -1.2941
 1879SOL    HW217271   3.904   3.472   3.990  1.1463 -1.1182  1.1060
 1880SOL     OW17272   4.718   1.747   3.744 -0.1849  0.0014 -0.2503
 1880SOL    HW117273   0.050   1.748   3.678  0.9776 -1.2312  0.9728
 1880SOL    HW217274   0.007   1.822   3.798  0.1196 -0.1960 -0.1253
 1881SOL     OW17275   0.047   2.713   6.818  0.3318  0.2274  0.3015
 1881SOL    HW117276   0.008   2.796   6.790 -0.9063 -0.2240  0.6501
 1881SOL    HW217277   0.015   2.698   6.907  1.7881  2.7391  1.2361
 1882SOL     OW17278   2.628   4.690  14.072 -0.5349  0.2098  0.6529
 1882SOL    HW117279   2.578   0.028  14.104 -0.1998  0.3386  0.8695
 1882SOL    HW217280   2.720   4.710  14.055 -0.8575 -0.2098 -1.5973
 1883SOL     OW17281   1.597   1.525   3.055  0.3584 -0.2517 -0.5909
 1883SOL    HW117282   1.667   1.525   2.990 -0.2974  1.3834 -1.2811
 1883SOL    HW217283   1.649   1.524   3.136  0.1805 -0.2528 -0.4775
 1884SOL     OW17284   0.238   0.382   3.726 -0.3850  0.8765  0.1454
 1884SOL    HW117285   0.317   0.424   3.758  0.8080 -1.1027 -0.1870
 1884SOL    HW217286   0.184   0.458   3.747 -0.3628  1.1069 -0.6262
 1885SOL     OW17287   4.210   1.700  14.471  0.1885 -0.0572 -0.3670
 1885SOL    HW117288   4.167   1.770  14.520  1.6722 -0.0394  0.9153
 1885SOL    HW217289   4.247   1.747  14.396  1.6340 -1.1493 -0.3371
 1886SOL     OW17290   4.389   3.174   5.899  0.5470 -0.3398  0.8359
 1886SOL    HW117291   4.471   3.213   5.868  0.5962 -1.6973 -0.7640
 1886SOL    HW217292   4.338   3.175   5.818  1.0810 -3.3171  0.4712
 1887SOL     OW17293   0.710   2.979   2.726  0.1891  0.3335 -0.1324
 1887SOL    HW117294   0.775   2.976   2.655  0.6638 -2.9576  0.4226
 1887SOL    HW217295   0.634   2.947   2.677  0.3866 -0.8662  0.3435
 1888SOL     OW17296   3.044   1.442   7.973 -0.0862 -0.0958  0.9773
 1888SOL    HW117297   3.063   1.364   8.026  0.7720 -1.8241 -1.8708
 1888SOL    HW217298   3.099   1.513   8.006  1.4385 -0.9865  0.3538
 1889SOL     OW17299   1.888   1.229   6.219  0.1388  0.1201 -0.3634
 1889SOL    HW117300   1.863   1.308   6.172 -1.7939 -0.0702  0.3348
 1889SOL    HW217301   1.891   1.262   6.309 -1.1947  1.2990 -0.7507
 1890SOL     OW17302   1.980   1.566   9.223  0.5682  0.8342 -0.2537
 1890SOL    HW117303   1.910   1.515   9.183  2.6013 -2.1201 -0.0331
 1890SOL    HW217304   2.008   1.515   9.298  2.0022 -0.0043 -1.3548
 1891SOL     OW17305   2.364   3.236   9.948  0.0286 -0.3182 -0.1329
 1891SOL    HW117306   2.456   3.235   9.975  0.2951  0.2717 -1.0162
 1891SOL    HW217307   2.365   3.234   9.853  1.3697 -1.8088 -0.1000
 1892SOL     OW17308   2.144   2.608   7.506  0.2668  0.1250 -0.0997
 1892SOL    HW117309   2.131   2.516   7.525  1.7071  0.0435  0.5000
 1892SOL    HW217310   2.169   2.614   7.414  2.9559  1.7903  0.7418
 1893SOL     OW17311   4.490   0.937   2.672  0.2461 -0.9906  0.6057
 1893SOL    HW117312   4.407   0.964   2.711  0.3730  0.8103 -0.3936
 1893SOL    HW217313   4.525   0.861   2.720  1.7985 -0.5881  0.1117
 1894SOL     OW17314   4.052   4.033   3.631  0.1795  0.0964  0.0740
 1894SOL    HW117315   4.125   4.089   3.607  0.0997  1.3610  2.7045
 1894SOL    HW217316   3.996   4.051   3.556  1.6218  2.0987 -0.5264
 1895SOL     OW17317   2.536   2.693   6.372  0.5256 -0.3249 -0.4702
 1895SOL    HW117318   2.472   2.720   6.438  1.0852 -0.0884 -0.0195
 1895SOL    HW217319   2.518   2.754   6.299 -1.0274  2.2497  2.0344
 1896SOL     OW17320   2.721   3.530   9.093 -0.4990 -0.0109  0.6430
 1896SOL    HW117321   2.657   3.522   9.021  0.1470 -0.2319  0.0936
 1896SOL    HW217322   2.763   3.445   9.080  2.1700  1.4007 -0.0713
 1897SOL     OW17323   2.753   1.241  10.519 -0.1559 -0.0825  0.0572
 1897SOL    HW117324   2.736   1.330  10.551 -1.0319  0.5653 -2.1497
 1897SOL    HW217325   2.716   1.260  10.432 -1.6305  2.5753  1.2423
 1898SOL     OW17326   0.188   4.398   7.106  0.2525 -0.5307  0.6388
 1898SOL    HW117327   0.165   4.322   7.051  3.4943 -0.6789 -0.5217
 1898SOL    HW217328   0.107   4.448   7.107  1.2512  1.1868 -2.8752
 1899SOL     OW17329   1.502   0.501   9.690 -0.0985 -0.6524 -0.2736
 1899SOL    HW117330   1.585   0.526   9.731  0.1575 -2.8726  0.5731
 1899SOL    HW217331   1.452   0.486   9.770 -1.2108  0.8580 -0.6901
 1900SOL     OW17332   0.555   0.464   4.028 -0.4300  0.3278 -0.3358
 1900SOL    HW117333   0.486   0.476   3.962 -1.1845 -1.2509  0.1696
 1900SOL    HW217334   0.525   0.374   4.045 -0.2107  0.3774  0.2895
 1901SOL     OW17335   4.606   4.144  11.713 -0.2759 -0.9003 -0.2098
 1901SOL    HW117336   4.569   4.056  11.724 -1.0992 -0.8865 -2.7589
 1901SOL    HW217337   4.619   4.181  11.800 -0.4763  0.0627 -0.5856
 1902SOL     OW17338   4.269   0.830   1.398 -0.4549  0.5584 -0.6469
 1902SOL    HW117339   4.247   0.753   1.346  3.1631 -1.2293  0.4088
 1902SOL    HW217340   4.190   0.838   1.451  0.1592  2.4582 -0.0214
 1903SOL     OW17341   3.377   0.894   6.994  0.0299  0.3905 -0.2311
 1903SOL    HW117342   3.422   0.841   7.059 -1.8057 -0.9126 -0.0224
 1903SOL    HW217343   3.425   0.976   7.003 -0.0687  0.4068  0.1346
 1904SOL     OW17344   3.245   0.334   3.320  0.0624 -0.0179  0.8284
 1904SOL    HW117345   3.161   0.290   3.333 -0.0509 -0.8844 -2.8702
 1904SOL    HW217346   3.268   0.360   3.409  1.4596 -0.5433  0.6244
 1905SOL     OW17347   3.032   0.023   2.771  0.3763 -0.3663 -0.0078
 1905SOL    HW117348   3.065   4.698   2.836 -0.6144 -0.8123  0.0682
 1905SOL    HW217349   2.946   0.036   2.811 -0.0392 -1.2263 -0.6367
 1906SOL     OW17350   0.997   4.502  12.532  0.6433 -0.5990 -0.3314
 1906SOL    HW117351   0.966   4.588  12.559  0.7273 -0.9377  0.8614
 1906SOL    HW217352   0.936   4.442  12.575 -1.5543  1.1913 -0.9586
 1907SOL     OW17353   1.000   4.247   3.406  0.0790  0.6773  0.1517
 1907SOL    HW117354   0.980   4.276   3.495  0.8046 -0.4792  0.6944
 1907SOL    HW217355   1.094   4.230   3.415  0.1687  0.9448 -0.3041
 1908SOL     OW17356   1.363   1.801   6.454 -0.0605 -0.5477 -0.2230
 1908SOL    HW117357   1.425   1.728   6.449  1.0171  0.3442  0.0432
 1908SOL    HW217358   1.317   1.789   6.372 -2.6078  1.7166  0.9014
 1909SOL     OW17359   2.389   3.826   1.830 -0.3437  0.2600 -0.6157
 1909SOL    HW117360   2.303   3.869   1.826 -0.8263 -0.5849  0.8046
 1909SOL    HW217361   2.417   3.840   1.921 -2.0338  1.1237 -0.2273
 1910SOL     OW17362   2.203   2.013  16.626 -0.3129 -0.2739 -0.4539
 1910SOL    HW117363   2.182   2.064  16.548 -2.0576  0.3140  0.4028
 1910SOL    HW217364   2.206   1.924  16.590  1.8003 -1.2397  2.0950
 1911SOL     OW17365   0.641   2.824   3.392 -0.5986  0.3426 -0.5998
 1911SOL    HW117366   0.569   2.767   3.421 -0.5139 -0.2947 -1.6487
 1911SOL    HW217367   0.586   2.901   3.411  0.5798  0.3538  2.7780
 1912SOL     OW17368   4.560   3.876  16.307 -0.3265 -0.6528  0.4689
 1912SOL    HW117369   4.599   3.830  16.382 -1.4726 -0.7689  0.9910
 1912SOL    HW217370   4.531   3.954  16.354 -0.9321 -0.5982  0.0001
 1913SOL     OW17371   2.086   0.328   4.957 -0.0258 -0.4001  0.4739
 1913SOL    HW117372   2.062   0.418   4.935 -0.0537 -0.0273  2.0458
 1913SOL    HW217373   2.013   0.308   5.015 -1.2764  0.0086 -0.9447
 1914SOL     OW17374   0.442   3.077   1.186  0.0173  0.0428  0.4027
 1914SOL    HW117375   0.481   2.991   1.206  0.7665  0.1052 -0.8201
 1914SOL    HW217376   0.510   3.105   1.125 -1.2859  0.8502 -0.6895
 1915SOL     OW17377   1.515   1.407   7.770  0.2758 -1.1864  0.3234
 1915SOL    HW117378   1.540   1.469   7.702  0.8672 -0.3784  1.2914
 1915SOL    HW217379   1.427   1.387   7.737  0.2270 -1.7023  0.7626
 1916SOL     OW17380   2.404   3.584   3.180  0.2191  0.2459  0.3252
 1916SOL    HW117381   2.391   3.663   3.128  2.5750  1.7723  2.0638
 1916SOL    HW217382   2.499   3.587   3.193  0.1877  0.9457  0.3715
 1917SOL     OW17383   2.611   0.828   4.102  0.1104  0.1433  0.1681
 1917SOL    HW117384   2.608   0.776   4.183 -0.3872 -0.2093 -0.0739
 1917SOL    HW217385   2.674   0.781   4.046 -0.7082 -1.0972  0.2823
 1918SOL     OW17386   1.936   3.261   7.339 -0.4361  1.1558  0.2316
 1918SOL    HW117387   1.937   3.166   7.348  1.4294  1.0420 -1.2555
 1918SOL    HW217388   2.018   3.280   7.384 -1.2628  0.9230  1.8526
 1919SOL     OW17389   2.837   3.660   8.730  0.8169  0.3360  0.3081
 1919SOL    HW117390   2.820   3.736   8.787  0.0891 -0.6816  1.4475
 1919SOL    HW217391   2.840   3.708   8.647 -0.9260  2.6826  1.5845
 1920SOL     OW17392   0.938   0.204  16.670  0.2022 -0.1173  0.2117
 1920SOL    HW117393   0.960   0.269  16.604  0.7111 -0.8288 -0.3200
 1920SOL    HW217394   0.891   0.263  16.729 -0.9022 -0.6809 -0.1105
 1921SOL     OW17395   3.069   3.719   5.462 -0.2084  0.0843 -0.6558
 1921SOL    HW117396   2.980   3.686   5.474  0.2458 -1.3923 -1.2945
 1921SOL    HW217397   3.093   3.655   5.395  1.3752 -1.1846  1.1067
 1922SOL     OW17398   0.453   4.641   8.498 -0.4006  0.0010 -0.3719
 1922SOL    HW117399   0.404   4.633   8.579 -0.1760 -0.6481 -0.2992
 1922SOL    HW217400   0.434   4.567   8.440 -0.8045  0.3616 -0.6985
 1923SOL     OW17401   3.599   0.079   4.668 -0.0401 -0.2455 -0.3152
 1923SOL    HW117402   3.539   0.121   4.607 -0.4264 -0.2639  0.0537
 1923SOL    HW217403   3.678   0.128   4.644  0.2558 -1.2263 -1.3752
 1924SOL     OW17404   4.584   0.820   7.625 -0.1809  0.4388  0.3097
 1924SOL    HW117405   4.611   0.868   7.547 -1.1867 -0.8236 -0.8147
 1924SOL    HW217406   4.537   0.892   7.669 -2.3421 -0.0428 -1.2099
 1925SOL     OW17407   3.800   2.184   8.374  0.0089  0.1865  0.3858
 1925SOL    HW117408   3.710   2.189   8.341  0.7758 -1.3493 -1.9219
 1925SOL    HW217409   3.792   2.207   8.467  2.5613 -1.6661  1.0609
 1926SOL     OW17410   3.306   1.737   3.150  0.0759 -0.1878  0.1711
 1926SOL    HW117411   3.331   1.811   3.093 -2.0262 -1.2747 -2.1976
 1926SOL    HW217412   3.361   1.742   3.228  0.1854 -0.5483  0.1163
 1927SOL     OW17413   2.987   2.161   1.961  1.1337 -0.4048 -0.3099
 1927SOL    HW117414   3.053   2.134   1.898  2.0336 -0.8111  0.8188
 1927SOL    HW217415   3.023   2.120   2.039  1.4048 -0.8112 -0.6492
 1928SOL     OW17416   1.651   1.758  10.594  0.0108  0.3339  0.2516
 1928SOL    HW117417   1.681   1.667  10.591  1.3799  0.8573 -2.2706
 1928SOL    HW217418   1.672   1.778  10.503  0.2372  2.9740  0.8855
 1929SOL     OW17419   2.787   2.215   7.140 -0.0710 -1.1820  0.3152
 1929SOL    HW117420   2.742   2.162   7.075  0.4787 -0.8176 -0.3543
 1929SOL    HW217421   2.717   2.235   7.203  1.3694  0.1057  1.5121
 1930SOL     OW17422   4.364   3.820  14.616 -0.1159  0.2673 -0.2187
 1930SOL    HW117423   4.292   3.848  14.559  0.5908 -1.4489 -1.9551
 1930SOL    HW217424   4.366   3.888  14.684  0.5545 -0.9640  0.9856
 1931SOL     OW17425   0.337   0.282   7.461  0.6037  0.2429 -0.7957
 1931SOL    HW117426   0.382   0.350   7.511  2.1448 -0.5077 -1.1430
 1931SOL    HW217427   0.407   0.244   7.408 -0.2847  0.4250 -2.1053
 1932SOL     OW17428   2.459   1.597   4.978 -0.5943  0.1311  0.4837
 1932SOL    HW117429   2.503   1.658   5.038  1.0327 -0.0716 -0.5001
 1932SOL    HW217430   2.385   1.655   4.957 -1.4768 -0.2829  2.5149
 1933SOL     OW17431   1.610   3.785   3.235 -0.0118 -0.2495 -0.1595
 1933SOL    HW117432   1.644   3.706   3.276 -0.1364 -0.2509 -0.0586
 1933SOL    HW217433   1.619   3.768   3.142  1.9728 -2.2069  0.3944
 1934SOL     OW17434   2.401   1.698   1.754  0.0371  0.0215 -0.2944
 1934SOL    HW117435   2.460   1.668   1.685  0.1182  0.5111 -0.4376
 1934SOL    HW217436   2.460   1.748   1.810  2.0252 -1.3846 -1.1356
 1935SOL     OW17437   3.690   0.195  14.047  0.6263  0.5562 -0.2541
 1935SOL    HW117438   3.627   0.123  14.054  1.6205 -0.4649 -1.8881
 1935SOL    HW217439   3.754   0.165  13.982  0.5792 -0.3525  0.1227
 1936SOL     OW17440   2.659   2.576  16.576  0.0956 -0.0055 -0.3259
 1936SOL    HW117441   2.591   2.644  16.572  0.3627  0.2830  0.0376
 1936SOL    HW217442   2.613   2.500  16.611 -2.2198  1.3178 -0.4410
 1937SOL     OW17443   2.875   1.791  16.460 -0.2586  0.6377 -0.4563
 1937SOL    HW117444   2.780   1.788  16.469 -0.0813 -0.1681  1.2009
 1937SOL    HW217445   2.887   1.700  16.432  2.0830  0.2536  1.8017
 1938SOL     OW17446   3.256   2.194   7.730 -0.1846 -0.0448  0.3345
 1938SOL    HW117447   3.220   2.116   7.688  1.2909 -0.4154 -0.2432
 1938SOL    HW217448   3.222   2.187   7.819  0.1709 -1.2105  0.3912
 1939SOL     OW17449   0.514   0.376  12.236  0.2247  0.3416  0.4350
 1939SOL    HW117450   0.473   0.361  12.321 -0.6417 -1.6898 -0.3435
 1939SOL    HW217451   0.540   0.286  12.214 -1.7497 -0.4076  1.2124
 1940SOL     OW17452   3.420   2.843   9.512 -0.4350 -0.5956 -0.2914
 1940SOL    HW117453   3.359   2.850   9.585 -0.4808 -0.1470 -0.3702
 1940SOL    HW217454   3.401   2.753   9.488  0.1332 -0.6498 -0.5458
 1941SOL     OW17455   0.260   0.975   2.085  0.2621 -0.0835 -0.3475
 1941SOL    HW117456   0.281   1.068   2.079 -0.2055 -0.0230 -1.0410
 1941SOL    HW217457   0.167   0.984   2.065 -0.3106 -0.1591  2.3298
 1942SOL     OW17458   1.952   3.804   7.260  0.1407 -0.0548  0.2965
 1942SOL    HW117459   1.882   3.772   7.316  0.1608  1.7000  1.3146
 1942SOL    HW217460   2.000   3.852   7.328  1.9828 -0.3435 -0.8013
 1943SOL     OW17461   3.029   4.216   4.830 -0.3179 -0.1818 -0.3736
 1943SOL    HW117462   3.072   4.160   4.895  0.7130 -1.6709 -2.3230
 1943SOL    HW217463   2.953   4.172   4.792  1.0502 -1.2141 -1.9043
 1944SOL     OW17464   2.864   3.781   3.478 -0.5825 -0.3825  0.3439
 1944SOL    HW117465   2.819   3.811   3.399 -1.8563 -0.2465  1.1032
 1944SOL    HW217466   2.841   3.861   3.526 -0.9346 -0.6629  0.6513
 1945SOL     OW17467   1.157   2.629   1.612  0.1659  0.3836  0.6114
 1945SOL    HW117468   1.153   2.553   1.553 -2.1243  0.9346  0.0864
 1945SOL    HW217469   1.136   2.586   1.694  3.4323 -2.2755  0.0996
 1946SOL     OW17470   4.028   4.718   5.080 -0.3516  0.4777 -0.1071
 1946SOL    HW117471   4.029   4.627   5.051  1.9937  0.8811 -1.3201
 1946SOL    HW217472   3.934   4.736   5.076 -0.3215  0.9693  1.3782
 1947SOL     OW17473   3.575   0.002   0.409  0.0620  0.2954  0.0303
 1947SOL    HW117474   3.665   4.719   0.432  0.0962  1.0242  0.5054
 1947SOL    HW217475   3.551   4.647   0.397  0.7446  0.2682 -1.1384
 1948SOL     OW17476   0.712   2.759  15.610 -0.2661 -0.0769  0.1872
 1948SOL    HW117477   0.647   2.827  15.625 -0.0126 -0.3474  2.4932
 1948SOL    HW217478   0.665   2.684  15.574 -0.1768 -0.5080  0.9717
 1949SOL     OW17479   4.512   4.267   5.341 -0.1974  0.1720 -0.4511
 1949SOL    HW117480   4.527   4.315   5.423 -0.9973  2.7711 -1.8117
 1949SOL    HW217481   4.494   4.341   5.283 -0.3419  1.8516  1.7036
 1950SOL     OW17482   1.004   2.327   3.281  0.1919  0.5390  0.0108
 1950SOL    HW117483   0.955   2.317   3.200  1.1946  1.1558 -0.6756
 1950SOL    HW217484   0.963   2.261   3.336  2.5664 -2.2651 -1.5506
 1951SOL     OW17485   3.987   1.121   5.379 -0.3208 -0.5363 -0.1683
 1951SOL    HW117486   3.987   1.216   5.389 -3.8089 -0.4095 -1.5185
 1951SOL    HW217487   3.897   1.106   5.350 -0.1419 -1.6919 -0.1138
 1952SOL     OW17488   0.445   0.835  16.860  0.3693 -0.1114  0.1570
 1952SOL    HW117489   0.404   0.813  16.944 -0.7092 -0.2428 -0.3973
 1952SOL    HW217490   0.488   0.918  16.881 -0.2643  0.2823 -0.0740
 1953SOL     OW17491   4.389   0.195   7.831 -0.2561 -0.6725  0.0533
 1953SOL    HW117492   4.316   0.256   7.820  0.1023 -0.1444  0.5859
 1953SOL    HW217493   4.422   0.231   7.914 -3.3761  0.6681  0.7403
 1954SOL     OW17494   1.967   3.037   3.587  0.2564 -0.2803 -0.3488
 1954SOL    HW117495   1.871   3.037   3.589  0.2558 -1.0511 -0.3289
 1954SOL    HW217496   1.978   3.131   3.602  1.1388 -0.4496  0.0732
 1955SOL     OW17497   3.941   1.466  16.388 -0.5503 -0.2584  0.3538
 1955SOL    HW117498   3.987   1.390  16.352 -2.0044 -1.1346  0.3628
 1955SOL    HW217499   3.936   1.523  16.312  2.0102 -0.4812  0.0202
 1956SOL     OW17500   3.910   1.275   3.094 -0.0165 -0.7445 -0.5866
 1956SOL    HW117501   3.961   1.247   3.170  0.7379  0.6544 -0.5591
 1956SOL    HW217502   3.819   1.267   3.121  0.2160  1.1511  0.8012
 1957SOL     OW17503   4.084   1.775   7.835  0.1691  0.1572  0.0619
 1957SOL    HW117504   3.995   1.763   7.803  0.1182  0.2363  0.1774
 1957SOL    HW217505   4.079   1.730   7.919 -2.1878 -1.6028 -1.0220
 1958SOL     OW17506   3.582   4.026  17.538  0.3997 -0.1382  0.6636
 1958SOL    HW117507   3.649   4.058  17.478 -3.7228  1.5587 -3.0274
 1958SOL    HW217508   3.615   4.066  17.618  5.1988 -1.0707 -0.8865
 1959SOL     OW17509   0.731   0.679   4.956 -0.5205  0.2594  0.1081
 1959SOL    HW117510   0.661   0.651   5.015  0.6504  0.4583  1.6105
 1959SOL    HW217511   0.677   0.689   4.878 -0.0361 -2.1460 -0.5181
 1960SOL     OW17512   1.003   0.284   0.308  0.0891 -0.1159  0.4201
 1960SOL    HW117513   0.960   0.199   0.303 -0.1330  0.0864 -0.9900
 1960SOL    HW217514   1.075   0.255   0.250 -2.8228 -1.9938 -2.2483
 1961SOL     OW17515   1.765   0.652   0.633 -0.1699 -0.0464  0.6292
 1961SOL    HW117516   1.850   0.684   0.663 -0.4819  1.2697  0.1066
 1961SOL    HW217517   1.783   0.561   0.612 -2.4965 -0.1947 -0.7313
 1962SOL     OW17518   4.026   0.818   4.113 -0.4183 -0.1755  0.1823
 1962SOL    HW117519   3.947   0.853   4.071 -1.0499 -1.7554  0.0508
 1962SOL    HW217520   4.045   0.888   4.174  1.3209 -1.6183  1.2977
 1963SOL     OW17521   4.002   4.287  16.174 -0.2225 -0.4685  0.6449
 1963SOL    HW117522   3.979   4.198  16.146 -0.8133 -0.1549  0.1065
 1963SOL    HW217523   4.039   4.263  16.259  2.3475  1.3802  0.0489
 1964SOL     OW17524   2.475   3.601   3.985  0.1404 -0.2243 -0.3130
 1964SOL    HW117525   2.527   3.522   3.972  2.2679  0.8529  1.6717
 1964SOL    HW217526   2.420   3.595   3.906 -0.3844 -0.9679  0.1056
 1965SOL     OW17527   4.564   3.286   8.895  0.0952 -0.4160 -0.1734
 1965SOL    HW117528   4.523   3.260   8.978  0.3756  1.1028  0.4466
 1965SOL    HW217529   4.517   3.243   8.823  1.1847 -2.1344  0.1219
 1966SOL     OW17530   2.997   0.628  12.702 -0.2292 -0.4399  0.4170
 1966SOL    HW117531   2.933   0.686  12.661  0.8892 -1.1400 -2.3640
 1966SOL    HW217532   3.062   0.694  12.723 -1.6201  0.6591  1.2566
 1967SOL     OW17533   1.900   4.517   2.826 -0.2127  0.0876 -0.1829
 1967SOL    HW117534   1.932   4.433   2.857 -1.3411  0.4666  2.0500
 1967SOL    HW217535   1.957   4.553   2.758 -2.6989  0.8427 -1.8622
 1968SOL     OW17536   3.936   4.275   5.610  0.2729  0.4170  0.4501
 1968SOL    HW117537   3.983   4.216   5.552 -0.3930  1.3830 -1.0545
 1968SOL    HW217538   3.903   4.350   5.561  1.1390 -0.0030 -0.7701
 1969SOL     OW17539   3.667   2.733  16.034  0.7755  0.3738  0.2289
 1969SOL    HW117540   3.717   2.756  15.955  1.1627  0.2556  0.4356
 1969SOL    HW217541   3.579   2.721  15.998  0.4368 -1.8718  1.7947
 1970SOL     OW17542   0.514   3.547   0.329  0.0124 -0.1613  0.5219
 1970SOL    HW117543   0.461   3.574   0.254  0.7337  0.2725  0.1700
 1970SOL    HW217544   0.598   3.552   0.285 -0.0138 -2.4230  0.2232
 1971SOL     OW17545   3.254   3.680  12.200  0.6268  1.0135  0.0840
 1971SOL    HW117546   3.204   3.703  12.278  0.2227 -0.3361  0.2312
 1971SOL    HW217547   3.265   3.586  12.217  1.6342  0.7203 -2.2621
 1972SOL     OW17548   3.546   4.429   0.721  0.0405 -0.6047  0.7770
 1972SOL    HW117549   3.529   4.351   0.669  0.7464  0.8393 -1.6365
 1972SOL    HW217550   3.599   4.479   0.659 -1.3566  0.8508  0.7260
 1973SOL     OW17551   4.617   2.195   7.277 -0.5911 -0.0134  0.2175
 1973SOL    HW117552   4.586   2.109   7.247 -1.4590 -0.3788  2.1623
 1973SOL    HW217553   4.711   2.187   7.267 -0.6568  0.2749 -0.6145
 1974SOL     OW17554   0.176   2.457  12.987 -0.5628  0.1634 -0.4060
 1974SOL    HW117555   0.224   2.495  12.913 -0.0440 -0.4995 -0.4063
 1974SOL    HW217556   0.089   2.497  12.980 -0.0810  1.4314  0.7124
 1975SOL     OW17557   0.917   4.421   7.867  0.2113 -0.1363  0.3414
 1975SOL    HW117558   0.825   4.432   7.892  0.3226 -2.2424  1.7191
 1975SOL    HW217559   0.963   4.457   7.943  0.8236 -2.2325  0.9535
 1976SOL     OW17560   1.875   3.440   9.105 -0.3815  0.3502 -0.2956
 1976SOL    HW117561   1.854   3.365   9.049 -1.3015  0.1510  0.3147
 1976SOL    HW217562   1.905   3.501   9.037  1.3060 -0.1018  0.0579
 1977SOL     OW17563   0.761   2.931   8.117  0.0894  0.1651  0.4615
 1977SOL    HW117564   0.753   2.858   8.056 -1.7177 -0.4168  1.3813
 1977SOL    HW217565   0.674   2.926   8.157  0.0828 -1.8477  0.1769
 1978SOL     OW17566   0.535   2.501   4.047  0.5768  0.3337 -0.1430
 1978SOL    HW117567   0.471   2.463   3.987  1.0004  0.5852 -0.7524
 1978SOL    HW217568   0.498   2.487   4.135 -0.5963 -0.3639 -0.7497
 1979SOL     OW17569   1.740   3.248   6.034 -0.1562 -0.0936  0.4874
 1979SOL    HW117570   1.815   3.276   6.085  0.9491 -0.0884 -1.1555
 1979SOL    HW217571   1.781   3.192   5.969  0.1506  0.8686 -0.1422
 1980SOL     OW17572   2.277   1.442  17.263 -0.3441  0.1254 -0.3098
 1980SOL    HW117573   2.297   1.484  17.179 -1.3624  3.5978  1.1788
 1980SOL    HW217574   2.195   1.397  17.244  1.1733 -0.9535 -4.3684
 1981SOL     OW17575   0.317   2.033  16.205 -0.3384  0.1415  0.0356
 1981SOL    HW117576   0.223   2.028  16.187  0.2289  0.3449 -2.9978
 1981SOL    HW217577   0.318   2.085  16.285 -0.5133 -0.7586  0.6164
 1982SOL     OW17578   2.226   2.201   7.079  0.0457  0.2013 -0.3226
 1982SOL    HW117579   2.169   2.167   7.148  1.5621  0.3102  0.9935
 1982SOL    HW217580   2.162   2.199   7.008 -1.0165 -0.1931  0.6499
 1983SOL     OW17581   3.925   2.877   4.250 -0.3641 -0.1918  0.1937
 1983SOL    HW117582   4.009   2.848   4.285 -0.3053  2.5749  2.3633
 1983SOL    HW217583   3.875   2.803   4.217  3.5959 -1.4828 -2.9049
 1984SOL     OW17584   3.740   2.265   1.983  0.3597 -0.3664  1.1895
 1984SOL    HW117585   3.672   2.209   2.021 -1.6076  0.5624 -0.9252
 1984SOL    HW217586   3.758   2.331   2.050  2.9491  1.5233 -1.4114
 1985SOL     OW17587   0.111   4.243   8.279 -0.6716  0.0461 -0.3120
 1985SOL    HW117588   0.131   4.324   8.231  0.3566  0.2625  0.4552
 1985SOL    HW217589   0.205   4.221   8.282 -0.9660 -1.2245 -0.6613
 1986SOL     OW17590   4.515   4.413   7.243  0.2460 -0.4551 -0.4372
 1986SOL    HW117591   4.553   4.392   7.329 -0.3555  1.1850  0.2420
 1986SOL    HW217592   4.444   4.470   7.274 -0.4427 -0.4407 -2.0682
 1987SOL     OW17593   0.427   2.688   5.142  0.3627 -0.6457  0.2556
 1987SOL    HW117594   0.458   2.603   5.174 -0.2730 -1.1089 -0.3554
 1987SOL    HW217595   0.369   2.665   5.069  0.9300  3.6213 -1.5499
 1988SOL     OW17596   0.608   2.627   7.239  0.3019  0.1021 -0.1926
 1988SOL    HW117597   0.556   2.708   7.230 -0.5112 -0.2940  0.8553
 1988SOL    HW217598   0.570   2.585   7.316 -0.6603  0.5008 -0.4374
 1989SOL     OW17599   3.715   3.627   6.170 -0.2945 -0.0365 -0.3175
 1989SOL    HW117600   3.716   3.723   6.164  0.5587  0.0357  0.9249
 1989SOL    HW217601   3.775   3.619   6.244  2.8896  2.7560 -2.5961
 1990SOL     OW17602   2.097   4.385   7.973  0.0972 -0.9725  0.2079
 1990SOL    HW117603   2.055   4.437   8.040 -1.0773  0.1020 -1.3666
 1990SOL    HW217604   2.184   4.381   8.013  0.7867  2.5307 -0.9532
 1991SOL     OW17605   2.470   3.515   2.003 -0.2879  0.3029  0.0674
 1991SOL    HW117606   2.376   3.533   2.005 -0.8075 -2.2298 -1.8418
 1991SOL    HW217607   2.486   3.507   2.097 -0.2136 -2.1437 -0.1561
 1992SOL     OW17608   0.814   1.449   7.253 -0.3018  0.0954 -0.5107
 1992SOL    HW117609   0.908   1.440   7.241 -0.4021 -0.0154 -1.2166
 1992SOL    HW217610   0.797   1.367   7.299 -2.0437  2.8249  3.7973
 1993SOL     OW17611   3.099   2.132   2.687  0.3064  0.2395  0.1929
 1993SOL    HW117612   3.096   2.043   2.651  0.3301 -0.5954  2.2814
 1993SOL    HW217613   3.175   2.166   2.639  0.5256 -0.2164  0.2112
 1994SOL     OW17614   1.412   0.944  15.416  0.6293  0.3499 -0.6145
 1994SOL    HW117615   1.382   0.904  15.498  3.1297 -1.0021 -0.3531
 1994SOL    HW217616   1.324   0.964  15.382 -0.0257 -4.6123 -1.8530
 1995SOL     OW17617   0.585   3.965   5.641  0.5408  0.0577 -0.0946
 1995SOL    HW117618   0.589   3.985   5.734 -1.0318  0.1356 -0.0367
 1995SOL    HW217619   0.573   3.870   5.652 -3.0861  0.3172 -1.7169
 1996SOL     OW17620   4.270   2.216   8.113  0.0090 -0.1604 -0.3008
 1996SOL    HW117621   4.198   2.267   8.151  0.1229 -0.4492  0.3199
 1996SOL    HW217622   4.223   2.162   8.050  1.6038 -1.4393 -0.3766
 1997SOL     OW17623   0.512   3.617   5.938  0.1616  0.0297  1.0549
 1997SOL    HW117624   0.592   3.656   5.905 -1.8237  1.6939 -1.8241
 1997SOL    HW217625   0.512   3.529   5.899  0.7749  0.3722  0.2899
 1998SOL     OW17626   3.123   2.095   0.986 -0.2559  0.3281 -0.1024
 1998SOL    HW117627   3.037   2.055   0.997 -0.0366  0.2850  1.4670
 1998SOL    HW217628   3.126   2.167   1.049 -1.5300 -0.1873  0.5382
 1999SOL     OW17629   1.923   1.988   5.336 -0.0461 -0.4156 -0.0784
 1999SOL    HW117630   1.962   1.958   5.418 -2.4727  0.6295  1.4673
 1999SOL    HW217631   1.923   1.915   5.274  0.5072 -0.6775  0.2275
 2000SOL     OW17632   4.318   1.534   8.713 -0.6829  0.0004  0.6845
 2000SOL    HW117633   4.237   1.492   8.742 -0.2854 -1.6953 -0.6120
 2000SOL    HW217634   4.374   1.550   8.789  0.4055  1.2655 -0.3703
 2001SOL     OW17635   1.907   3.077   3.942  0.1485  0.4912  0.4947
 2001SOL    HW117636   1.849   3.035   3.879 -0.8796  0.2902  1.5590
 2001SOL    HW217637   1.846   3.148   3.964 -2.1242 -1.1646 -0.4898
 2002SOL     OW17638   3.390   0.439   3.028  0.3048  0.2555  0.0630
 2002SOL    HW117639   3.297   0.432   3.048  0.2700  0.6032  0.0272
 2002SOL    HW217640   3.393   0.519   2.976  0.9284 -0.0388 -0.3529
 2003SOL     OW17641   4.630   3.296  11.445  0.3264 -0.2311  0.7252
 2003SOL    HW117642   4.597   3.337  11.365 -1.9212 -3.8802 -0.1936
 2003SOL    HW217643   4.611   3.204  11.425 -2.0217  0.1647  1.1316
 2004SOL     OW17644   0.955   4.188   5.928  0.4319 -0.5383  0.2227
 2004SOL    HW117645   0.925   4.243   6.000 -1.1311 -1.0068 -0.0776
 2004SOL    HW217646   1.048   4.178   5.948  0.0868 -3.3352  0.4017
 2005SOL     OW17647   3.277   4.187   6.053 -0.1017  0.1413 -0.6502
 2005SOL    HW117648   3.238   4.101   6.034 -2.9116  1.2274  0.1703
 2005SOL    HW217649   3.193   4.233   6.057 -0.1230  0.0075  0.3697
 2006SOL     OW17650   3.372   2.018  10.112  0.3773 -0.0059  0.1185
 2006SOL    HW117651   3.358   1.998  10.205  1.2595  0.7076  0.4150
 2006SOL    HW217652   3.308   1.960  10.072 -0.0471 -0.8985  2.0656
 2007SOL     OW17653   3.669   1.552   4.106  0.2577  0.5235 -0.1852
 2007SOL    HW117654   3.577   1.575   4.098 -0.1335 -0.3137  1.8647
 2007SOL    HW217655   3.706   1.618   4.047  1.1656  2.3458  2.4384
 2008SOL     OW17656   1.579   1.785   3.411 -0.7477 -0.1944 -0.3698
 2008SOL    HW117657   1.485   1.802   3.419 -0.5746  0.8413 -0.5096
 2008SOL    HW217658   1.623   1.870   3.401  0.7527 -0.8020  0.9839
 2009SOL     OW17659   1.471   3.080   5.469  0.2946  0.4785  0.1012
 2009SOL    HW117660   1.472   3.027   5.389  1.4080 -0.8929  1.0154
 2009SOL    HW217661   1.437   3.033   5.546  1.0366 -0.6496 -0.2596
 2010SOL     OW17662   0.242   3.161   4.615  0.3702  0.7944 -0.2388
 2010SOL    HW117663   0.170   3.132   4.672  1.5664 -1.0480  0.3292
 2010SOL    HW217664   0.191   3.184   4.537  0.0323 -0.0474 -0.2690
 2011SOL     OW17665   2.045   0.780   6.978 -0.0076 -0.6487 -0.0654
 2011SOL    HW117666   2.075   0.716   6.914  0.8364  0.6352 -0.9331
 2011SOL    HW217667   2.094   0.740   7.050 -0.9965  0.2221  1.1057
 2012SOL     OW17668   0.850   1.362  14.724  0.3224 -0.2159  0.0342
 2012SOL    HW117669   0.944   1.345  14.734  0.5006  0.9869  0.4368
 2012SOL    HW217670   0.827   1.398  14.810 -1.4816 -1.0038 -0.1256
 2013SOL     OW17671   4.584   1.578  14.846 -0.3374  0.4095  0.6054
 2013SOL    HW117672   4.512   1.602  14.786 -0.7208  0.1409  0.9589
 2013SOL    HW217673   4.659   1.562  14.789  0.4755 -1.0533  2.0972
 2014SOL     OW17674   2.418   1.340   6.375  0.1452  0.1816  0.2591
 2014SOL    HW117675   2.355   1.307   6.438  0.2152 -1.5288 -0.5696
 2014SOL    HW217676   2.372   1.413   6.333 -1.2274 -1.4686 -1.1238
 2015SOL     OW17677   3.646   0.341  10.094  0.2369 -0.0421 -0.2301
 2015SOL    HW117678   3.725   0.381  10.058  0.1522 -1.2389 -1.7543
 2015SOL    HW217679   3.586   0.413  10.114  0.1092 -0.1191 -0.3312
 2016SOL     OW17680   4.266   0.430   3.371 -0.4243  0.6371  0.7712
 2016SOL    HW117681   4.352   0.387   3.371  0.3044  2.0912  1.1073
 2016SOL    HW217682   4.202   0.360   3.358 -0.1906  0.2877  1.5288
 2017SOL     OW17683   2.694   1.925  14.767  1.2650 -0.2986  0.4406
 2017SOL    HW117684   2.690   2.016  14.739  0.1636 -0.9555 -1.4936
 2017SOL    HW217685   2.679   1.926  14.862 -0.9544  0.0192  0.0928
 2018SOL     OW17686   0.057   1.552   9.138  0.5098  0.2164  0.3064
 2018SOL    HW117687   0.023   1.642   9.128 -1.6524 -0.3188  2.6830
 2018SOL    HW217688   0.071   1.521   9.048  2.0326  0.3691  0.4943
 2019SOL     OW17689   1.199   0.149  10.602 -0.0736  0.1751 -0.1601
 2019SOL    HW117690   1.106   0.145  10.626  0.2810  0.3868  1.2427
 2019SOL    HW217691   1.200   0.114  10.513 -2.2762 -1.0953  0.3146
 2020SOL     OW17692   3.157   1.542   6.574  0.9183  0.1720  0.0971
 2020SOL    HW117693   3.214   1.522   6.501  2.7156  0.8344  1.3241
 2020SOL    HW217694   3.209   1.508   6.647  3.3499  1.3961 -1.0629
 2021SOL     OW17695   2.116   2.022   6.202  0.0110 -0.1815  0.4388
 2021SOL    HW117696   2.173   1.962   6.251  1.5083  1.3322  0.5528
 2021SOL    HW217697   2.085   2.071   6.279 -0.1199 -0.9244  0.8625
 2022SOL     OW17698   4.083   0.523   4.363  0.4581  0.9306 -0.5925
 2022SOL    HW117699   4.060   0.600   4.414  3.0646  1.2790  0.0774
 2022SOL    HW217700   4.028   0.539   4.287 -3.3879 -2.6244  1.4205
 2023SOL     OW17701   0.928   0.773   7.546  0.0005  0.0613 -0.3601
 2023SOL    HW117702   1.008   0.822   7.525  0.1382  1.3802  3.2036
 2023SOL    HW217703   0.916   0.777   7.641 -0.4351 -0.1179 -0.4068
 2024SOL     OW17704   1.736   3.734   6.115  0.2896  0.2799 -0.2337
 2024SOL    HW117705   1.659   3.784   6.090 -0.0622 -0.7315 -1.1536
 2024SOL    HW217706   1.726   3.725   6.210 -1.9464 -0.1992 -0.5207
 2025SOL     OW17707   1.788   1.388   2.438 -0.0539  0.0097 -0.2687
 2025SOL    HW117708   1.798   1.432   2.353 -0.3326  1.2616  0.3444
 2025SOL    HW217709   1.757   1.463   2.490 -0.7988 -1.5365  1.5095
 2026SOL     OW17710   3.635   4.632   6.603  0.5959  0.2042 -0.1457
 2026SOL    HW117711   3.680   4.625   6.519  0.8198 -2.3864  0.1937
 2026SOL    HW217712   3.707   4.649   6.663  0.2884  0.2423  0.2137
 2027SOL     OW17713   4.060   2.631  16.791  0.0242 -0.0360  0.3913
 2027SOL    HW117714   4.063   2.605  16.883 -1.1542  3.4047  1.3782
 2027SOL    HW217715   4.048   2.724  16.809  2.0719  0.5196 -1.1014
 2028SOL     OW17716   0.682   1.495   2.404 -0.1071 -0.2226 -0.0053
 2028SOL    HW117717   0.672   1.540   2.488 -0.3093 -1.1601  0.4822
 2028SOL    HW217718   0.757   1.439   2.422 -0.5709 -0.7122  0.4350
 2029SOL     OW17719   0.683   1.661   0.075  0.1706  0.0971  0.4417
 2029SOL    HW117720   0.694   1.756   0.086  1.5334 -0.1650  1.2620
 2029SOL    HW217721   0.732   1.654  17.740  3.7509  2.0922  2.4017
 2030SOL     OW17722   3.430   2.667   1.389  0.1225 -0.1126  0.0841
 2030SOL    HW117723   3.499   2.639   1.449  0.5518  0.6252 -0.0639
 2030SOL    HW217724   3.401   2.743   1.439 -0.5756 -1.0811  1.1348
 2031SOL     OW17725   1.005   2.496   5.083  0.1418 -0.5746  0.1557
 2031SOL    HW117726   1.032   2.407   5.059  0.4619 -0.6559  0.8303
 2031SOL    HW217727   1.066   2.510   5.155  1.2979 -0.0050 -0.9220
 2032SOL     OW17728   4.488   3.528   6.709  0.2128 -0.1647 -0.4454
 2032SOL    HW117729   4.417   3.473   6.675  0.2257 -0.3340 -0.2008
 2032SOL    HW217730   4.560   3.503   6.651  0.0039  1.1596 -1.2834
 2033SOL     OW17731   3.361   3.115   3.452 -0.6998  0.0316 -0.6851
 2033SOL    HW117732   3.393   3.188   3.503  0.1217 -1.7236  1.3065
 2033SOL    HW217733   3.427   3.104   3.383 -0.2193 -0.4693 -0.1386
 2034SOL     OW17734   1.390   4.120   8.376 -0.0395 -0.0946  0.3253
 2034SOL    HW117735   1.476   4.147   8.409  1.0660 -1.7167 -1.2610
 2034SOL    HW217736   1.336   4.107   8.453 -2.0037 -0.3307 -1.1008
 2035SOL     OW17737   2.853   4.706   0.722  0.7928  0.0284  0.2799
 2035SOL    HW117738   2.885   0.042   0.669 -3.2065  0.9986 -0.8277
 2035SOL    HW217739   2.785   0.011   0.775  0.1653 -0.2031 -0.3307
 2036SOL     OW17740   4.289   1.568   3.997 -0.1132  0.0230  0.2102
 2036SOL    HW117741   4.363   1.605   3.949  0.9151 -1.3343  0.7546
 2036SOL    HW217742   4.243   1.649   4.019 -1.8988 -0.9871  0.2255
 2037SOL     OW17743   1.086   1.336  10.487 -0.6265  0.4300 -0.7266
 2037SOL    HW117744   1.062   1.285  10.564  1.1662  0.1655 -0.3402
 2037SOL    HW217745   1.042   1.285  10.419 -1.1204 -2.2469  1.6329
 2038SOL     OW17746   2.609   4.201   1.394  0.4065 -0.5899  0.3040
 2038SOL    HW117747   2.660   4.267   1.441  0.7803 -1.7852  1.5840
 2038SOL    HW217748   2.586   4.131   1.456  0.8631  0.2573  1.4327
 2039SOL     OW17749   3.473   3.838   7.223  0.4789 -0.2046 -0.2271
 2039SOL    HW117750   3.536   3.803   7.161 -3.8510 -0.5243 -4.4892
 2039SOL    HW217751   3.517   3.909   7.269  0.7021 -1.2641  1.1999
 2040SOL     OW17752   0.292   3.504   2.537 -0.1185  0.1836 -0.6921
 2040SOL    HW117753   0.360   3.519   2.603  0.0744 -1.7007 -0.4569
 2040SOL    HW217754   0.279   3.591   2.500  4.3587  0.9786 -0.3715
 2041SOL     OW17755   1.416   1.342   6.881 -0.1764 -0.4432  0.4584
 2041SOL    HW117756   1.405   1.424   6.930 -0.2750  0.7990 -1.6742
 2041SOL    HW217757   1.451   1.378   6.800  0.2072  0.2740  0.9453
 2042SOL     OW17758   0.999   3.101   2.945  0.3963  0.1796 -0.1939
 2042SOL    HW117759   0.956   3.168   2.998  0.4745  1.5134 -1.8143
 2042SOL    HW217760   1.060   3.155   2.895  2.1419  0.4656  2.2675
 2043SOL     OW17761   0.261   1.077   8.207  0.1816 -0.2563 -0.2537
 2043SOL    HW117762   0.216   1.162   8.214 -0.3373 -0.6568  1.2465
 2043SOL    HW217763   0.352   1.107   8.208  0.7432 -1.9534 -0.7803
 2044SOL     OW17764   4.264   1.515  10.397 -0.5848 -0.2803 -0.7610
 2044SOL    HW117765   4.185   1.567  10.406  1.0211  2.4800 -2.7906
 2044SOL    HW217766   4.233   1.428  10.422  2.4916 -0.0233  3.9379
 2045SOL     OW17767   0.432   1.313  15.580 -0.1744 -0.7791  0.4194
 2045SOL    HW117768   0.492   1.382  15.608 -1.7881 -0.0749  2.1418
 2045SOL    HW217769   0.363   1.334  15.643 -0.1295  1.1053 -0.1522
 2046SOL     OW17770   4.620   3.313   5.881 -0.1988 -0.2328 -0.0389
 2046SOL    HW117771   4.686   3.248   5.905 -0.3252  0.2482  1.6040
 2046SOL    HW217772   4.606   3.359   5.964 -0.8875 -0.6140  0.0510
 2047SOL     OW17773   2.151   0.166   7.765  0.5701  0.5271 -0.5826
 2047SOL    HW117774   2.098   0.245   7.776  2.2518  1.5778 -0.0901
 2047SOL    HW217775   2.129   0.107   7.837 -1.7886 -1.1856 -2.7262
 2048SOL     OW17776   0.595   0.577   2.676 -0.4024  0.1651 -0.2460
 2048SOL    HW117777   0.572   0.617   2.760 -2.5414  1.0425 -1.2688
 2048SOL    HW217778   0.684   0.606   2.655  0.0862 -2.2267 -1.4047
 2049SOL     OW17779   1.924   2.513   0.065  0.2001  0.4660  0.6728
 2049SOL    HW117780   1.918   2.599   0.023 -0.1530  0.9724  1.7427
 2049SOL    HW217781   1.834   2.503   0.097 -0.5315  1.3834 -1.0808
 2050SOL     OW17782   2.874   2.319   4.132 -0.1549 -0.3568 -0.0599
 2050SOL    HW117783   2.811   2.262   4.088 -1.2267 -0.8726  2.1552
 2050SOL    HW217784   2.879   2.276   4.217  0.0851 -2.6768 -1.2520
 2051SOL     OW17785   2.181   3.980   8.466 -0.0811  0.8025  0.6288
 2051SOL    HW117786   2.212   4.043   8.530  0.3335  0.8964  0.3362
 2051SOL    HW217787   2.228   3.897   8.479  0.5503  1.2156  0.9814
 2052SOL     OW17788   4.707   0.770   3.099 -0.4080  0.1272  0.5021
 2052SOL    HW117789   4.675   0.852   3.136  2.4487  0.7645  1.5866
 2052SOL    HW217790   4.645   0.749   3.030 -1.1294  0.0067  1.1903
 2053SOL     OW17791   1.800   4.543   7.208 -0.2173  0.3646  0.0176
 2053SOL    HW117792   1.747   4.623   7.206 -0.4189  0.2350  0.2727
 2053SOL    HW217793   1.795   4.525   7.114 -0.0173 -1.3513  0.3471
 2054SOL     OW17794   2.090   4.399   8.576 -0.4640  0.0540 -0.4943
 2054SOL    HW117795   2.121   4.357   8.496 -0.0498 -2.3552  0.9472
 2054SOL    HW217796   2.153   4.471   8.588  1.2521 -1.8060  1.7618
 2055SOL     OW17797   3.837   2.400  14.010  0.0427 -0.1324  0.3343
 2055SOL    HW117798   3.773   2.333  14.032  2.2188 -2.1065  0.5702
 2055SOL    HW217799   3.806   2.421  13.922 -1.1203 -2.0850  0.2878
 2056SOL     OW17800   4.590   2.702  16.484  0.2912  0.1403 -0.7394
 2056SOL    HW117801   4.575   2.708  16.579  0.7615 -2.6700 -0.4705
 2056SOL    HW217802   4.509   2.737  16.448  0.0639 -0.4364 -0.8000
 2057SOL     OW17803   4.311   3.715   3.595  0.1643  0.0343 -0.3906
 2057SOL    HW117804   4.314   3.624   3.566 -0.9294 -0.0869 -0.1076
 2057SOL    HW217805   4.399   3.744   3.570 -0.3516  1.6702 -0.3324
 2058SOL     OW17806   3.887   3.188  12.125  0.0002  0.4568 -0.7337
 2058SOL    HW117807   3.838   3.107  12.141  1.1410  0.0568  0.7414
 2058SOL    HW217808   3.909   3.222  12.212 -2.0604  0.3571 -0.1558
 2059SOL     OW17809   1.992   1.753   9.805  0.1686 -0.5050 -0.4887
 2059SOL    HW117810   1.912   1.708   9.831  0.3629  0.1475  1.2298
 2059SOL    HW217811   1.999   1.740   9.710 -0.1179 -1.0537 -0.4328
 2060SOL     OW17812   1.323   3.482  14.760 -0.9964  0.2197 -0.2393
 2060SOL    HW117813   1.273   3.443  14.832  0.8914  1.9932  2.0379
 2060SOL    HW217814   1.327   3.409  14.697  2.0893 -0.2575  0.4891
 2061SOL     OW17815   0.182   1.796  14.645  0.0198 -0.7653 -0.6661
 2061SOL    HW117816   0.256   1.756  14.690 -0.5335 -1.3933 -0.3156
 2061SOL    HW217817   0.156   1.874  14.695  1.4093 -0.8557  0.2101
 2062SOL     OW17818   2.755   2.241   3.642 -0.2688  0.7128 -0.6206
 2062SOL    HW117819   2.805   2.313   3.682 -0.6950  0.7766 -0.2093
 2062SOL    HW217820   2.811   2.235   3.564 -1.7666 -0.1926 -1.6129
 2063SOL     OW17821   2.457   1.328   3.061  0.5017 -0.4530 -0.4357
 2063SOL    HW117822   2.392   1.340   2.991 -0.3758 -2.5415  0.0185
 2063SOL    HW217823   2.453   1.234   3.075  1.0753 -0.3927  0.1188
 2064SOL     OW17824   4.381   0.297   6.803  0.3499 -0.4228  0.1229
 2064SOL    HW117825   4.376   0.386   6.768  1.5648 -0.6112 -0.5346
 2064SOL    HW217826   4.343   0.319   6.887 -2.0548 -1.1716 -0.7706
 2065SOL     OW17827   2.427   3.559   5.181  0.2446 -0.1049 -0.4225
 2065SOL    HW117828   2.368   3.539   5.109  0.3834 -1.3182 -0.2085
 2065SOL    HW217829   2.421   3.477   5.231 -1.8803  0.4681  0.2703
 2066SOL     OW17830   3.787   1.641  12.565  0.1477 -0.0455 -0.3797
 2066SOL    HW117831   3.774   1.548  12.550 -2.7151  0.1129  1.0770
 2066SOL    HW217832   3.804   1.646  12.659  1.8940  2.5074 -0.8183
 2067SOL     OW17833   4.208   0.864  10.680 -0.5294 -0.1853 -0.1072
 2067SOL    HW117834   4.232   0.947  10.721 -1.5891  0.0961 -0.0619
 2067SOL    HW217835   4.238   0.798  10.742  2.2425  0.7664 -0.4314
 2068SOL     OW17836   3.941   0.708   5.040 -0.2894  0.3850  0.6203
 2068SOL    HW117837   3.874   0.641   5.032 -1.5240  1.8780 -1.5738
 2068SOL    HW217838   3.914   0.777   4.979  2.2031  0.9387  0.1125
 2069SOL     OW17839   1.403   3.018  12.037  0.6309  0.3012 -0.5849
 2069SOL    HW117840   1.327   2.976  11.997  0.7077 -0.7149  0.3374
 2069SOL    HW217841   1.400   3.098  11.985 -1.5195  0.1122 -0.7729
 2070SOL     OW17842   4.559   1.995   3.528  0.1875 -0.1258  0.5041
 2070SOL    HW117843   4.610   2.021   3.451 -0.5425  0.6616  0.2892
 2070SOL    HW217844   4.520   1.911   3.504  0.7801  0.1587 -1.4731
 2071SOL     OW17845   1.617   0.460  13.917  0.0405  0.0492  0.6243
 2071SOL    HW117846   1.597   0.517  13.991 -1.5918  0.4563 -0.1161
 2071SOL    HW217847   1.572   0.493  13.840  0.3583 -1.3173 -0.1565
 2072SOL     OW17848   3.023   1.214   1.300 -0.0395  0.3193 -0.4362
 2072SOL    HW117849   3.001   1.252   1.215  1.1876 -1.3723 -1.5197
 2072SOL    HW217850   3.114   1.183   1.292 -0.1205 -0.4575  1.4903
 2073SOL     OW17851   0.255   2.985   1.714  0.2811  0.0490 -0.5467
 2073SOL    HW117852   0.294   2.945   1.792  0.8796  0.4802 -0.6215
 2073SOL    HW217853   0.175   2.936   1.695 -0.8740  1.7918 -0.2336
 2074SOL     OW17854   1.898   1.791  14.888  0.2990 -0.4387  0.1295
 2074SOL    HW117855   1.820   1.825  14.932 -0.4225 -0.4360 -1.1362
 2074SOL    HW217856   1.883   1.812  14.796  0.0264  0.5904  0.4110
 2075SOL     OW17857   4.605   3.827  15.550  0.2797 -0.2349 -0.6265
 2075SOL    HW117858   4.615   3.813  15.645  1.9002 -1.8891 -1.0512
 2075SOL    HW217859   4.546   3.760  15.517  1.4226 -1.4527 -0.1694
 2076SOL     OW17860   1.477   0.382   5.261  0.3477  0.5223  0.4899
 2076SOL    HW117861   1.470   0.443   5.335  2.2603 -1.1591  2.0571
 2076SOL    HW217862   1.455   0.300   5.305 -2.4095  1.1785  0.3743
 2077SOL     OW17863   2.969   1.264   1.553 -0.0247 -0.4398 -0.3244
 2077SOL    HW117864   3.051   1.225   1.583  1.4459  2.4076 -0.6237
 2077SOL    HW217865   2.972   1.242   1.460 -0.6931 -2.8339  0.2184
 2078SOL     OW17866   0.927   0.840   2.040  0.6946  0.1710 -0.2287
 2078SOL    HW117867   1.008   0.884   2.065  0.2037  0.9660 -0.0092
 2078SOL    HW217868   0.953   0.770   1.980 -2.5876 -1.9358  0.7814
 2079SOL     OW17869   3.151   2.580   7.853 -0.0017 -1.1004  0.2731
 2079SOL    HW117870   3.116   2.511   7.797  3.1755 -1.1417 -1.6670
 2079SOL    HW217871   3.232   2.536   7.876  1.1886  0.0244 -1.7527
 2080SOL     OW17872   0.632   2.280   9.991  0.9164 -0.8484  0.3230
 2080SOL    HW117873   0.585   2.301  10.071 -1.0722 -1.8074 -0.5980
 2080SOL    HW217874   0.592   2.332   9.921  0.1349  0.7926  1.9773
 2081SOL     OW17875   0.079   1.609   5.440 -0.0105  0.3507 -0.1053
 2081SOL    HW117876   0.062   1.529   5.390 -2.1762  1.4612 -1.1402
 2081SOL    HW217877   4.728   1.645   5.452 -0.8392 -1.4487 -0.7112
 2082SOL     OW17878   2.461   0.373   9.459  0.2785 -0.2607 -0.2061
 2082SOL    HW117879   2.438   0.281   9.445  2.8908 -0.6039 -2.0889
 2082SOL    HW217880   2.372   0.408   9.468 -0.1365 -1.0925 -1.1416
 2083SOL     OW17881   4.464   4.619   4.714  0.2667 -0.4507 -0.0859
 2083SOL    HW117882   4.400   4.677   4.754 -0.0617 -0.1204 -1.0814
 2083SOL    HW217883   4.498   4.662   4.636 -0.2629  0.2642  0.0832
 2084SOL     OW17884   3.236   1.407   1.748  0.2295 -0.3348  0.0452
 2084SOL    HW117885   3.266   1.421   1.658 -2.2396  4.0505 -0.1341
 2084SOL    HW217886   3.240   1.313   1.762  1.3213 -0.2189  0.5085
 2085SOL     OW17887   3.741   3.929   2.497 -0.0359 -0.2721 -0.1934
 2085SOL    HW117888   3.786   3.892   2.573  0.3287 -2.2602 -1.3808
 2085SOL    HW217889   3.674   3.984   2.536  0.1240  0.6807 -1.2576
 2086SOL     OW17890   4.356   3.261  14.628 -0.6103  0.0783 -0.0921
 2086SOL    HW117891   4.324   3.292  14.543  2.3316  1.7790 -0.5642
 2086SOL    HW217892   4.405   3.341  14.645 -0.5197  0.0976 -0.4301
 2087SOL     OW17893   0.476   4.063   2.774 -0.4635 -0.0136  0.2047
 2087SOL    HW117894   0.511   4.152   2.773 -1.6270  0.4030 -3.0014
 2087SOL    HW217895   0.385   4.080   2.750 -1.3335 -1.6775  2.3229
 2088SOL     OW17896   2.188   2.112   4.943  0.1173 -0.3897  0.2967
 2088SOL    HW117897   2.167   2.085   4.854 -1.3330  1.0868  0.1948
 2088SOL    HW217898   2.121   2.180   4.950 -0.9133 -1.5083  1.4372
 2089SOL     OW17899   2.279   4.348   0.335 -0.0646  0.3749  0.5918
 2089SOL    HW117900   2.199   4.399   0.346 -1.4813 -1.5194 -1.0793
 2089SOL    HW217901   2.262   4.280   0.270  0.7745  2.1869 -1.5154
 2090SOL     OW17902   1.252   0.290   5.089  0.3280  0.0718 -0.1198
 2090SOL    HW117903   1.347   0.283   5.082  0.3037 -0.1841 -0.2184
 2090SOL    HW217904   1.246   0.367   5.145  0.7912 -0.2039  0.3090
 2091SOL     OW17905   3.768   0.186   0.987 -0.3183  0.5119 -0.7289
 2091SOL    HW117906   3.685   0.211   1.028  1.4054  0.1461  2.9312
 2091SOL    HW217907   3.731   0.163   0.901  1.5164  1.1491 -1.6704
 2092SOL     OW17908   1.959   2.146  14.001  0.5793  0.0891  0.4481
 2092SOL    HW117909   1.948   2.180  13.912  0.0989  1.2469  0.9464
 2092SOL    HW217910   1.974   2.233  14.039  0.6359  0.0608  0.4911
 2093SOL     OW17911   2.662   0.247   6.181 -0.2325  0.1741  0.0443
 2093SOL    HW117912   2.590   0.267   6.122 -0.3677 -0.4565 -0.0082
 2093SOL    HW217913   2.669   0.153   6.162 -1.4985  0.1803 -0.4616
 2094SOL     OW17914   2.770   4.702   9.223  0.1733  0.1331 -0.0813
 2094SOL    HW117915   2.722   4.629   9.183  0.9961  0.2483 -1.3041
 2094SOL    HW217916   2.843   4.666   9.273  0.6943 -2.0802 -2.4412
 2095SOL     OW17917   1.842   0.593   7.173  0.9962  0.4245  0.0842
 2095SOL    HW117918   1.901   0.659   7.135  0.2388  0.1224 -1.6174
 2095SOL    HW217919   1.757   0.630   7.147  0.4265 -0.4521  0.7109
 2096SOL     OW17920   4.373   2.044   4.338 -0.0064 -0.2452 -0.1062
 2096SOL    HW117921   4.329   2.002   4.412 -0.4964  0.7638  0.1651
 2096SOL    HW217922   4.302   2.099   4.304  2.0962  1.7138 -1.2712
 2097SOL     OW17923   0.750   4.735   6.620  0.5042  0.3424  0.1636
 2097SOL    HW117924   0.818   4.736   6.688 -0.7540 -1.5986  1.4380
 2097SOL    HW217925   0.696   4.659   6.643  0.3056 -0.5022 -3.0917
 2098SOL     OW17926   1.700   0.569   9.864 -0.7102  0.4599  0.3264
 2098SOL    HW117927   1.789   0.600   9.883 -0.4525 -0.1360  0.0888
 2098SOL    HW217928   1.696   0.482   9.904 -0.1749 -0.5112 -1.7351
 2099SOL     OW17929   3.404   4.016   4.241  0.2104  0.4663 -0.2259
 2099SOL    HW117930   3.350   3.945   4.209  2.0011 -1.0647  0.1543
 2099SOL    HW217931   3.334   4.082   4.241  0.5797  0.8682  1.6892
 2100SOL     OW17932   3.283   1.576   8.946  0.1779  0.3103 -0.3874
 2100SOL    HW117933   3.330   1.558   9.027  2.3801 -0.4466 -1.8298
 2100SOL    HW217934   3.193   1.567   8.976  0.7386 -0.8956  0.9110
 2101SOL     OW17935   4.369   0.614   2.926  0.1975  0.3684  0.3431
 2101SOL    HW117936   4.301   0.676   2.899  0.8211  0.3691 -1.2566
 2101SOL    HW217937   4.438   0.655   2.874  0.4070 -0.6257 -0.1689
 2102SOL     OW17938   2.688   3.680   4.521  0.3578  0.1471 -0.0109
 2102SOL    HW117939   2.758   3.693   4.585  0.2505  0.0157  0.1344
 2102SOL    HW217940   2.724   3.627   4.450  0.7475  0.6450 -0.1845
 2103SOL     OW17941   2.670   4.246   5.405  0.2171 -0.2071 -0.1566
 2103SOL    HW117942   2.755   4.251   5.361 -0.3564 -1.1374 -1.3644
 2103SOL    HW217943   2.615   4.213   5.335  0.4561 -1.2745  0.1655
 2104SOL     OW17944   4.166   3.880   4.600 -0.3730  0.0717  0.4208
 2104SOL    HW117945   4.237   3.836   4.553 -0.3545  0.0016  0.5141
 2104SOL    HW217946   4.224   3.936   4.652 -0.3157  0.8314 -0.4714
 2105SOL     OW17947   1.701   1.675   3.930  0.2784 -0.7835 -0.0007
 2105SOL    HW117948   1.648   1.750   3.903 -0.1527 -0.5729  1.4710
 2105SOL    HW217949   1.637   1.605   3.937 -1.6070  1.1818  2.3608
 2106SOL     OW17950   3.441   0.564  16.398  0.0448 -0.0419  0.1985
 2106SOL    HW117951   3.530   0.599  16.405  0.5772 -1.4708  0.5228
 2106SOL    HW217952   3.449   0.469  16.406 -0.6553 -0.0675  0.5917
 2107SOL     OW17953   1.382   2.954   5.712  0.1999 -0.4843 -0.5611
 2107SOL    HW117954   1.458   2.915   5.755  0.2606 -0.9013 -1.0471
 2107SOL    HW217955   1.317   2.961   5.781  0.6139 -1.9570 -0.0176
 2108SOL     OW17956   3.338   4.113  12.213  0.0235 -0.1953  0.2774
 2108SOL    HW117957   3.243   4.120  12.202  0.0445 -0.2942  0.0371
 2108SOL    HW217958   3.372   4.170  12.144  0.4825 -1.5913 -0.6732
 2109SOL     OW17959   1.162   1.373   3.741  0.0531  0.0307  0.5029
 2109SOL    HW117960   1.073   1.341   3.758 -0.2062  0.7019  0.4050
 2109SOL    HW217961   1.202   1.367   3.828 -0.8310 -0.7293  0.8594
 2110SOL     OW17962   4.146   0.643   1.281  0.4113 -0.5298  0.1067
 2110SOL    HW117963   4.167   0.557   1.317 -0.4003 -0.3843  0.9043
 2110SOL    HW217964   4.052   0.648   1.296  0.2737 -0.8129 -0.6415
 2111SOL     OW17965   2.662   3.271  16.026  0.1206 -0.0892  0.0542
 2111SOL    HW117966   2.735   3.229  15.981  0.8201  0.8327  0.3099
 2111SOL    HW217967   2.590   3.209  16.026 -1.1129  1.3631 -3.0162
 2112SOL     OW17968   4.535   0.632  10.294  0.2434  0.0960 -0.3186
 2112SOL    HW117969   4.531   0.583  10.375 -0.4252  1.3674  0.4217
 2112SOL    HW217970   4.444   0.616  10.268  0.2558 -0.7213  0.1657
 2113SOL     OW17971   2.629   2.857   7.222  0.2155 -0.3352 -0.0159
 2113SOL    HW117972   2.629   2.940   7.269  0.2985 -0.0691 -0.4920
 2113SOL    HW217973   2.701   2.874   7.162 -0.2457  2.6924  0.2771
 2114SOL     OW17974   3.941   0.342   8.106  0.0460  0.0257  0.2279
 2114SOL    HW117975   3.900   0.267   8.149  1.7815 -0.3754  1.1722
 2114SOL    HW217976   4.019   0.305   8.064  0.4437  0.5587  0.5113
 2115SOL     OW17977   0.729   1.257  10.782 -0.1490  0.2837  0.4905
 2115SOL    HW117978   0.718   1.351  10.762 -0.9379 -0.0779 -0.8038
 2115SOL    HW217979   0.772   1.227  10.702 -2.0045 -0.1841 -0.3243
 2116SOL     OW17980   3.228   2.349   3.463  0.1514  0.1363  0.0195
 2116SOL    HW117981   3.283   2.374   3.538  0.5221  0.5680 -0.3997
 2116SOL    HW217982   3.237   2.418   3.397 -0.5670  0.3588  0.1539
 2117SOL     OW17983   2.563   3.810   5.845 -0.4547  0.2435  0.0095
 2117SOL    HW117984   2.562   3.730   5.792  2.4160 -0.1849  0.6171
 2117SOL    HW217985   2.608   3.794   5.927  0.7364  0.0761 -0.6733
 2118SOL     OW17986   2.701   1.723   7.317 -0.2010  0.3672 -0.5481
 2118SOL    HW117987   2.702   1.638   7.273  2.1209  0.3979 -0.5347
 2118SOL    HW217988   2.606   1.736   7.317  0.0867  2.5887  1.4080
 2119SOL     OW17989   3.330   2.435   8.433 -0.0774  0.0390 -0.0463
 2119SOL    HW117990   3.301   2.390   8.512 -2.4724 -0.6520 -1.2986
 2119SOL    HW217991   3.257   2.497   8.440  0.0023  0.1258  0.0030
 2120SOL     OW17992   2.425   0.888   3.606 -0.8467  0.6682  0.1291
 2120SOL    HW117993   2.488   0.927   3.545 -1.3606 -1.9786 -2.1149
 2120SOL    HW217994   2.466   0.911   3.689 -0.5575  0.6823 -0.0176
 2121SOL     OW17995   2.191   0.824   3.328 -0.6884 -0.0873 -0.2201
 2121SOL    HW117996   2.213   0.811   3.421 -0.6200 -2.2141 -0.5378
 2121SOL    HW217997   2.130   0.898   3.325 -1.4818 -0.7475 -0.1858
 2122SOL     OW17998   0.706   4.042   5.898 -0.0621 -0.2858 -0.0351
 2122SOL    HW117999   0.786   4.071   5.942 -1.2705  2.1852  0.5506
 2122SOL    HW218000   0.678   3.977   5.963 -0.8155 -0.2172 -0.2952
 2123SOL     OW18001   0.782   1.663  13.713  0.0777  0.1966  0.3828
 2123SOL    HW118002   0.754   1.704  13.632  2.5117 -0.4227 -0.7580
 2123SOL    HW218003   0.764   1.730  13.779  0.6359  1.4672 -0.7597
 2124SOL     OW18004   2.221   0.772   9.232 -0.1974 -0.2699  0.3688
 2124SOL    HW118005   2.180   0.713   9.295 -1.6354  0.7953  0.4328
 2124SOL    HW218006   2.242   0.707   9.164 -0.8594 -0.3447  0.2263
 2125SOL     OW18007   1.318   1.037  14.826  0.4743 -0.0760  0.7874
 2125SOL    HW118008   1.272   0.957  14.851 -0.8297  0.5711  0.4450
 2125SOL    HW218009   1.408   1.021  14.852  0.2272 -0.5627  1.3298
 2126SOL     OW18010   1.352   2.499  13.462 -0.4698 -0.1089 -0.6322
 2126SOL    HW118011   1.440   2.471  13.487 -0.9409 -1.7177 -0.7548
 2126SOL    HW218012   1.332   2.552  13.539 -1.6079 -0.5590 -0.6098
 2127SOL     OW18013   1.024   3.798  14.808  0.4927  0.2261 -0.2947
 2127SOL    HW118014   0.989   3.715  14.841 -0.2509  0.3244 -0.8300
 2127SOL    HW218015   1.095   3.805  14.871 -0.5905 -3.1279  1.2804
 2128SOL     OW18016   3.910   2.719   5.370  0.0030  0.7011 -0.1108
 2128SOL    HW118017   3.988   2.741   5.319 -0.7381 -0.1471 -1.6119
 2128SOL    HW218018   3.844   2.783   5.346 -0.2876  1.3311  2.4094
 2129SOL     OW18019   3.240   2.350   8.715  0.0451 -0.4830  1.1093
 2129SOL    HW118020   3.294   2.404   8.773 -1.7573  1.7348  0.7031
 2129SOL    HW218021   3.234   2.273   8.772  1.0828 -0.7637  0.8507
 2130SOL     OW18022   1.635   4.712   2.089  0.0399 -0.1746 -0.3539
 2130SOL    HW118023   1.573   0.034   2.046  2.3965  2.2189 -0.4540
 2130SOL    HW218024   1.711   0.028   2.068  1.1856 -0.9966  1.6728
 2131SOL     OW18025   1.884   3.763   1.749 -0.4753 -0.6407 -0.5745
 2131SOL    HW118026   1.957   3.821   1.770 -1.4966  0.5568 -0.2870
 2131SOL    HW218027   1.914   3.709   1.676  0.4377  1.8834 -2.0451
 2132SOL     OW18028   0.942   4.219   7.473  0.7259 -0.1433  0.0130
 2132SOL    HW118029   0.907   4.308   7.484  0.7333 -0.3352  1.6808
 2132SOL    HW218030   1.032   4.248   7.490  0.0875  3.2122 -2.2341
 2133SOL     OW18031   0.898   4.021  12.201  0.6907  0.0270 -0.3594
 2133SOL    HW118032   0.979   4.020  12.150  0.5124  1.6161 -0.6691
 2133SOL    HW218033   0.895   4.113  12.226 -0.0807  0.0979 -0.7239
 2134SOL     OW18034   4.173   2.723   6.773  0.2693 -0.4840 -0.1506
 2134SOL    HW118035   4.152   2.686   6.859 -1.4846 -0.0505 -0.3867
 2134SOL    HW218036   4.266   2.747   6.776  0.9298 -2.5762 -3.4424
 2135SOL     OW18037   1.293   0.130   6.322 -0.2722 -0.5676 -0.5261
 2135SOL    HW118038   1.221   0.074   6.352  1.3085 -1.7144  1.1045
 2135SOL    HW218039   1.262   0.161   6.237 -0.7896 -0.0147 -0.1418
 2136SOL     OW18040   3.862   1.858   5.150 -0.7963  0.0185  0.5763
 2136SOL    HW118041   3.806   1.824   5.080  1.9365 -3.2079 -0.0593
 2136SOL    HW218042   3.829   1.948   5.151 -0.1292  0.2442  2.6905
 2137SOL     OW18043   1.957   2.798   2.479  0.2534  0.4278  0.1927
 2137SOL    HW118044   1.935   2.726   2.538 -0.2768 -1.0269 -1.7976
 2137SOL    HW218045   1.954   2.872   2.539  1.0244 -0.0466  0.8183
 2138SOL     OW18046   1.825   2.834  16.669 -0.7872 -0.1544  0.6425
 2138SOL    HW118047   1.855   2.823  16.579 -1.2977  0.1559  0.4377
 2138SOL    HW218048   1.731   2.839  16.654 -0.3073  0.8365 -2.0221
 2139SOL     OW18049   4.505   4.316  14.923 -0.1183 -0.3730 -0.6092
 2139SOL    HW118050   4.531   4.407  14.939  0.8194 -0.3701 -2.1203
 2139SOL    HW218051   4.575   4.280  14.868 -0.4833 -1.0088 -0.6603
 2140SOL     OW18052   4.013   3.683   0.577  0.0854  0.4142  0.5194
 2140SOL    HW118053   4.037   3.647   0.662 -1.1222 -2.6418 -0.4501
 2140SOL    HW218054   4.052   3.771   0.575  0.5322  0.1877 -0.4627
 2141SOL     OW18055   0.075   0.183   2.487 -0.0962  0.2290 -0.3180
 2141SOL    HW118056   0.094   0.124   2.560 -1.4326  1.3612  0.9557
 2141SOL    HW218057   0.083   0.127   2.410 -1.6667 -0.7046  0.2044
 2142SOL     OW18058   3.605   2.103  15.786  0.1172  0.4945 -0.4095
 2142SOL    HW118059   3.577   2.179  15.836  2.5035  0.3680  1.1094
 2142SOL    HW218060   3.621   2.144  15.700 -0.0950 -0.2195 -0.7913
 2143SOL     OW18061   0.707   0.928   6.572  0.3323 -0.2916 -0.0223
 2143SOL    HW118062   0.780   0.876   6.537  0.3610  0.6238 -1.3222
 2143SOL    HW218063   0.629   0.881   6.543  0.9083 -1.0949 -0.2792
 2144SOL     OW18064   3.396   1.814  11.940 -0.3599  0.0470 -0.6843
 2144SOL    HW118065   3.314   1.797  11.986  0.2498  0.2742  0.4825
 2144SOL    HW218066   3.450   1.738  11.961  0.4102  0.5629 -0.7908
 2145SOL     OW18067   3.903   2.719  15.489  0.1636 -0.1919 -0.2040
 2145SOL    HW118068   3.963   2.793  15.484  0.5389 -0.6780 -2.6561
 2145SOL    HW218069   3.884   2.685  15.402  3.0291 -2.1627 -0.0851
 2146SOL     OW18070   1.000   3.529  13.254  0.4381 -0.0378 -0.1537
 2146SOL    HW118071   0.991   3.456  13.315  0.5249 -0.0955 -0.2094
 2146SOL    HW218072   0.953   3.488  13.182  1.3207 -0.4804 -0.4768
 2147SOL     OW18073   0.773   0.358   5.414 -0.4940 -0.1616 -0.0057
 2147SOL    HW118074   0.746   0.295   5.347 -1.5788  2.5642 -2.1011
 2147SOL    HW218075   0.743   0.442   5.379  2.6159  0.2511 -1.7052
 2148SOL     OW18076   4.327   3.818   7.657  0.2210 -0.1138 -0.5249
 2148SOL    HW118077   4.327   3.726   7.630  0.6882  0.0309 -1.0242
 2148SOL    HW218078   4.384   3.856   7.590 -1.6740  4.0739  0.2617
 2149SOL     OW18079   4.692   4.529   7.064  0.2261 -0.1243  0.0883
 2149SOL    HW118080   4.642   4.576   6.997  0.1009  0.8688  0.8692
 2149SOL    HW218081   4.622   4.486   7.113  1.6010 -1.2197  1.0793
 2150SOL     OW18082   2.706   1.239   5.503 -0.0971 -0.0685  0.1087
 2150SOL    HW118083   2.639   1.296   5.541  0.9401  1.2546 -0.0395
 2150SOL    HW218084   2.678   1.152   5.532 -1.3486  0.7210  1.2487
 2151SOL     OW18085   3.266   3.828  14.864  0.1590 -0.2803  0.5536
 2151SOL    HW118086   3.235   3.874  14.786 -0.5857  1.2059  1.7305
 2151SOL    HW218087   3.286   3.744  14.822 -1.5421 -0.5802  0.3591
 2152SOL     OW18088   0.620   3.193   7.338 -0.6398 -0.1809  0.0301
 2152SOL    HW118089   0.676   3.135   7.390  2.3032  1.4004 -1.3307
 2152SOL    HW218090   0.686   3.245   7.291 -0.6868  0.7232  0.9481
 2153SOL     OW18091   2.506   4.634  15.305 -0.2121  0.0147  0.0313
 2153SOL    HW118092   2.556   4.564  15.346 -1.3329  0.2802  1.8480
 2153SOL    HW218093   2.570   4.704  15.295  0.2344 -0.5753 -1.1894
 2154SOL     OW18094   0.065   2.843  11.873 -0.0074  0.1139  0.5314
 2154SOL    HW118095   4.721   2.889  11.853  0.3080  0.3887 -0.0990
 2154SOL    HW218096   0.028   2.757  11.890 -0.7281  0.3398  0.0864
 2155SOL     OW18097   3.166   0.521  13.850 -0.3167 -0.1984  0.1035
 2155SOL    HW118098   3.158   0.447  13.790  3.0458 -1.8302  1.6602
 2155SOL    HW218099   3.260   0.528  13.863 -0.2393 -0.8507 -0.1222
 2156SOL     OW18100   2.858   0.198   5.397  0.0050  0.0299 -0.4286
 2156SOL    HW118101   2.799   0.138   5.443 -0.2677  1.2611  0.8468
 2156SOL    HW218102   2.932   0.144   5.368 -0.4288 -2.2265  2.6463
 2157SOL     OW18103   4.293   2.725   4.655 -0.1866 -0.0976 -0.2612
 2157SOL    HW118104   4.205   2.763   4.656 -0.0500  0.1274  3.3839
 2157SOL    HW218105   4.331   2.776   4.726 -0.3056  0.6697 -0.7516
 2158SOL     OW18106   2.600   2.786   2.078  0.0661 -0.0286 -0.3996
 2158SOL    HW118107   2.681   2.757   2.122  1.9560  3.4216 -1.6167
 2158SOL    HW218108   2.578   2.704   2.034  1.5672 -0.8546  0.3644
 2159SOL     OW18109   0.685   3.871  12.962 -0.2927 -0.1308  0.2929
 2159SOL    HW118110   0.742   3.809  13.006 -1.0807 -2.0061 -1.3606
 2159SOL    HW218111   0.713   3.943  13.019  0.1097 -1.3025  1.5779
 2160SOL     OW18112   3.068   0.103   5.596  0.7558 -0.0682 -0.1268
 2160SOL    HW118113   3.028   0.164   5.535  1.7412  1.5466  0.8475
 2160SOL    HW218114   3.067   0.137   5.685  0.7286 -0.3476 -0.0200
 2161SOL     OW18115   0.584   2.303   3.330  0.3090  0.2465 -0.1970
 2161SOL    HW118116   0.579   2.297   3.426 -1.3262  0.8135 -0.2593
 2161SOL    HW218117   0.672   2.271   3.310  0.0380 -0.4013 -0.3577
 2162SOL     OW18118   0.297   1.995   7.087 -0.0635  0.4710  0.5776
 2162SOL    HW118119   0.338   2.075   7.052  0.3716  1.3300  3.0619
 2162SOL    HW218120   0.370   1.948   7.127 -1.2098 -1.1985  0.7163
 2163SOL     OW18121   4.579   0.643  14.605 -0.0435 -0.4330  0.3916
 2163SOL    HW118122   4.640   0.621  14.676  1.2962 -0.4781 -0.7702
 2163SOL    HW218123   4.645   0.661  14.538 -2.2753  0.9474 -1.4084
 2164SOL     OW18124   3.180   1.595   3.794  0.7090  0.3244 -0.2295
 2164SOL    HW118125   3.234   1.576   3.871  2.7933  2.5422 -1.1535
 2164SOL    HW218126   3.120   1.662   3.826 -2.2663 -2.8924  0.8940
 2165SOL     OW18127   1.938   4.509   4.404 -0.1215 -0.1310  0.0649
 2165SOL    HW118128   2.007   4.575   4.392  0.9546 -1.1762  0.5089
 2165SOL    HW218129   1.885   4.551   4.471  1.5102  2.2885 -0.1766
 2166SOL     OW18130   2.924   4.727   5.122  0.2790  0.7049  0.1616
 2166SOL    HW118131   2.859   0.054   5.150 -0.3925 -0.0811  0.3957
 2166SOL    HW218132   2.975   0.036   5.055 -0.2593  0.0030 -0.7213
 2167SOL     OW18133   0.056   3.822   8.291 -0.4267  0.0103 -0.2861
 2167SOL    HW118134   0.036   3.733   8.318 -2.6099  1.1147  1.8032
 2167SOL    HW218135   0.063   3.864   8.377  2.4139  1.1536 -1.0519
 2168SOL     OW18136   2.576   1.754   9.216  0.0279  0.1098 -0.3810
 2168SOL    HW118137   2.543   1.669   9.244 -0.7491  0.4531 -0.2548
 2168SOL    HW218138   2.602   1.790   9.301 -1.1991  0.5356 -0.1929
 2169SOL     OW18139   2.299   1.373   8.391  0.0669  0.0094 -0.4070
 2169SOL    HW118140   2.266   1.348   8.305  0.0203 -0.3125 -0.2956
 2169SOL    HW218141   2.230   1.335   8.446 -0.4227  0.5804 -0.6326
 2170SOL     OW18142   3.807   3.835  15.851  0.0800 -0.0526 -0.1690
 2170SOL    HW118143   3.798   3.846  15.945 -0.4254  2.2675 -0.4904
 2170SOL    HW218144   3.774   3.746  15.835 -1.4678  0.4962 -0.0183
 2171SOL     OW18145   4.006   1.586   6.122  0.0246  0.6383 -0.0100
 2171SOL    HW118146   3.987   1.680   6.124  0.1395  0.6556  0.3741
 2171SOL    HW218147   4.004   1.562   6.030  1.1242  1.3720 -0.2310
 2172SOL     OW18148   2.374   0.172   5.514  0.1567  0.3726 -0.1247
 2172SOL    HW118149   2.453   0.169   5.568  0.9777 -0.7253 -1.3810
 2172SOL    HW218150   2.344   0.257   5.544  1.3443  1.6964 -2.7504
 2173SOL     OW18151   0.715   3.439   2.597  0.5865 -0.2701 -0.4411
 2173SOL    HW118152   0.657   3.411   2.526 -1.0839  0.4049  0.6654
 2173SOL    HW218153   0.707   3.371   2.663 -0.1964 -0.2218 -0.4855
 2174SOL     OW18154   2.847   0.968  11.155 -0.0932  0.1901 -0.8454
 2174SOL    HW118155   2.883   1.054  11.177  0.8579 -0.5531  0.5678
 2174SOL    HW218156   2.927   0.916  11.146  0.3442  0.2846  2.4857
 2175SOL     OW18157   3.008   3.006   9.821 -0.2636  0.3978 -0.4818
 2175SOL    HW118158   3.022   3.032   9.912  2.6657  0.6176 -0.9892
 2175SOL    HW218159   2.920   3.041   9.805 -0.3015 -0.0291 -1.1873
 2176SOL     OW18160   1.700   2.716  11.727  0.5826 -0.1943 -0.0270
 2176SOL    HW118161   1.655   2.792  11.691 -0.4372 -0.8077 -0.0421
 2176SOL    HW218162   1.643   2.700  11.802 -0.6359  1.3587 -0.6234
 2177SOL     OW18163   4.571   3.418  11.676  0.9292 -0.0249  0.2678
 2177SOL    HW118164   4.611   3.411  11.589 -0.9361 -0.7139 -0.5258
 2177SOL    HW218165   4.499   3.356  11.666  0.7409  0.2632 -0.1953
 2178SOL     OW18166   4.248   0.976   3.962 -0.0226  0.1644  0.3977
 2178SOL    HW118167   4.202   1.042   4.015  0.3721 -0.4422  1.4952
 2178SOL    HW218168   4.176   0.931   3.918  2.2777 -1.9636 -1.2000
 2179SOL     OW18169   4.496   2.364   8.194  0.3431  0.4486 -0.6268
 2179SOL    HW118170   4.407   2.340   8.167  1.1663 -1.1335 -1.9727
 2179SOL    HW218171   4.531   2.278   8.219 -1.1836  0.4044  1.2980
 2180SOL     OW18172   1.929   0.826   7.407  0.4120 -0.0532 -0.3824
 2180SOL    HW118173   1.879   0.901   7.439  0.4485 -0.1799 -0.0202
 2180SOL    HW218174   2.021   0.851   7.420  0.1431 -0.0058  1.4903
 2181SOL     OW18175   1.328   2.229   0.062  0.3306  0.1259  0.2397
 2181SOL    HW118176   1.338   2.292  17.737  0.2332  1.4610  1.4038
 2181SOL    HW218177   1.338   2.299   0.127 -0.1752 -0.5461  1.0329
 2182SOL     OW18178   4.339   3.412  17.456 -0.8417 -0.8051  0.1274
 2182SOL    HW118179   4.394   3.441  17.529  2.5912 -1.8385 -2.0526
 2182SOL    HW218180   4.266   3.472  17.470  0.2579  0.6881 -0.4977
 2183SOL     OW18181   4.057   1.807   0.670  0.6238  0.0358  0.1007
 2183SOL    HW118182   4.123   1.803   0.740  0.8152  0.4937 -0.0555
 2183SOL    HW218183   4.063   1.901   0.656  1.8353  0.3122  2.4156
 2184SOL     OW18184   0.583   0.438  14.530  0.4856  0.7314 -0.5920
 2184SOL    HW118185   0.598   0.344  14.544 -0.5118  1.2130  3.7837
 2184SOL    HW218186   0.488   0.431  14.521  0.3903 -0.3122  1.1252
 2185SOL     OW18187   1.117   3.719  12.036  0.3621  0.2217  0.3464
 2185SOL    HW118188   1.181   3.648  12.037 -0.1393 -0.2176  0.7831
 2185SOL    HW218189   1.167   3.792  12.074  0.2753  0.0030  0.8791
 2186SOL     OW18190   1.044   0.625  13.410  0.0019 -0.7506  0.0426
 2186SOL    HW118191   1.067   0.704  13.459  1.5943 -1.9021  1.1717
 2186SOL    HW218192   1.114   0.635  13.345  0.4902 -0.7869  0.5682
 2187SOL     OW18193   2.714   1.483   5.845 -0.0600 -0.1258 -0.0972
 2187SOL    HW118194   2.691   1.411   5.904 -1.0779 -0.1952 -0.5770
 2187SOL    HW218195   2.751   1.548   5.906  0.6844 -0.7378  0.1137
 2188SOL     OW18196   3.628   2.780   7.348 -0.1115  0.1549  0.2268
 2188SOL    HW118197   3.628   2.844   7.418  0.1878  1.2700 -0.7972
 2188SOL    HW218198   3.596   2.826   7.270 -1.6339 -0.0280  0.7507
 2189SOL     OW18199   1.855   4.517   6.893 -0.2223 -0.5537  0.4288
 2189SOL    HW118200   1.830   4.468   6.815 -1.2786  2.9126 -1.4037
 2189SOL    HW218201   1.859   4.608   6.864 -0.8536  0.1527  2.5558
 2190SOL     OW18202   0.015   0.446   2.794 -0.3146  0.1989 -0.2769
 2190SOL    HW118203   4.696   0.374   2.764  0.9504 -2.3959  3.4870
 2190SOL    HW218204   0.070   0.451   2.715  0.4411 -3.3425  0.0105
 2191SOL     OW18205   1.700   4.664   9.042  0.3024 -0.8830  0.6810
 2191SOL    HW118206   1.768   4.614   9.088  1.4842  1.3456  1.3642
 2191SOL    HW218207   1.688   4.626   8.955  2.1959 -1.0953  0.4969
 2192SOL     OW18208   3.289   1.161   3.701 -0.5576  0.4244  0.3342
 2192SOL    HW118209   3.297   1.137   3.793  0.7898 -1.7255 -0.3508
 2192SOL    HW218210   3.199   1.195   3.700 -0.9541 -0.6405 -0.4319
 2193SOL     OW18211   1.328   2.591  12.043 -0.7057  0.0113 -0.3590
 2193SOL    HW118212   1.289   2.656  11.984 -1.2211 -0.3211 -0.3835
 2193SOL    HW218213   1.400   2.564  11.987 -1.2447  1.5079 -1.7923
 2194SOL     OW18214   4.705   0.642   4.547 -0.1823 -0.1966  0.2079
 2194SOL    HW118215   4.624   0.679   4.581 -0.5168  0.8456 -1.7100
 2194SOL    HW218216   4.681   0.550   4.534 -1.9188  0.4035 -0.8052
 2195SOL     OW18217   1.909   0.379   7.340 -0.3684 -0.3763 -0.3806
 2195SOL    HW118218   1.842   0.316   7.367  0.2298 -0.5162  0.7578
 2195SOL    HW218219   1.958   0.332   7.272 -0.2662  0.9786 -1.2571
 2196SOL     OW18220   4.020   1.391   5.433 -0.3731  0.3867 -0.2272
 2196SOL    HW118221   4.060   1.413   5.348  0.7636 -0.8752 -0.0209
 2196SOL    HW218222   4.064   1.464   5.477  3.1750 -2.1538  0.4348
 2197SOL     OW18223   3.451   2.475   7.624  0.3547 -0.0262  0.0216
 2197SOL    HW118224   3.387   2.428   7.677 -1.5987  0.3381 -1.9947
 2197SOL    HW218225   3.401   2.542   7.577  1.3804 -0.7655 -2.1435
 2198SOL     OW18226   0.415   0.860  14.177 -0.5077  0.1375  0.2587
 2198SOL    HW118227   0.406   0.861  14.082 -0.6561  1.7084  0.2953
 2198SOL    HW218228   0.496   0.811  14.189 -1.4326 -1.2473  0.8581
 2199SOL     OW18229   2.584   0.648   8.737 -0.4685 -0.5594  0.2841
 2199SOL    HW118230   2.620   0.670   8.822 -1.5357  4.6582 -0.6620
 2199SOL    HW218231   2.577   0.552   8.740 -0.0319 -0.6293 -1.0402
 2200SOL     OW18232   3.379   2.228   7.430 -0.1924 -0.5730  0.3863
 2200SOL    HW118233   3.342   2.234   7.518  0.2687 -0.0029  0.5366
 2200SOL    HW218234   3.466   2.190   7.444 -0.3880 -1.4617 -0.7933
 2201SOL     OW18235   1.672   0.944   6.418 -0.3432 -0.2229  0.5433
 2201SOL    HW118236   1.582   0.918   6.398 -0.2371 -0.1763 -0.0201
 2201SOL    HW218237   1.666   1.020   6.475  1.8746  0.3549  0.0025
 2202SOL     OW18238   2.513   2.615   8.075 -0.1096  0.0963 -0.7918
 2202SOL    HW118239   2.584   2.653   8.023  1.5019 -3.8891 -1.5267
 2202SOL    HW218240   2.520   2.522   8.054 -3.7238 -0.1687 -0.7456
 2203SOL     OW18241   1.085   1.878   5.394 -0.0378  0.5276 -0.2431
 2203SOL    HW118242   1.089   1.967   5.361  2.4924  0.0064 -1.3643
 2203SOL    HW218243   1.057   1.888   5.485 -1.0160 -0.6460 -0.4137
 2204SOL     OW18244   3.103   3.609   1.983 -0.5197  0.1442 -0.2705
 2204SOL    HW118245   3.157   3.617   1.905 -0.4954 -0.3421 -0.2999
 2204SOL    HW218246   3.112   3.515   1.995 -1.1155  0.2686  1.1971
 2205SOL     OW18247   0.792   2.796  17.105  0.1897 -0.5024  0.3135
 2205SOL    HW118248   0.861   2.849  17.065 -0.5516  0.2072 -0.0301
 2205SOL    HW218249   0.747   2.859  17.161  0.2088 -1.2203  1.1308
 2206SOL     OW18250   1.740   4.662   3.522 -1.0179 -0.4623 -0.2947
 2206SOL    HW118251   1.689   4.617   3.455  0.3024 -1.3688 -0.6992
 2206SOL    HW218252   1.795   4.589   3.551  1.5121  1.4680 -0.2645
 2207SOL     OW18253   3.761   0.584   7.332 -0.2364 -0.2179 -0.4314
 2207SOL    HW118254   3.759   0.516   7.399  0.2275 -0.4575 -0.6576
 2207SOL    HW218255   3.852   0.581   7.303  0.3433  0.7452  1.2655
 2208SOL     OW18256   4.561   4.136   3.610 -0.4391 -0.5417 -0.0624
 2208SOL    HW118257   4.543   4.220   3.569  2.7769  0.6375  0.9037
 2208SOL    HW218258   4.550   4.163   3.701 -1.7301 -1.0440 -0.0720
 2209SOL     OW18259   0.203   1.962   8.627 -0.4249 -0.2802 -0.2702
 2209SOL    HW118260   0.177   1.902   8.697 -1.1610 -1.5823 -1.6388
 2209SOL    HW218261   0.232   1.906   8.555 -1.1315 -2.1505  0.8725
 2210SOL     OW18262   3.077   2.388   6.519  0.0446  0.4180  0.5509
 2210SOL    HW118263   3.134   2.311   6.514 -0.8831 -0.3459  1.6992
 2210SOL    HW218264   3.106   2.441   6.445  0.1036  2.3988  1.9796
 2211SOL     OW18265   3.731   1.822   8.024  0.5426  0.0175  0.3426
 2211SOL    HW118266   3.760   1.801   8.113 -1.0664 -1.9544  0.4096
 2211SOL    HW218267   3.683   1.903   8.042  2.6192  1.7490 -1.8919
 2212SOL     OW18268   2.125   4.150   3.242  0.4337  0.2362  0.2478
 2212SOL    HW118269   2.033   4.177   3.245  0.0670 -1.0180  0.2992
 2212SOL    HW218270   2.142   4.149   3.148 -0.9136  0.9713 -0.0026
 2213SOL     OW18271   3.176   0.198   1.967 -0.5344 -0.0935  0.6606
 2213SOL    HW118272   3.105   0.258   1.986 -0.8662 -0.2265 -0.1627
 2213SOL    HW218273   3.243   0.219   2.032  0.9663 -1.6369 -0.3519
 2214SOL     OW18274   4.661   4.199   5.632 -0.6897 -0.5197  0.0636
 2214SOL    HW118275   0.016   4.222   5.621 -1.5572  3.2089  0.4656
 2214SOL    HW218276   4.627   4.288   5.645  0.8913  0.1736 -0.5360
 2215SOL     OW18277   0.394   2.253   7.387  0.2602  0.4196 -0.5519
 2215SOL    HW118278   0.386   2.162   7.417  0.8565  0.3797 -0.5230
 2215SOL    HW218279   0.453   2.225   7.318 -0.8939 -2.3089 -0.4499
 2216SOL     OW18280   3.068   0.572  10.682 -0.1079 -0.2936  0.1060
 2216SOL    HW118281   3.003   0.620  10.630  1.0089 -0.8643 -1.8270
 2216SOL    HW218282   3.094   0.501  10.623 -0.5383  0.7406 -1.3362
 2217SOL     OW18283   2.226   3.056   6.912 -0.5018  0.2042  0.0646
 2217SOL    HW118284   2.207   2.972   6.870  1.7435 -0.1831 -0.1827
 2217SOL    HW218285   2.174   3.118   6.860 -1.1888  1.2561  1.9921
 2218SOL     OW18286   2.914   0.915   8.884  0.2916  0.6701 -0.2236
 2218SOL    HW118287   3.008   0.898   8.882  0.1832  0.2171 -1.4676
 2218SOL    HW218288   2.892   0.862   8.807  0.2130  0.6984 -0.2208
 2219SOL     OW18289   1.626   4.447   5.354 -0.0337 -0.5530  0.0752
 2219SOL    HW118290   1.667   4.385   5.295  1.7481 -1.2580  2.0674
 2219SOL    HW218291   1.552   4.472   5.299  1.1399 -0.6025 -1.5195
 2220SOL     OW18292   1.197   3.030   0.958 -0.4648  0.0020 -0.2271
 2220SOL    HW118293   1.216   2.945   1.000  0.4330 -0.3375 -1.3245
 2220SOL    HW218294   1.106   3.046   0.983  0.6302 -1.1566  4.6375
 2221SOL     OW18295   2.029   3.619   2.265  0.0189  0.8344 -0.0400
 2221SOL    HW118296   1.950   3.589   2.220 -0.4216 -0.0621  1.3245
 2221SOL    HW218297   2.087   3.544   2.258 -2.3407 -0.7096 -2.7993
 2222SOL     OW18298   0.961   4.339   9.995 -0.0745 -0.3311 -0.5921
 2222SOL    HW118299   0.881   4.300  10.031  0.1409 -0.4643 -0.2644
 2222SOL    HW218300   0.934   4.367   9.908 -1.9875  0.8413  0.3755
 2223SOL     OW18301   3.395   4.631   4.852 -0.2095 -0.6089  0.1839
 2223SOL    HW118302   3.447   4.618   4.773 -1.8549 -0.8162 -0.8761
 2223SOL    HW218303   3.394   4.542   4.888  1.7183 -0.0527  1.6314
 2224SOL     OW18304   1.627   0.204   8.895 -0.4105  0.2744 -0.1058
 2224SOL    HW118305   1.575   0.220   8.973  0.2539 -1.2580  0.6465
 2224SOL    HW218306   1.664   0.119   8.919  0.5976  0.6277 -0.3982
 2225SOL     OW18307   3.631   0.406   5.744  0.0884  0.1165 -0.0471
 2225SOL    HW118308   3.696   0.476   5.742  0.6910 -0.4748 -1.1637
 2225SOL    HW218309   3.552   0.459   5.739 -0.0629 -0.2083 -0.9386
 2226SOL     OW18310   3.977   3.830   1.553  0.0623 -0.2737  0.3440
 2226SOL    HW118311   4.069   3.855   1.552 -0.3222  1.0151 -2.8557
 2226SOL    HW218312   3.950   3.889   1.624 -0.5074  0.2642 -0.3271
 2227SOL     OW18313   4.650   0.906   0.628 -0.3738  0.4636  0.0493
 2227SOL    HW118314   4.685   0.919   0.540  1.7355 -1.4278  0.5936
 2227SOL    HW218315   4.720   0.940   0.684 -0.3137 -2.6545  1.9225
 2228SOL     OW18316   0.413   4.547  16.486 -0.0403 -0.3206  0.0032
 2228SOL    HW118317   0.472   4.579  16.418 -1.2235 -0.3948 -1.0477
 2228SOL    HW218318   0.372   4.628  16.514  2.3912 -0.5323  4.1705
 2229SOL     OW18319   0.815   3.818   4.724 -0.2872 -0.1356 -0.2813
 2229SOL    HW118320   0.738   3.803   4.669  0.5235 -2.0405 -0.8909
 2229SOL    HW218321   0.840   3.903   4.688 -1.6975  0.3524 -0.0928
 2230SOL     OW18322   2.568   2.246   0.981  0.4483 -0.0764  1.0104
 2230SOL    HW118323   2.566   2.211   1.070 -1.3166  0.7983  1.3062
 2230SOL    HW218324   2.659   2.242   0.952  0.3030 -1.6198  0.7362
 2231SOL     OW18325   1.846   3.957   5.965 -0.1991  0.3573  0.4838
 2231SOL    HW118326   1.815   4.029   5.910  2.1238  0.6056 -0.4968
 2231SOL    HW218327   1.765   3.908   5.981  1.1792 -1.3476  2.2576
 2232SOL     OW18328   2.302   4.506   8.807  0.5684  1.0741 -0.3287
 2232SOL    HW118329   2.318   4.569   8.737  0.4227  1.0245 -0.4073
 2232SOL    HW218330   2.225   4.541   8.851 -0.3919  0.3095 -1.3837
 2233SOL     OW18331   0.167   2.986   8.422  0.5128 -0.4091  0.0480
 2233SOL    HW118332   0.139   2.994   8.513 -1.6040  1.8745 -0.8329
 2233SOL    HW218333   0.099   2.933   8.380 -1.5033  2.2612 -0.0160
 2234SOL     OW18334   3.213   0.861  13.593 -0.0321  0.3649  0.1011
 2234SOL    HW118335   3.208   0.839  13.686 -1.4699  0.4166  0.0439
 2234SOL    HW218336   3.306   0.858  13.570  0.4702 -0.6932  2.2270
 2235SOL     OW18337   2.614   3.871  17.540 -0.1215 -0.0992 -0.2064
 2235SOL    HW118338   2.708   3.856  17.529 -0.5014 -1.9451 -0.7926
 2235SOL    HW218339   2.580   3.828  17.462 -0.9592  0.5593 -0.2025
 2236SOL     OW18340   4.698   3.267  10.896 -0.3807  0.1248  0.2195
 2236SOL    HW118341   4.641   3.191  10.907  1.4169 -1.3592 -0.8088
 2236SOL    HW218342   0.008   3.273  10.979  0.4750 -1.8907 -0.1416
 2237SOL     OW18343   1.711   3.459   2.804 -0.1149 -0.1019 -0.0885
 2237SOL    HW118344   1.645   3.396   2.833  0.4248 -1.3192 -1.5098
 2237SOL    HW218345   1.655   3.537   2.806 -1.1668 -0.8776  0.6272
 2238SOL     OW18346   0.509   4.179  12.900 -0.1157 -0.1982 -0.2819
 2238SOL    HW118347   0.603   4.166  12.908  0.0415  0.0986 -1.7827
 2238SOL    HW218348   0.469   4.141  12.979 -2.8507  1.7159 -0.7769
 2239SOL     OW18349   1.100   0.026   4.838  0.5867  0.2192 -0.1328
 2239SOL    HW118350   1.116   4.728   4.926 -0.3410  0.5006  0.1494
 2239SOL    HW218351   1.055   0.107   4.861  0.8328  0.7173 -1.4548
 2240SOL     OW18352   1.912   4.128   4.789 -0.1060 -0.2473  0.0677
 2240SOL    HW118353   1.846   4.059   4.775 -2.6994  1.9360  1.4607
 2240SOL    HW218354   1.979   4.099   4.728 -0.8596 -1.0824 -0.3660
 2241SOL     OW18355   0.205   3.579  12.871  0.9183 -0.2044  0.4682
 2241SOL    HW118356   0.212   3.674  12.886 -0.9572 -0.0534  0.3597
 2241SOL    HW218357   0.110   3.574  12.873  1.0769 -2.5728  2.0479
 2242SOL     OW18358   2.249   0.557   5.264  0.0069  0.5143 -0.2594
 2242SOL    HW118359   2.258   0.625   5.197  1.5168 -1.2019 -1.8059
 2242SOL    HW218360   2.214   0.610   5.336 -1.5771  0.8852 -1.2878
 2243SOL     OW18361   3.968   4.540   7.701  0.3687  0.1076 -0.2089
 2243SOL    HW118362   4.008   4.481   7.765 -2.3295 -1.7319 -0.1986
 2243SOL    HW218363   4.010   4.623   7.724  1.3682 -0.1713 -1.0430
 2244SOL     OW18364   3.961   2.264   6.901 -0.1559 -1.2867  0.3646
 2244SOL    HW118365   4.054   2.240   6.896  0.3780  1.1489 -1.1079
 2244SOL    HW218366   3.959   2.328   6.972 -2.0892 -0.2726 -0.6272
 2245SOL     OW18367   2.058   2.365   8.975  0.3256  0.1422  0.2708
 2245SOL    HW118368   2.050   2.335   8.885 -1.5906  1.2107  0.0964
 2245SOL    HW218369   2.035   2.289   9.030  1.6790 -0.5144 -0.0786
 2246SOL     OW18370   2.299   1.189  11.852 -0.3194 -0.1260  0.1450
 2246SOL    HW118371   2.387   1.219  11.875  0.9817 -3.2269 -0.7051
 2246SOL    HW218372   2.323   1.142  11.772 -1.4189  1.0006 -0.8328
 2247SOL     OW18373   3.440   2.371   6.213 -0.0973  0.1563  0.0752
 2247SOL    HW118374   3.353   2.398   6.243 -0.6449 -0.7469 -0.6978
 2247SOL    HW218375   3.482   2.358   6.298  1.1059 -0.1605 -0.5725
 2248SOL     OW18376   0.564   3.010  15.561 -0.7249 -0.2773  0.3740
 2248SOL    HW118377   0.512   2.945  15.513  1.6373 -0.4951 -1.9255
 2248SOL    HW218378   0.508   3.086  15.544 -1.7024 -0.8608  1.0617
 2249SOL     OW18379   1.027   0.992   4.056  0.2853  0.6834  0.2966
 2249SOL    HW118380   1.049   1.082   4.082  0.0872  0.8974 -0.2924
 2249SOL    HW218381   0.933   0.990   4.075  0.0449 -0.3277 -1.0272
 2250SOL     OW18382   2.629   2.831   6.162 -0.1066  0.1086  0.1551
 2250SOL    HW118383   2.630   2.907   6.104 -1.7593  0.2884  0.3650
 2250SOL    HW218384   2.691   2.766   6.130  1.0614  1.1441  0.2927
 2251SOL     OW18385   2.781   2.357   6.015 -0.9511 -0.0056  0.3607
 2251SOL    HW118386   2.686   2.348   6.025 -0.8891 -0.9953  0.0621
 2251SOL    HW218387   2.782   2.438   6.065 -1.9648 -0.2323  0.7477
 2252SOL     OW18388   2.683   3.947   9.853  0.2787  0.3453  0.0449
 2252SOL    HW118389   2.593   3.939   9.886  0.7620 -0.1535  1.2261
 2252SOL    HW218390   2.696   4.042   9.857  2.2050  0.0893 -0.2475
 2253SOL     OW18391   2.170   4.528   9.346 -0.0842  0.1488 -0.8267
 2253SOL    HW118392   2.150   4.505   9.255 -0.5264  0.7212 -0.8685
 2253SOL    HW218393   2.256   4.564   9.325  0.1471 -0.8669 -1.6379
 2254SOL     OW18394   1.945   1.048   8.763 -0.0479 -0.2480 -0.0894
 2254SOL    HW118395   1.906   0.965   8.791 -0.9772  1.0673  2.4572
 2254SOL    HW218396   1.903   1.048   8.677 -1.2360  3.9379  0.4909
 2255SOL     OW18397   0.284   1.692  10.425 -0.3445 -0.1003 -0.2426
 2255SOL    HW118398   0.227   1.615  10.421 -1.2319  0.3666  3.4952
 2255SOL    HW218399   0.225   1.758  10.388 -1.4726 -0.7601  0.3800
 2256SOL     OW18400   2.923   4.565   9.405  0.0228  0.0807 -0.2362
 2256SOL    HW118401   2.959   4.531   9.487  2.7854 -0.0036 -1.4638
 2256SOL    HW218402   2.830   4.565   9.426 -0.2495 -0.5835 -1.4262
 2257SOL     OW18403   0.893   2.853   2.916 -0.5519  0.0640  0.7536
 2257SOL    HW118404   0.821   2.900   2.874  1.4579  1.5204 -1.1014
 2257SOL    HW218405   0.946   2.932   2.931  1.4076 -0.7390 -1.9859
 2258SOL     OW18406   0.556   4.680  13.012  0.1417  0.6335  0.5771
 2258SOL    HW118407   0.482   4.622  13.026 -0.2253  0.9988  0.1470
 2258SOL    HW218408   0.615   4.665  13.086  1.3147  0.8813 -0.3004
 2259SOL     OW18409   3.801   0.886  15.215  0.4192 -0.2952  0.1973
 2259SOL    HW118410   3.816   0.895  15.121 -0.4957 -2.1942 -0.1352
 2259SOL    HW218411   3.750   0.805  15.220 -0.4726  0.2309 -0.5341
 2260SOL     OW18412   1.831   1.111   5.479  0.3792 -0.0888  0.3674
 2260SOL    HW118413   1.740   1.116   5.451  0.4798 -2.9462 -0.4525
 2260SOL    HW218414   1.873   1.170   5.416  1.0664 -1.5426 -0.5371
 2261SOL     OW18415   1.239   1.943  15.222 -0.1252 -0.1375 -0.4737
 2261SOL    HW118416   1.253   1.962  15.315  0.8160 -2.3543 -0.1437
 2261SOL    HW218417   1.211   2.027  15.188 -1.9192 -1.0586 -1.2984
 2262SOL     OW18418   4.003   1.166   2.030  0.4735 -0.3901  0.3894
 2262SOL    HW118419   3.924   1.180   2.082 -0.2739  1.2766 -1.1839
 2262SOL    HW218420   4.049   1.246   2.058  1.1227 -0.7184  0.2707
 2263SOL     OW18421   4.354   1.538   7.878 -0.4348 -0.4294 -0.7090
 2263SOL    HW118422   4.270   1.495   7.898  1.1802 -3.2799 -0.0385
 2263SOL    HW218423   4.363   1.618   7.930 -1.4683  0.8944 -2.5587
 2264SOL     OW18424   3.380   4.664  17.089  0.0239 -0.2031  0.2329
 2264SOL    HW118425   3.361   4.577  17.052 -0.3665  0.4986 -1.1941
 2264SOL    HW218426   3.473   4.661  17.109 -0.1996 -0.1793  1.3003
 2265SOL     OW18427   3.498   3.842   7.898  0.0523  0.3807 -0.3448
 2265SOL    HW118428   3.546   3.822   7.978  1.2482  0.0728 -1.1496
 2265SOL    HW218429   3.438   3.913   7.924  1.7360  1.4263  0.6998
 2266SOL     OW18430   4.057   0.254   6.864  0.1176 -0.1673  0.0372
 2266SOL    HW118431   4.065   0.315   6.791  1.1742 -0.1001  0.2147
 2266SOL    HW218432   4.068   0.322   6.930  0.6800  0.6552 -0.8997
 2267SOL     OW18433   1.405   4.637   8.762 -0.5285 -1.0706  0.2174
 2267SOL    HW118434   1.425   4.645   8.855  1.2696 -3.0642  0.0316
 2267SOL    HW218435   1.325   4.585   8.753 -0.1149 -1.8432  0.9968
 2268SOL     OW18436   1.327   2.350  17.445 -0.3081  0.0356 -0.0081
 2268SOL    HW118437   1.237   2.377  17.458 -0.3210  0.0751 -0.1850
 2268SOL    HW218438   1.330   2.263  17.486  0.7389 -0.6483 -1.5108
 2269SOL     OW18439   2.691   0.071   8.475 -0.2422  0.8147  0.0228
 2269SOL    HW118440   2.741   4.727   8.467 -0.7195  0.3199  2.3644
 2269SOL    HW218441   2.629   0.044   8.407 -0.8870  0.2440  0.8492
 2270SOL     OW18442   1.322   1.789   3.403  0.2970 -0.1305 -0.4351
 2270SOL    HW118443   1.261   1.720   3.375 -3.2493  3.3674 -1.4102
 2270SOL    HW218444   1.292   1.865   3.353  0.8481  0.4821  0.1696
 2271SOL     OW18445   4.387   0.850   6.656  0.3859  0.3202 -0.1472
 2271SOL    HW118446   4.382   0.884   6.566  1.0709  1.9443  0.4222
 2271SOL    HW218447   4.292   0.854   6.668  0.1198  0.2448 -2.2502
 2272SOL     OW18448   2.055   1.912  10.505  0.0554  0.3788 -0.3598
 2272SOL    HW118449   2.050   1.868  10.590 -0.6590 -0.5958 -0.9027
 2272SOL    HW218450   1.992   1.852  10.464  0.8786 -0.6033 -0.2005
 2273SOL     OW18451   0.769   3.364   7.709 -0.1547 -0.1245  0.3702
 2273SOL    HW118452   0.822   3.391   7.634 -1.2410  1.2613  0.0886
 2273SOL    HW218453   0.687   3.342   7.666 -0.4878 -0.3431  1.1131
 2274SOL     OW18454   4.527   1.654   8.890 -0.1883 -0.6665  0.1505
 2274SOL    HW118455   4.472   1.654   8.968  0.2188 -0.3259  0.4337
 2274SOL    HW218456   4.490   1.725   8.837  0.3791 -0.9988 -0.6876
 2275SOL     OW18457   3.333   1.743   6.836  0.9878 -0.1271 -0.0370
 2275SOL    HW118458   3.242   1.760   6.812  1.1730 -1.5665 -1.8037
 2275SOL    HW218459   3.354   1.812   6.898  2.0711  0.4555 -1.0477
 2276SOL     OW18460   0.953   2.099   7.211  0.6419  0.1657 -0.3231
 2276SOL    HW118461   0.928   2.081   7.302 -0.4233  0.9765 -0.4643
 2276SOL    HW218462   0.957   2.009   7.178  1.0670  0.5441 -1.2986
 2277SOL     OW18463   2.789   4.031   4.880 -0.0312  0.0209  0.0098
 2277SOL    HW118464   2.825   3.957   4.929  2.3259  0.6155 -0.8125
 2277SOL    HW218465   2.757   4.081   4.955 -1.0871 -0.2983 -0.2324
 2278SOL     OW18466   0.541   3.802   7.968 -0.0789  0.1228  0.3766
 2278SOL    HW118467   0.526   3.895   7.986  0.6089  0.0674  1.1985
 2278SOL    HW218468   0.584   3.784   8.051  0.8837 -0.6062 -0.2894
 2279SOL     OW18469   0.834   0.601  13.202  0.0933 -0.1938 -0.0976
 2279SOL    HW118470   0.804   0.690  13.182 -2.7034 -0.9516  0.6632
 2279SOL    HW218471   0.891   0.608  13.279 -1.5979 -0.7530  1.2105
 2280SOL     OW18472   0.602   4.732  15.655  0.0837 -0.1282  0.2422
 2280SOL    HW118473   0.517   0.018  15.692  0.1343 -0.9891  0.8759
 2280SOL    HW218474   0.628   4.667  15.719 -0.9792 -1.6778 -0.9093
 2281SOL     OW18475   3.940   3.292  17.549  0.4764 -0.8431 -0.1850
 2281SOL    HW118476   3.896   3.335  17.476  3.6782 -2.6190 -3.1912
 2281SOL    HW218477   3.896   3.323  17.628 -0.5047  0.9769 -1.4405
 2282SOL     OW18478   3.606   3.202  12.377 -0.2716 -0.2576 -0.2436
 2282SOL    HW118479   3.689   3.249  12.364  0.3649 -0.9368  1.3346
 2282SOL    HW218480   3.590   3.236  12.465  0.2632  0.5665 -0.4628
 2283SOL     OW18481   2.999   1.213   6.092  0.4011 -0.4217 -0.1768
 2283SOL    HW118482   3.070   1.202   6.155 -0.1018 -2.1966  0.0960
 2283SOL    HW218483   2.940   1.280   6.126 -0.6045 -0.8809 -0.9749
 2284SOL     OW18484   1.881   1.956   5.825  1.2558  0.3286  0.0040
 2284SOL    HW118485   1.795   1.918   5.838  0.3765  1.6885 -1.7660
 2284SOL    HW218486   1.896   1.975   5.917  0.1675 -1.4260  0.5350
 2285SOL     OW18487   1.944   0.791  15.203  0.7831  0.1637  0.2962
 2285SOL    HW118488   1.897   0.866  15.166 -1.8945 -1.8984 -0.4769
 2285SOL    HW218489   2.032   0.826  15.189 -0.5783  3.2081 -0.6320
 2286SOL     OW18490   0.622   2.655   1.026 -0.5479 -0.1909  1.1345
 2286SOL    HW118491   0.621   2.707   1.106  1.6188 -0.6889  1.4807
 2286SOL    HW218492   0.559   2.703   0.973 -0.1421 -0.8231  0.0688
 2287SOL     OW18493   4.654   2.394   1.111 -0.0744 -0.1279  0.4802
 2287SOL    HW118494   4.588   2.371   1.177  0.5345 -0.0861  1.1130
 2287SOL    HW218495   4.604   2.447   1.049  1.4486 -0.0703 -0.7007
 2288SOL     OW18496   4.162   1.976   1.967  0.4054 -0.2676 -0.2984
 2288SOL    HW118497   4.177   1.929   2.049 -1.1328 -0.9820 -0.4103
 2288SOL    HW218498   4.078   2.015   1.993 -0.4965  0.1573 -3.8223
 2289SOL     OW18499   0.005   0.700   7.031  0.0872 -0.0667  0.1489
 2289SOL    HW118500   4.718   0.651   6.953  1.3928 -0.6973  0.1358
 2289SOL    HW218501   4.657   0.722   7.068  0.0299  3.1115 -1.8636
 2290SOL     OW18502   4.635   2.178  13.116  0.4687  0.1613  0.8024
 2290SOL    HW118503   4.650   2.254  13.172  1.0316  1.2766 -0.8668
 2290SOL    HW218504   4.726   2.164  13.092  0.2181  0.2102 -0.2065
 2291SOL     OW18505   0.547   2.239   6.680  0.1744  0.0890  0.0323
 2291SOL    HW118506   0.512   2.262   6.594  0.4978  3.0374  0.6769
 2291SOL    HW218507   0.519   2.148   6.689  0.8167 -0.3698 -2.7034
 2292SOL     OW18508   1.559   4.297   6.904  0.1130 -0.0228  0.6630
 2292SOL    HW118509   1.634   4.321   6.958 -1.9058  1.4238  2.8133
 2292SOL    HW218510   1.509   4.379   6.906  0.6993  0.2924  1.9001
 2293SOL     OW18511   2.405   1.920   1.332 -0.0089 -0.2837 -0.1311
 2293SOL    HW118512   2.404   2.011   1.302  0.7750 -0.7063 -1.4322
 2293SOL    HW218513   2.466   1.925   1.405 -1.2628  0.0857  0.8938
 2294SOL     OW18514   2.073   2.851   9.734 -0.5721 -0.0817 -0.0914
 2294SOL    HW118515   2.104   2.911   9.666 -0.4307 -0.0381  0.0106
 2294SOL    HW218516   2.009   2.905   9.780  0.1192 -1.1993  2.1825
 2295SOL     OW18517   3.372   1.872   9.831  0.6152 -0.5031  0.4152
 2295SOL    HW118518   3.459   1.859   9.870 -0.5465 -2.3077  2.3864
 2295SOL    HW218519   3.312   1.857   9.904 -1.3092  1.6299 -0.7428
 2296SOL     OW18520   1.056   3.102   5.177 -0.2643 -0.4705  0.5834
 2296SOL    HW118521   0.989   3.056   5.126 -0.5660  0.0127  0.5433
 2296SOL    HW218522   1.016   3.089   5.263  2.6370 -0.4240  1.9079
 2297SOL     OW18523   4.656   1.304   2.780 -0.0637 -0.5479  0.2739
 2297SOL    HW118524   4.593   1.306   2.708 -1.2336  1.1346  1.3392
 2297SOL    HW218525   4.735   1.281   2.732 -1.3325 -1.1158 -1.5331
 2298SOL     OW18526   2.727   0.904   3.202  0.0152 -0.1295 -0.4790
 2298SOL    HW118527   2.637   0.900   3.234  0.1174  0.8393 -0.0792
 2298SOL    HW218528   2.769   0.822   3.228  2.2281  1.2746  0.3442
 2299SOL     OW18529   0.597   1.225   2.809  0.1568 -0.0333 -0.1067
 2299SOL    HW118530   0.680   1.271   2.807  0.9571 -1.3829  1.6397
 2299SOL    HW218531   0.539   1.297   2.833  1.9899  1.1049  0.8676
 2300SOL     OW18532   1.359   4.015   8.043 -0.7022  0.1568 -0.5382
 2300SOL    HW118533   1.304   3.938   8.052  1.4586 -1.5430 -1.7373
 2300SOL    HW218534   1.328   4.069   8.116 -0.2634 -2.4940  1.6031
 2301SOL     OW18535   0.779   1.881   4.961  0.0120  0.4186  0.3701
 2301SOL    HW118536   0.713   1.820   4.929  0.1979 -0.0306  0.8578
 2301SOL    HW218537   0.803   1.843   5.045  2.6207 -1.1319 -1.0870
 2302SOL     OW18538   2.525   2.506   1.185 -0.2407  0.2048  0.1911
 2302SOL    HW118539   2.443   2.542   1.150 -0.7480 -0.9123  0.2450
 2302SOL    HW218540   2.588   2.532   1.117 -2.4949  0.6802 -1.7090
 2303SOL     OW18541   1.999   4.496  17.542  0.2608 -0.3130  0.1890
 2303SOL    HW118542   2.038   4.538  17.619  0.2560 -1.7796  0.9963
 2303SOL    HW218543   2.071   4.436  17.523  0.3455  0.3030 -1.4540
 2304SOL     OW18544   4.183   0.192   4.305  0.5224 -0.0997 -0.1098
 2304SOL    HW118545   4.111   0.183   4.243  0.2709  0.3376  0.1166
 2304SOL    HW218546   4.258   0.192   4.245 -0.7899  2.3424 -1.7328
 2305SOL     OW18547   2.029   0.131   4.717  0.1705  0.0231  0.0545
 2305SOL    HW118548   1.955   0.192   4.730 -0.9804 -1.3957  0.1659
 2305SOL    HW218549   2.085   0.196   4.674 -0.8504  2.1217  1.8463
 2306SOL     OW18550   3.050   3.596   7.433  0.1139  0.1411  0.0899
 2306SOL    HW118551   3.072   3.525   7.372  0.4665 -0.5167  0.9760
 2306SOL    HW218552   3.001   3.659   7.380  0.2928 -1.1545 -1.6472
 2307SOL     OW18553   2.453   4.363   7.020 -0.1598  0.1162 -0.2749
 2307SOL    HW118554   2.395   4.425   7.065  0.0429  0.5034 -0.5492
 2307SOL    HW218555   2.537   4.403   7.000  0.5809 -0.5868  1.4484
 2308SOL     OW18556   0.992   0.236   9.468  0.3329 -0.1143 -0.0952
 2308SOL    HW118557   1.049   0.215   9.542  0.7014  2.9757  0.4987
 2308SOL    HW218558   0.910   0.195   9.494 -0.6183  0.9412 -1.4736
 2309SOL     OW18559   1.080   3.735   5.865 -0.4022 -0.9308 -0.1470
 2309SOL    HW118560   0.985   3.741   5.858 -0.2588 -0.0125 -1.2373
 2309SOL    HW218561   1.072   3.718   5.959 -0.1917 -0.1576  0.0052
 2310SOL     OW18562   0.781   4.426   7.605 -0.5279  0.5214  0.2436
 2310SOL    HW118563   0.714   4.364   7.634  1.2975 -1.5405  0.0597
 2310SOL    HW218564   0.833   4.436   7.684 -0.0225 -1.3867  0.1423
 2311SOL     OW18565   3.821   3.472  13.369  0.1811 -0.7466  0.2091
 2311SOL    HW118566   3.798   3.477  13.462 -1.4288 -2.6214 -0.1037
 2311SOL    HW218567   3.803   3.562  13.342  2.3214 -0.2851  0.3449
 2312SOL     OW18568   1.984   1.850  12.628 -0.5525  0.3058 -0.1296
 2312SOL    HW118569   1.897   1.852  12.667  0.5131  2.3434  2.1667
 2312SOL    HW218570   2.031   1.924  12.667  1.9632 -0.7170 -1.2601
 2313SOL     OW18571   0.426   0.083   3.831 -0.0750 -0.0281 -0.4737
 2313SOL    HW118572   0.433   4.730   3.800  1.0697 -0.1759  0.1983
 2313SOL    HW218573   0.485   0.134   3.775 -0.3245  1.7996  0.9277
 2314SOL     OW18574   1.555   2.878  16.546  0.6228  0.6212  0.6283
 2314SOL    HW118575   1.479   2.902  16.599  1.8879  1.7531  1.9526
 2314SOL    HW218576   1.518   2.839  16.468 -1.1049  1.6125  0.9464
 2315SOL     OW18577   1.121   0.040  12.668  0.1011 -0.0546 -0.4816
 2315SOL    HW118578   1.028   0.043  12.643  0.0072  0.4065 -0.0819
 2315SOL    HW218579   1.120   0.125  12.713 -2.2581  0.2604 -1.1066
 2316SOL     OW18580   2.871   2.102   7.639  0.5148  0.0332  0.7184
 2316SOL    HW118581   2.881   2.153   7.559 -1.1252  0.8997  1.0749
 2316SOL    HW218582   2.854   2.018   7.595  3.4423 -0.0702 -0.2048
 2317SOL     OW18583   3.488   1.118   7.499  0.0510 -0.0865 -0.5763
 2317SOL    HW118584   3.529   1.090   7.417  1.4860 -0.4238  0.2515
 2317SOL    HW218585   3.516   1.047   7.558  0.5370  0.0015 -0.7013
 2318SOL     OW18586   1.459   1.702   2.680  0.3498 -0.1991 -0.0619
 2318SOL    HW118587   1.470   1.710   2.586  0.3580  2.7986  0.1865
 2318SOL    HW218588   1.381   1.648   2.677 -0.0208  0.3537 -0.2500
 2319SOL     OW18589   4.420   0.751   2.092  0.0881 -0.1195  0.2017
 2319SOL    HW118590   4.408   0.837   2.133 -1.2879 -0.5034  0.6206
 2319SOL    HW218591   4.358   0.761   2.020 -0.1667 -1.0077  0.2966
 2320SOL     OW18592   4.145   3.338   2.286 -0.0309 -0.3161  0.2180
 2320SOL    HW118593   4.236   3.322   2.261  0.3195  2.3546 -0.2409
 2320SOL    HW218594   4.160   3.415   2.340 -0.0334 -0.1764  0.0186
 2321SOL     OW18595   1.600   0.046  13.679 -0.6709  0.1719 -0.2628
 2321SOL    HW118596   1.679   4.737  13.650  0.4789  2.0985 -0.2113
 2321SOL    HW218597   1.599   0.015  13.769 -1.6027  0.6510 -0.1202
 2322SOL     OW18598   0.808   4.357   2.961 -0.5434 -0.5700  0.3712
 2322SOL    HW118599   0.787   4.450   2.956  0.7658 -0.3434 -0.7797
 2322SOL    HW218600   0.826   4.350   3.055 -1.8116 -1.8239  0.5274
 2323SOL     OW18601   0.038   2.222   9.892  0.0062  0.1443 -0.2386
 2323SOL    HW118602   4.684   2.236   9.868  0.0269  0.2302 -0.2672
 2323SOL    HW218603   0.072   2.310   9.875 -0.1703  0.5279  1.3792
 2324SOL     OW18604   4.619   1.793   9.423  0.1294 -0.7349  0.1097
 2324SOL    HW118605   4.679   1.719   9.428 -0.8399 -1.4130  1.7775
 2324SOL    HW218606   4.624   1.833   9.511  0.3416  0.9526 -0.6658
 2325SOL     OW18607   0.779   3.266   0.800  0.0490 -0.1704 -0.3353
 2325SOL    HW118608   0.756   3.343   0.749 -2.7004 -2.1449 -2.1014
 2325SOL    HW218609   0.772   3.191   0.741 -1.7157 -0.2036 -0.1086
 2326SOL     OW18610   2.286   3.802   3.660 -0.1226 -0.1412 -0.1170
 2326SOL    HW118611   2.200   3.792   3.702 -0.8158  1.4529 -1.1307
 2326SOL    HW218612   2.302   3.893   3.683  0.1412  0.2225 -1.7410
 2327SOL     OW18613   0.017   0.087   3.289  0.4628  0.1149 -0.0420
 2327SOL    HW118614   4.730   0.124   3.374 -0.1704  1.2780 -0.7388
 2327SOL    HW218615   0.097   0.037   3.308 -0.2938 -1.1427 -0.1290
 2328SOL     OW18616   0.447   0.138  11.970 -0.3578  0.1542  0.3332
 2328SOL    HW118617   0.531   0.124  12.013 -1.7845  0.3981  3.2040
 2328SOL    HW218618   0.394   0.094  12.036 -0.9868  0.1719 -0.1562
 2329SOL     OW18619   0.787   1.312   1.778 -0.0568 -0.5416  0.0616
 2329SOL    HW118620   0.826   1.353   1.701  0.0806 -0.0841  0.3716
 2329SOL    HW218621   0.861   1.261   1.811 -0.6353 -0.6002  1.2737
 2330SOL     OW18622   2.906   0.658  10.875 -0.1492  0.5712 -0.4956
 2330SOL    HW118623   2.957   0.621  10.803 -0.7828 -2.1387  0.4178
 2330SOL    HW218624   2.955   0.631  10.953  0.8356 -0.5569 -1.4939
 2331SOL     OW18625   1.484   1.777   9.603 -0.2841 -0.2812 -0.7512
 2331SOL    HW118626   1.537   1.857   9.605 -0.0824 -0.4142 -0.7111
 2331SOL    HW218627   1.401   1.816   9.628  0.7187 -0.2245  2.4736
 2332SOL     OW18628   2.327   4.574  12.783  0.0389  0.0952 -0.3364
 2332SOL    HW118629   2.398   4.527  12.826 -0.8168 -1.3365 -0.4966
 2332SOL    HW218630   2.276   4.496  12.760  0.1666  0.3579 -1.5173
 2333SOL     OW18631   3.147   3.914   6.982  0.6116  0.2029 -0.3298
 2333SOL    HW118632   3.153   3.832   7.030  0.4864  0.2295 -0.2693
 2333SOL    HW218633   3.132   3.898   6.889 -0.5297 -0.0655 -0.0923
 2334SOL     OW18634   0.501   2.636   6.828  0.2050 -0.1332  0.0028
 2334SOL    HW118635   0.423   2.581   6.823 -0.1243  0.2835  0.4649
 2334SOL    HW218636   0.563   2.576   6.870 -1.4971 -2.4940 -0.8790
 2335SOL     OW18637   1.621   1.697  11.380 -0.3826 -0.0221  0.5380
 2335SOL    HW118638   1.610   1.677  11.287  1.4969  2.5047 -0.2441
 2335SOL    HW218639   1.717   1.693  11.380 -0.2450  3.0105 -0.6785
 2336SOL     OW18640   2.741   4.046   8.537 -0.3654  0.4581  0.0233
 2336SOL    HW118641   2.665   4.015   8.587  0.9966  2.4500  3.3973
 2336SOL    HW218642   2.759   3.966   8.487  2.7042  1.0694  0.1847
 2337SOL     OW18643   0.572   0.784   7.022 -0.1980 -0.0990  0.3933
 2337SOL    HW118644   0.569   0.777   7.117 -1.2121  1.1620  0.4503
 2337SOL    HW218645   0.630   0.860   7.020  0.9051 -0.9035  1.8254
 2338SOL     OW18646   3.491   2.931  10.552 -0.2240 -0.1298  0.4104
 2338SOL    HW118647   3.468   2.859  10.611  0.6799 -1.4427 -0.8158
 2338SOL    HW218648   3.571   2.888  10.519 -2.1872 -1.4069 -2.6586
 2339SOL     OW18649   3.359   0.489   5.095 -0.0310 -0.3747  0.3078
 2339SOL    HW118650   3.372   0.500   5.189 -0.2151 -1.1748  0.4278
 2339SOL    HW218651   3.413   0.411   5.084 -1.4432 -1.6214  2.2846
 2340SOL     OW18652   4.502   0.844   3.634  0.5148  0.3179 -0.5451
 2340SOL    HW118653   4.489   0.832   3.728  1.3844  0.4487 -0.4033
 2340SOL    HW218654   4.560   0.920   3.621 -0.6254  1.0777 -1.1390
 2341SOL     OW18655   3.079   4.587   3.450  0.2135 -0.0537 -0.4473
 2341SOL    HW118656   2.997   4.627   3.422 -0.6364 -0.9330  0.7976
 2341SOL    HW218657   3.057   4.494   3.441 -1.2835  0.2319  0.1770
 2342SOL     OW18658   2.680   3.623  11.482  0.1357 -0.7332 -0.2292
 2342SOL    HW118659   2.630   3.556  11.529 -1.8302  1.7294  1.2175
 2342SOL    HW218660   2.767   3.603  11.517 -0.0435 -0.7052  0.2438
 2343SOL     OW18661   0.348   0.829   3.224 -0.1735 -0.3242  0.6280
 2343SOL    HW118662   0.339   0.820   3.129 -0.8177  1.9868  0.4572
 2343SOL    HW218663   0.425   0.887   3.231 -0.2320 -0.4451  2.2371
 2344SOL     OW18664   0.811   2.664  17.365 -0.1614  0.3662  0.7015
 2344SOL    HW118665   0.742   2.643  17.427 -0.4403  1.9082  0.9277
 2344SOL    HW218666   0.765   2.637  17.286 -1.1758 -0.8488  1.7217
 2345SOL     OW18667   0.985   3.228   1.432 -0.2594  0.1748  0.3859
 2345SOL    HW118668   0.981   3.289   1.506  1.6425 -1.2585  1.6692
 2345SOL    HW218669   0.894   3.211   1.411  0.0323  0.6380 -1.2453
 2346SOL     OW18670   4.137   1.549   8.490  0.1018 -0.2452 -0.0645
 2346SOL    HW118671   4.177   1.583   8.410 -1.0754 -0.3741 -0.7015
 2346SOL    HW218672   4.201   1.573   8.558 -1.2640  0.6485  0.9004
 2347SOL     OW18673   0.112   1.616   2.313 -0.0754 -0.2565  0.3500
 2347SOL    HW118674   0.063   1.691   2.348  0.4459  0.1168  0.2943
 2347SOL    HW218675   0.165   1.593   2.389 -2.3290 -0.4462  1.8364
 2348SOL     OW18676   4.317   0.595  16.972  0.0566 -0.2946  0.1012
 2348SOL    HW118677   4.409   0.594  16.998  0.7840 -1.1826 -2.5033
 2348SOL    HW218678   4.289   0.505  16.954 -1.0285  0.0844 -0.0709
 2349SOL     OW18679   1.843   3.359   7.091 -0.0661 -0.0267 -0.6971
 2349SOL    HW118680   1.849   3.342   7.185  0.8850 -1.2424 -0.9681
 2349SOL    HW218681   1.927   3.403   7.085  0.3991 -0.7173  0.6706
 2350SOL     OW18682   1.877   3.267  17.357 -0.0885 -0.5978  0.4612
 2350SOL    HW118683   1.793   3.232  17.331 -0.9247  0.3231  1.8943
 2350SOL    HW218684   1.936   3.209  17.309  1.1612  1.5599 -0.6074
 2351SOL     OW18685   2.265   4.219   5.832 -0.8506  0.7122 -0.0545
 2351SOL    HW118686   2.175   4.212   5.798 -1.2242  2.1900  0.6447
 2351SOL    HW218687   2.297   4.129   5.824  0.5519  0.9672  2.8957
 2352SOL     OW18688   2.802   0.344   8.384 -0.3616  0.1027  0.3936
 2352SOL    HW118689   2.720   0.374   8.424 -0.8493 -1.1134  0.3046
 2352SOL    HW218690   2.860   0.401   8.436  2.3306 -2.5001  0.2533
 2353SOL     OW18691   2.369   0.935   7.603 -0.0122 -0.2862 -0.9375
 2353SOL    HW118692   2.458   0.965   7.617 -0.2728 -0.5873  1.3707
 2353SOL    HW218693   2.382   0.880   7.525  1.4160 -0.2984 -0.6732
 2354SOL     OW18694   1.294   1.982  15.477  0.2655  0.0294 -0.1842
 2354SOL    HW118695   1.345   2.060  15.497 -0.6339  0.1218  1.7887
 2354SOL    HW218696   1.229   1.990  15.547 -0.5629  0.1202 -0.9599
 2355SOL     OW18697   0.860   3.343  11.814  0.5680  0.0058 -0.2984
 2355SOL    HW118698   0.944   3.297  11.815  0.7816  0.4247  1.5594
 2355SOL    HW218699   0.824   3.319  11.729 -0.2302  1.7518 -0.4443
 2356SOL     OW18700   0.958   0.433   0.027 -0.2428  0.4162 -0.3718
 2356SOL    HW118701   0.970   0.339   0.013 -1.1359  0.1520  0.6174
 2356SOL    HW218702   0.936   0.444   0.119 -1.3372 -1.1629 -0.4402
 2357SOL     OW18703   1.197   2.235  10.437 -0.5268  0.1617  0.3723
 2357SOL    HW118704   1.129   2.283  10.390  0.9323  0.6782 -1.1894
 2357SOL    HW218705   1.141   2.172  10.482  0.7195 -0.0860  1.5889
 2358SOL     OW18706   2.566   1.921   2.805 -0.0293 -0.1227 -0.7581
 2358SOL    HW118707   2.589   1.983   2.873 -1.4457 -0.0710 -0.3364
 2358SOL    HW218708   2.635   1.938   2.740  0.4863 -1.5704 -0.5960
 2359SOL     OW18709   4.647   2.627  10.129 -0.4643 -0.7568  0.2466
 2359SOL    HW118710   4.552   2.627  10.131 -0.4194  0.1394  2.6241
 2359SOL    HW218711   4.663   2.717  10.100 -0.5331 -1.0724 -0.7751
 2360SOL     OW18712   3.583   1.535   7.431  0.6241 -0.6563  0.0036
 2360SOL    HW118713   3.507   1.500   7.384  2.7025 -1.2240 -2.9615
 2360SOL    HW218714   3.656   1.527   7.369  0.1587  0.8787 -0.7507
 2361SOL     OW18715   1.353   4.715   2.740  0.4922 -0.2425  0.0006
 2361SOL    HW118716   1.298   4.676   2.672 -1.5264 -0.9639  2.0422
 2361SOL    HW218717   1.343   0.071   2.717 -1.3760  0.0355  1.8813
 2362SOL     OW18718   0.380   0.358   3.231 -0.3337 -0.2850  0.0268
 2362SOL    HW118719   0.392   0.303   3.154 -0.7358  0.7726 -0.7810
 2362SOL    HW218720   0.343   0.436   3.190 -0.7041 -1.2808 -1.5435
 2363SOL     OW18721   0.027   2.361   5.045  0.3277 -0.5074  0.5523
 2363SOL    HW118722   0.112   2.391   5.076  0.0091  0.7420  0.2139
 2363SOL    HW218723   0.034   2.272   5.079 -1.3674 -0.6987  0.3735
 2364SOL     OW18724   2.727   4.715   6.059  0.2189  0.0549  0.3099
 2364SOL    HW118725   2.737   4.685   5.969 -2.2198  0.1273  0.0228
 2364SOL    HW218726   2.786   4.661   6.111  2.3942  0.4110 -1.7635
 2365SOL     OW18727   1.118   4.609   6.795  0.3267  0.0380 -0.0481
 2365SOL    HW118728   1.049   4.641   6.853  0.4071 -2.5696  1.4982
 2365SOL    HW218729   1.148   4.694   6.762  2.3831 -0.4374  0.6030
 2366SOL     OW18730   1.167   0.090  10.333 -0.4797  0.1780  0.5075
 2366SOL    HW118731   1.144   0.122  10.246 -0.5357  0.6620  0.7043
 2366SOL    HW218732   1.095   0.027  10.338 -0.7410  0.6252  2.7038
 2367SOL     OW18733   1.513   0.815   5.249  0.7077  0.1644  0.5832
 2367SOL    HW118734   1.473   0.746   5.197 -0.3855  1.5996 -0.4943
 2367SOL    HW218735   1.446   0.829   5.316 -0.2898 -1.8265 -0.0072
 2368SOL     OW18736   4.015   0.807  16.899  0.2334  0.1780  0.2398
 2368SOL    HW118737   3.933   0.839  16.862 -0.9527 -0.7796  2.0242
 2368SOL    HW218738   4.039   0.746  16.828 -3.0692 -1.2746  0.3603
 2369SOL     OW18739   3.757   4.057   8.068  0.2770 -0.2185 -0.3622
 2369SOL    HW118740   3.799   4.141   8.048  0.3120 -0.6961 -2.2753
 2369SOL    HW218741   3.795   4.008   7.995  0.9122  1.4802 -1.1771
 2370SOL     OW18742   0.272   2.238  12.762 -0.4007  0.4433  0.0167
 2370SOL    HW118743   0.201   2.260  12.701  1.1065  0.6625 -1.6505
 2370SOL    HW218744   0.310   2.326  12.767 -0.9802  0.7708 -1.3880
 2371SOL     OW18745   4.538   0.335  14.547 -0.3328 -0.5230  0.2244
 2371SOL    HW118746   4.485   0.310  14.471 -1.3452 -0.5771  0.9521
 2371SOL    HW218747   4.586   0.397  14.490 -2.6657  1.0460 -0.0319
 2372SOL     OW18748   3.192   3.761   7.620 -0.3721  0.3191 -0.2380
 2372SOL    HW118749   3.269   3.708   7.641 -1.1439 -0.1528  1.3752
 2372SOL    HW218750   3.148   3.696   7.566 -1.3198 -1.2528  2.4165
 2373SOL     OW18751   2.419   3.238   0.539 -0.1563  0.1223 -0.1286
 2373SOL    HW118752   2.408   3.268   0.449 -1.3551  0.9149  0.2762
 2373SOL    HW218753   2.347   3.178   0.560 -0.9535  0.6649 -1.3297
 2374SOL     OW18754   0.416   1.942   0.980  0.3704  0.2384 -0.1269
 2374SOL    HW118755   0.366   2.015   0.942 -0.4854 -0.5140 -0.4466
 2374SOL    HW218756   0.355   1.869   0.967 -1.3729  1.5878  0.4235
 2375SOL     OW18757   3.779   3.164   6.574 -0.3297 -0.1769 -0.0830
 2375SOL    HW118758   3.857   3.110   6.590  0.1032  0.6212  0.4767
 2375SOL    HW218759   3.768   3.155   6.480 -1.0579  2.0299 -0.1905
 2376SOL     OW18760   1.274   4.399   5.286 -0.5472  0.4522  0.3048
 2376SOL    HW118761   1.313   4.485   5.273 -0.7542  0.3915 -0.6636
 2376SOL    HW218762   1.216   4.434   5.354 -0.4025 -0.5625  0.9527
 2377SOL     OW18763   1.826   1.684  14.456  0.5801  0.1480 -0.0755
 2377SOL    HW118764   1.806   1.743  14.528  0.4676 -0.2876  0.2483
 2377SOL    HW218765   1.744   1.636  14.440  0.9326  0.6239 -3.3958
 2378SOL     OW18766   4.510   3.401  16.010 -0.2460 -0.2862 -0.1978
 2378SOL    HW118767   4.543   3.464  16.075  1.3867 -0.8934 -0.4494
 2378SOL    HW218768   4.595   3.358  16.001 -0.4323 -0.2675 -1.9744
 2379SOL     OW18769   2.990   3.339  11.490 -0.4986  0.1200  0.1642
 2379SOL    HW118770   3.015   3.393  11.415 -0.7498  0.1882  0.1327
 2379SOL    HW218771   2.947   3.408  11.540 -0.6242 -0.4649  0.8672
 2380SOL     OW18772   1.674   2.024   9.103 -0.0994 -0.3837  0.0398
 2380SOL    HW118773   1.674   1.928   9.101  0.2522 -0.3598 -0.9947
 2380SOL    HW218774   1.735   2.036   9.176 -0.1837 -1.1262  0.2285
 2381SOL     OW18775   2.327   2.497   9.075 -0.0480 -0.4030 -0.6862
 2381SOL    HW118776   2.258   2.431   9.070 -0.0507 -0.4806  0.3985
 2381SOL    HW218777   2.405   2.441   9.068  0.5764  0.2268  1.2584
 2382SOL     OW18778   4.354   0.785   8.187 -0.0995 -0.2801  0.2577
 2382SOL    HW118779   4.449   0.795   8.193 -0.3828  1.9451  0.9010
 2382SOL    HW218780   4.327   0.799   8.278  0.9639 -0.5781  0.6296
 2383SOL     OW18781   1.734   0.408  15.339 -0.1507 -0.2348 -0.5678
 2383SOL    HW118782   1.782   0.478  15.384  0.6489  0.5377 -2.6394
 2383SOL    HW218783   1.685   0.374  15.414 -0.7428 -0.5584 -1.0989
 2384SOL     OW18784   3.583   0.870   4.607  0.0017  0.1242  0.0864
 2384SOL    HW118785   3.590   0.783   4.646 -2.0189 -0.3749 -0.6796
 2384SOL    HW218786   3.492   0.879   4.634 -0.0045  0.8035 -0.1655
 2385SOL     OW18787   3.123   1.936   5.605 -0.1208  0.0193 -0.2036
 2385SOL    HW118788   3.202   1.885   5.621 -0.1121  0.9732  2.8600
 2385SOL    HW218789   3.060   1.874   5.569 -0.5079  0.0741  0.3864
 2386SOL     OW18790   2.891   3.911   5.696 -0.1357 -0.0655  0.2430
 2386SOL    HW118791   2.805   3.950   5.683  0.5127  0.8032 -1.4875
 2386SOL    HW218792   2.890   3.844   5.627 -2.8333 -0.6283  0.8365
 2387SOL     OW18793   1.597   1.448   8.020 -0.3480 -0.0283  0.4315
 2387SOL    HW118794   1.524   1.469   8.078  0.3823  2.1973  0.5731
 2387SOL    HW218795   1.562   1.463   7.932  2.8345  1.9160 -0.5275
 2388SOL     OW18796   4.712   2.135   5.364 -0.2499  0.3902 -0.0518
 2388SOL    HW118797   0.014   2.223   5.361  1.8851 -0.4673  2.1734
 2388SOL    HW218798   4.702   2.110   5.273 -1.3533 -0.9585  0.4408
 2389SOL     OW18799   1.240   4.545   7.534  0.3227 -0.1367 -0.0796
 2389SOL    HW118800   1.207   4.627   7.570  0.8036 -0.5610  1.3433
 2389SOL    HW218801   1.243   4.494   7.616 -0.0884 -2.5927 -1.5988
 2390SOL     OW18802   4.491   1.192  10.976  0.0575  0.2879 -0.1874
 2390SOL    HW118803   4.553   1.238  10.920  0.5452 -0.3205 -0.1377
 2390SOL    HW218804   4.425   1.262  10.978  0.9599  1.1518 -0.4078
 2391SOL     OW18805   3.067   3.407   3.706  0.3334  0.1823 -0.5822
 2391SOL    HW118806   3.133   3.382   3.771 -0.2334 -1.4499 -0.6146
 2391SOL    HW218807   3.004   3.444   3.769  2.0106  0.7913  0.7358
 2392SOL     OW18808   2.420   1.733   7.273  0.0762  0.6331  0.0388
 2392SOL    HW118809   2.402   1.813   7.223  2.6096  2.1055  1.4989
 2392SOL    HW218810   2.363   1.746   7.349 -2.5109 -1.9045 -1.5018
 2393SOL     OW18811   1.139   3.528   7.323 -0.5807 -1.0644 -0.4144
 2393SOL    HW118812   1.160   3.600   7.264  1.1431  0.4318  2.0604
 2393SOL    HW218813   1.227   3.515   7.356  0.0326  0.7956 -1.3466
 2394SOL     OW18814   2.749   0.724   8.001 -0.6503  0.3072 -0.8880
 2394SOL    HW118815   2.711   0.664   8.065  0.3595 -0.5521 -1.0921
 2394SOL    HW218816   2.843   0.729   8.020 -0.8122  0.7043 -0.2241
 2395SOL     OW18817   4.673   1.209   2.294  0.2190  0.5657  0.0248
 2395SOL    HW118818   4.651   1.123   2.331  2.9919  0.5735  1.6757
 2395SOL    HW218819   4.599   1.226   2.236  0.7437  1.5719 -0.3491
 2396SOL     OW18820   4.033   2.347  14.299 -0.0098 -0.3239 -0.1562
 2396SOL    HW118821   4.120   2.308  14.299  0.5584  0.9632 -2.2440
 2396SOL    HW218822   3.976   2.273  14.276  2.1539 -2.6217  1.8089
 2397SOL     OW18823   2.831   1.594   2.185 -0.4227  0.1493 -0.3196
 2397SOL    HW118824   2.833   1.524   2.250  2.7182  0.9057  0.4046
 2397SOL    HW218825   2.742   1.579   2.152  0.2021 -1.6669 -1.1837
 2398SOL     OW18826   2.100   3.356   8.637 -0.4618 -0.6868 -0.0745
 2398SOL    HW118827   2.179   3.358   8.584  0.4052 -2.7349  1.1287
 2398SOL    HW218828   2.032   3.351   8.570  0.3786 -0.0797 -0.9773
 2399SOL     OW18829   0.478   2.239   4.804 -0.1435 -0.2993 -0.3529
 2399SOL    HW118830   0.415   2.309   4.786 -0.4008 -0.0269  1.5760
 2399SOL    HW218831   0.455   2.170   4.742  2.7989 -0.8593 -0.7962
 2400SOL     OW18832   3.762   3.236   5.920 -0.5993  0.5767 -0.3256
 2400SOL    HW118833   3.711   3.168   5.963  1.2609 -1.1167 -0.8152
 2400SOL    HW218834   3.848   3.193   5.923 -1.8334 -2.0344 -3.2122
 2401SOL     OW18835   3.795   1.289   4.113  0.3498  0.1181  0.6829
 2401SOL    HW118836   3.847   1.369   4.107  0.4125 -0.1602 -2.7108
 2401SOL    HW218837   3.716   1.326   4.073  1.5747  0.1716 -1.6680
 2402SOL     OW18838   0.833   2.500   1.920 -0.6490  0.2019 -0.1650
 2402SOL    HW118839   0.777   2.450   1.861  0.0234 -1.2468  0.4332
 2402SOL    HW218840   0.918   2.512   1.879 -0.4850  1.5718  0.5737
 2403SOL     OW18841   1.050   2.380   5.598 -0.1958  0.2513  0.0167
 2403SOL    HW118842   1.056   2.472   5.573  1.5819  0.3072  0.6535
 2403SOL    HW218843   0.999   2.385   5.679  2.3331 -3.1355  1.8024
 2404SOL     OW18844   0.525   4.272   6.291  0.5724  0.2110 -0.1150
 2404SOL    HW118845   0.490   4.242   6.375  0.1911 -1.5224 -0.8857
 2404SOL    HW218846   0.444   4.255   6.243  0.6336  2.9350 -1.1660
 2405SOL     OW18847   2.983   0.839   2.915  0.0995 -0.3883 -0.3029
 2405SOL    HW118848   2.957   0.912   2.972  0.5574 -1.5530  1.4086
 2405SOL    HW218849   2.900   0.824   2.870 -0.5252 -0.7315  0.9441
 2406SOL     OW18850   1.924   2.725   4.121 -0.7031  0.7013  0.4674
 2406SOL    HW118851   1.973   2.731   4.039  0.1241  0.5617  0.9483
 2406SOL    HW218852   1.880   2.810   4.125 -0.9717  0.5859 -0.1865
 2407SOL     OW18853   4.596   3.632   2.397 -0.6166  0.3060  0.3132
 2407SOL    HW118854   4.562   3.686   2.326 -1.0316 -0.9505 -0.4462
 2407SOL    HW218855   4.523   3.582   2.434  0.9176 -2.3046 -0.1420
 2408SOL     OW18856   3.939   1.856   5.464  0.4150 -0.5498  0.2409
 2408SOL    HW118857   4.035   1.854   5.470  0.4972  0.6739 -0.7653
 2408SOL    HW218858   3.917   1.822   5.378  2.1493  0.2990 -0.5508
 2409SOL     OW18859   2.294   2.087  13.113 -0.3198  0.2036 -0.0008
 2409SOL    HW118860   2.376   2.047  13.141 -0.0705 -0.0819 -1.1610
 2409SOL    HW218861   2.306   2.126  13.027  0.9779 -0.2222 -0.0088
 2410SOL     OW18862   2.563   2.381   8.761 -0.0310  0.2945  0.2170
 2410SOL    HW118863   2.623   2.403   8.690  1.0095  0.4452  1.1353
 2410SOL    HW218864   2.603   2.431   8.832 -0.3353 -0.7189  1.0958
 2411SOL     OW18865   0.792   1.166   6.458  0.0794  0.0708 -0.1519
 2411SOL    HW118866   0.779   1.086   6.509 -0.2445  1.0904  1.3447
 2411SOL    HW218867   0.848   1.214   6.518  1.5918 -1.1921 -0.5327
 2412SOL     OW18868   3.329   1.430  12.354 -0.2060 -0.1356  0.5136
 2412SOL    HW118869   3.408   1.428  12.299 -0.9234 -3.1837 -0.3639
 2412SOL    HW218870   3.369   1.429  12.441 -0.9303 -2.3701  0.8078
 2413SOL     OW18871   1.181   1.323   4.233  0.1591 -0.5723 -0.3020
 2413SOL    HW118872   1.088   1.340   4.219  0.7542  1.7085 -1.5901
 2413SOL    HW218873   1.186   1.229   4.248 -1.0783 -0.6990 -0.7310
 2414SOL     OW18874   3.663   0.685   3.225  0.5947  0.0845 -0.4376
 2414SOL    HW118875   3.579   0.720   3.195 -0.8353 -0.7142  2.5681
 2414SOL    HW218876   3.683   0.744   3.297 -1.4576  0.0643  0.1498
 2415SOL     OW18877   1.937   1.599   4.511 -0.2907  0.1190 -0.3395
 2415SOL    HW118878   1.935   1.504   4.504 -1.3333  0.1801 -0.9485
 2415SOL    HW218879   1.848   1.613   4.542  0.4139  1.2187  1.1667
 2416SOL     OW18880   1.465   2.775   2.167  0.3893 -0.1311 -0.1222
 2416SOL    HW118881   1.463   2.844   2.101  1.0337 -1.0018 -1.0481
 2416SOL    HW218882   1.462   2.699   2.109 -0.4378  0.6516 -1.1036
 2417SOL     OW18883   4.042   3.769   9.488  0.0629 -0.4245 -0.0349
 2417SOL    HW118884   4.006   3.686   9.518 -0.7976 -0.9434 -2.5494
 2417SOL    HW218885   3.965   3.824   9.473 -0.4581 -0.8817  0.9405
 2418SOL     OW18886   0.014   2.898   2.161  0.1539  0.2601 -0.1499
 2418SOL    HW118887   0.011   2.972   2.222  1.3204 -0.8808  1.2510
 2418SOL    HW218888   0.105   2.890   2.132  0.4964  0.7594  0.7915
 2419SOL     OW18889   2.009   4.645  17.297  0.0022 -0.5294 -0.1004
 2419SOL    HW118890   1.919   4.676  17.297  0.3368  0.4599  1.7534
 2419SOL    HW218891   2.009   4.612  17.387 -0.4381 -1.9220 -0.6126
 2420SOL     OW18892   1.759   1.750   4.884 -0.2489  0.4876 -0.2267
 2420SOL    HW118893   1.750   1.710   4.970 -0.4167  1.7843  0.3586
 2420SOL    HW218894   1.766   1.670   4.832  3.7623  1.3273 -0.9828
 2421SOL     OW18895   1.762   0.212  12.849  0.0572  0.0257 -0.4951
 2421SOL    HW118896   1.778   0.303  12.825  0.6146 -0.6174 -2.6586
 2421SOL    HW218897   1.834   0.173  12.798  0.0926 -2.4475  1.4824
 2422SOL     OW18898   1.572   3.954  12.535  0.5340 -0.1675 -0.6388
 2422SOL    HW118899   1.500   3.892  12.525  0.9004 -0.6714 -0.1954
 2422SOL    HW218900   1.613   3.947  12.448  2.8977  1.2139  0.3484
 2423SOL     OW18901   3.060   0.447   5.952  0.3234 -0.4629 -0.0745
 2423SOL    HW118902   3.040   0.387   6.023 -1.1422 -1.1056 -1.0240
 2423SOL    HW218903   3.119   0.388   5.905  0.2123 -2.5076  2.3895
 2424SOL     OW18904   1.886   0.033   0.117  0.5803  0.2447  0.1504
 2424SOL    HW118905   1.876   0.032   0.022 -0.0187  1.0219  0.1966
 2424SOL    HW218906   1.976   0.063   0.129  1.2252 -1.4258 -0.6077
 2425SOL     OW18907   2.302   1.639   3.624  0.1421 -0.0571 -0.1077
 2425SOL    HW118908   2.253   1.649   3.705  2.1459  1.6732  0.9049
 2425SOL    HW218909   2.331   1.549   3.635  2.6732  0.9775  1.7823
 2426SOL     OW18910   0.746   3.733   6.723 -1.0068 -0.2901 -0.7901
 2426SOL    HW118911   0.724   3.774   6.639  1.8172  0.5979 -1.0925
 2426SOL    HW218912   0.683   3.768   6.786 -0.4623  3.4278 -2.3598
 2427SOL     OW18913   1.289   1.964   0.021  0.3969 -0.2551 -0.7729
 2427SOL    HW118914   1.208   1.930   0.061  0.8141 -1.7561 -1.2170
 2427SOL    HW218915   1.289   2.058   0.041 -0.4193 -0.3516 -0.3066
 2428SOL     OW18916   2.339   3.727  10.162 -0.7000  0.4064 -0.0475
 2428SOL    HW118917   2.418   3.674  10.150 -0.7476  0.6041 -1.2001
 2428SOL    HW218918   2.266   3.666  10.161 -0.6170  0.2701  1.7686
 2429SOL     OW18919   1.850   1.300   5.798 -0.5732  0.0932 -0.1352
 2429SOL    HW118920   1.837   1.218   5.750 -1.1693 -1.0180  1.8991
 2429SOL    HW218921   1.944   1.315   5.804 -0.5627  0.2448 -0.7112
 2430SOL     OW18922   2.598   3.511   2.277  0.5795  0.7071 -0.8276
 2430SOL    HW118923   2.538   3.486   2.346  0.5472  2.3527 -0.2444
 2430SOL    HW218924   2.679   3.477   2.314 -0.7254 -0.7861  0.6049
 2431SOL     OW18925   0.283   3.425   8.720  0.1501 -0.5610 -0.2497
 2431SOL    HW118926   0.324   3.341   8.701  1.1661 -0.5151  1.7400
 2431SOL    HW218927   0.354   3.475   8.759 -1.0733  1.4229 -0.5806
 2432SOL     OW18928   3.907   1.838   6.744  0.0384 -0.0246  0.4090
 2432SOL    HW118929   3.936   1.784   6.817  0.7622 -0.5234 -0.2388
 2432SOL    HW218930   3.971   1.909   6.755  0.4691 -0.1513 -1.2796
 2433SOL     OW18931   1.758   4.638   8.096  0.6320 -0.1302 -0.4331
 2433SOL    HW118932   1.701   4.591   8.157  1.2253 -2.7541 -1.9200
 2433SOL    HW218933   1.844   4.602   8.117 -0.0778 -1.8071 -0.4318
 2434SOL     OW18934   2.769   4.545   8.700 -0.0733 -0.3100  0.5753
 2434SOL    HW118935   2.828   4.487   8.652 -0.4879  1.1491 -1.6777
 2434SOL    HW218936   2.684   4.506   8.680  0.1140 -0.3596 -0.1370
 2435SOL     OW18937   1.267   0.633   6.890  0.1218 -0.0543 -0.1315
 2435SOL    HW118938   1.180   0.662   6.917 -0.8960 -0.8653 -2.5339
 2435SOL    HW218939   1.278   0.562   6.953  1.0698 -0.4717 -0.7770
 2436SOL     OW18940   2.950   2.072   6.960  0.0323  0.3291 -0.2997
 2436SOL    HW118941   3.006   1.997   6.981 -0.6056 -0.0531  0.0587
 2436SOL    HW218942   2.928   2.106   7.046  1.4682  1.9707 -0.5864
 2437SOL     OW18943   4.225   0.229   6.484  0.3965  0.4301  0.5390
 2437SOL    HW118944   4.215   0.226   6.389 -0.3034 -1.3644  0.6746
 2437SOL    HW218945   4.201   0.321   6.496 -0.5494  0.0127  1.9294
 2438SOL     OW18946   2.378   4.260   5.225 -0.0286 -0.4670 -0.1385
 2438SOL    HW118947   2.351   4.335   5.278  0.7112 -0.3278  0.0352
 2438SOL    HW218948   2.350   4.184   5.276 -1.3134  0.2552  0.2383
 2439SOL     OW18949   4.636   2.946   6.759  0.3118  0.2240  0.1303
 2439SOL    HW118950   4.650   3.040   6.769 -0.5898  0.2681  0.9702
 2439SOL    HW218951   4.633   2.942   6.663  0.5207 -0.3493  0.1470
 2440SOL     OW18952   1.009   2.157   7.720 -0.2210  0.0195  0.1891
 2440SOL    HW118953   0.945   2.203   7.775 -0.7153 -1.4710  0.8426
 2440SOL    HW218954   1.085   2.210   7.745 -1.0462  1.7295 -0.9053
 2441SOL     OW18955   1.136   3.057  14.570  0.0706  0.2710  0.4797
 2441SOL    HW118956   1.056   3.010  14.547  0.3263 -0.2136  0.5748
 2441SOL    HW218957   1.199   2.985  14.565 -1.3410 -0.9031 -0.4346
 2442SOL     OW18958   4.224   2.957   0.594 -0.6525  0.8047  0.4016
 2442SOL    HW118959   4.234   2.915   0.679  2.6666  0.5844 -0.0945
 2442SOL    HW218960   4.248   3.047   0.618 -3.8140  1.4014  1.2876
 2443SOL     OW18961   3.350   3.447  13.071 -0.2259  0.3953 -0.5447
 2443SOL    HW118962   3.281   3.474  13.011  0.7138  0.6988 -1.4988
 2443SOL    HW218963   3.329   3.490  13.154  2.2218  1.0398 -0.2432
 2444SOL     OW18964   0.990   1.888   1.973 -0.0564 -0.0295  0.3343
 2444SOL    HW118965   1.056   1.879   2.042 -1.1907  0.0145  1.4106
 2444SOL    HW218966   0.912   1.911   2.022  1.3519 -0.2037  2.6515
 2445SOL     OW18967   0.773   0.045   6.045  0.4744 -0.1838  0.0606
 2445SOL    HW118968   0.822   0.072   6.123 -0.6726  2.0553  0.0185
 2445SOL    HW218969   0.813   0.109   5.986  0.7615 -0.9759 -0.6017
 2446SOL     OW18970   2.268   2.175   2.936  0.4745 -0.8454  0.1747
 2446SOL    HW118971   2.197   2.146   2.993 -1.8558  1.7168 -1.4215
 2446SOL    HW218972   2.311   2.230   3.002  0.7945 -0.4101 -0.3991
 2447SOL     OW18973   0.083   0.035   6.111  0.6706  0.1198  0.0715
 2447SOL    HW118974   0.134   0.102   6.156  1.6501  0.5328 -1.6563
 2447SOL    HW218975   0.109   0.049   6.020 -1.1247 -0.8936 -0.6170
 2448SOL     OW18976   3.326   0.868   4.231 -0.4232 -0.0143 -0.5158
 2448SOL    HW118977   3.341   0.836   4.320  0.0866  2.5002  0.2943
 2448SOL    HW218978   3.317   0.962   4.243 -0.7285  0.1264 -1.8392
 2449SOL     OW18979   2.519   1.166   9.559 -0.4640 -0.1305  0.1847
 2449SOL    HW118980   2.483   1.242   9.514  0.7092  1.0071  1.1795
 2449SOL    HW218981   2.607   1.193   9.586 -0.9711 -0.3926  2.0868
 2450SOL     OW18982   4.310   3.653  11.237  0.2136  0.3726  0.0203
 2450SOL    HW118983   4.314   3.702  11.319 -1.7162 -1.0635  0.9625
 2450SOL    HW218984   4.289   3.565  11.268 -4.2230  1.7153  0.7787
 2451SOL     OW18985   3.730   4.650   8.488 -0.3055  0.1944  0.6559
 2451SOL    HW118986   3.676   4.612   8.419  0.3517  0.1374  0.1759
 2451SOL    HW218987   3.798   4.583   8.479 -1.8878 -1.1711 -1.1639
 2452SOL     OW18988   1.792   3.301  11.269  0.8085 -0.7584  0.5298
 2452SOL    HW118989   1.839   3.318  11.350  3.0583  0.1928 -0.9763
 2452SOL    HW218990   1.857   3.345  11.214 -0.4431  1.2874  0.6764
 2453SOL     OW18991   1.108   2.381   1.501 -0.1062  0.2389  0.1768
 2453SOL    HW118992   1.149   2.309   1.453  1.6644  0.7535  0.9156
 2453SOL    HW218993   1.024   2.391   1.458 -0.0685 -1.0594 -0.2203
 2454SOL     OW18994   3.346   1.629   4.735  0.5559 -0.5566  0.0789
 2454SOL    HW118995   3.324   1.607   4.645  1.3389 -0.7871 -0.0555
 2454SOL    HW218996   3.441   1.620   4.732  0.2872 -3.1521  0.0755
 2455SOL     OW18997   3.991   4.185   3.853 -0.3876 -0.6793 -0.1179
 2455SOL    HW118998   3.991   4.127   3.777  0.4291 -0.7102 -0.0984
 2455SOL    HW218999   3.935   4.148   3.921 -1.2400 -0.0674 -0.4909
 2456SOL     OW19000   3.343   4.411  14.028 -0.7550  0.1838 -0.5144
 2456SOL    HW119001   3.426   4.422  13.982  0.1402 -0.3378  0.9614
 2456SOL    HW219002   3.286   4.462  13.972  0.3747  1.1616 -0.7713
 2457SOL     OW19003   3.812   1.817  11.818 -0.1282 -0.7543  0.0532
 2457SOL    HW119004   3.789   1.837  11.727  0.9047  0.2534  0.0153
 2457SOL    HW219005   3.832   1.724  11.812 -0.2994 -0.8132  0.3723
 2458SOL     OW19006   0.583   3.454  16.773 -0.1074  0.6014 -0.0642
 2458SOL    HW119007   0.610   3.433  16.862  0.7939  1.3771 -0.1567
 2458SOL    HW219008   0.638   3.386  16.732  0.6770 -0.4722  2.7795
 2459SOL     OW19009   0.831   1.062  10.598 -0.0058  0.0835  0.2568
 2459SOL    HW119010   0.907   1.106  10.636  1.4062 -1.0398 -1.2902
 2459SOL    HW219011   0.803   1.019  10.678 -0.1430 -0.9920 -0.3681
 2460SOL     OW19012   3.558   1.791   0.891 -0.2800 -0.6442  0.3687
 2460SOL    HW119013   3.463   1.794   0.901 -0.3841 -1.8005 -0.1850
 2460SOL    HW219014   3.561   1.748   0.805 -0.1619 -1.4381  0.7664
 2461SOL     OW19015   4.458   1.278   7.911 -0.6557  0.5243 -0.2664
 2461SOL    HW119016   4.420   1.220   7.978 -0.4996  0.8977  0.1508
 2461SOL    HW219017   4.408   1.359   7.926 -1.4977  0.0698 -0.6282
 2462SOL     OW19018   2.526   1.803   4.669 -0.1370  0.0384  0.5250
 2462SOL    HW119019   2.453   1.806   4.731  0.7493  0.5281  1.5518
 2462SOL    HW219020   2.564   1.891   4.674  0.0871  0.0208 -1.0417
 2463SOL     OW19021   1.271   0.282  12.879  0.2260  0.1863  0.5066
 2463SOL    HW119022   1.339   0.227  12.841 -1.6059 -1.3791 -0.5324
 2463SOL    HW219023   1.316   0.364  12.859 -1.0668  0.9306  0.6419
 2464SOL     OW19024   4.339   2.928   3.423  0.4600 -0.4065  0.4091
 2464SOL    HW119025   4.374   3.015   3.405 -0.9398 -0.0501 -0.6356
 2464SOL    HW219026   4.340   2.886   3.337  1.7037  3.6321 -1.5357
 2465SOL     OW19027   2.275   2.857   5.246  0.5532  0.2387 -0.0688
 2465SOL    HW119028   2.303   2.894   5.329 -1.2200 -0.4720  0.8353
 2465SOL    HW219029   2.202   2.800   5.269 -1.4291  2.3225 -1.1982
 2466SOL     OW19030   1.182   1.960   9.040  0.1160  0.8571 -0.7672
 2466SOL    HW119031   1.157   2.046   9.006 -0.2128  0.6437 -1.0646
 2466SOL    HW219032   1.249   1.977   9.106  0.6548 -1.2620 -0.7502
 2467SOL     OW19033   2.804   3.470   7.233  0.1548  0.1791 -0.0558
 2467SOL    HW119034   2.715   3.459   7.199  0.4196  2.0055 -1.2776
 2467SOL    HW219035   2.861   3.457   7.157  0.3568 -1.0231  0.3031
 2468SOL     OW19036   1.380   3.642   2.968 -0.2100 -0.1810  0.1070
 2468SOL    HW119037   1.384   3.585   3.045  1.8127 -0.9028 -0.5346
 2468SOL    HW219038   1.392   3.579   2.897  1.6423  0.1451  0.1309
 2469SOL     OW19039   4.500   4.414   1.057  0.3668 -0.3801 -1.0540
 2469SOL    HW119040   4.568   4.359   1.097  1.4807  1.1064 -0.9129
 2469SOL    HW219041   4.434   4.416   1.127  1.0697 -0.3974 -0.3884
 2470SOL     OW19042   3.000   0.592   7.745 -0.3509 -0.2179  0.5575
 2470SOL    HW119043   3.075   0.637   7.707 -0.3030 -0.9619 -0.2128
 2470SOL    HW219044   3.007   0.630   7.832  2.5153  0.9106 -0.1578
 2471SOL     OW19045   2.542   4.579   9.019 -0.0975  0.2822  0.1784
 2471SOL    HW119046   2.605   4.509   9.034 -0.5161 -0.1244  0.0181
 2471SOL    HW219047   2.503   4.547   8.938 -1.6704  2.3497  0.0933
 2472SOL     OW19048   2.609   4.225   9.894  0.2143 -0.3933 -0.6354
 2472SOL    HW119049   2.637   4.238   9.984 -1.7358 -1.0441  0.0769
 2472SOL    HW219050   2.658   4.290   9.844 -0.0167 -2.2666 -3.2895
 2473SOL     OW19051   4.318   1.411   5.717  0.2809  0.3317 -0.1797
 2473SOL    HW119052   4.288   1.479   5.657 -0.8430 -0.2224 -0.2461
 2473SOL    HW219053   4.237   1.361   5.715  1.7469 -2.0762  0.1278
 2474SOL     OW19054   0.501   4.528   2.220 -0.2913 -0.7802  0.2245
 2474SOL    HW119055   0.539   4.443   2.243 -0.3114 -1.4511 -2.1974
 2474SOL    HW219056   0.527   4.529   2.128 -0.1915 -2.8138  0.2184
 2475SOL     OW19057   2.440   4.343  13.018 -0.3872  0.1670 -0.3900
 2475SOL    HW119058   2.431   4.250  12.995  1.5892  0.2855 -1.6373
 2475SOL    HW219059   2.360   4.358  13.068 -0.5544 -2.2939  0.0778
 2476SOL     OW19060   4.256   1.172   4.716 -0.4161 -0.2660  0.0149
 2476SOL    HW119061   4.336   1.161   4.664  0.9962  0.7377  1.9659
 2476SOL    HW219062   4.294   1.211   4.795  0.3455 -0.3396 -0.3166
 2477SOL     OW19063   0.059   0.287   9.441  0.1811  0.0152  0.3096
 2477SOL    HW119064   0.108   0.339   9.505  1.2489  1.1244 -1.4472
 2477SOL    HW219065   0.039   0.212   9.498 -0.7606  0.1519  0.1594
 2478SOL     OW19066   3.937   0.565   7.581 -0.5377  0.1657  0.0056
 2478SOL    HW119067   3.943   0.628   7.652 -0.4108  1.4473 -1.1330
 2478SOL    HW219068   4.014   0.583   7.526 -0.5807  0.9506  0.2120
 2479SOL     OW19069   0.360   3.772   8.428  0.1132  0.2429  0.0958
 2479SOL    HW119070   0.267   3.793   8.436  0.6071  3.0590 -1.4750
 2479SOL    HW219071   0.359   3.690   8.477  2.4454 -0.4953 -1.1104
 2480SOL     OW19072   3.063   1.822  15.526 -0.4193  0.4879  0.0810
 2480SOL    HW119073   3.039   1.912  15.548 -0.0485  0.4021  0.8156
 2480SOL    HW219074   2.979   1.793  15.489 -0.4619  1.3249 -0.4993
 2481SOL     OW19075   2.970   0.088   6.721  0.2325  0.7687 -0.0964
 2481SOL    HW119076   2.933   0.108   6.635  2.1211 -1.7703 -1.5009
 2481SOL    HW219077   3.045   0.042   6.684  0.9671  0.8754  1.2758
 2482SOL     OW19078   4.724   4.405   3.835 -0.3319  0.0709  0.0136
 2482SOL    HW119079   0.046   4.477   3.811  0.0984 -0.2958 -0.0308
 2482SOL    HW219080   4.645   4.454   3.812 -1.3433 -1.2180  0.7484
 2483SOL     OW19081   4.414   1.384  10.163 -0.2368 -0.1881 -0.4172
 2483SOL    HW119082   4.485   1.337  10.207  0.4328 -1.2267 -2.6331
 2483SOL    HW219083   4.364   1.423  10.235 -2.2115 -0.8671 -1.4389
 2484SOL     OW19084   4.643   2.955   5.687 -0.0391  0.0758  0.0957
 2484SOL    HW119085   4.632   3.006   5.767  1.0722 -0.7902  0.8079
 2484SOL    HW219086   4.725   2.998   5.660  1.0792 -1.0590  1.7301
 2485SOL     OW19087   4.584   0.907  16.228  0.5246  0.0020 -0.4145
 2485SOL    HW119088   4.622   0.874  16.310  0.2194 -0.6947 -0.5593
 2485SOL    HW219089   4.633   0.989  16.229 -0.4929  0.5970  1.0702
 2486SOL     OW19090   0.135   3.655   8.718 -0.7776  0.0229  0.1449
 2486SOL    HW119091   0.180   3.571   8.724 -1.9187 -0.7003 -1.3773
 2486SOL    HW219092   0.046   3.634   8.689 -0.6664 -1.8087  1.1197
 2487SOL     OW19093   0.393   4.099  13.140  0.0943  0.4277  0.4715
 2487SOL    HW119094   0.306   4.111  13.102  1.4634  2.0611 -2.1024
 2487SOL    HW219095   0.407   4.186  13.178 -3.0860  1.0999  0.0651
 2488SOL     OW19096   4.661   0.972   4.734  0.5254 -0.4967 -0.5483
 2488SOL    HW119097   4.735   1.030   4.716 -1.0736  1.2281 -1.6044
 2488SOL    HW219098   4.610   1.007   4.661 -0.6149  1.1343  1.0378
 2489SOL     OW19099   3.381   2.470   7.972 -0.6027 -0.0441 -0.1016
 2489SOL    HW119100   3.364   2.412   8.047 -1.7357  1.1997  0.6119
 2489SOL    HW219101   3.472   2.488   7.994 -0.5184 -0.4598 -0.1104
 2490SOL     OW19102   3.895   4.467   9.007 -0.1537  0.4167 -0.0125
 2490SOL    HW119103   3.956   4.410   8.960  0.1468 -0.0514  0.9401
 2490SOL    HW219104   3.951   4.543   9.020  0.2695 -0.2235  1.9150
 2491SOL     OW19105   0.693   0.980   9.046 -0.1538  0.8151  0.4237
 2491SOL    HW119106   0.754   0.911   9.073  0.7522  1.7597  0.7571
 2491SOL    HW219107   0.648   0.991   9.129 -2.3684 -1.8922 -0.4151
 2492SOL     OW19108   2.309   4.154   4.582 -0.2571 -0.2466  0.2719
 2492SOL    HW119109   2.245   4.117   4.643  0.8456 -1.4364  0.7046
 2492SOL    HW219110   2.309   4.243   4.617  0.9372  1.0188 -2.9664
 2493SOL     OW19111   3.773   2.448   6.780  0.3217 -0.1896  0.5213
 2493SOL    HW119112   3.822   2.371   6.808 -1.4319 -1.6569 -0.4521
 2493SOL    HW219113   3.843   2.503   6.745  0.4942 -0.3359  0.6397
 2494SOL     OW19114   2.203   1.339   6.518 -0.3853 -0.1720 -0.7179
 2494SOL    HW119115   2.138   1.305   6.580  0.5895  1.0521  0.9721
 2494SOL    HW219116   2.226   1.423   6.559 -1.1150 -0.2778 -0.0829
 2495SOL     OW19117   3.868   1.989  10.739  0.5933 -0.2129 -0.2973
 2495SOL    HW119118   3.863   1.944  10.824  0.8327 -0.7184 -0.5456
 2495SOL    HW219119   3.863   2.081  10.762  0.6125 -0.1280 -0.6294
 2496SOL     OW19120   3.807   1.662  17.112  0.2423  0.0946 -0.3507
 2496SOL    HW119121   3.835   1.642  17.023 -1.3807  0.3273 -0.9219
 2496SOL    HW219122   3.866   1.734  17.132 -1.2199  0.8140  1.4171
 2497SOL     OW19123   2.555   4.290   8.057 -0.0536 -0.2497 -0.0909
 2497SOL    HW119124   2.596   4.248   8.133 -0.9137 -0.4829  0.2350
 2497SOL    HW219125   2.462   4.293   8.080  0.4744 -0.9258  2.1538
 2498SOL     OW19126   2.385   0.046   7.005  0.2542 -0.5102  0.0177
 2498SOL    HW119127   2.333   0.109   6.955 -3.2046 -1.0799  2.8963
 2498SOL    HW219128   2.382   0.084   7.093 -2.7115 -0.7706  0.0318
 2499SOL     OW19129   0.582   3.248   1.976 -0.4696  0.6160 -0.1308
 2499SOL    HW119130   0.552   3.157   1.974 -2.0902  1.1599 -0.1844
 2499SOL    HW219131   0.541   3.290   1.901 -1.8439  1.9321  1.3606
 2500SOL     OW19132   0.144   2.252  15.523  0.9188 -0.5190 -0.2081
 2500SOL    HW119133   0.155   2.347  15.519  0.1029 -0.4799 -1.3680
 2500SOL    HW219134   0.213   2.244  15.589  1.9896  0.8083 -1.1597
 2501SOL     OW19135   4.735   4.160   6.148  0.1448  0.0994 -0.0816
 2501SOL    HW119136   4.677   4.086   6.132 -2.0324  1.6625  0.6964
 2501SOL    HW219137   4.689   4.208   6.216  2.1253 -1.2205  2.2210
 2502SOL     OW19138   0.644   2.798   7.495 -0.0924 -0.4506  0.0081
 2502SOL    HW119139   0.575   2.743   7.457  0.2821 -2.7282  2.6024
 2502SOL    HW219140   0.711   2.730   7.498 -0.4747 -0.8091  0.5749
 2503SOL     OW19141   4.063   2.955  11.716  0.6462 -0.2858  0.3699
 2503SOL    HW119142   3.997   2.941  11.783 -0.0492  1.7610  0.1344
 2503SOL    HW219143   4.092   2.867  11.693  1.5242 -1.1747  4.9579
 2504SOL     OW19144   0.305   2.990  17.693  0.3487  0.8353 -0.1394
 2504SOL    HW119145   0.218   2.977  17.655 -0.2790  2.7474  0.6880
 2504SOL    HW219146   0.285   3.061   0.008 -1.4595  0.2829 -0.0862
 2505SOL     OW19147   2.052   3.329   1.898  0.2678  0.0347  0.2651
 2505SOL    HW119148   1.960   3.344   1.917  0.3949  0.1536  0.7655
 2505SOL    HW219149   2.070   3.297   1.986  0.6529 -2.5948 -0.7549
 2506SOL     OW19150   3.365   1.874  16.301 -0.1093 -0.5313  0.1012
 2506SOL    HW119151   3.271   1.881  16.291 -0.2644 -1.0231  1.1260
 2506SOL    HW219152   3.394   1.955  16.260 -1.6840  0.5981  1.2642
 2507SOL     OW19153   4.408   1.878   6.408  0.1302 -0.0857 -0.4461
 2507SOL    HW119154   4.489   1.844   6.446  1.4797  1.8594 -1.6162
 2507SOL    HW219155   4.431   1.855   6.318 -0.9587  2.3718 -1.3560
 2508SOL     OW19156   3.578   2.307   6.418 -0.0606  0.2008  0.1567
 2508SOL    HW119157   3.617   2.391   6.395  1.3193 -0.4120  0.3067
 2508SOL    HW219158   3.559   2.311   6.512 -2.2174  3.7278 -0.4434
 2509SOL     OW19159   2.370   1.620   6.168  0.1871  0.7146 -0.1528
 2509SOL    HW119160   2.289   1.670   6.179 -0.7321 -0.3874 -1.8970
 2509SOL    HW219161   2.370   1.592   6.077  0.8967 -0.4574  0.2072
 2510SOL     OW19162   1.384   0.442  10.979 -0.4537  0.0613  0.1793
 2510SOL    HW119163   1.446   0.512  10.958 -1.0036 -0.5318 -3.4311
 2510SOL    HW219164   1.329   0.433  10.901 -2.3968 -1.0582  1.6908
 2511SOL     OW19165   3.453   4.446  16.733 -0.0105  0.6160 -0.3196
 2511SOL    HW119166   3.513   4.444  16.659  0.1973  0.1140 -0.1375
 2511SOL    HW219167   3.369   4.471  16.695  0.2664  1.7178 -0.1970
 2512SOL     OW19168   1.412   4.115   2.649 -0.4115  0.5129 -0.4322
 2512SOL    HW119169   1.424   4.203   2.685  0.8400  0.5412 -0.9260
 2512SOL    HW219170   1.470   4.128   2.574  0.6426  0.0752  0.3135
 2513SOL     OW19171   4.054   0.324   7.204  0.1854  0.2712 -0.3141
 2513SOL    HW119172   4.013   0.239   7.186 -2.4204  1.0263  2.1099
 2513SOL    HW219173   4.142   0.298   7.230  1.1364  1.2113 -2.5745
 2514SOL     OW19174   3.895   0.527   2.166 -0.3288  0.3128 -0.3783
 2514SOL    HW119175   3.805   0.560   2.174 -0.5645 -0.6754  1.0918
 2514SOL    HW219176   3.902   0.518   2.071 -0.0598 -0.0925 -0.3211
 2515SOL     OW19177   3.944   2.501   1.934  0.1006  0.0943 -0.1261
 2515SOL    HW119178   4.019   2.442   1.946  0.8365  1.4055  1.7263
 2515SOL    HW219179   3.879   2.442   1.896 -0.2923 -0.1960  0.9891
 2516SOL     OW19180   0.903   0.279   7.516  0.1570 -0.9926 -0.0188
 2516SOL    HW119181   0.863   0.223   7.582 -0.2929  0.0776  0.6160
 2516SOL    HW219182   0.906   0.365   7.558 -1.9007 -0.0145 -1.8427
 2517SOL     OW19183   3.440   4.496   1.252 -0.7268  0.4823 -0.7654
 2517SOL    HW119184   3.419   4.406   1.229  0.4521  0.0482 -0.1225
 2517SOL    HW219185   3.454   4.536   1.166  1.8747  0.5806 -0.2900
 2518SOL     OW19186   1.551   4.297  17.286  0.0203 -0.1703  0.0369
 2518SOL    HW119187   1.514   4.347  17.358  0.3283  0.1629 -0.0335
 2518SOL    HW219188   1.647   4.301  17.292  0.0061  0.0601  0.1294
 2519SOL     OW19189   0.053   3.298   0.762  0.5111  0.0373  0.5180
 2519SOL    HW119190   4.736   3.297   0.684 -1.4519  0.0406  1.8839
 2519SOL    HW219191   0.103   3.379   0.763 -0.6047  0.7065  2.0738
 2520SOL     OW19192   0.128   0.393   8.379  0.3367 -0.8692  0.4197
 2520SOL    HW119193   0.153   0.401   8.471  3.1463 -0.2573 -0.3795
 2520SOL    HW219194   0.036   0.416   8.376  0.4976 -0.5449 -2.2190
 2521SOL     OW19195   3.035   4.735   6.350  0.0288 -0.4575 -0.7596
 2521SOL    HW119196   3.094   4.705   6.420  0.0734 -1.6171 -1.2927
 2521SOL    HW219197   2.989   0.052   6.414 -1.2454  0.6329 -2.5930
 2522SOL     OW19198   0.286   3.899   7.298 -0.3057  0.4678 -0.2609
 2522SOL    HW119199   0.326   3.875   7.381  1.0214  0.2166 -0.9681
 2522SOL    HW219200   0.194   3.899   7.322  0.3227 -0.5813  2.1590
 2523SOL     OW19201   3.108   4.498  12.837  0.9358 -0.2706 -0.2549
 2523SOL    HW119202   3.100   4.403  12.825  0.0473 -0.1336 -0.7328
 2523SOL    HW219203   3.156   4.513  12.756 -0.4297 -0.9774 -1.1933
 2524SOL     OW19204   2.396   1.762   6.943  0.0234 -0.1332 -0.1302
 2524SOL    HW119205   2.326   1.762   7.009 -0.9455  0.2986 -1.1509
 2524SOL    HW219206   2.411   1.857   6.944 -0.3896 -0.0761  1.2213
 2525SOL     OW19207   3.001   0.193   3.308 -0.0191 -0.4453  0.0249
 2525SOL    HW119208   2.926   0.147   3.345 -0.9586  0.1766 -1.1061
 2525SOL    HW219209   2.951   0.228   3.234 -1.0022 -1.6516  0.1347
 2526SOL     OW19210   3.606   3.897   3.338  0.0975  0.4486 -0.5080
 2526SOL    HW119211   3.624   3.980   3.295 -3.2271  2.0095  1.1285
 2526SOL    HW219212   3.627   3.913   3.430 -0.7971 -1.4731  0.0330
 2527SOL     OW19213   2.579   2.189  14.512  0.6293 -0.4809 -0.4536
 2527SOL    HW119214   2.495   2.223  14.543  2.1050  1.2699  1.6416
 2527SOL    HW219215   2.556   2.179  14.420  1.5061  1.7794 -0.9162
 2528SOL     OW19216   1.191   1.951   8.051  0.3665 -0.0586  0.3686
 2528SOL    HW119217   1.118   1.933   7.991  2.1710 -0.5662 -1.6643
 2528SOL    HW219218   1.192   2.047   8.043  2.0882 -0.1639 -0.6134
 2529SOL     OW19219   4.426   0.091   1.062 -0.3387 -0.3332  0.4875
 2529SOL    HW119220   4.429   0.177   1.020 -1.6591 -1.1222 -1.2104
 2529SOL    HW219221   4.442   0.031   0.989 -0.3894 -0.7703  0.8368
 2530SOL     OW19222   4.658   4.100   4.298 -0.3466  0.4595 -0.2033
 2530SOL    HW119223   4.621   4.064   4.379  1.8530  1.1222  1.0885
 2530SOL    HW219224   4.605   4.173   4.267  0.1748  1.9343  2.4324
 2531SOL     OW19225   0.156   1.932   5.226  0.5599 -0.1637  0.3544
 2531SOL    HW119226   0.244   1.927   5.187  0.8243 -2.3264  1.2102
 2531SOL    HW219227   0.182   1.917   5.317  1.4639  1.2893  0.3353
 2532SOL     OW19228   0.914   4.334   4.154 -0.1160 -0.0028 -0.2129
 2532SOL    HW119229   0.920   4.429   4.162 -2.1285  0.1745 -0.7511
 2532SOL    HW219230   0.919   4.296   4.241 -0.2692  0.8953  0.1902
 2533SOL     OW19231   4.059   0.248  12.993  0.2031 -0.1936 -0.3218
 2533SOL    HW119232   4.130   0.286  12.942 -0.4057  0.0005 -1.0291
 2533SOL    HW219233   4.005   0.323  13.019 -0.3618 -0.5390 -0.4976
 2534SOL     OW19234   3.513   3.636   9.139 -0.3336 -0.0155 -1.1891
 2534SOL    HW119235   3.588   3.611   9.192 -1.7286 -1.6872 -0.0380
 2534SOL    HW219236   3.534   3.599   9.053  1.2941  0.3933 -0.9608
 2535SOL     OW19237   2.596   0.820  12.463  0.4669  0.2465  0.2614
 2535SOL    HW119238   2.508   0.837  12.498 -0.1981 -0.4883 -1.0606
 2535SOL    HW219239   2.574   0.812  12.370  0.7972  1.2177  0.0969
 2536SOL     OW19240   2.600   4.422  15.677 -0.0305 -0.3722  0.1663
 2536SOL    HW119241   2.663   4.351  15.690 -0.7507 -0.7089  1.8097
 2536SOL    HW219242   2.658   4.491  15.644 -1.0704  0.2959 -0.2364
 2537SOL     OW19243   2.149   4.716   8.898 -0.3978  0.1515 -0.4237
 2537SOL    HW119244   2.214   0.049   8.902  1.8841 -1.8923 -1.5124
 2537SOL    HW219245   2.074   0.024   8.859 -1.1006 -1.6078 -1.1179
 2538SOL     OW19246   2.691   3.818   8.948 -0.5674 -0.0387 -0.0889
 2538SOL    HW119247   2.721   3.892   9.000  1.8292 -1.0018 -0.1364
 2538SOL    HW219248   2.608   3.789   8.986 -0.2516 -2.4405 -1.2382
 2539SOL     OW19249   3.722   1.385   5.084 -0.5165 -0.1286  0.1701
 2539SOL    HW119250   3.717   1.466   5.032 -0.1069 -1.2031 -1.5089
 2539SOL    HW219251   3.805   1.361   5.045 -0.1494  0.3382  0.6634
 2540SOL     OW19252   1.600   1.202   8.828  0.5124 -0.5375 -0.1211
 2540SOL    HW119253   1.656   1.280   8.831 -0.7373  0.3468  0.1027
 2540SOL    HW219254   1.669   1.142   8.858  1.5352  1.5516  1.7391
 2541SOL     OW19255   4.577   1.399   4.476  0.3580  0.3544  0.9232
 2541SOL    HW119256   4.594   1.423   4.385 -1.4985  2.1370  1.0631
 2541SOL    HW219257   4.490   1.360   4.470 -0.5913  2.8910 -1.4703
 2542SOL     OW19258   0.338   1.648   4.810 -0.6002  0.2636  0.3237
 2542SOL    HW119259   0.259   1.655   4.865  0.5528 -1.0377  2.1265
 2542SOL    HW219260   0.303   1.648   4.721 -1.2174  0.5546  0.5611
 2543SOL     OW19261   1.543   1.325   6.144  0.2538 -0.0017 -0.5352
 2543SOL    HW119262   1.460   1.338   6.190  0.1292  2.7329 -1.5358
 2543SOL    HW219263   1.554   1.233   6.121  1.2451 -0.1063  0.3358
 2544SOL     OW19264   4.351   4.172  10.279  0.0001 -0.1080 -0.4850
 2544SOL    HW119265   4.377   4.109  10.211  2.4393 -0.4878  0.8507
 2544SOL    HW219266   4.303   4.111  10.335 -0.2619 -0.1187 -0.7192
 2545SOL     OW19267   0.428   2.164   2.276 -0.0747 -0.2620 -0.4489
 2545SOL    HW119268   0.476   2.111   2.340  0.3824  0.1410 -0.4616
 2545SOL    HW219269   0.455   2.128   2.191 -1.2061 -1.9349 -0.1041
 2546SOL     OW19270   3.915   1.928   9.468 -0.1088 -0.2932 -0.2077
 2546SOL    HW119271   3.846   1.924   9.534  1.2843 -1.7127  1.1677
 2546SOL    HW219272   3.973   1.853   9.486  0.0067 -0.2210 -0.2768
 2547SOL     OW19273   2.801   3.608   1.541  0.0575 -0.5149 -0.2861
 2547SOL    HW119274   2.859   3.684   1.547 -0.2667 -0.4084  1.5223
 2547SOL    HW219275   2.800   3.573   1.630  0.6152  2.4303  0.8918
 2548SOL     OW19276   0.765   2.237   2.006 -0.5821  0.1893 -0.0014
 2548SOL    HW119277   0.844   2.247   2.059 -0.6154  0.9023 -0.0833
 2548SOL    HW219278   0.727   2.161   2.049 -3.5393  2.2984  1.1478
 2549SOL     OW19279   0.923   2.294   2.233 -0.6805 -0.4405  0.2133
 2549SOL    HW119280   0.874   2.311   2.314  1.2523  3.9971  0.4349
 2549SOL    HW219281   0.980   2.370   2.244 -0.9339 -0.8807  4.9984
 2550SOL     OW19282   2.519   4.429  14.108  0.1862  0.1199  0.2193
 2550SOL    HW119283   2.427   4.444  14.130  0.5464  1.8727  0.5622
 2550SOL    HW219284   2.546   4.516  14.078 -1.6967  0.3553 -0.8243
 2551SOL     OW19285   1.141   2.079   3.642  0.0316  0.4016  0.2305
 2551SOL    HW119286   1.196   2.088   3.720 -1.2179  2.3722  0.8946
 2551SOL    HW219287   1.189   2.139   3.584 -0.2889  0.2038 -0.2394
 2552SOL     OW19288   4.702   4.210  13.807  0.5244  0.4612 -0.3354
 2552SOL    HW119289   4.611   4.199  13.777  0.3884  2.0243 -0.4815
 2552SOL    HW219290   4.677   4.188  13.896  1.0718  1.4241  0.0523
 2553SOL     OW19291   0.438   4.671   5.827  0.5967  0.5141  0.4097
 2553SOL    HW119292   0.451   0.029   5.834 -2.0105  1.2014 -3.4996
 2553SOL    HW219293   0.358   4.664   5.879  1.1402  0.2267  1.2021
 2554SOL     OW19294   3.584   4.592   4.099 -0.0042  0.4184 -0.3511
 2554SOL    HW119295   3.676   4.604   4.077  0.2902 -4.4178 -1.6979
 2554SOL    HW219296   3.541   4.575   4.016  0.5358  2.7673 -1.0890
 2555SOL     OW19297   0.525   3.718   1.850  0.4740  0.0554  0.1638
 2555SOL    HW119298   0.549   3.787   1.913  0.4251  1.3584 -1.2471
 2555SOL    HW219299   0.566   3.745   1.768  1.6868  0.7035  0.9846
 2556SOL     OW19300   3.148   1.530  13.325 -0.1331 -0.3967 -0.4313
 2556SOL    HW119301   3.209   1.556  13.256 -0.3315  0.9432 -0.0991
 2556SOL    HW219302   3.213   1.491  13.383  0.3144 -2.0420 -2.0453
 2557SOL     OW19303   0.467   1.557   7.895  0.3265 -0.1297  0.3701
 2557SOL    HW119304   0.448   1.644   7.929  0.2554 -0.5104  1.2909
 2557SOL    HW219305   0.445   1.511   7.976 -1.7459  0.7751  0.3110
 2558SOL     OW19306   4.462   2.072   8.239  0.1316  0.8713 -0.1738
 2558SOL    HW119307   4.383   2.117   8.209 -0.7692 -0.9760 -0.5764
 2558SOL    HW219308   4.489   2.035   8.155  0.7187  1.1371 -0.1026
 2559SOL     OW19309   0.087   4.402  10.532 -0.1010 -0.5336 -0.3613
 2559SOL    HW119310   0.035   4.482  10.533  0.2238 -0.3230 -0.5828
 2559SOL    HW219311   0.020   4.336  10.555 -0.5470  1.0826  3.0063
 2560SOL     OW19312   3.470   1.387   1.540 -0.3879  0.2156 -0.1394
 2560SOL    HW119313   3.557   1.371   1.575 -0.4256 -2.3888 -1.2532
 2560SOL    HW219314   3.471   1.319   1.474 -1.5575 -0.4458  0.5220
 2561SOL     OW19315   3.841   1.599   5.316 -0.1541 -0.3300  0.2714
 2561SOL    HW119316   3.842   1.510   5.350 -0.6364  0.3997  2.1445
 2561SOL    HW219317   3.872   1.587   5.226 -1.1421 -1.6087  0.1097
 2562SOL     OW19318   1.997   4.297   8.821 -0.1080  0.9885 -0.7044
 2562SOL    HW119319   1.928   4.236   8.796  0.6545 -0.5771  1.0065
 2562SOL    HW219320   2.027   4.334   8.737 -0.0514  0.1548 -1.0475
 2563SOL     OW19321   4.059   3.208   6.917 -0.1257 -0.0353  0.8204
 2563SOL    HW119322   4.106   3.125   6.911  2.0328  1.0812  2.5309
 2563SOL    HW219323   4.003   3.195   6.994 -1.5277 -0.1399 -0.2153
 2564SOL     OW19324   4.661   0.716   1.969 -0.0692  0.0586 -0.2353
 2564SOL    HW119325   4.583   0.706   2.024  0.6005  1.3875  0.9569
 2564SOL    HW219326   4.630   0.692   1.882 -0.4833  1.9309 -0.5933
 2565SOL     OW19327   1.442   2.522  12.271 -0.3224  0.1582 -0.1330
 2565SOL    HW119328   1.483   2.598  12.312 -0.5117 -0.8149  1.8578
 2565SOL    HW219329   1.418   2.559  12.186 -0.9897 -0.0734 -0.0459
 2566SOL     OW19330   1.740   3.762   6.802 -0.5333  0.1249  0.3370
 2566SOL    HW119331   1.774   3.826   6.866  2.6331  0.8497 -2.0606
 2566SOL    HW219332   1.806   3.768   6.734 -0.2476 -2.7566  0.3607
 2567SOL     OW19333   0.869   3.838   1.674 -0.6299 -0.1288  0.3532
 2567SOL    HW119334   0.919   3.803   1.600  0.3345 -0.6449  1.2337
 2567SOL    HW219335   0.844   3.757   1.720 -1.8961  1.6898  2.8787
 2568SOL     OW19336   2.595   3.828   2.409 -0.2175 -0.0937  0.5955
 2568SOL    HW119337   2.582   3.846   2.316  1.4546  0.4031  0.4713
 2568SOL    HW219338   2.593   3.732   2.409  0.6442 -0.1089  0.1268
 2569SOL     OW19339   4.036   1.363  11.508 -0.1939  0.0899 -0.3763
 2569SOL    HW119340   4.009   1.273  11.489  0.5298 -0.5472  1.6777
 2569SOL    HW219341   4.104   1.344  11.572 -2.4363  2.5858  2.8033
 2570SOL     OW19342   1.322   3.850   7.664 -0.6435 -1.3399  0.3013
 2570SOL    HW119343   1.303   3.938   7.697  1.6471 -1.4076  1.8051
 2570SOL    HW219344   1.237   3.809   7.680 -1.1651 -0.2056  0.4641
 2571SOL     OW19345   1.791   2.755   2.085 -0.0647 -0.1953  0.3290
 2571SOL    HW119346   1.710   2.766   2.135  0.0883  0.4314  0.4390
 2571SOL    HW219347   1.794   2.838   2.037 -2.7456  0.2156  0.8789
 2572SOL     OW19348   1.557   1.381  13.653 -0.2763 -0.5013  0.4437
 2572SOL    HW119349   1.462   1.379  13.640 -0.3427 -0.2497  0.8991
 2572SOL    HW219350   1.583   1.352  13.565 -0.8162 -2.4991  0.9295
 2573SOL     OW19351   1.978   1.472   0.810 -0.3373 -0.3671 -0.5635
 2573SOL    HW119352   2.050   1.429   0.764  1.9865  2.2721  0.6277
 2573SOL    HW219353   1.941   1.521   0.737  1.0763  2.9877  1.0097
 2574SOL     OW19354   2.492   3.840  12.234 -0.3088 -0.9334  0.0709
 2574SOL    HW119355   2.582   3.848  12.204 -0.1441 -0.7130  0.6207
 2574SOL    HW219356   2.496   3.908  12.301  0.4294 -2.0209  1.1429
 2575SOL     OW19357   4.277   4.279   4.025 -0.0186  0.1878 -0.5498
 2575SOL    HW119358   4.198   4.299   3.973 -0.3017  0.5693  0.0251
 2575SOL    HW219359   4.243   4.213   4.086 -2.8772  1.5433 -0.6749
 2576SOL     OW19360   1.898   2.319  13.030  0.0415  0.2797 -0.5931
 2576SOL    HW119361   1.810   2.286  13.045  0.2354  0.5148  1.1199
 2576SOL    HW219362   1.900   2.275  12.945  2.2389 -0.6292 -0.0681
 2577SOL     OW19363   3.490   4.056   2.499  0.3210  0.2979 -0.1967
 2577SOL    HW119364   3.435   4.037   2.575 -0.2900 -0.0697 -0.7354
 2577SOL    HW219365   3.420   4.062   2.433  1.4419  1.5653 -1.2663
 2578SOL     OW19366   2.575   3.826  10.731 -0.9592 -0.1835  0.3744
 2578SOL    HW119367   2.599   3.812  10.639  2.4575  0.4997  1.1756
 2578SOL    HW219368   2.541   3.916  10.733  0.1649  0.2710 -0.4443
 2579SOL     OW19369   2.024   0.852  16.378 -0.2030 -0.6175 -0.0002
 2579SOL    HW119370   2.006   0.932  16.329  1.1656 -1.2605 -1.5373
 2579SOL    HW219371   1.958   0.851  16.448  0.7116  2.1411  0.9239
 2580SOL     OW19372   1.645   1.020   1.754  0.4456 -0.5493  0.1068
 2580SOL    HW119373   1.583   0.954   1.786 -1.5002  0.6829 -1.1903
 2580SOL    HW219374   1.620   1.013   1.662 -1.5474 -1.4765  0.7096
 2581SOL     OW19375   2.680   2.663  13.645 -0.5140 -0.1526 -0.0972
 2581SOL    HW119376   2.746   2.728  13.619 -1.4542  1.4300  1.5066
 2581SOL    HW219377   2.726   2.579  13.642 -2.5405 -1.2863  1.2488
 2582SOL     OW19378   1.413   4.398   2.693  0.1520 -0.1782 -0.3969
 2582SOL    HW119379   1.506   4.388   2.674  1.0349  2.6622  2.3363
 2582SOL    HW219380   1.420   4.452   2.772  0.8044 -0.9140  0.0521
 2583SOL     OW19381   1.937   1.829  16.955 -0.3083 -0.1045 -0.4549
 2583SOL    HW119382   2.022   1.865  16.931  1.0680 -3.6005 -0.8316
 2583SOL    HW219383   1.958   1.784  17.037  2.5366  3.4876  0.7738
 2584SOL     OW19384   3.402   3.974   6.921  0.0806  0.3938  0.2313
 2584SOL    HW119385   3.316   3.978   6.964  0.1767  1.4236  0.3509
 2584SOL    HW219386   3.414   3.881   6.905 -0.0616  0.2407  1.0112
 2585SOL     OW19387   2.387   2.098   6.439  0.0170 -0.5302  0.4068
 2585SOL    HW119388   2.449   2.167   6.414 -2.0351  1.5048  0.8578
 2585SOL    HW219389   2.433   2.068   6.517 -0.0892  1.2593  1.1742
 2586SOL     OW19390   4.055   0.310   6.245  0.2056  0.2872  0.3034
 2586SOL    HW119391   4.044   0.384   6.185 -2.4587 -1.7121 -1.6325
 2586SOL    HW219392   4.055   0.238   6.182  1.4025 -0.0696  0.7122
 2587SOL     OW19393   3.704   2.973   2.484 -0.5592 -0.4529  0.3032
 2587SOL    HW119394   3.628   3.030   2.487  1.7831  2.7444 -2.0034
 2587SOL    HW219395   3.775   3.031   2.459 -1.0604 -0.4220 -1.0648
 2588SOL     OW19396   4.093   0.385   2.687 -0.4934 -0.0669  0.7270
 2588SOL    HW119397   4.024   0.423   2.633 -2.3000  0.0153  3.0859
 2588SOL    HW219398   4.160   0.360   2.624 -0.4742  1.4038  0.1655
 2589SOL     OW19399   3.717   0.713   2.338  0.0662 -0.3854  0.1295
 2589SOL    HW119400   3.739   0.681   2.425 -2.5249  0.8216  1.2405
 2589SOL    HW219401   3.660   0.787   2.358 -0.0657 -0.7628  1.1625
 2590SOL     OW19402   0.492   2.863   6.240  0.2136  0.1247  0.8809
 2590SOL    HW119403   0.575   2.830   6.272  1.0573  1.7937  0.4519
 2590SOL    HW219404   0.491   2.856   6.144 -0.0284  1.0491  0.8073
 2591SOL     OW19405   1.080   3.123   4.584 -0.1301  0.1321  0.3917
 2591SOL    HW119406   1.040   3.103   4.500  0.9479  0.9961 -0.3259
 2591SOL    HW219407   1.136   3.046   4.589  0.1768  0.3218 -0.2164
 2592SOL     OW19408   2.880   0.178   9.530 -0.1984  0.3687 -0.3782
 2592SOL    HW119409   2.928   0.260   9.540 -1.2248  1.3411 -3.1799
 2592SOL    HW219410   2.936   0.111   9.569  1.1893  0.9124 -1.4432
 2593SOL     OW19411   2.736   0.592   4.741 -0.1531 -0.1591  0.1683
 2593SOL    HW119412   2.742   0.651   4.816 -0.0623 -1.3392  1.0971
 2593SOL    HW219413   2.666   0.536   4.776  0.5549  0.4236  2.5017
 2594SOL     OW19414   0.870   4.149   9.313  0.0998 -0.2997 -0.0932
 2594SOL    HW119415   0.827   4.064   9.309 -0.1304 -0.1539 -0.6143
 2594SOL    HW219416   0.806   4.201   9.266  1.3458  0.6024 -0.7689
 2595SOL     OW19417   2.757   1.076   2.599 -0.1896  0.6708  0.5831
 2595SOL    HW119418   2.768   1.076   2.504  0.8043 -1.0268  0.6951
 2595SOL    HW219419   2.838   1.116   2.629  0.7790 -0.9213  0.0744
 2596SOL     OW19420   3.097   3.345   1.499  0.3974 -0.0011 -0.2542
 2596SOL    HW119421   3.027   3.382   1.553 -0.0980 -2.8948  1.0948
 2596SOL    HW219422   3.095   3.251   1.516 -1.1577  0.4257  1.8922
 2597SOL     OW19423   3.011   3.248   2.850 -0.0264  0.6821 -0.0939
 2597SOL    HW119424   3.006   3.165   2.897  2.2890  0.2778 -0.5669
 2597SOL    HW219425   3.035   3.309   2.920 -1.0209  0.7137  0.2191
 2598SOL     OW19426   1.808   0.360  14.692 -0.2138 -0.3181  0.1924
 2598SOL    HW119427   1.746   0.318  14.632 -1.5309  2.0050 -0.0433
 2598SOL    HW219428   1.781   0.316  14.773  1.8499 -0.4142  0.8321
 2599SOL     OW19429   1.346   0.172   3.458 -0.1748  0.0556  0.0977
 2599SOL    HW119430   1.424   0.157   3.511  0.4399 -0.8807 -1.0541
 2599SOL    HW219431   1.282   0.201   3.523 -0.8864 -1.7752  0.2159
 2600SOL     OW19432   2.309   4.245   9.356  0.2533 -0.4020  0.3253
 2600SOL    HW119433   2.243   4.303   9.395  1.3751  0.2061  1.3410
 2600SOL    HW219434   2.381   4.305   9.334 -2.6053  2.3942 -1.5494
 2601SOL     OW19435   3.066   4.369   7.772 -0.1607  0.3668 -0.1394
 2601SOL    HW119436   3.047   4.383   7.865  1.9969 -0.9582  0.4909
 2601SOL    HW219437   3.119   4.290   7.775 -0.4990  0.0525 -2.3794
 2602SOL     OW19438   2.335   1.696   2.397 -0.5406  0.2851 -0.1852
 2602SOL    HW119439   2.388   1.761   2.443 -2.2776  0.8859  0.9707
 2602SOL    HW219440   2.385   1.617   2.414  1.0571  0.9191 -1.9234
 2603SOL     OW19441   1.089   0.867   8.559 -0.2375 -0.4134  0.1470
 2603SOL    HW119442   1.092   0.940   8.620 -1.5261  0.1635 -0.4742
 2603SOL    HW219443   1.055   0.798   8.616 -1.8030 -1.1768 -1.6980
 2604SOL     OW19444   1.853   1.368   8.799  0.3041  0.0372 -0.2283
 2604SOL    HW119445   1.900   1.382   8.717 -1.1457 -2.8208 -1.5596
 2604SOL    HW219446   1.919   1.327   8.855 -0.6363  0.5213  1.2124
 2605SOL     OW19447   2.136   2.396   6.496 -0.0619  0.1586  0.0766
 2605SOL    HW119448   2.052   2.439   6.516 -0.8162  0.9712 -4.8265
 2605SOL    HW219449   2.173   2.404   6.583  3.9480  2.2914 -1.8499
 2606SOL     OW19450   3.285   0.350  10.836  0.1741 -0.3226  0.3681
 2606SOL    HW119451   3.279   0.276  10.776  0.7940 -0.7148  0.7881
 2606SOL    HW219452   3.221   0.410  10.797  2.7760  3.5143  2.0007
 2607SOL     OW19453   1.829   0.334  11.975  0.0467 -0.3420  0.2746
 2607SOL    HW119454   1.874   0.270  11.920  2.4961  0.6481  1.1450
 2607SOL    HW219455   1.855   0.297  12.059  0.0148 -0.4990  0.2151
 2608SOL     OW19456   4.532   3.886   3.924 -0.1706 -0.0013 -0.5268
 2608SOL    HW119457   4.567   3.972   3.946  0.3399 -0.2005 -0.5724
 2608SOL    HW219458   4.444   3.902   3.890 -0.0170 -1.8227 -1.8071
 2609SOL     OW19459   2.689   4.124   2.778 -0.3088  0.3494 -0.1146
 2609SOL    HW119460   2.650   4.211   2.777 -0.4193  0.3239  1.3666
 2609SOL    HW219461   2.703   4.108   2.685  0.4913 -0.6631  0.1697
 2610SOL     OW19462   3.549   2.207  11.901  0.7181 -0.4512  0.6928
 2610SOL    HW119463   3.524   2.299  11.912  0.7270 -0.4080  0.3553
 2610SOL    HW219464   3.609   2.191  11.973  0.8327 -1.8323  0.2745
 2611SOL     OW19465   4.410   4.350   4.711  0.0458 -0.5823 -0.4244
 2611SOL    HW119466   4.488   4.348   4.766  0.4150  0.7099 -0.8927
 2611SOL    HW219467   4.394   4.444   4.714 -1.0613 -0.8025  0.5208
 2612SOL     OW19468   2.282   0.968   9.005  0.1921 -0.1404  0.3373
 2612SOL    HW119469   2.201   0.972   9.055  0.4385 -1.1555  0.8195
 2612SOL    HW219470   2.334   0.907   9.057 -0.1547  1.2674  2.3368
 2613SOL     OW19471   0.021   3.051   4.737  0.0780  0.6408 -0.6116
 2613SOL    HW119472   4.668   3.049   4.703  0.3899 -1.0276 -1.3196
 2613SOL    HW219473   0.001   3.090   4.823  0.0057  1.8422 -1.1762
 2614SOL     OW19474   0.692   2.610   3.833 -0.1003 -0.4091 -0.0366
 2614SOL    HW119475   0.682   2.598   3.928 -0.2028 -0.8438 -0.1039
 2614SOL    HW219476   0.677   2.703   3.820 -0.0618 -0.5417 -1.0088
 2615SOL     OW19477   1.497   2.252   6.043 -0.5088  0.0960  0.1687
 2615SOL    HW119478   1.579   2.202   6.035 -1.3995 -1.5830  1.4183
 2615SOL    HW219479   1.521   2.321   6.104 -0.7344  0.2792  0.0478
 2616SOL     OW19480   1.606   4.450   1.827  0.1965  0.4058 -0.2123
 2616SOL    HW119481   1.566   4.468   1.743  0.8526  1.2530 -0.3463
 2616SOL    HW219482   1.649   4.535   1.835 -1.7213  1.3473  0.1376
 2617SOL     OW19483   3.943   3.720  16.867 -0.3617 -0.1451  0.2583
 2617SOL    HW119484   3.977   3.718  16.778  1.5931 -1.2939  1.0286
 2617SOL    HW219485   3.851   3.739  16.851 -0.3982 -1.0097 -0.5227
 2618SOL     OW19486   2.883   2.278   7.431 -0.0516 -0.1763  0.1505
 2618SOL    HW119487   2.868   2.331   7.353 -0.9862 -0.6477  0.0095
 2618SOL    HW219488   2.905   2.350   7.490  2.1001 -1.0190  0.3981
 2619SOL     OW19489   0.390   3.743   4.679  0.1165  0.3153  0.3916
 2619SOL    HW119490   0.426   3.716   4.594  0.7879 -0.4026  0.9098
 2619SOL    HW219491   0.467   3.734   4.735 -0.1588 -0.0761  0.7004
 2620SOL     OW19492   4.132   0.403   7.849  0.2733 -0.2965 -0.0977
 2620SOL    HW119493   4.162   0.398   7.758 -2.8304  0.4883 -1.1740
 2620SOL    HW219494   4.065   0.471   7.851  0.3315 -0.2234 -0.8569
 2621SOL     OW19495   1.857   1.678   7.430  0.0743  0.0500  0.5625
 2621SOL    HW119496   1.833   1.767   7.405  2.0477  0.3394 -0.2609
 2621SOL    HW219497   1.859   1.675   7.526 -1.3658  0.5643  0.6160
 2622SOL     OW19498   2.066   2.489   3.815  0.0302 -0.0997 -0.8389
 2622SOL    HW119499   2.131   2.419   3.828  0.8525  0.2613 -2.8519
 2622SOL    HW219500   2.123   2.566   3.819  1.0568 -1.1014  3.2336
 2623SOL     OW19501   2.902   3.766   9.980 -0.3982 -0.3171 -0.6527
 2623SOL    HW119502   2.876   3.680  10.014 -0.2177 -0.1602 -0.1158
 2623SOL    HW219503   2.818   3.810   9.969 -0.6579 -1.2256 -2.3657
 2624SOL     OW19504   2.295   3.545   6.479 -0.6420 -0.1927 -0.3971
 2624SOL    HW119505   2.285   3.492   6.400 -4.5807  1.9921 -1.3779
 2624SOL    HW219506   2.361   3.495   6.526 -1.4436 -0.1043  0.8097
 2625SOL     OW19507   3.229   1.379  16.766 -0.1430 -0.1636 -0.1939
 2625SOL    HW119508   3.319   1.394  16.797  0.3346 -2.2239 -0.6103
 2625SOL    HW219509   3.214   1.286  16.776  1.5202 -0.6442 -2.1184
 2626SOL     OW19510   0.087   3.131   0.959  0.2257  0.5301  0.2496
 2626SOL    HW119511   0.034   3.150   1.036 -0.4716 -0.3039 -0.0278
 2626SOL    HW219512   0.057   3.191   0.892 -0.0317  1.5467  1.2707
 2627SOL     OW19513   4.300   0.468  10.762 -0.7699  0.2183  0.3343
 2627SOL    HW119514   4.336   0.530  10.825 -0.1165 -0.1681  0.3514
 2627SOL    HW219515   4.265   0.539  10.708  1.8939  1.9103  0.8355
 2628SOL     OW19516   1.677   2.037  11.813  0.1585 -0.0774  0.1653
 2628SOL    HW119517   1.723   1.968  11.766  1.3055  1.3494 -0.7792
 2628SOL    HW219518   1.741   2.069  11.876  0.7102  1.6880 -1.3048
 2629SOL     OW19519   1.757   0.413   5.328  0.0415 -0.3580  0.7289
 2629SOL    HW119520   1.661   0.413   5.332 -0.0345  2.5554 -0.6703
 2629SOL    HW219521   1.761   0.500   5.287  2.5577 -1.7940 -2.0130
 2630SOL     OW19522   2.030   1.786   3.554 -0.0528  0.1143  0.5254
 2630SOL    HW119523   2.088   1.856   3.583  1.4261 -0.4030 -1.2319
 2630SOL    HW219524   1.983   1.770   3.636 -1.2295  0.7349 -0.0263
 2631SOL     OW19525   0.925   0.236   8.565 -0.1961 -0.1930 -0.5200
 2631SOL    HW119526   0.918   0.153   8.612  0.4706 -0.8675 -1.6138
 2631SOL    HW219527   0.837   0.270   8.579  0.4176  2.0258 -2.1117
 2632SOL     OW19528   0.238   1.459   9.358 -0.8862  0.2353 -0.0543
 2632SOL    HW119529   0.293   1.533   9.384 -1.7014  0.7349  0.2519
 2632SOL    HW219530   0.179   1.498   9.293 -0.0988  1.6925  0.0958
 2633SOL     OW19531   2.909   3.170   0.686 -0.5071  0.4996  0.1740
 2633SOL    HW119532   2.938   3.183   0.595  0.7965 -2.0519  0.2128
 2633SOL    HW219533   2.908   3.258   0.722 -0.7669  0.5674  0.0063
 2634SOL     OW19534   3.903   1.623   7.451 -0.0858 -0.0927  0.3496
 2634SOL    HW119535   3.955   1.687   7.403  1.4011 -1.1037  0.5957
 2634SOL    HW219536   3.903   1.564   7.375  2.0319 -0.2381  0.4711
 2635SOL     OW19537   4.536   2.187  15.212 -0.3828  0.0679 -0.8536
 2635SOL    HW119538   4.499   2.099  15.206  0.9720 -0.8038  3.1606
 2635SOL    HW219539   4.630   2.172  15.225 -0.7952 -0.1456  1.8035
 2636SOL     OW19540   3.016   1.469   7.712 -0.3441  0.3917 -0.5167
 2636SOL    HW119541   3.075   1.398   7.688  0.3625 -0.1390  2.8683
 2636SOL    HW219542   3.021   1.463   7.807  0.6994  0.4136 -0.5718
 2637SOL     OW19543   3.926   3.094  13.635 -0.1194 -0.4166  0.3611
 2637SOL    HW119544   3.977   3.140  13.701 -1.6567  0.5705  0.8527
 2637SOL    HW219545   3.937   3.005  13.668 -2.6092 -0.7764  0.1784
 2638SOL     OW19546   4.730   3.947  16.083  0.0414 -0.3934  0.5487
 2638SOL    HW119547   0.074   3.932  16.131  0.9553 -0.1966 -0.9430
 2638SOL    HW219548   4.664   3.922  16.148 -0.4518  1.4988  0.7835
 2639SOL     OW19549   2.350   2.024   5.528 -0.6015  0.1456  0.3181
 2639SOL    HW119550   2.383   2.095   5.472  3.3037 -1.4363  0.6035
 2639SOL    HW219551   2.410   2.037   5.601  0.8100  0.1146 -0.8149
 2640SOL     OW19552   3.151   1.997   7.586  0.0502 -0.3790 -0.3978
 2640SOL    HW119553   3.130   1.904   7.579 -0.7155 -0.1967 -0.4335
 2640SOL    HW219554   3.123   2.022   7.498  2.2427 -1.2041 -1.3442
 2641SOL     OW19555   4.686   3.869   6.237  0.2677  0.0774  0.5483
 2641SOL    HW119556   0.005   3.812   6.185  0.3166  0.2183  0.4470
 2641SOL    HW219557   4.597   3.871   6.200  0.1536 -0.3647  0.7995
 2642SOL     OW19558   2.148   1.513   1.282  0.2544  0.0217 -0.0948
 2642SOL    HW119559   2.188   1.442   1.331 -2.4770 -0.0524  2.0621
 2642SOL    HW219560   2.072   1.470   1.241 -0.9182  1.5576  0.4592
 2643SOL     OW19561   1.700   3.740   9.806 -0.7372  0.1127  0.6700
 2643SOL    HW119562   1.648   3.756   9.885 -2.0613  0.9786 -0.3881
 2643SOL    HW219563   1.692   3.824   9.762 -1.4980  0.0923  0.7712
 2644SOL     OW19564   0.270   1.906  10.242  0.1108 -0.6464 -0.3243
 2644SOL    HW119565   0.289   1.950  10.325  3.8923 -3.0266  0.0407
 2644SOL    HW219566   0.200   1.957  10.202  0.3042 -0.2963 -0.2124
 2645SOL     OW19567   2.401   3.166   1.980 -0.1011 -0.0673  0.1121
 2645SOL    HW119568   2.319   3.116   1.991 -0.0707  0.0480  0.8303
 2645SOL    HW219569   2.373   3.251   2.014 -1.0153 -1.0698  1.8457
 2646SOL     OW19570   3.708   0.735   6.383 -0.5472  0.9348  0.0320
 2646SOL    HW119571   3.746   0.806   6.331 -1.0712 -0.2229 -1.9217
 2646SOL    HW219572   3.614   0.752   6.372 -0.6055  0.0003 -0.8701
 2647SOL     OW19573   0.167   0.469   6.864 -0.5125 -0.3252  0.4834
 2647SOL    HW119574   0.213   0.545   6.898  2.0450 -0.8816 -1.7329
 2647SOL    HW219575   0.188   0.397   6.923 -0.9247 -1.5982 -0.9084
 2648SOL     OW19576   1.226   3.604   8.607  0.0938 -0.2350  0.3355
 2648SOL    HW119577   1.283   3.558   8.546  1.1810  1.2607  0.2233
 2648SOL    HW219578   1.136   3.594   8.576  0.4029 -0.7015 -0.3948
 2649SOL     OW19579   2.155   1.780   1.244 -0.5571  0.6997  0.5779
 2649SOL    HW119580   2.228   1.810   1.297  1.3327 -0.1002 -1.5640
 2649SOL    HW219581   2.162   1.686   1.260 -2.3443  0.3227 -0.7527
 2650SOL     OW19582   1.352   0.521   9.922 -0.9387 -0.2002  0.5936
 2650SOL    HW119583   1.393   0.607   9.920 -0.7656 -0.3130 -0.6205
 2650SOL    HW219584   1.262   0.545   9.897 -0.3405  1.3162 -0.0827
 2651SOL     OW19585   3.705   4.385   9.881  0.8211  0.2313  0.3060
 2651SOL    HW119586   3.651   4.351   9.809 -0.1202 -2.3188  2.2030
 2651SOL    HW219587   3.748   4.459   9.839  0.0734  0.1263 -0.6438
 2652SOL     OW19588   1.628   3.973   9.659  0.4819 -0.7443  0.2716
 2652SOL    HW119589   1.534   3.975   9.639  0.4583  3.3157  0.7333
 2652SOL    HW219590   1.672   3.963   9.575  1.0933  0.1709  0.4805
 2653SOL     OW19591   1.847   1.237   4.000  0.2329 -0.0862  0.3554
 2653SOL    HW119592   1.924   1.248   3.944  0.7526 -2.7338  0.5439
 2653SOL    HW219593   1.873   1.159   4.049  1.1804  0.2012  0.3117
 2654SOL     OW19594   3.598   2.850   7.609 -0.6539 -0.3638 -0.2194
 2654SOL    HW119595   3.635   2.770   7.645 -1.0109 -0.3711  0.1349
 2654SOL    HW219596   3.515   2.815   7.574 -1.5742 -2.1049  3.6534
 2655SOL     OW19597   1.625   1.147  15.017 -0.3143  0.5421  0.3803
 2655SOL    HW119598   1.539   1.179  14.989  0.3387 -0.8608 -3.0983
 2655SOL    HW219599   1.595   1.071  15.067 -2.0918  1.0702  0.1293
 2656SOL     OW19600   3.894   2.901   6.802 -0.1215 -0.4962 -0.0466
 2656SOL    HW119601   3.924   2.989   6.779 -0.2860 -0.0439  1.4347
 2656SOL    HW219602   3.948   2.889   6.880  1.9602 -0.3806 -1.4703
 2657SOL     OW19603   1.252   1.898   9.699  0.3448 -0.7186 -1.0203
 2657SOL    HW119604   1.255   1.958   9.774 -2.3160 -0.6713 -0.9442
 2657SOL    HW219605   1.159   1.873   9.697  0.3913 -1.0533  1.4275
 2658SOL     OW19606   0.243   1.545   2.874 -0.2927  0.7500 -0.5334
 2658SOL    HW119607   0.188   1.541   2.952  1.1393 -3.0731  0.2827
 2658SOL    HW219608   0.247   1.640   2.863  2.0664  0.9655  2.3994
 2659SOL     OW19609   2.466   3.935   4.142  0.6126  0.1764  0.1982
 2659SOL    HW119610   2.417   4.005   4.099 -0.3948 -1.2035 -0.8902
 2659SOL    HW219611   2.456   3.950   4.236 -0.5427 -0.0987  0.1104
 2660SOL     OW19612   3.704   3.844   5.354  0.3892  0.5391  0.3592
 2660SOL    HW119613   3.737   3.754   5.347  0.9920  0.8152 -0.2815
 2660SOL    HW219614   3.733   3.858   5.444  1.4251 -3.5050  0.6722
 2661SOL     OW19615   0.549   1.339  13.458  0.0528  0.0722  0.4654
 2661SOL    HW119616   0.599   1.412  13.420  0.2116  0.3829  1.2558
 2661SOL    HW219617   0.612   1.303  13.520  0.8609  1.1191  0.2611
 2662SOL     OW19618   0.017   1.820   0.457 -0.3646  0.0986  0.6716
 2662SOL    HW119619   0.060   1.786   0.535 -1.2096  1.9662  1.9613
 2662SOL    HW219620   0.077   1.894   0.445  0.4999 -1.0050 -1.7679
 2663SOL     OW19621   4.105   0.711  16.041 -0.0582 -0.1204 -0.0654
 2663SOL    HW119622   4.037   0.763  15.999 -1.3094 -1.0887  0.7627
 2663SOL    HW219623   4.167   0.780  16.066  1.2429 -2.3531  2.9666
 2664SOL     OW19624   2.837   2.252  14.662  0.6358 -0.4272  0.0231
 2664SOL    HW119625   2.768   2.229  14.600  1.9062 -1.3807 -1.0411
 2664SOL    HW219626   2.919   2.230  14.618  0.7604  1.7593 -0.8395
 2665SOL     OW19627   4.251   3.080  16.675 -0.1397 -0.0319  0.5384
 2665SOL    HW119628   4.315   3.020  16.713  0.4539  0.1881 -0.1214
 2665SOL    HW219629   4.306   3.116  16.605 -1.8520 -1.4478 -1.5419
 2666SOL     OW19630   4.363   0.597   2.342 -0.2341  0.3819 -0.0506
 2666SOL    HW119631   4.276   0.563   2.322  0.0396 -0.0940 -0.4188
 2666SOL    HW219632   4.387   0.654   2.268 -1.0944  2.4101  1.2289
 2667SOL     OW19633   2.099   3.104   5.591  0.2525 -0.1105  0.4899
 2667SOL    HW119634   2.051   3.106   5.674 -2.5397 -1.8196 -1.0700
 2667SOL    HW219635   2.107   3.198   5.576 -0.1983 -0.0732  0.4667
 2668SOL     OW19636   2.536   1.881   5.966  0.0281  0.0270 -0.3622
 2668SOL    HW119637   2.504   1.934   6.040 -0.9409 -1.9858  0.6801
 2668SOL    HW219638   2.541   1.952   5.902 -1.5379 -0.0488 -0.5791
 2669SOL     OW19639   3.562   2.296   8.287  0.5054 -0.2982  0.4615
 2669SOL    HW119640   3.544   2.342   8.369  1.9341  1.1748 -0.0573
 2669SOL    HW219641   3.475   2.269   8.257 -0.7970  2.2529  1.9140
 2670SOL     OW19642   3.723   4.056   2.052  0.0276  0.6207 -0.2083
 2670SOL    HW119643   3.742   4.138   2.006  1.9470  0.4358  0.2524
 2670SOL    HW219644   3.695   4.083   2.140 -1.0241  0.1058 -0.3802
 2671SOL     OW19645   3.657   1.461  16.227  0.6627 -0.3696 -0.2078
 2671SOL    HW119646   3.591   1.531  16.221  1.4092  0.3121 -0.4356
 2671SOL    HW219647   3.740   1.500  16.200  1.5320 -1.5177  0.8165
 2672SOL     OW19648   3.844   2.565  12.323  0.6021  0.1594 -0.2141
 2672SOL    HW119649   3.826   2.526  12.237 -4.6402 -0.6564  1.2588
 2672SOL    HW219650   3.875   2.485  12.366 -1.5811 -0.7237 -0.2601
 2673SOL     OW19651   3.010   4.541   8.996 -0.0033  0.0976  0.8809
 2673SOL    HW119652   2.935   4.577   8.949  0.2394 -1.8323 -0.9991
 2673SOL    HW219653   2.971   4.475   9.053 -0.1311 -1.4739 -0.9984
 2674SOL     OW19654   2.446   3.096   3.971  0.2144  0.6278  0.4011
 2674SOL    HW119655   2.377   3.083   3.906 -1.3711 -1.0358  2.4030
 2674SOL    HW219656   2.518   3.079   3.910 -0.2067 -1.1510  0.4200
 2675SOL     OW19657   0.680   1.899   5.863  0.0923  0.5421 -0.0889
 2675SOL    HW119658   0.718   1.951   5.793  0.1424 -0.2692 -0.6694
 2675SOL    HW219659   0.699   1.809   5.835 -0.7307  0.3289  0.0311
 2676SOL     OW19660   1.795   0.346   1.628 -0.5562  0.4351  0.2409
 2676SOL    HW119661   1.820   0.255   1.608 -3.0411 -0.6773  2.1467
 2676SOL    HW219662   1.825   0.394   1.551  1.0597 -0.0309  0.5585
 2677SOL     OW19663   4.164   2.135  14.171 -0.2458  0.1492 -0.1120
 2677SOL    HW119664   4.191   2.054  14.129  0.4616  1.3816 -2.0298
 2677SOL    HW219665   4.069   2.127  14.170 -0.5349  3.3747  0.2425
 2678SOL     OW19666   0.228   3.400   5.774 -0.3633  0.0412 -0.1732
 2678SOL    HW119667   0.185   3.376   5.856  0.8575 -0.3289  0.3741
 2678SOL    HW219668   0.156   3.420   5.715 -1.6592  1.7442  2.0114
 2679SOL     OW19669   4.287   1.477   9.938 -0.4343  0.1373 -0.2704
 2679SOL    HW119670   4.349   1.438   9.877  0.3688  0.9273  0.0440
 2679SOL    HW219671   4.311   1.437  10.022  0.3210  0.5037 -0.3136
 2680SOL     OW19672   3.664   3.259   4.636 -0.3873  1.2981  0.2682
 2680SOL    HW119673   3.628   3.343   4.610 -0.4804  1.1390 -0.1117
 2680SOL    HW219674   3.609   3.196   4.589  0.9936  1.3392 -1.3964
 2681SOL     OW19675   0.888   2.131   7.482 -0.3037 -0.0444 -0.5257
 2681SOL    HW119676   0.819   2.194   7.501 -1.4689 -1.1682 -1.0721
 2681SOL    HW219677   0.919   2.108   7.569  0.5369 -0.0384 -0.8140
 2682SOL     OW19678   2.874   1.350   9.323  0.0098 -0.5237  0.0482
 2682SOL    HW119679   2.930   1.386   9.392  0.5855 -0.3330 -0.5140
 2682SOL    HW219680   2.797   1.317   9.369  0.2892  0.7937  1.4194
 2683SOL     OW19681   1.073   2.128   4.270  0.0617  0.1253 -0.4952
 2683SOL    HW119682   1.164   2.142   4.295  0.0376  1.8606 -1.3927
 2683SOL    HW219683   1.062   2.044   4.315 -0.2182  0.0624 -0.6818
 2684SOL     OW19684   2.938   2.306   3.412  0.3133 -0.1583  0.5140
 2684SOL    HW119685   3.016   2.341   3.454  1.6340 -0.2343 -1.8292
 2684SOL    HW219686   2.952   2.343   3.324  0.7452 -1.1147  0.1732
 2685SOL     OW19687   1.026   3.021  16.122 -0.4070 -1.1701  0.3755
 2685SOL    HW119688   0.962   3.049  16.186 -0.5510 -0.1448 -0.2173
 2685SOL    HW219689   0.974   3.060  16.052  0.4190  0.7798  0.8404
 2686SOL     OW19690   3.985   0.565   3.178 -0.3545  0.3151 -1.2649
 2686SOL    HW119691   4.074   0.599   3.174 -0.3256  0.3989 -0.1314
 2686SOL    HW219692   3.991   0.547   3.272 -0.8364  0.9926 -1.1013
 2687SOL     OW19693   4.593   4.141   2.940  0.3658 -0.3020 -0.2309
 2687SOL    HW119694   4.625   4.167   3.026  0.7949  0.8751 -0.7440
 2687SOL    HW219695   4.588   4.047   2.955  1.0594 -0.2613  0.2756
 2688SOL     OW19696   1.971   2.236   7.248 -0.6769 -0.2062 -0.8615
 2688SOL    HW119697   1.932   2.323   7.246 -0.5326 -0.2537 -4.8909
 2688SOL    HW219698   1.926   2.207   7.328  1.2677  0.4833  0.4820
 2689SOL     OW19699   3.330   0.698   4.034  0.1482  0.0556  0.6473
 2689SOL    HW119700   3.241   0.666   4.049 -0.5976  2.0950  0.4843
 2689SOL    HW219701   3.338   0.756   4.110  1.4025  1.5017 -0.6002
 2690SOL     OW19702   1.185   4.061   6.549  0.1793  0.5125 -0.0885
 2690SOL    HW119703   1.203   4.104   6.465 -0.4060  0.0281 -0.4513
 2690SOL    HW219704   1.242   4.112   6.607  0.9012 -0.7030  0.2665
 2691SOL     OW19705   0.725   1.156   0.811  0.4228 -0.1544  0.8066
 2691SOL    HW119706   0.816   1.185   0.802  0.1657 -0.2915 -2.0638
 2691SOL    HW219707   0.735   1.080   0.869  2.2094 -1.1505 -0.8181
 2692SOL     OW19708   3.103   2.566   6.056 -0.3087 -0.3561  0.7699
 2692SOL    HW119709   3.008   2.577   6.059 -0.4799 -1.3712 -0.9220
 2692SOL    HW219710   3.104   2.474   6.029  1.1453  0.3698 -1.6662
 2693SOL     OW19711   4.139   0.775   2.830 -0.0152 -0.2921  0.0373
 2693SOL    HW119712   4.122   0.777   2.736  0.0251 -0.2981  0.0299
 2693SOL    HW219713   4.053   0.759   2.869 -0.2840 -0.4337 -0.6250
 2694SOL     OW19714   1.141   0.985   4.977  0.2323 -0.1525  0.5874
 2694SOL    HW119715   1.049   0.959   4.979  0.4655 -0.9074  1.1697
 2694SOL    HW219716   1.184   0.902   4.961 -1.2008 -0.6917 -0.4621
 2695SOL     OW19717   0.548   3.855   6.898  0.1613  0.5718 -0.2707
 2695SOL    HW119718   0.602   3.813   6.965 -0.9194 -1.8920 -0.9714
 2695SOL    HW219719   0.491   3.922   6.936 -1.0108  0.2298 -1.4635
 2696SOL     OW19720   3.854   4.143   9.354  0.6621 -0.3305 -0.0091
 2696SOL    HW119721   3.830   4.231   9.324  1.8982 -0.1458 -0.4686
 2696SOL    HW219722   3.918   4.158   9.423  0.4123 -1.9698  0.5800
 2697SOL     OW19723   1.559   0.678  10.957  0.2070  0.3904 -0.0560
 2697SOL    HW119724   1.535   0.742  11.024 -2.6381 -1.0072  0.2530
 2697SOL    HW219725   1.550   0.739  10.884  0.0318 -1.6554 -1.7321
 2698SOL     OW19726   4.650   1.172   6.379 -0.2052 -0.4403  0.5975
 2698SOL    HW119727   4.669   1.079   6.394  0.7512 -0.1887  0.9728
 2698SOL    HW219728   4.556   1.179   6.392 -0.7338 -0.7407 -2.8445
 2699SOL     OW19729   0.342   4.452  10.499 -0.3820 -0.0270  0.4161
 2699SOL    HW119730   0.400   4.431  10.573 -1.6990  4.0634  2.5823
 2699SOL    HW219731   0.260   4.418  10.534 -0.2128  0.6442  1.4858
 2700SOL     OW19732   4.528   2.180  14.702 -0.1944  0.4742 -0.5127
 2700SOL    HW119733   4.448   2.217  14.664 -1.9174  0.7607  3.4793
 2700SOL    HW219734   4.527   2.092  14.665  2.3728 -0.5618  1.8570
 2701SOL     OW19735   1.182   0.152  16.468  0.0022  0.1525 -0.6597
 2701SOL    HW119736   1.116   0.192  16.410  1.0193 -1.9334 -3.2207
 2701SOL    HW219737   1.138   0.068  16.478 -1.5245  0.9457 -0.6070
 2702SOL     OW19738   3.076   2.564   3.061  0.3270  0.1877 -0.4414
 2702SOL    HW119739   3.075   2.651   3.021  1.3395  1.4579  2.3405
 2702SOL    HW219740   3.041   2.505   2.993 -1.1023  0.2881  0.2037
 2703SOL     OW19741   0.519   2.920   4.959 -0.2332 -0.1984 -0.0482
 2703SOL    HW119742   0.494   2.928   4.867  0.5969 -1.0566 -0.3469
 2703SOL    HW219743   0.435   2.885   4.987 -0.6676 -1.8227 -3.2902
 2704SOL     OW19744   4.726   3.617   7.065  0.2950 -0.4377 -0.0389
 2704SOL    HW119745   0.031   3.569   6.994 -0.8789 -0.0480 -1.0014
 2704SOL    HW219746   4.634   3.595   7.049  0.3641  0.0885 -1.1034
 2705SOL     OW19747   4.166   0.902   7.437 -0.6666 -0.2249  0.4355
 2705SOL    HW119748   4.181   0.819   7.483  0.4509 -1.4152 -2.0562
 2705SOL    HW219749   4.096   0.949   7.482 -1.7952  0.0881 -1.6727
 2706SOL     OW19750   1.793   1.601   8.134 -0.3382  0.2010  0.2657
 2706SOL    HW119751   1.806   1.677   8.077 -0.8959 -0.5092 -0.8143
 2706SOL    HW219752   1.727   1.544   8.095 -1.3404  1.7214 -0.2539
 2707SOL     OW19753   0.040   4.150   7.903 -0.0278  0.0419  0.6067
 2707SOL    HW119754   4.711   4.217   7.922  1.2590  1.8023 -1.0465
 2707SOL    HW219755   0.015   4.079   7.961 -1.3751  0.1697  0.1814
 2708SOL     OW19756   2.198   1.662   9.110  0.2398  0.1722  0.4076
 2708SOL    HW119757   2.118   1.612   9.127 -0.1088  0.5502 -0.1061
 2708SOL    HW219758   2.195   1.725   9.182  0.4403  1.7805 -0.9737
 2709SOL     OW19759   1.839   2.011   3.878  0.2501 -0.6707 -0.0852
 2709SOL    HW119760   1.845   1.916   3.867 -0.0322 -0.7478  0.4117
 2709SOL    HW219761   1.766   2.038   3.823  0.7848  1.4273  0.2407
 2710SOL     OW19762   1.721   0.367   4.926  0.2335  0.2730  0.0785
 2710SOL    HW119763   1.673   0.298   4.971  1.4845 -0.4525  0.3057
 2710SOL    HW219764   1.660   0.437   4.949  2.0353  1.3170  1.7496
 2711SOL     OW19765   2.518   1.750   7.950  0.1483  0.3074  0.4842
 2711SOL    HW119766   2.503   1.743   7.856 -1.1880 -0.8630  0.7823
 2711SOL    HW219767   2.581   1.679   7.956 -1.7275 -1.4434 -0.8616
 2712SOL     OW19768   0.483   2.766   9.307 -0.0035 -0.0681 -0.2700
 2712SOL    HW119769   0.470   2.725   9.221 -0.5604 -1.5512  0.5285
 2712SOL    HW219770   0.390   2.783   9.317 -0.4265 -1.6232 -1.5485
 2713SOL     OW19771   3.802   2.424   5.818  0.3541 -0.4469  0.1957
 2713SOL    HW119772   3.807   2.480   5.741  0.9941  1.0901  1.3310
 2713SOL    HW219773   3.729   2.371   5.787  1.3533 -2.7100  1.6736
 2714SOL     OW19774   0.976   3.633   6.508  0.3107  0.3109  0.0860
 2714SOL    HW119775   1.042   3.681   6.458 -0.7458  0.7682 -0.8676
 2714SOL    HW219776   0.989   3.672   6.594 -0.6800  1.5589 -0.3279
 2715SOL     OW19777   0.006   2.181   8.496 -0.1463 -0.0189  0.1636
 2715SOL    HW119778   0.057   2.102   8.475  0.1211  0.2401 -0.1658
 2715SOL    HW219779   4.730   2.180   8.591  1.3729  1.2331  0.3840
 2716SOL     OW19780   1.323   2.637   5.988  0.2239 -0.6351  0.5560
 2716SOL    HW119781   1.255   2.703   5.988 -1.1942 -2.0953  1.4126
 2716SOL    HW219782   1.376   2.656   5.910  1.4725  0.6685  1.7319
 2717SOL     OW19783   4.465   4.719  12.373 -0.3721 -0.1047  0.2591
 2717SOL    HW119784   4.417   4.642  12.343  0.4185 -1.4472  2.4522
 2717SOL    HW219785   4.472   4.719  12.468 -2.0862  2.0526  0.3874
 2718SOL     OW19786   1.330   2.142   6.727 -0.2576  0.7908  0.2022
 2718SOL    HW119787   1.292   2.230   6.724  0.8954  1.3003  0.4377
 2718SOL    HW219788   1.249   2.097   6.705 -0.4812  0.2880  2.0627
 2719SOL     OW19789   2.086   2.535  17.401 -0.1038  0.2722 -0.5381
 2719SOL    HW119790   2.015   2.529  17.465 -1.7083 -0.4212 -2.3837
 2719SOL    HW219791   2.160   2.496  17.449 -1.2439  2.8159  3.2733
 2720SOL     OW19792   1.955   1.453  11.710  0.0367  0.1555 -0.3819
 2720SOL    HW119793   1.919   1.505  11.782 -1.4028  0.0729 -1.0565
 2720SOL    HW219794   2.036   1.421  11.749 -1.0597 -1.5552  0.4975
 2721SOL     OW19795   3.540   2.860  10.174  0.1395 -0.3654 -0.1912
 2721SOL    HW119796   3.514   2.928  10.236 -0.0836  1.8085 -2.7144
 2721SOL    HW219797   3.461   2.805  10.175  0.1738 -0.4502 -2.1054
 2722SOL     OW19798   3.026   0.211   7.477 -0.3077 -0.1750 -0.4420
 2722SOL    HW119799   3.105   0.168   7.510 -1.5808 -0.9626  1.5450
 2722SOL    HW219800   3.067   0.248   7.398 -2.0364 -0.7186 -1.5889
 2723SOL     OW19801   3.721   2.372  12.881  0.5232 -0.7210  0.2758
 2723SOL    HW119802   3.779   2.309  12.924 -0.7403 -2.9690 -1.3149
 2723SOL    HW219803   3.765   2.376  12.797  0.9554 -0.3005  0.5243
 2724SOL     OW19804   3.945   1.272   5.001  0.0005  0.3091 -0.2672
 2724SOL    HW119805   3.979   1.353   4.964  0.8973 -0.5760 -1.3462
 2724SOL    HW219806   4.022   1.229   5.038  0.2238  0.6823 -0.2942
 2725SOL     OW19807   0.572   2.204   1.048 -0.4866  0.6692  0.0112
 2725SOL    HW119808   0.498   2.144   1.038  0.1373  0.0643 -1.0498
 2725SOL    HW219809   0.579   2.207   1.143 -1.0807  3.0168 -0.0121
 2726SOL     OW19810   1.244   1.547   3.048 -0.0047  0.1049 -0.2398
 2726SOL    HW119811   1.310   1.617   3.042 -0.2052  0.1508 -1.7416
 2726SOL    HW219812   1.290   1.470   3.016  1.5774  0.2955  1.5221
 2727SOL     OW19813   0.213   4.484   3.556  0.5637 -0.0985  0.1143
 2727SOL    HW119814   0.296   4.468   3.512  0.6186  1.7524 -0.4928
 2727SOL    HW219815   0.182   4.396   3.576  0.0363 -0.6543 -3.1886
 2728SOL     OW19816   3.801   0.045   7.515  0.1130 -0.4894 -0.2201
 2728SOL    HW119817   3.787   0.131   7.474  3.2234  0.2144  0.2173
 2728SOL    HW219818   3.709   0.022   7.526  0.2335 -0.1836  1.4712
 2729SOL     OW19819   3.021   2.807  16.050 -0.3857 -0.2622 -0.1164
 2729SOL    HW119820   2.927   2.828  16.049  0.6918  4.5077 -1.8697
 2729SOL    HW219821   3.037   2.779  16.140  0.5383  0.6490 -0.0112
 2730SOL     OW19822   0.970   3.078   0.320  0.2687  0.4579 -0.2312
 2730SOL    HW119823   1.026   3.028   0.260 -1.7523 -2.6216  0.4755
 2730SOL    HW219824   0.942   3.156   0.271 -1.7890 -0.5719 -0.6964
 2731SOL     OW19825   2.205   4.518   7.563 -0.5123 -0.1513  0.2275
 2731SOL    HW119826   2.184   4.517   7.470  0.5385  1.0455 -0.0287
 2731SOL    HW219827   2.250   4.434   7.573  0.5853  0.3814 -0.2057
 2732SOL     OW19828   0.086   2.311  12.550  0.3078  0.5171  0.3342
 2732SOL    HW119829   0.104   2.231  12.501  0.6399 -0.4156  1.9760
 2732SOL    HW219830   0.076   2.374  12.479  0.0238  2.6844  2.2888
 2733SOL     OW19831   0.338   3.131  17.443  0.1619 -0.2524 -0.0387
 2733SOL    HW119832   0.243   3.124  17.430  0.0464 -1.6288  1.4895
 2733SOL    HW219833   0.330   3.064  17.510 -0.2377  1.2764  1.4691
 2734SOL     OW19834   3.336   1.736  12.413 -0.3307  0.2937 -0.0291
 2734SOL    HW119835   3.364   1.784  12.491 -1.5218  0.5657  0.2380
 2734SOL    HW219836   3.322   1.647  12.445  0.6670  0.6245  1.3276
 2735SOL     OW19837   1.991   2.286   2.078 -0.1493 -0.3094 -0.0937
 2735SOL    HW119838   1.937   2.209   2.096 -0.9464  0.3696  0.3846
 2735SOL    HW219839   1.928   2.358   2.077  0.3937  0.1487 -1.5466
 2736SOL     OW19840   4.436   4.203  13.711 -0.4683  0.1206  0.1950
 2736SOL    HW119841   4.357   4.252  13.735  0.3617  2.3200 -1.5666
 2736SOL    HW219842   4.403   4.151  13.638 -0.8628 -1.3523  1.4127
 2737SOL     OW19843   4.085   3.830   4.893 -0.6014 -0.4356 -0.0638
 2737SOL    HW119844   4.079   3.883   4.972  2.4748 -0.1249 -0.0464
 2737SOL    HW219845   4.065   3.896   4.826 -0.1729 -1.3735 -1.1244
 2738SOL     OW19846   3.462   3.802  17.479 -0.6676  0.2474 -0.0551
 2738SOL    HW119847   3.509   3.884  17.497 -0.3887  0.4625 -1.7931
 2738SOL    HW219848   3.371   3.828  17.494 -0.7179  0.2184 -0.3086
 2739SOL     OW19849   1.856   2.521   1.557 -0.3337 -0.1048  0.2519
 2739SOL    HW119850   1.874   2.524   1.651  1.5649  1.8670 -0.1788
 2739SOL    HW219851   1.944   2.542   1.525 -1.2660  1.9863 -0.9396
 2740SOL     OW19852   1.327   0.010   8.435 -0.3651 -0.2681 -0.0124
 2740SOL    HW119853   1.241   4.714   8.459 -0.3130 -1.0529 -0.9397
 2740SOL    HW219854   1.312   0.104   8.423  0.3693 -0.1706 -0.2198
 2741SOL     OW19855   1.642   3.454   3.742 -0.3860 -0.1889 -0.3648
 2741SOL    HW119856   1.621   3.403   3.664  0.3368  0.5312 -1.0202
 2741SOL    HW219857   1.567   3.515   3.741  0.4248  0.8121  0.0672
 2742SOL     OW19858   4.392   1.969   7.354 -0.0858  0.0015  0.4879
 2742SOL    HW119859   4.439   1.941   7.275  1.2384  0.5902  1.0659
 2742SOL    HW219860   4.322   2.030   7.329 -1.8005 -1.7581  0.9424
 2743SOL     OW19861   3.695   0.851   4.345  0.3853  0.0404  0.4611
 2743SOL    HW119862   3.654   0.846   4.432  2.7235  0.9874  1.6271
 2743SOL    HW219863   3.680   0.941   4.316  0.1071 -0.2716 -0.3626
 2744SOL     OW19864   0.108   2.846   3.492  0.2768  0.5948 -0.2084
 2744SOL    HW119865   0.129   2.928   3.535  0.6585 -0.4882  1.6523
 2744SOL    HW219866   0.127   2.878   3.404 -0.7503 -0.2882 -0.7524
 2745SOL     OW19867   3.246   1.895   4.872 -0.2008  0.6380  0.6315
 2745SOL    HW119868   3.276   1.809   4.844 -2.3285 -0.3948  1.5472
 2745SOL    HW219869   3.154   1.879   4.850 -0.0046 -2.2474  1.9319
 2746SOL     OW19870   0.155   3.448  13.928  0.3402 -0.0799  0.1374
 2746SOL    HW119871   0.094   3.441  13.854  0.6644  0.6679 -0.2037
 2746SOL    HW219872   0.209   3.515  13.887  0.9842 -0.3664  0.5216
 2747SOL     OW19873   3.356   1.891   1.451  0.5098 -0.0022  1.0272
 2747SOL    HW119874   3.342   1.854   1.363 -2.1441  1.2796  0.9186
 2747SOL    HW219875   3.328   1.814   1.500 -1.8377 -0.7054 -1.4254
 2748SOL     OW19876   1.614   0.343   9.496 -0.2582  0.1604 -0.1469
 2748SOL    HW119877   1.691   0.347   9.553  0.0282  3.2776 -0.7242
 2748SOL    HW219878   1.555   0.389   9.556 -1.2730 -2.7805  1.1202
 2749SOL     OW19879   2.355   4.456   3.874  0.4510 -0.3954  0.2752
 2749SOL    HW119880   2.312   4.508   3.806 -0.9740 -0.8453  0.8487
 2749SOL    HW219881   2.387   4.385   3.818 -1.2693  0.1833 -1.4344
 2750SOL     OW19882   2.692   1.834   6.936 -0.0036 -0.5968 -0.0850
 2750SOL    HW119883   2.740   1.760   6.900  0.9081  0.5679 -1.2220
 2750SOL    HW219884   2.599   1.809   6.931  0.2006 -1.2847 -0.5073
 2751SOL     OW19885   2.658   4.368   1.186 -0.3838  0.1845 -0.0578
 2751SOL    HW119886   2.743   4.334   1.159 -0.9503  0.6028 -2.3480
 2751SOL    HW219887   2.630   4.307   1.255  1.1801 -0.4472  0.0006
 2752SOL     OW19888   3.459   0.529  10.236  0.5437 -0.3632 -0.6379
 2752SOL    HW119889   3.440   0.485  10.319 -0.2119 -0.5924 -0.9254
 2752SOL    HW219890   3.408   0.610  10.243  0.5971 -0.2869 -1.1134
 2753SOL     OW19891   0.105   1.094   9.806 -0.3343  0.1247 -0.0356
 2753SOL    HW119892   0.049   1.155   9.853 -0.9151 -0.8850  0.5721
 2753SOL    HW219893   0.060   1.014   9.830  2.5374 -0.8207  2.2916
 2754SOL     OW19894   0.640   3.598  13.175 -0.0941  0.3940  0.0194
 2754SOL    HW119895   0.581   3.522  13.181 -0.3991  0.4426 -2.1426
 2754SOL    HW219896   0.586   3.676  13.168 -1.4271 -0.5576 -0.4684
 2755SOL     OW19897   0.677   4.282   4.540 -0.2253  0.3227 -0.2263
 2755SOL    HW119898   0.623   4.327   4.476  0.8607  0.0375 -1.3541
 2755SOL    HW219899   0.617   4.222   4.583 -0.8829 -1.0747 -3.1094
 2756SOL     OW19900   2.849   3.720   4.730 -0.1781 -0.1442  0.5232
 2756SOL    HW119901   2.880   3.632   4.753  1.8884  0.3255 -0.5790
 2756SOL    HW219902   2.815   3.737   4.818  1.6184 -1.7789  1.5352
 2757SOL     OW19903   1.911   1.144   0.905  0.3179  1.0423 -0.4902
 2757SOL    HW119904   1.886   1.211   0.841 -0.6661 -1.3020 -2.5410
 2757SOL    HW219905   1.994   1.117   0.865  0.8559  2.3295 -0.2682
 2758SOL     OW19906   1.449   2.034  16.982  0.2350  0.2146  0.3795
 2758SOL    HW119907   1.535   2.014  16.944 -0.2906 -1.7388  0.2126
 2758SOL    HW219908   1.432   2.128  16.970  2.1126  0.5819  0.5271
 2759SOL     OW19909   4.555   3.181   4.343  1.2608 -0.1901 -0.2144
 2759SOL    HW119910   4.530   3.203   4.253 -1.1264  0.1009  0.5331
 2759SOL    HW219911   4.597   3.264   4.365 -1.5304  0.9547  0.7753
 2760SOL     OW19912   0.910   0.770  12.070 -0.1100  0.3445  0.1853
 2760SOL    HW119913   0.925   0.854  12.028  0.8669 -0.7129 -1.5835
 2760SOL    HW219914   1.000   0.737  12.075  0.4060  1.2646 -2.7790
 2761SOL     OW19915   2.594   4.199   4.255  0.0040  0.3946  0.0842
 2761SOL    HW119916   2.653   4.123   4.262  0.2413  0.7284  1.6348
 2761SOL    HW219917   2.519   4.164   4.302  0.5080  1.0387  1.3751
 2762SOL     OW19918   1.891   1.772   7.936  0.1482  0.4854 -0.2523
 2762SOL    HW119919   1.880   1.850   7.880 -1.4414  0.9039  0.6473
 2762SOL    HW219920   1.904   1.703   7.871  0.3914  1.2982 -1.0832
 2763SOL     OW19921   2.475   0.242   0.499  0.8219 -0.3303  0.4794
 2763SOL    HW119922   2.561   0.277   0.476  0.1457  0.6150 -0.6339
 2763SOL    HW219923   2.496   0.157   0.538 -0.0943 -1.0686 -0.6324
 2764SOL     OW19924   1.080   0.979   4.555 -0.0293  0.2495 -0.3811
 2764SOL    HW119925   1.048   1.067   4.575 -0.2796 -0.4551  2.3767
 2764SOL    HW219926   1.031   0.964   4.474 -0.9789  3.8335 -0.4546
 2765SOL     OW19927   1.118   4.071  13.368  0.2619  0.4120  0.0712
 2765SOL    HW119928   1.158   3.987  13.388  0.7932  1.0406  1.6492
 2765SOL    HW219929   1.147   4.123  13.443 -1.9964  0.9737  0.5478
 2766SOL     OW19930   1.053   1.312   5.511  0.0023 -0.0086  0.0684
 2766SOL    HW119931   0.993   1.303   5.438  0.2794  2.1747 -0.4215
 2766SOL    HW219932   1.088   1.398   5.489  1.6108 -0.1793  1.9099
 2767SOL     OW19933   1.180   2.326  17.080 -0.1165 -0.7150  0.1798
 2767SOL    HW119934   1.136   2.310  17.163 -1.0579  0.7548 -0.0305
 2767SOL    HW219935   1.137   2.253  17.036  1.9488 -0.7461 -1.7802
 2768SOL     OW19936   3.725   0.498   7.913 -0.2193 -0.0491  0.5208
 2768SOL    HW119937   3.740   0.425   7.853  0.9262  0.1376  0.5699
 2768SOL    HW219938   3.810   0.541   7.924  0.6069 -1.6463  0.3385
 2769SOL     OW19939   3.454   2.433  10.251 -0.3662 -0.5257 -0.5704
 2769SOL    HW119940   3.498   2.451  10.168 -0.3283  2.1085  0.0326
 2769SOL    HW219941   3.390   2.376  10.209 -1.9148  0.4349  0.4579
 2770SOL     OW19942   0.998   4.141   2.437 -0.2741 -0.2962  0.0774
 2770SOL    HW119943   0.951   4.220   2.462  0.1273  0.5300 -1.7470
 2770SOL    HW219944   1.052   4.127   2.514 -1.5402 -2.2616  0.6151
 2771SOL     OW19945   0.972   1.876  15.172  0.3280 -0.3010  0.8526
 2771SOL    HW119946   1.062   1.908  15.180  0.8013 -0.9171 -1.9887
 2771SOL    HW219947   0.977   1.858  15.078 -2.1947 -0.9494  0.8361
 2772SOL     OW19948   2.653   3.784   7.800  0.1824 -0.1315  0.1707
 2772SOL    HW119949   2.624   3.827   7.720  0.4678 -1.7321 -0.8034
 2772SOL    HW219950   2.746   3.806   7.803  0.3754 -1.4463  3.9907
 2773SOL     OW19951   3.324   3.117  13.136  0.5207 -0.1859  0.5818
 2773SOL    HW119952   3.398   3.060  13.118  1.9758  2.1208 -0.7076
 2773SOL    HW219953   3.366   3.178  13.196 -0.8512  1.6883 -0.3761
 2774SOL     OW19954   0.046   2.011   8.070  0.1289  0.7381 -0.1680
 2774SOL    HW119955   0.080   1.985   7.984  0.4427 -0.5805  0.3571
 2774SOL    HW219956   4.691   2.030   8.053 -0.4782 -2.3041 -0.2607
 2775SOL     OW19957   2.348   0.150   8.078  0.1617  0.2809  0.3708
 2775SOL    HW119958   2.366   0.076   8.135  3.3356  0.1162 -0.8609
 2775SOL    HW219959   2.259   0.138   8.044 -0.6050  2.1152  1.7048
 2776SOL     OW19960   4.651   2.636   2.267  0.0301 -0.5605  0.2306
 2776SOL    HW119961   0.001   2.598   2.251  1.6262  3.0462  0.3996
 2776SOL    HW219962   4.662   2.719   2.221 -2.0345  0.0219  0.7706
 2777SOL     OW19963   1.602   0.839   9.705 -0.1515 -0.1017  0.1003
 2777SOL    HW119964   1.559   0.902   9.648  1.8886  1.4385  0.2735
 2777SOL    HW219965   1.632   0.779   9.637 -1.8416 -1.1359  0.2496
 2778SOL     OW19966   1.861   0.333   9.626  0.2209  0.1830 -0.3028
 2778SOL    HW119967   1.894   0.408   9.676  1.3257 -0.4528 -0.0844
 2778SOL    HW219968   1.932   0.269   9.630 -0.1076 -0.2524 -1.6211
 2779SOL     OW19969   2.485   1.249   4.685 -0.2509 -0.4038 -0.0039
 2779SOL    HW119970   2.534   1.330   4.700  1.4991 -1.0843 -2.1341
 2779SOL    HW219971   2.555   1.183   4.690  2.1338  2.3479  2.3666
 2780SOL     OW19972   3.561   0.632   4.743  0.3086  0.8219  0.1119
 2780SOL    HW119973   3.523   0.674   4.820 -0.2901  1.6892 -0.6580
 2780SOL    HW219974   3.515   0.548   4.742 -0.8836  1.4656  1.2285
 2781SOL     OW19975   4.681   1.464   3.904 -0.3682  0.1238  0.4988
 2781SOL    HW119976   4.701   1.416   3.985 -3.4412 -2.1427 -0.0751
 2781SOL    HW219977   4.673   1.550   3.946  0.6263  0.8159 -0.7237
 2782SOL     OW19978   0.999   0.343   1.903  0.3230 -0.0380  0.1225
 2782SOL    HW119979   1.026   0.281   1.971  0.8307  0.3063  0.2410
 2782SOL    HW219980   0.906   0.347   1.924  0.5138 -1.7015  1.2607
 2783SOL     OW19981   2.855   0.644   6.502  0.0527 -0.4170  0.4600
 2783SOL    HW119982   2.876   0.644   6.409 -3.7659  1.1664 -0.3921
 2783SOL    HW219983   2.763   0.670   6.499  0.5898  1.4804  0.7668
 2784SOL     OW19984   1.964   0.896  14.226  0.4527  0.2174 -0.0987
 2784SOL    HW119985   2.035   0.872  14.167 -0.6235 -0.4646 -1.1211
 2784SOL    HW219986   1.940   0.814  14.269  0.3645  0.8395  1.0308
 2785SOL     OW19987   0.296   1.294   3.876 -0.1513  0.4659  0.4255
 2785SOL    HW119988   0.281   1.284   3.782 -0.7081  0.4363  0.5174
 2785SOL    HW219989   0.389   1.315   3.877 -0.0951  0.1550  3.1639
 2786SOL     OW19990   2.240   1.715  11.238 -0.1590  0.0143  0.2946
 2786SOL    HW119991   2.205   1.804  11.239  1.2718  0.5962 -0.8848
 2786SOL    HW219992   2.306   1.726  11.307  2.3533 -2.1910 -1.7316
 2787SOL     OW19993   0.482   4.445   9.116  0.1961  0.3362  0.2310
 2787SOL    HW119994   0.541   4.486   9.052 -0.8346 -1.5445 -1.9457
 2787SOL    HW219995   0.472   4.525   9.167  1.5613  0.9113 -0.4088
 2788SOL     OW19996   4.562   1.298   5.991  0.5950  0.2452  0.2491
 2788SOL    HW119997   4.639   1.255   6.028  0.1942  0.1621  0.9793
 2788SOL    HW219998   4.561   1.386   6.028  1.3147  0.2830  0.1880
 2789SOL     OW19999   4.670   2.047   6.517 -0.1677  0.1676 -0.5273
 2789SOL    HW120000   4.727   1.971   6.525  2.0261  1.7002 -1.9556
 2789SOL    HW220001   4.600   2.024   6.579  1.6493 -1.2331  1.0202
 2790SOL     OW20002   3.581   1.620  12.916 -0.1736 -0.2386 -0.0585
 2790SOL    HW120003   3.509   1.650  12.862 -1.2058 -0.0479  1.4330
 2790SOL    HW220004   3.638   1.697  12.913  0.5066 -0.6709  1.3169
 2791SOL     OW20005   1.155   1.814   6.264  0.1833 -0.2445  0.2676
 2791SOL    HW120006   1.178   1.856   6.181  0.2907 -2.5557 -0.8574
 2791SOL    HW220007   1.061   1.832   6.270  0.4120  1.7674 -2.1555
 2792SOL     OW20008   0.255   3.503   7.901  0.2280  0.1637  0.6322
 2792SOL    HW120009   0.255   3.512   7.806 -0.6122  1.8568  0.7954
 2792SOL    HW220010   0.213   3.585   7.928 -2.2279 -0.8585 -0.0941
 2793SOL     OW20011   1.300   2.075   7.475 -0.4253  0.0857  0.3406
 2793SOL    HW120012   1.367   2.081   7.544 -1.4146  1.0768  1.2187
 2793SOL    HW220013   1.253   2.001   7.513  1.5024 -1.7556 -0.8982
 2794SOL     OW20014   0.361   2.946   7.991  0.3332 -0.4594 -0.0861
 2794SOL    HW120015   0.380   2.962   8.084  0.0334  2.9565 -0.6025
 2794SOL    HW220016   0.433   2.984   7.940  1.7073 -3.7875 -0.5791
 2795SOL     OW20017   3.769   4.594   0.959 -0.0235  0.1442  0.2096
 2795SOL    HW120018   3.683   4.561   0.935  0.4656 -0.3839 -0.8044
 2795SOL    HW220019   3.771   4.535   1.034 -0.1726  0.0981  0.1769
 2796SOL     OW20020   3.572   2.940   7.151 -0.1428 -0.3000 -0.6980
 2796SOL    HW120021   3.585   2.898   7.066 -1.1512 -0.4709 -0.7681
 2796SOL    HW220022   3.543   3.029   7.130 -1.5475  0.0939  2.8097
 2797SOL     OW20023   3.551   2.495   7.317 -0.4237  0.1212 -0.5768
 2797SOL    HW120024   3.567   2.582   7.355  0.3841  0.0178 -0.6797
 2797SOL    HW220025   3.571   2.441   7.394  0.5630  1.0681 -0.1599
 2798SOL     OW20026   1.914   4.292   6.222  1.1465 -0.0682  0.0377
 2798SOL    HW120027   1.942   4.383   6.233  1.3384 -0.2146  0.7557
 2798SOL    HW220028   1.967   4.259   6.150  1.0195 -1.1793  0.4663
 2799SOL     OW20029   1.106   0.804   9.624  0.4518 -0.1740 -0.4244
 2799SOL    HW120030   1.123   0.808   9.530 -1.2339 -1.1200 -0.7783
 2799SOL    HW220031   1.098   0.896   9.647 -0.0640 -0.6171  1.1878
 2800SOL     OW20032   0.794   2.213   6.851 -0.1715  0.2790  0.0395
 2800SOL    HW120033   0.711   2.242   6.813 -0.0575  0.2336 -0.2390
 2800SOL    HW220034   0.856   2.284   6.835 -2.0917  1.9864  0.1555
 2801SOL     OW20035   3.339   3.548   3.468 -0.1729  0.1823 -0.1020
 2801SOL    HW120036   3.352   3.627   3.416  0.4671 -0.1789 -0.4868
 2801SOL    HW220037   3.245   3.560   3.480 -0.0303  1.2510 -0.1180
 2802SOL     OW20038   4.328   4.689   2.328  0.5284 -0.5505  0.8900
 2802SOL    HW120039   4.244   4.723   2.360  1.0302 -0.2730  1.8987
 2802SOL    HW220040   4.394   4.714   2.393  1.4666 -0.5892 -0.0331
 2803SOL     OW20041   2.543   0.374   7.330  0.2879  0.2232  0.2712
 2803SOL    HW120042   2.510   0.322   7.403  2.6475 -0.0081  1.1845
 2803SOL    HW220043   2.554   0.458   7.374 -3.6024  1.5790 -1.3138
 2804SOL     OW20044   0.059   4.728   7.481  0.5003 -0.0119 -0.4369
 2804SOL    HW120045   0.028   4.690   7.563 -1.6393 -0.5206 -1.4859
 2804SOL    HW220046   4.715   0.033   7.453  1.3342  1.4370 -0.6913
 2805SOL     OW20047   2.565   4.535   7.742  0.1910 -0.3593  0.6206
 2805SOL    HW120048   2.581   4.626   7.716  1.2251 -0.6208  0.3616
 2805SOL    HW220049   2.613   4.491   7.672  0.1538 -0.7448  0.8361
 2806SOL     OW20050   1.707   3.818   8.241  0.5283 -0.4011  0.1162
 2806SOL    HW120051   1.736   3.852   8.156  1.6017 -1.5374  0.0413
 2806SOL    HW220052   1.622   3.778   8.222  0.8100 -0.8533 -0.1826
 2807SOL     OW20053   1.871   3.316   3.384 -0.6768  0.1627 -0.4151
 2807SOL    HW120054   1.890   3.391   3.440  0.3090  0.3399 -1.0003
 2807SOL    HW220055   1.952   3.305   3.336  0.0566  3.0873  0.1490
 2808SOL     OW20056   1.521   0.451   4.639 -0.0130 -0.1739 -0.6233
 2808SOL    HW120057   1.466   0.510   4.689  0.8927 -1.5868  2.0160
 2808SOL    HW220058   1.448   0.396   4.611  0.4913  0.2348 -2.7583
 2809SOL     OW20059   3.120   2.912   5.305  0.3599  0.2220 -0.4366
 2809SOL    HW120060   3.097   2.858   5.381 -2.3923 -0.3203 -1.6550
 2809SOL    HW220061   3.110   3.000   5.340  0.3951  0.1737 -0.3031
 2810SOL     OW20062   2.957   0.867   8.223  0.0151 -0.0516 -0.1581
 2810SOL    HW120063   2.888   0.914   8.176  0.3777  1.0449  0.3826
 2810SOL    HW220064   2.920   0.805   8.285 -3.0452  1.1629 -0.7932
 2811SOL     OW20065   0.149   0.252   6.676  0.8174  0.0840 -0.1450
 2811SOL    HW120066   0.078   0.188   6.667  0.8958 -0.5311  3.7235
 2811SOL    HW220067   0.111   0.332   6.712 -0.0140 -1.0757  1.6060
 2812SOL     OW20068   4.496   2.457   3.380 -0.0564 -0.6969  0.1981
 2812SOL    HW120069   4.585   2.424   3.366  0.2352  0.3485 -0.3768
 2812SOL    HW220070   4.487   2.447   3.475 -2.7995 -1.1482 -0.1133
 2813SOL     OW20071   0.145   0.565   1.892  0.0592 -0.4465 -0.0021
 2813SOL    HW120072   0.080   0.530   1.832 -1.5128  2.3216  0.1129
 2813SOL    HW220073   0.083   0.611   1.948  0.0376 -0.1032 -0.3104
 2814SOL     OW20074   0.834   1.696   5.761 -0.4464  0.2637 -0.4054
 2814SOL    HW120075   0.907   1.636   5.778 -0.8710 -0.2578 -0.4321
 2814SOL    HW220076   0.779   1.641   5.705 -0.6611 -0.1931  0.2579
 2815SOL     OW20077   4.366   0.499   4.342  0.2856  0.4596  0.2756
 2815SOL    HW120078   4.379   0.594   4.332 -2.0966  0.8985  1.3847
 2815SOL    HW220079   4.274   0.482   4.323  1.0892 -3.1907 -0.3494
 2816SOL     OW20080   0.227   0.816  11.771 -0.1173  0.3342  0.5632
 2816SOL    HW120081   0.198   0.729  11.797  2.4408 -0.8088 -0.3678
 2816SOL    HW220082   0.317   0.824  11.804  0.1354  0.3356 -0.1153
 2817SOL     OW20083   0.462   0.549   9.769  0.3766  0.2648  0.0513
 2817SOL    HW120084   0.483   0.456   9.773 -0.4032  0.0478 -0.8342
 2817SOL    HW220085   0.453   0.571   9.677  2.4566 -0.0267 -0.2042
 2818SOL     OW20086   0.696   1.567   8.890  0.3154 -0.2636 -0.2247
 2818SOL    HW120087   0.702   1.485   8.939  3.4391  0.7727  1.1487
 2818SOL    HW220088   0.604   1.593   8.886 -0.0412 -1.8372 -2.2132
 2819SOL     OW20089   3.940   4.541   1.202  0.5236  0.5986 -0.3955
 2819SOL    HW120090   3.860   4.488   1.208  2.1044 -1.5717  1.9401
 2819SOL    HW220091   3.910   4.620   1.248 -2.1430  0.5525 -2.0682
 2820SOL     OW20092   0.168   2.146   9.545 -0.4970  0.0125 -0.4406
 2820SOL    HW120093   0.165   2.055   9.571 -3.0756  0.3559  0.4430
 2820SOL    HW220094   0.087   2.161   9.497 -0.0203 -0.3575 -1.3641
 2821SOL     OW20095   2.716   2.061  10.974 -0.1116  0.0140 -0.1777
 2821SOL    HW120096   2.727   2.052  10.880  1.7021 -0.0063  0.0209
 2821SOL    HW220097   2.748   2.150  10.990  1.4007 -0.9285  2.1432
 2822SOL     OW20098   3.182   3.007   4.094 -0.1519  0.0494 -0.3860
 2822SOL    HW120099   3.128   3.017   4.015 -1.7124  1.4459  0.8783
 2822SOL    HW220100   3.257   2.955   4.065 -0.7204 -0.7008 -0.5201
 2823SOL     OW20101   3.198   1.326   2.619  0.2619 -0.3652  0.5580
 2823SOL    HW120102   3.231   1.304   2.707  1.5705  3.5850  1.0268
 2823SOL    HW220103   3.214   1.420   2.615  1.0695 -0.6249 -2.0770
 2824SOL     OW20104   4.484   4.599   8.423 -0.4158 -0.4181  0.3296
 2824SOL    HW120105   4.432   4.538   8.475 -1.4769 -0.7174 -1.0796
 2824SOL    HW220106   4.551   4.608   8.491  1.6441 -0.1046 -1.7443
 2825SOL     OW20107   1.858   1.521   7.185  0.0672 -0.2133 -0.4989
 2825SOL    HW120108   1.890   1.502   7.273 -0.8228  2.5128  0.4266
 2825SOL    HW220109   1.774   1.563   7.205 -0.5144 -0.1244 -3.1011
 2826SOL     OW20110   1.299   4.135   6.310 -0.0908 -0.5777  0.4842
 2826SOL    HW120111   1.270   4.049   6.280 -0.5335 -0.0254 -0.6545
 2826SOL    HW220112   1.311   4.173   6.223  1.8234 -0.9236  0.5945
 2827SOL     OW20113   3.598   0.781   8.547 -0.4209  0.4433  0.6620
 2827SOL    HW120114   3.520   0.767   8.493 -0.1276 -2.1524  0.9367
 2827SOL    HW220115   3.667   0.805   8.485  0.3676  0.1821  1.4442
 2828SOL     OW20116   3.309   1.767   5.733 -0.7064  0.3579  0.0832
 2828SOL    HW120117   3.280   1.686   5.689 -0.5735 -0.7099  1.9616
 2828SOL    HW220118   3.286   1.755   5.825  2.5856  0.0378  0.8706
 2829SOL     OW20119   0.229   3.510   0.741  0.0474  0.3591  0.1343
 2829SOL    HW120120   0.294   3.457   0.696  0.1773 -0.0669  0.8350
 2829SOL    HW220121   0.290   3.554   0.800 -1.2219  0.1812  1.5816
 2830SOL     OW20122   0.626   4.289   3.522 -0.5511  0.3114  0.1867
 2830SOL    HW120123   0.705   4.332   3.553  1.4807 -1.6595 -2.3293
 2830SOL    HW220124   0.652   4.198   3.508 -1.0852  0.1885 -0.0371
 2831SOL     OW20125   2.534   3.416  11.641 -0.8094  0.2776 -0.0928
 2831SOL    HW120126   2.439   3.419  11.654 -0.5474  0.8927  1.6817
 2831SOL    HW220127   2.559   3.366  11.719 -0.1600  1.1885  0.2702
 2832SOL     OW20128   2.845   0.506   0.028 -0.0797 -0.1998 -0.9719
 2832SOL    HW120129   2.852   0.425   0.078 -1.6174 -0.1660 -0.7159
 2832SOL    HW220130   2.776   0.480  17.714 -1.7903  0.3139  0.7538
 2833SOL     OW20131   3.986   1.775   1.618  0.0940 -0.3503 -0.0405
 2833SOL    HW120132   3.984   1.867   1.643  2.2022  0.0702 -1.4589
 2833SOL    HW220133   3.981   1.781   1.523 -0.1930  1.9370  0.1280
 2834SOL     OW20134   0.681   2.307   7.515 -0.1517 -0.3868  0.5459
 2834SOL    HW120135   0.647   2.395   7.499 -1.2098 -0.8376  0.3367
 2834SOL    HW220136   0.613   2.271   7.572  0.3617 -1.7719  0.2993
 2835SOL     OW20137   1.571   3.797   7.567 -0.2054  0.2636  0.0268
 2835SOL    HW120138   1.482   3.807   7.602  0.5510 -0.8034  2.2241
 2835SOL    HW220139   1.594   3.890   7.576 -1.3450  0.4807  0.8039
 2836SOL     OW20140   1.958   0.755  13.897  0.7357 -0.2854  0.2504
 2836SOL    HW120141   1.892   0.817  13.866 -1.4326 -2.8701 -0.2316
 2836SOL    HW220142   2.025   0.821  13.919  2.1539 -1.3911 -0.7481
 2837SOL     OW20143   1.724   1.200   8.028  0.0317  0.5544  0.4975
 2837SOL    HW120144   1.770   1.212   7.945 -1.5851 -0.9822 -0.6300
 2837SOL    HW220145   1.678   1.283   8.041 -1.3912 -0.0211 -0.7712
 2838SOL     OW20146   4.236   4.367   5.844 -0.1385  0.0447  0.2291
 2838SOL    HW120147   4.144   4.339   5.846  0.4377 -1.8698  0.3518
 2838SOL    HW220148   4.278   4.286   5.874 -2.5745 -1.1035  0.5358
 2839SOL     OW20149   3.543   1.517  17.004  0.4135  0.5368 -0.1146
 2839SOL    HW120150   3.509   1.597  16.965  1.0094  0.0271 -1.7084
 2839SOL    HW220151   3.596   1.549  17.076 -0.1581  0.6031  0.2713
 2840SOL     OW20152   0.907   2.429   5.818 -0.1868 -0.2312  0.4499
 2840SOL    HW120153   0.841   2.497   5.802 -1.2591 -1.5243 -0.7000
 2840SOL    HW220154   0.896   2.432   5.913  2.6683  0.6330  0.7539
 2841SOL     OW20155   0.332   4.218   6.813  0.3878  0.0379 -0.2772
 2841SOL    HW120156   0.274   4.294   6.816  0.3330  0.0758 -2.1928
 2841SOL    HW220157   0.286   4.171   6.882  3.3693  1.0699  2.3750
 2842SOL     OW20158   2.671   1.024   8.773 -0.7273  0.1379 -0.6808
 2842SOL    HW120159   2.685   1.082   8.698 -0.7785 -2.6791 -2.8428
 2842SOL    HW220160   2.756   1.029   8.819 -0.6987 -3.3782 -0.3120
 2843SOL     OW20161   0.231   2.013   0.445  0.6533 -0.2274 -0.7848
 2843SOL    HW120162   0.281   2.052   0.373  1.6552  0.2436  0.1576
 2843SOL    HW220163   0.254   2.065   0.522 -0.9265  1.7532 -1.6500
 2844SOL     OW20164   3.401   4.529   5.714  0.2118 -0.4278 -0.1423
 2844SOL    HW120165   3.326   4.579   5.684 -0.1224 -2.7022 -3.1062
 2844SOL    HW220166   3.396   4.547   5.808  1.0301 -2.0693  0.2188
 2845SOL     OW20167   1.645   2.054   2.554 -0.5921 -0.4243 -0.0008
 2845SOL    HW120168   1.575   2.054   2.620 -1.1940 -0.2920 -0.6414
 2845SOL    HW220169   1.697   2.118   2.603 -0.5404 -0.4275 -0.0517
 2846SOL     OW20170   1.886   2.239   5.740 -0.1016 -0.0134 -0.4774
 2846SOL    HW120171   1.965   2.242   5.686 -0.6958  2.1914 -1.2369
 2846SOL    HW220172   1.887   2.145   5.758  1.8268  0.3399  1.3123
 2847SOL     OW20173   3.597   0.884  11.517 -0.2879 -0.0745 -0.6143
 2847SOL    HW120174   3.570   0.949  11.582  4.5294  1.8965 -0.5815
 2847SOL    HW220175   3.514   0.840  11.500  0.0038 -0.7137 -0.3795
 2848SOL     OW20176   1.757   3.007   6.160  0.6648  0.7954 -0.0499
 2848SOL    HW120177   1.735   3.088   6.115  1.4122  1.7347  1.2916
 2848SOL    HW220178   1.672   2.965   6.144  0.0738  1.7010  0.7769
 2849SOL     OW20179   0.631   0.454   9.298 -0.6002  0.2162  0.1994
 2849SOL    HW120180   0.567   0.522   9.278  0.4869  1.4988  1.0149
 2849SOL    HW220181   0.646   0.477   9.390 -1.5105  0.3784  0.3023
 2850SOL     OW20182   0.047   1.494   5.120 -0.0640  0.0576  0.0940
 2850SOL    HW120183   0.116   1.560   5.114 -0.8199  0.5911 -2.6733
 2850SOL    HW220184   0.036   1.474   5.027  0.8009 -0.4992  0.1216
 2851SOL     OW20185   0.056   4.498   6.194  0.3447  0.8997 -0.0309
 2851SOL    HW120186   0.038   4.591   6.205  1.5701  1.0175  0.9520
 2851SOL    HW220187   0.145   4.511   6.162  0.2723 -4.3675 -2.3237
 2852SOL     OW20188   0.715   2.189   4.911  0.0286  0.3117  0.1744
 2852SOL    HW120189   0.711   2.158   5.001  0.3575  1.3163  0.5390
 2852SOL    HW220190   0.622   2.201   4.888 -0.4120 -0.4960  1.5950
 2853SOL     OW20191   3.957   0.891   8.918  0.3934 -0.1716 -0.8183
 2853SOL    HW120192   3.938   0.953   8.847 -2.5432  0.6333  0.6519
 2853SOL    HW220193   3.901   0.935   8.983  0.1958 -1.6916  0.0228
 2854SOL     OW20194   2.413   4.400   1.376 -0.2960 -0.2450 -0.1453
 2854SOL    HW120195   2.407   4.409   1.472 -1.0854 -1.8082 -0.0609
 2854SOL    HW220196   2.475   4.329   1.360  0.5792  0.2175  1.1468
 2855SOL     OW20197   3.301   1.831   2.051  0.2378  0.1498  0.1977
 2855SOL    HW120198   3.258   1.783   1.980  1.4497 -2.0213  0.9580
 2855SOL    HW220199   3.348   1.894   1.996 -0.2678  0.4104  0.0626
 2856SOL     OW20200   3.557   0.745   9.117  0.2293 -0.5365 -0.5445
 2856SOL    HW120201   3.631   0.686   9.108  1.0687  0.2276  1.4071
 2856SOL    HW220202   3.587   0.809   9.052 -0.0523 -0.7380 -0.8772
 2857SOL     OW20203   0.054   0.626  16.197  0.2309  0.2925 -0.2100
 2857SOL    HW120204   4.696   0.633  16.208  0.1217  1.4866 -1.8220
 2857SOL    HW220205   0.077   0.719  16.201 -1.9118  0.7832  0.9765
 2858SOL     OW20206   1.667   3.867  12.018  0.0390 -0.0003 -0.5058
 2858SOL    HW120207   1.580   3.855  11.980 -0.8416  0.0002  1.5014
 2858SOL    HW220208   1.718   3.880  11.938  1.9742  0.7001  0.8562
 2859SOL     OW20209   1.692   4.019  11.754  0.3986  0.1844 -0.2346
 2859SOL    HW120210   1.757   3.967  11.707  0.5553 -0.1944  0.4027
 2859SOL    HW220211   1.736   4.103  11.746  0.0215  0.4718  0.7308
 2860SOL     OW20212   1.286   3.079   4.842  0.0926 -0.0551  0.4446
 2860SOL    HW120213   1.257   3.067   4.751 -0.9946  0.1769  0.7627
 2860SOL    HW220214   1.381   3.075   4.831  0.0999 -3.1914  1.4415
 2861SOL     OW20215   2.640   4.481   9.401  0.4339 -0.3134 -0.5201
 2861SOL    HW120216   2.640   4.522   9.488  0.3041  1.1552 -1.2195
 2861SOL    HW220217   2.688   4.401   9.422  1.8780  1.3185  2.4234
 2862SOL     OW20218   1.931   3.344   4.438 -0.2372 -0.2202 -0.4358
 2862SOL    HW120219   1.937   3.251   4.418  2.2699 -0.3615  0.9712
 2862SOL    HW220220   2.021   3.371   4.453  0.1132 -0.1440 -2.6226
 2863SOL     OW20221   3.303   0.017   5.244  0.0622 -0.0069 -0.1536
 2863SOL    HW120222   3.299   0.002   5.149 -0.4930 -0.7686 -0.0080
 2863SOL    HW220223   3.245   4.685   5.275 -0.7947  0.0213 -1.6673
 2864SOL     OW20224   4.130   1.469   5.201 -0.2351 -0.1992 -0.4557
 2864SOL    HW120225   4.221   1.439   5.205  0.3180  1.0749 -3.4445
 2864SOL    HW220226   4.140   1.546   5.146  1.5704  0.0452  0.1997
 2865SOL     OW20227   3.685   0.725   1.728 -0.1087  0.3363  0.3929
 2865SOL    HW120228   3.744   0.651   1.711  0.0276  0.7734 -1.0600
 2865SOL    HW220229   3.728   0.780   1.793  0.3046  0.3477  0.1140
 2866SOL     OW20230   3.539   1.569  11.999 -0.7096 -0.5389 -0.6538
 2866SOL    HW120231   3.612   1.622  12.031 -1.6107 -0.6538  1.5453
 2866SOL    HW220232   3.559   1.489  12.048  1.8552 -0.0780 -0.9076
 2867SOL     OW20233   1.990   1.844   5.093 -0.3371  1.1649 -0.0010
 2867SOL    HW120234   1.985   1.860   4.999 -1.2755  0.9799  0.0170
 2867SOL    HW220235   2.028   1.756   5.097  1.5744  1.9793  0.0254
 2868SOL     OW20236   2.238   0.915   2.632 -0.1754  0.0742  0.3005
 2868SOL    HW120237   2.223   0.992   2.578 -1.3020 -0.5349 -0.2694
 2868SOL    HW220238   2.287   0.952   2.704 -2.0787  0.6596  1.2880
 2869SOL     OW20239   3.331   4.601   6.895 -0.0907 -0.2336 -0.3534
 2869SOL    HW120240   3.345   4.674   6.955 -0.4960 -0.8823  0.5226
 2869SOL    HW220241   3.243   4.569   6.911  0.7325 -1.2230  2.0860
 2870SOL     OW20242   4.482   1.241  16.417 -0.3925  0.7331 -0.6767
 2870SOL    HW120243   4.482   1.336  16.425  0.3039  0.5397  1.6656
 2870SOL    HW220244   4.559   1.227  16.362  0.1273 -0.2894  0.3056
 2871SOL     OW20245   0.912   3.667  17.025 -0.3154 -0.1573 -0.1983
 2871SOL    HW120246   0.942   3.580  16.998 -0.3930  0.1737 -1.3498
 2871SOL    HW220247   0.900   3.651  17.118  0.8525  1.1689  0.1729
 2872SOL     OW20248   2.470   1.409  15.502  0.8690  0.0659  0.0491
 2872SOL    HW120249   2.540   1.407  15.568 -1.7090 -3.0141  2.6545
 2872SOL    HW220250   2.449   1.316  15.495  1.1354 -0.1172  1.6125
 2873SOL     OW20251   4.419   2.032   0.471  0.2978 -0.1906  0.0525
 2873SOL    HW120252   4.354   2.024   0.401 -1.7868 -0.0840  1.9706
 2873SOL    HW220253   4.452   2.121   0.461  1.0096 -0.2681  1.7392
 2874SOL     OW20254   1.854   3.565  17.042 -0.4645  0.0009  0.0255
 2874SOL    HW120255   1.869   3.613  16.960  4.0842 -0.0649  0.8437
 2874SOL    HW220256   1.885   3.637  17.097  1.4010 -0.5247 -0.3315
 2875SOL     OW20257   2.068   2.762   3.127 -0.7436  0.1320  0.2818
 2875SOL    HW120258   2.067   2.788   3.035 -1.6256 -2.3525 -0.4278
 2875SOL    HW220259   2.124   2.684   3.126 -1.4907 -0.4206  1.5167
 2876SOL     OW20260   1.242   1.892   2.102  0.3301  0.0163  0.6311
 2876SOL    HW120261   1.257   1.983   2.076  0.9350 -0.3221 -0.1980
 2876SOL    HW220262   1.284   1.850   2.027  0.7983 -2.8168  2.4666
 2877SOL     OW20263   1.245   1.207   3.552 -0.0744  0.5032  0.1034
 2877SOL    HW120264   1.219   1.257   3.629 -0.7340  0.2817  0.0215
 2877SOL    HW220265   1.175   1.237   3.494 -0.5628 -1.0633 -0.1170
 2878SOL     OW20266   2.913   1.376   5.150  0.2264 -0.1441 -0.8354
 2878SOL    HW120267   2.872   1.435   5.213 -0.1463  1.5419 -2.6597
 2878SOL    HW220268   2.990   1.426   5.124  0.8487 -0.5718  0.2132
 2879SOL     OW20269   2.434   3.095   1.497  0.9831  0.1523  0.0951
 2879SOL    HW120270   2.504   3.160   1.501 -1.3848  2.6042  2.1094
 2879SOL    HW220271   2.433   3.067   1.589  0.7808 -1.2081 -0.3220
 2880SOL     OW20272   2.507   0.629  11.673  0.3162 -0.1012  0.7008
 2880SOL    HW120273   2.436   0.567  11.658  0.5555 -0.8729  2.8163
 2880SOL    HW220274   2.587   0.576  11.679 -1.3312 -2.1852  4.1676
 2881SOL     OW20275   2.547   0.811   5.483  0.0068  0.3464  0.2972
 2881SOL    HW120276   2.545   0.716   5.497 -1.7198  0.2825 -0.2994
 2881SOL    HW220277   2.642   0.815   5.471  0.2285 -0.1560  1.8974
 2882SOL     OW20278   2.307   2.866   4.073 -0.1574 -0.0020 -0.2681
 2882SOL    HW120279   2.234   2.920   4.104  1.2065  0.9367  1.3571
 2882SOL    HW220280   2.371   2.936   4.057 -1.8681  2.0260  1.6549
 2883SOL     OW20281   0.132   4.393   2.661  0.0771  0.4713 -0.3414
 2883SOL    HW120282   0.103   4.305   2.687 -0.6503  0.8182  0.0216
 2883SOL    HW220283   0.094   4.399   2.573 -2.2222 -0.7730  0.5629
 2884SOL     OW20284   1.109   2.764   2.202  0.4977  0.0534 -0.5953
 2884SOL    HW120285   1.138   2.834   2.143 -1.5842 -0.0993 -1.7859
 2884SOL    HW220286   1.031   2.804   2.242  0.7093  1.3414 -1.4609
 2885SOL     OW20287   0.029   2.601   4.774  0.6700  0.9484  0.0409
 2885SOL    HW120288   0.015   2.522   4.721  1.1018 -1.3635  3.3185
 2885SOL    HW220289   4.675   2.630   4.780  0.6376  1.1044 -1.2848
 2886SOL     OW20290   4.576   3.864   3.505  0.2992  0.5321 -0.4006
 2886SOL    HW120291   4.667   3.855   3.530  0.6017  2.7173 -0.7288
 2886SOL    HW220292   4.566   3.950   3.546 -2.2107 -0.1866  0.4947
 2887SOL     OW20293   3.212   2.428   7.002 -0.6294 -0.1481 -0.5532
 2887SOL    HW120294   3.240   2.362   6.939  2.1865  0.6840 -0.1591
 2887SOL    HW220295   3.117   2.421   7.008 -0.5302 -1.6220 -0.7616
 2888SOL     OW20296   3.207   2.181  17.730  0.1102 -0.5566  0.1422
 2888SOL    HW120297   3.161   2.186   0.068  1.0588 -0.1094  0.6278
 2888SOL    HW220298   3.172   2.101  17.689 -1.3475  0.3600 -0.4121
 2889SOL     OW20299   0.659   1.374   4.635 -0.3238  0.2671  0.2423
 2889SOL    HW120300   0.724   1.353   4.701 -0.8071 -0.8315  0.3669
 2889SOL    HW220301   0.690   1.333   4.555  1.7770  1.6632  0.3380
 2890SOL     OW20302   1.159   2.940   2.005  0.6319 -0.3988 -0.6137
 2890SOL    HW120303   1.184   3.029   1.981  0.7502 -0.4403 -0.6409
 2890SOL    HW220304   1.109   2.908   1.929 -1.3636  1.0555  0.0745
 2891SOL     OW20305   1.995   3.564   6.355  0.0850 -0.3713 -0.3618
 2891SOL    HW120306   1.969   3.515   6.277 -1.3467 -0.9400  0.4677
 2891SOL    HW220307   2.074   3.610   6.326 -0.1159 -0.5442 -1.2050
 2892SOL     OW20308   1.638   3.385  17.042  0.5749  0.3058  0.5293
 2892SOL    HW120309   1.714   3.440  17.026 -0.1936  2.0084  2.7812
 2892SOL    HW220310   1.667   3.312  17.098 -0.8073  0.9135  2.0423
 2893SOL     OW20311   2.208   0.388   2.747 -0.3039 -0.0332  0.8593
 2893SOL    HW120312   2.148   0.461   2.728 -2.8198 -2.4418 -0.3514
 2893SOL    HW220313   2.260   0.436   2.812 -1.4849  1.5704  0.6351
 2894SOL     OW20314   3.302   2.299   6.783 -0.0263 -0.2005 -0.2886
 2894SOL    HW120315   3.287   2.263   6.696 -1.0568  2.1513 -1.0583
 2894SOL    HW220316   3.368   2.366   6.769 -0.9436  0.9980  1.1254
 2895SOL     OW20317   0.674   3.574   3.382  0.0378  0.1627  0.3276
 2895SOL    HW120318   0.715   3.604   3.463 -1.8469 -0.5634  1.5631
 2895SOL    HW220319   0.663   3.656   3.334 -0.2192 -1.4494 -2.3872
 2896SOL     OW20320   1.473   0.638  15.664  0.1775  0.0736 -0.2412
 2896SOL    HW120321   1.522   0.632  15.746  1.8537 -0.2836 -1.2677
 2896SOL    HW220322   1.537   0.692  15.618  2.0870 -1.0149  1.1454
 2897SOL     OW20323   1.676   4.486   8.822  0.2253  0.0652  0.4336
 2897SOL    HW120324   1.584   4.458   8.822 -0.1359  1.2419  0.4935
 2897SOL    HW220325   1.720   4.417   8.871  0.4675 -0.2486 -0.2266
 2898SOL     OW20326   4.546   3.364   1.622  0.1036 -0.3565 -0.1041
 2898SOL    HW120327   4.617   3.323   1.572 -0.8004 -2.2353  0.1470
 2898SOL    HW220328   4.571   3.336   1.710  2.2886  0.0723 -0.5754
 2899SOL     OW20329   0.976   4.202   8.226 -0.6404  0.5507  0.1151
 2899SOL    HW120330   1.003   4.132   8.286 -0.3041  1.7489  1.3442
 2899SOL    HW220331   1.061   4.236   8.197  0.5125 -2.9302 -0.6774
 2900SOL     OW20332   2.389   2.947   0.405 -0.8742 -0.2332  0.1376
 2900SOL    HW120333   2.474   2.902   0.407 -1.3862 -1.3007 -1.6928
 2900SOL    HW220334   2.368   2.956   0.497 -0.6293 -0.8254  0.2516
 2901SOL     OW20335   2.150   0.682   3.092  0.0738  0.3831 -0.3132
 2901SOL    HW120336   2.072   0.732   3.068  0.7745  1.3263 -0.6048
 2901SOL    HW220337   2.165   0.716   3.180 -0.7321 -0.0974  0.0187
 2902SOL     OW20338   0.510   0.750   6.544  0.0596  0.1787  0.6490
 2902SOL    HW120339   0.493   0.668   6.497 -1.6626  1.6440 -1.3364
 2902SOL    HW220340   0.511   0.710   6.630 -0.4955  0.3559  0.7413
 2903SOL     OW20341   2.181   4.713   5.190 -0.2845  0.1504  0.0653
 2903SOL    HW120342   2.209   4.679   5.106  1.2653 -1.0282  1.0638
 2903SOL    HW220343   2.137   0.055   5.159  0.2087 -0.2771 -1.6909
 2904SOL     OW20344   1.236   4.086   0.271  0.1724 -0.0114  0.3618
 2904SOL    HW120345   1.243   4.012   0.332  0.7311  0.0035  0.3091
 2904SOL    HW220346   1.283   4.146   0.329 -1.6341  0.6707  1.1279
 2905SOL     OW20347   0.542   0.904   4.989  0.3095  0.0231 -0.6701
 2905SOL    HW120348   0.502   0.844   5.051 -0.8934  0.8972 -0.6102
 2905SOL    HW220349   0.587   0.965   5.048  0.7058 -0.5345 -0.4004
 2906SOL     OW20350   3.508   0.497   3.939 -0.5336  0.1584 -0.7990
 2906SOL    HW120351   3.479   0.563   4.003 -0.6342  0.0131 -0.6966
 2906SOL    HW220352   3.495   0.556   3.865 -0.3166  0.3335 -0.6993
 2907SOL     OW20353   2.805   2.317   2.625 -0.1787  0.2154  0.0154
 2907SOL    HW120354   2.804   2.276   2.539  1.5901 -0.8755  0.5040
 2907SOL    HW220355   2.887   2.366   2.618 -0.4839  0.3997 -1.9875
 2908SOL     OW20356   1.402   0.968   6.343 -0.5418  0.4359  0.1271
 2908SOL    HW120357   1.354   1.049   6.362  1.2409  1.1856  1.4293
 2908SOL    HW220358   1.338   0.908   6.382 -0.3472 -1.0375 -1.8609
 2909SOL     OW20359   3.282   4.654   7.940  0.5050  0.1410  0.2494
 2909SOL    HW120360   3.252   0.003   7.910 -1.0242  0.2683  2.1363
 2909SOL    HW220361   3.205   4.609   7.975  1.4665 -1.5734  0.1732
 2910SOL     OW20362   2.591   3.269   8.334 -0.0797 -0.1769  0.1791
 2910SOL    HW120363   2.604   3.188   8.383 -1.8953  0.3205  1.4774
 2910SOL    HW220364   2.575   3.224   8.250  0.4739  1.8870 -1.0371
 2911SOL     OW20365   0.123   1.300   8.493  0.1098  0.4659  0.0730
 2911SOL    HW120366   0.152   1.244   8.565  2.2137  3.4197  1.5197
 2911SOL    HW220367   0.184   1.370   8.518  0.8108 -0.1550  0.0807
 2912SOL     OW20368   2.360   2.848   4.412  0.3146  0.0126  1.1799
 2912SOL    HW120369   2.346   2.942   4.417 -1.3241 -0.0916 -1.1199
 2912SOL    HW220370   2.300   2.821   4.342  1.3621  0.2320  0.1997
 2913SOL     OW20371   3.491   4.255   3.817  0.1548  0.8522 -0.4163
 2913SOL    HW120372   3.542   4.330   3.784 -0.4502  1.8055  0.8170
 2913SOL    HW220373   3.415   4.295   3.860 -0.4640  1.2115 -1.8113
 2914SOL     OW20374   3.893   3.335   5.166  0.1102  0.1774 -1.2718
 2914SOL    HW120375   3.877   3.428   5.183 -0.9029 -0.0516 -0.9402
 2914SOL    HW220376   3.853   3.298   5.245 -0.6315  0.2429 -1.6208
 2915SOL     OW20377   2.576   4.225  12.616 -0.3692 -0.2262  0.4014
 2915SOL    HW120378   2.661   4.253  12.580 -1.2879 -0.0669 -1.6407
 2915SOL    HW220379   2.601   4.187  12.700  2.4572 -0.9455 -0.7494
 2916SOL     OW20380   0.451   1.715   8.644  0.0266 -0.1340 -0.2660
 2916SOL    HW120381   0.420   1.723   8.554  0.5013  0.8421 -0.3398
 2916SOL    HW220382   0.519   1.648   8.637 -2.3153 -2.1796 -3.3426
 2917SOL     OW20383   2.263   0.780   5.053 -0.4350  0.1318  0.5043
 2917SOL    HW120384   2.259   0.857   5.109 -0.9899  0.2208  0.3421
 2917SOL    HW220385   2.286   0.823   4.970 -2.3761  0.0865 -0.0754
 2918SOL     OW20386   3.638   2.782   5.105 -0.1982 -0.2809  0.0783
 2918SOL    HW120387   3.638   2.791   5.200 -1.7967 -0.5937  0.1116
 2918SOL    HW220388   3.590   2.856   5.068  0.9836 -0.0346 -0.9665
 2919SOL     OW20389   2.226   3.010   3.747 -0.1832 -0.0791 -0.2828
 2919SOL    HW120390   2.230   3.088   3.803 -0.3874 -0.4247  0.2184
 2919SOL    HW220391   2.163   3.037   3.681 -0.0806  0.1327 -0.2943
 2920SOL     OW20392   2.530   1.723   8.439 -0.3018 -0.2544 -0.0323
 2920SOL    HW120393   2.485   1.805   8.460 -1.3990 -0.2499 -2.4775
 2920SOL    HW220394   2.513   1.673   8.519  0.3635 -0.0638  0.2338
 2921SOL     OW20395   1.946   2.031  11.701  0.2854 -0.4796  0.6368
 2921SOL    HW120396   1.962   2.120  11.730 -1.0161  0.5404 -1.8347
 2921SOL    HW220397   1.907   2.053  11.616  0.5022  0.1064  0.6948
 2922SOL     OW20398   3.779   0.049   3.815 -0.2230 -0.7652  0.0933
 2922SOL    HW120399   3.832   4.731   3.873 -1.8001 -3.3541 -0.9244
 2922SOL    HW220400   3.716   0.084   3.878  1.9175  1.2906  1.0962
 2923SOL     OW20401   1.089   3.837  12.370  0.2889 -0.3185 -0.3850
 2923SOL    HW120402   1.063   3.757  12.324 -0.5601  0.5553 -1.4520
 2923SOL    HW220403   1.041   3.905  12.321  0.7001 -1.0381 -1.7941
 2924SOL     OW20404   4.040   3.050  17.533  0.0726 -0.2225 -0.4045
 2924SOL    HW120405   3.958   3.004  17.515  0.1490 -0.5196  0.0092
 2924SOL    HW220406   4.022   3.144  17.538 -2.4220 -0.7640  0.8935
 2925SOL     OW20407   3.435   0.300   5.922  0.2395 -0.2417 -0.1771
 2925SOL    HW120408   3.430   0.381   5.973  2.6138 -0.2142  0.0279
 2925SOL    HW220409   3.525   0.304   5.889  0.0981  0.8519 -0.4521
 2926SOL     OW20410   3.756   2.035   2.313  0.7798  0.1669  0.4862
 2926SOL    HW120411   3.811   2.108   2.283 -0.6677  1.7753  1.7388
 2926SOL    HW220412   3.819   1.997   2.374  1.2716  0.6410  0.2766
 2927SOL     OW20413   2.892   0.748   8.660  0.2554  0.0911  0.1622
 2927SOL    HW120414   2.805   0.727   8.628  0.1349 -0.1118  0.6229
 2927SOL    HW220415   2.924   0.665   8.697 -0.6093 -0.9647 -1.4980
 2928SOL     OW20416   4.292   2.781  10.354 -0.1959 -0.4272 -0.0022
 2928SOL    HW120417   4.319   2.719  10.286 -0.0117  0.4471 -0.7276
 2928SOL    HW220418   4.313   2.867  10.317 -1.0850  0.0614  0.6514
 2929SOL     OW20419   4.436   1.185   3.859 -0.0869 -0.3144 -0.1317
 2929SOL    HW120420   4.407   1.256   3.916 -0.8769 -1.0153  0.3456
 2929SOL    HW220421   4.353   1.137   3.853  0.2664 -1.0116  0.4810
 2930SOL     OW20422   2.268   0.944   1.954  0.0582  0.2366 -0.2032
 2930SOL    HW120423   2.307   0.954   2.040 -1.4803 -0.3872  0.5728
 2930SOL    HW220424   2.246   1.037   1.947  2.7809  0.9509  1.0933
 2931SOL     OW20425   1.705   1.941   0.668 -0.5329  0.1675 -0.4321
 2931SOL    HW120426   1.689   1.974   0.756  0.5100 -0.9830  0.2047
 2931SOL    HW220427   1.771   2.000   0.632 -0.3912  0.4522  0.2805
 2932SOL     OW20428   0.852   4.718   3.676  0.3100  0.2032 -0.2221
 2932SOL    HW120429   0.885   0.007   3.761 -0.0091 -3.4587  1.0157
 2932SOL    HW220430   0.765   0.020   3.670  1.1647  2.2410  0.8320
 2933SOL     OW20431   2.088   3.989   3.958 -0.4743  0.0902 -0.3677
 2933SOL    HW120432   2.161   4.023   4.010 -0.3457 -0.1287 -0.4033
 2933SOL    HW220433   2.029   3.961   4.027 -0.7619  0.9558 -0.2654
 2934SOL     OW20434   3.233   3.382   3.906 -0.7220 -0.6822  0.2365
 2934SOL    HW120435   3.205   3.439   3.978 -0.4312 -0.2783  0.0307
 2934SOL    HW220436   3.289   3.320   3.953  0.8434  0.1329 -0.5485
 2935SOL     OW20437   3.643   1.579  12.283 -0.1320  0.1344  0.6422
 2935SOL    HW120438   3.728   1.593  12.325  1.7016 -2.0450 -2.3028
 2935SOL    HW220439   3.623   1.668  12.253 -1.4072  0.8506  3.6397
 2936SOL     OW20440   4.520   4.497   5.896 -0.2692 -0.2803 -0.4871
 2936SOL    HW120441   4.591   4.432   5.894 -0.6035 -0.8092  3.1003
 2936SOL    HW220442   4.444   4.442   5.877 -0.1212 -0.7083  0.1158
 2937SOL     OW20443   0.461   2.326  13.037  0.7147  0.5150  0.1006
 2937SOL    HW120444   0.549   2.360  13.048  1.4645 -1.2035 -0.6531
 2937SOL    HW220445   0.486   2.252  12.981  0.0881  0.2576  0.1561
 2938SOL     OW20446   4.171   3.291   4.350 -0.1352  0.1456  0.3215
 2938SOL    HW120447   4.078   3.267   4.348 -0.4732  1.5814 -0.7209
 2938SOL    HW220448   4.171   3.382   4.321 -1.0855  0.3547  0.9477
 2939SOL     OW20449   4.402   2.869   7.611  0.3962 -0.9853 -0.2474
 2939SOL    HW120450   4.341   2.926   7.657 -1.1746 -2.0728 -1.0124
 2939SOL    HW220451   4.484   2.919   7.607 -0.8246  1.1709  1.6573
 2940SOL     OW20452   4.612   3.155   3.858  0.3366 -0.3386 -0.2610
 2940SOL    HW120453   4.637   3.066   3.831 -0.9717 -0.4892 -0.9546
 2940SOL    HW220454   4.696   3.184   3.894  1.0327 -0.9602 -1.3760
 2941SOL     OW20455   4.622   4.181   6.820 -0.0997 -0.4110  0.1675
 2941SOL    HW120456   4.643   4.215   6.907 -0.3276 -3.4260  1.3954
 2941SOL    HW220457   4.668   4.251   6.774 -0.0225  0.3074  1.3271
 2942SOL     OW20458   0.365   2.474   1.499 -0.1047  0.7860 -0.2983
 2942SOL    HW120459   0.302   2.486   1.427 -2.2242 -3.0886  0.9251
 2942SOL    HW220460   0.310   2.494   1.575  1.8006 -0.2914  1.3322
 2943SOL     OW20461   2.452   2.688   7.588 -0.6072 -0.4124  0.0467
 2943SOL    HW120462   2.447   2.740   7.668 -0.6612  2.5092 -1.8462
 2943SOL    HW220463   2.420   2.743   7.516  0.2722 -0.4340 -0.3591
 2944SOL     OW20464   3.398   1.792  15.105  0.1457  0.6866 -0.4637
 2944SOL    HW120465   3.372   1.858  15.170 -0.8027  0.0272 -0.1830
 2944SOL    HW220466   3.440   1.727  15.162 -0.5362  0.9219  0.3045
 2945SOL     OW20467   4.497   4.422  12.420  0.0006 -0.0995 -0.2687
 2945SOL    HW120468   4.454   4.401  12.337  0.7165  3.6554 -1.5927
 2945SOL    HW220469   4.577   4.373  12.406  0.1194  0.6135 -2.1227
 2946SOL     OW20470   0.816   4.466   7.058 -0.0165 -0.2376  0.1538
 2946SOL    HW120471   0.772   4.477   7.143  2.2884 -1.1131  1.4712
 2946SOL    HW220472   0.800   4.373   7.044  2.1088 -0.7851  1.4144
 2947SOL     OW20473   2.773   1.453   7.240  0.3203  0.0717 -0.0830
 2947SOL    HW120474   2.813   1.403   7.311  0.1844 -1.7347 -1.2669
 2947SOL    HW220475   2.774   1.381   7.176  1.8084 -0.4350  0.5053
 2948SOL     OW20476   2.191   1.433   4.656 -0.2951  0.1873 -0.1837
 2948SOL    HW120477   2.262   1.388   4.702  0.5305  0.7357 -0.9247
 2948SOL    HW220478   2.119   1.374   4.681 -0.1846  0.1144 -0.0332
 2949SOL     OW20479   2.240   1.124  12.161 -0.5265  0.2706  0.3701
 2949SOL    HW120480   2.281   1.206  12.187 -1.0906 -0.2781  2.9850
 2949SOL    HW220481   2.264   1.133  12.069  2.0576 -1.5713  0.8784
 2950SOL     OW20482   3.000   4.348   3.885  0.2231  0.0046  0.0148
 2950SOL    HW120483   2.983   4.276   3.823 -3.5359 -1.0196  2.2021
 2950SOL    HW220484   2.948   4.424   3.858  0.7523 -0.3466 -1.9913
 2951SOL     OW20485   0.718   0.987   4.788  0.0882 -0.0193 -0.0447
 2951SOL    HW120486   0.788   1.035   4.833  0.0797 -1.4154  1.4537
 2951SOL    HW220487   0.667   0.962   4.865  1.8188  2.7904  2.0650
 2952SOL     OW20488   3.068   1.372   0.516  0.1895 -0.3759 -0.0624
 2952SOL    HW120489   3.157   1.375   0.480  0.9918 -1.8545  1.8019
 2952SOL    HW220490   3.022   1.326   0.445 -0.0251  0.6899 -0.6106
 2953SOL     OW20491   2.725   2.920   1.842 -0.0160  0.0136 -0.1856
 2953SOL    HW120492   2.795   2.854   1.838 -1.9786 -2.1760  1.7672
 2953SOL    HW220493   2.726   2.947   1.933  2.2726 -3.1402  0.7300
 2954SOL     OW20494   1.249   0.985  10.662 -0.2246  0.4960 -0.3739
 2954SOL    HW120495   1.209   0.977  10.575 -2.2072 -0.5553  0.6394
 2954SOL    HW220496   1.257   0.892  10.687 -1.0945  0.2480 -1.0332
 2955SOL     OW20497   2.721   0.062   8.774  0.1253 -0.5038 -0.0013
 2955SOL    HW120498   2.766   0.085   8.693  1.7993 -0.3061  0.9855
 2955SOL    HW220499   2.732   4.707   8.747 -0.5304 -0.6285  0.1669
 2956SOL     OW20500   3.887   2.214   9.553 -0.0122 -0.0501  0.3631
 2956SOL    HW120501   3.818   2.220   9.619 -0.5465  0.0130 -0.2119
 2956SOL    HW220502   3.891   2.120   9.537 -1.8087  0.1559 -1.2801
 2957SOL     OW20503   3.938   3.978  17.527  0.2231 -0.2264 -0.3761
 2957SOL    HW120504   3.899   4.055  17.568  2.0040  1.7745 -2.4441
 2957SOL    HW220505   3.997   4.013  17.461 -0.0072  1.0818  0.1052
 2958SOL     OW20506   1.659   4.053   7.516 -0.6076 -0.2219  0.2104
 2958SOL    HW120507   1.599   4.117   7.555 -0.5521 -1.0475  1.6421
 2958SOL    HW220508   1.743   4.073   7.556 -0.5921 -0.2759  0.2050
 2959SOL     OW20509   1.178   2.345  12.095 -0.2633  0.7664 -0.2805
 2959SOL    HW120510   1.220   2.423  12.130  2.5359 -0.0178 -1.8210
 2959SOL    HW220511   1.256   2.298  12.065 -1.1439  0.4078 -2.0536
 2960SOL     OW20512   1.206   3.959   4.689  0.1044  0.0619  0.2987
 2960SOL    HW120513   1.146   3.907   4.742 -2.4479  1.3256 -1.3408
 2960SOL    HW220514   1.275   3.898   4.661 -0.1638  0.4736 -1.2642
 2961SOL     OW20515   0.258   2.730   7.825 -0.1417  0.1825  0.4864
 2961SOL    HW120516   0.319   2.782   7.877  1.8289 -0.0469 -1.6078
 2961SOL    HW220517   0.244   2.792   7.754  1.3358 -0.1796 -0.1139
 2962SOL     OW20518   4.511   0.273   8.245 -0.5147  0.7256  0.5589
 2962SOL    HW120519   4.523   0.195   8.190  1.1926  1.4433 -0.0685
 2962SOL    HW220520   4.422   0.308   8.247 -1.1332 -0.7987 -0.3867
 2963SOL     OW20521   2.758   4.036   2.017 -0.0256 -0.1423  0.2630
 2963SOL    HW120522   2.789   4.044   1.927 -1.3389 -0.6359 -0.2261
 2963SOL    HW220523   2.681   4.093   2.022 -0.5863 -0.8935  0.0382
 2964SOL     OW20524   1.583   3.457   7.921 -0.4431 -0.2620  0.4197
 2964SOL    HW120525   1.633   3.538   7.919 -1.2583  0.2278  0.0358
 2964SOL    HW220526   1.655   3.393   7.918  0.8102  1.1295  0.8222
 2965SOL     OW20527   4.260   4.596   9.508  0.0777  0.2443 -0.3858
 2965SOL    HW120528   4.289   4.526   9.567 -0.7461 -1.1832 -1.7003
 2965SOL    HW220529   4.165   4.590   9.520 -0.1434 -0.4755 -2.5477
 2966SOL     OW20530   3.683   3.126  14.293 -0.6622  0.1904  0.4144
 2966SOL    HW120531   3.719   3.037  14.289  3.3277  1.8387 -0.2175
 2966SOL    HW220532   3.701   3.142  14.385 -1.1104  0.0767  0.5237
 2967SOL     OW20533   2.097   3.214   1.659  0.2946 -0.5290  0.0026
 2967SOL    HW120534   2.027   3.271   1.628 -1.5820 -1.6035  2.2050
 2967SOL    HW220535   2.115   3.252   1.745  1.3004 -0.8645 -0.0609
 2968SOL     OW20536   3.921   1.829  14.109  0.3720  0.5328  0.7182
 2968SOL    HW120537   4.006   1.872  14.121  0.5727  0.2676  0.2667
 2968SOL    HW220538   3.966   1.760  14.060 -1.6568 -0.9560  0.9352
 2969SOL     OW20539   4.089   2.666   2.366  0.7578 -0.0031  0.0941
 2969SOL    HW120540   4.073   2.744   2.420 -1.0881 -0.2333 -0.1249
 2969SOL    HW220541   4.020   2.612   2.405 -0.1174  0.3180 -1.0024
 2970SOL     OW20542   3.598   1.200   8.917 -0.0461 -0.2786  0.1207
 2970SOL    HW120543   3.572   1.286   8.950 -1.5950 -1.4743  2.0059
 2970SOL    HW220544   3.524   1.179   8.860 -0.2072  0.1223  0.1859
 2971SOL     OW20545   1.902   0.462   2.548 -0.2282  0.2332  0.2952
 2971SOL    HW120546   1.925   0.551   2.575  2.5618 -0.6971  1.0015
 2971SOL    HW220547   1.897   0.463   2.452 -0.9758 -0.5065  0.3354
 2972SOL     OW20548   4.726   1.645   4.096 -0.7585 -0.5704 -0.0630
 2972SOL    HW120549   0.021   1.669   4.183  0.7938 -2.3660 -0.1354
 2972SOL    HW220550   0.051   1.701   4.048 -1.0206 -1.6395 -1.6319
 2973SOL     OW20551   3.388   1.720  11.194 -0.5180 -0.0023 -0.0377
 2973SOL    HW120552   3.419   1.795  11.244 -1.2313 -1.1593  2.1856
 2973SOL    HW220553   3.342   1.670  11.262 -1.3305 -2.0046 -2.0797
 2974SOL     OW20554   1.052   0.268   9.747  0.1260  0.0174  0.1879
 2974SOL    HW120555   1.063   0.361   9.767  2.1684 -0.3989  1.0531
 2974SOL    HW220556   1.142   0.233   9.749  0.4461  0.8405  0.0556
 2975SOL     OW20557   1.432   3.805  11.915 -0.3277 -0.2916 -0.2334
 2975SOL    HW120558   1.395   3.810  12.002 -0.8110  2.0340 -0.5575
 2975SOL    HW220559   1.359   3.833  11.860  0.2716 -0.3371 -1.0619
 2976SOL     OW20560   3.965   3.089   9.141 -0.1168 -0.0148  0.2248
 2976SOL    HW120561   3.968   3.007   9.091  1.6955 -0.7880  1.5770
 2976SOL    HW220562   3.872   3.095   9.164 -0.1790  0.1715 -0.0818
 2977SOL     OW20563   1.653   3.271   5.496 -0.6825 -0.1015 -0.1541
 2977SOL    HW120564   1.733   3.220   5.484  0.6646  1.6573  1.6018
 2977SOL    HW220565   1.588   3.202   5.479 -1.0682  0.7318 -2.1120
 2978SOL     OW20566   2.566   4.075   0.808 -0.6191  0.2700  0.5734
 2978SOL    HW120567   2.633   4.129   0.767  0.4028  0.5270  2.5610
 2978SOL    HW220568   2.579   3.989   0.769 -0.7897  0.3868  0.2580
 2979SOL     OW20569   1.961   4.658   4.947 -0.3234  0.0158 -0.1123
 2979SOL    HW120570   1.876   4.699   4.930  0.5085  0.2937 -3.5768
 2979SOL    HW220571   1.990   4.629   4.860  1.0831 -0.5654  0.5438
 2980SOL     OW20572   1.479   2.210   8.122  0.3123  0.4474  0.2438
 2980SOL    HW120573   1.483   2.265   8.200 -2.8804  0.2189  0.5893
 2980SOL    HW220574   1.545   2.256   8.070 -0.0612  0.1565 -0.4947
 2981SOL     OW20575   0.725   2.948   6.890 -0.0700 -0.1102  0.1638
 2981SOL    HW120576   0.791   2.880   6.900  0.3998  0.0514 -1.7894
 2981SOL    HW220577   0.772   3.003   6.827  0.0939 -1.9423 -1.3026
 2982SOL     OW20578   0.477   1.526   7.067  0.2443  0.0751  0.5288
 2982SOL    HW120579   0.437   1.606   7.032 -0.0850 -0.9037 -1.2638
 2982SOL    HW220580   0.568   1.529   7.038 -0.6837 -1.5133 -2.4691
 2983SOL     OW20581   1.575   3.483   9.422 -0.1068  0.1470  0.4000
 2983SOL    HW120582   1.558   3.495   9.515  1.8443  0.0577  0.7610
 2983SOL    HW220583   1.666   3.513   9.414 -0.4556  1.0387 -0.2802
 2984SOL     OW20584   2.463   1.852   3.105  0.0463  0.1002 -0.4502
 2984SOL    HW120585   2.482   1.768   3.063 -1.6933 -0.5574  0.1017
 2984SOL    HW220586   2.551   1.888   3.120  1.3760 -3.3833  0.0791
 2985SOL     OW20587   4.162   0.635   6.284  0.1104 -0.2326 -0.3272
 2985SOL    HW120588   4.079   0.607   6.247 -0.3752 -0.5650  1.0181
 2985SOL    HW220589   4.230   0.585   6.240 -0.0154 -0.0714 -0.7008
 2986SOL     OW20590   2.103   3.840   2.100  0.5441  0.2848 -0.3708
 2986SOL    HW120591   2.066   3.788   2.171  0.2861  2.5769  1.1783
 2986SOL    HW220592   2.189   3.843   2.141  0.0855 -1.9131  0.7842
 2987SOL     OW20593   2.022   0.562   9.726 -0.0907 -0.0589 -0.5402
 2987SOL    HW120594   2.007   0.653   9.702  5.2890  1.0526  0.2657
 2987SOL    HW220595   2.117   0.555   9.728 -0.3482 -3.4260  0.1004
 2988SOL     OW20596   3.954   4.109   8.304  0.1924 -0.1109 -0.2026
 2988SOL    HW120597   3.997   4.091   8.220  1.6414 -0.1645  0.5608
 2988SOL    HW220598   4.033   4.149   8.341 -0.5436  0.4758  0.7275
 2989SOL     OW20599   2.028   3.773   8.030 -0.6394  0.1386 -0.4859
 2989SOL    HW120600   1.939   3.740   8.021  0.0882 -2.1631  0.8849
 2989SOL    HW220601   2.018   3.829   8.107 -2.0779 -2.1510  0.9940
 2990SOL     OW20602   1.808   0.604   8.654  0.8604  0.3743 -0.2238
 2990SOL    HW120603   1.757   0.684   8.641  0.0051 -0.0804  0.3502
 2990SOL    HW220604   1.898   0.634   8.644  0.8624  0.2674 -0.5300
 2991SOL     OW20605   3.528   3.097   3.236 -0.4076  0.3420  0.2767
 2991SOL    HW120606   3.541   3.191   3.226 -0.3086  0.3400  0.3836
 2991SOL    HW220607   3.468   3.070   3.167 -1.1615  0.3694  0.9171
 2992SOL     OW20608   0.885   0.909   4.989  0.6519 -0.3833 -0.4040
 2992SOL    HW120609   0.854   0.819   4.985 -0.6662  0.0044  0.9871
 2992SOL    HW220610   0.859   0.929   5.079  0.2504 -3.2705  0.1099
 2993SOL     OW20611   0.233   1.724   3.976  0.0363 -0.2446 -0.1892
 2993SOL    HW120612   0.287   1.715   3.897 -0.7611 -5.9549 -0.0975
 2993SOL    HW220613   0.291   1.785   4.021  1.0145 -0.7037 -0.8414
 2994SOL     OW20614   3.299   4.293   9.066  0.3705 -0.3499 -0.1562
 2994SOL    HW120615   3.246   4.287   9.145 -0.2005  2.1315 -0.3436
 2994SOL    HW220616   3.244   4.242   9.007  0.2942 -0.8377  0.3358
 2995SOL     OW20617   0.941   1.752   9.850 -0.4274 -0.3356 -0.0306
 2995SOL    HW120618   0.871   1.692   9.826 -1.2114  0.4843  0.2080
 2995SOL    HW220619   0.986   1.752   9.766  0.3225  0.2876  0.3746
 2996SOL     OW20620   0.760   2.782  16.256  0.2955 -0.2227  0.1063
 2996SOL    HW120621   0.847   2.742  16.248  0.8608  1.0519 -0.1898
 2996SOL    HW220622   0.788   2.873  16.260 -1.3483  0.2080  1.7226
 2997SOL     OW20623   1.234   4.282   8.188 -0.1955 -0.0255 -0.2021
 2997SOL    HW120624   1.254   4.220   8.258 -3.2218  0.4151  1.0673
 2997SOL    HW220625   1.301   4.350   8.188 -1.5492  1.3269  1.4473
 2998SOL     OW20626   0.586   3.691   7.691  0.0147  0.6613 -0.6496
 2998SOL    HW120627   0.530   3.615   7.672  1.1468 -0.1516 -0.7797
 2998SOL    HW220628   0.554   3.715   7.778 -0.0662  1.8427 -1.0047
 2999SOL     OW20629   4.624   0.597   3.602 -0.0147  0.3136 -0.9095
 2999SOL    HW120630   4.626   0.597   3.507 -2.6235 -1.1076 -0.9539
 2999SOL    HW220631   4.598   0.688   3.614  1.0013  0.3786  0.8438
 3000SOL     OW20632   3.435   2.563   7.057 -0.1760  0.1957 -0.2585
 3000SOL    HW120633   3.357   2.512   7.037 -0.0480  0.5924 -1.7499
 3000SOL    HW220634   3.460   2.520   7.139 -1.2930  0.2383  0.1079
 3001SOL     OW20635   2.173   3.492  10.142  0.9397  0.1839 -0.0513
 3001SOL    HW120636   2.222   3.464  10.065 -0.9381 -0.1911 -1.1048
 3001SOL    HW220637   2.087   3.511  10.105  0.9266 -0.8838 -0.5923
 3002SOL     OW20638   3.964   3.539   8.164  0.1288  0.1826 -0.7651
 3002SOL    HW120639   4.047   3.497   8.186  0.5010  0.7004 -1.1695
 3002SOL    HW220640   3.904   3.511   8.233  1.3950  1.2901  0.7921
 3003SOL     OW20641   4.729   2.331   4.746  0.4536 -0.4532  0.2715
 3003SOL    HW120642   0.004   2.348   4.839  2.8759 -0.4842 -0.0416
 3003SOL    HW220643   0.066   2.276   4.720  0.0551 -0.3922 -1.0017
 3004SOL     OW20644   0.111   3.657   7.513 -0.3845  0.0905  0.1449
 3004SOL    HW120645   0.084   3.727   7.453  0.6413  0.6909  0.3810
 3004SOL    HW220646   0.024   3.628   7.540 -0.0768 -1.8847 -1.0180
 3005SOL     OW20647   1.020   3.213  16.408 -0.6351  0.0571  0.2898
 3005SOL    HW120648   0.970   3.235  16.486  0.4891  1.4671  0.6145
 3005SOL    HW220649   1.025   3.296  16.361 -0.2560  0.6244  1.3387
 3006SOL     OW20650   1.050   3.884   6.912 -0.3057  0.1403 -0.2605
 3006SOL    HW120651   0.989   3.954   6.889  0.2425  0.4491 -0.7745
 3006SOL    HW220652   1.111   3.927   6.972 -0.2634 -2.8598  1.8213
 3007SOL     OW20653   2.872   3.315   1.685 -0.0255 -0.2243 -0.0721
 3007SOL    HW120654   2.825   3.354   1.759  0.4794  1.3517 -0.5772
 3007SOL    HW220655   2.814   3.246   1.652 -0.6485 -0.0806  0.7291
 3008SOL     OW20656   0.633   1.166   5.951  0.5008  0.7713 -0.5025
 3008SOL    HW120657   0.550   1.178   5.904  0.2031 -1.2633 -0.5177
 3008SOL    HW220658   0.632   1.228   6.023 -0.5383  0.4273 -0.2128
 3009SOL     OW20659   1.007   1.600  12.168 -0.1570 -0.3777  0.3746
 3009SOL    HW120660   1.007   1.689  12.134  1.1481 -0.6575 -0.3304
 3009SOL    HW220661   0.942   1.557  12.112  1.9126 -1.8625 -0.8875
 3010SOL     OW20662   2.189   4.259   6.125  0.8855  0.1537 -0.0666
 3010SOL    HW120663   2.201   4.165   6.142 -1.3210  0.3088  2.3547
 3010SOL    HW220664   2.204   4.257   6.031 -1.3475  1.6127 -0.4257
 3011SOL     OW20665   4.447   2.539   9.366 -0.7152 -0.2954  0.4515
 3011SOL    HW120666   4.525   2.509   9.414  0.1886  1.3562 -0.0033
 3011SOL    HW220667   4.377   2.499   9.418 -2.2627  2.4961  0.4938
 3012SOL     OW20668   2.845   0.406   8.995  0.3850 -0.8478  0.1985
 3012SOL    HW120669   2.764   0.457   8.993 -0.6768 -2.6196 -1.5035
 3012SOL    HW220670   2.843   0.354   9.075  3.0539 -0.3748  0.5788
 3013SOL     OW20671   0.239   2.117   1.644 -0.0970  0.5891  0.2019
 3013SOL    HW120672   0.202   2.093   1.729  0.0962 -0.2203  0.0538
 3013SOL    HW220673   0.183   2.060   1.592 -0.6796  0.4994  0.9250
 3014SOL     OW20674   1.979   1.387   1.110 -0.3714  1.0972 -0.2373
 3014SOL    HW120675   1.917   1.315   1.125  1.0816 -0.0028  0.5257
 3014SOL    HW220676   1.945   1.426   1.030 -0.5072  2.0506  0.2860
 3015SOL     OW20677   2.523   0.891   8.199  0.7618 -0.4212  0.2326
 3015SOL    HW120678   2.560   0.836   8.130  1.2012 -0.6121  0.6191
 3015SOL    HW220679   2.562   0.855   8.279 -0.8969 -1.5077  0.5504
 3016SOL     OW20680   3.454   1.678   6.579 -0.5813  0.6446 -0.2743
 3016SOL    HW120681   3.444   1.687   6.674  3.0459  0.2839  0.1299
 3016SOL    HW220682   3.548   1.693   6.569 -0.2449 -0.9488  0.6045
 3017SOL     OW20683   1.212   4.409   7.139  0.4426 -1.0915 -0.4658
 3017SOL    HW120684   1.137   4.349   7.132 -0.0976 -0.5935  1.2198
 3017SOL    HW220685   1.170   4.490   7.169  2.2441 -0.1013 -0.6487
 3018SOL     OW20686   4.734   0.743   4.844 -0.0261  0.0913 -0.1934
 3018SOL    HW120687   4.674   0.693   4.788 -1.0248  0.8455  0.2031
 3018SOL    HW220688   4.708   0.828   4.809  0.5682  0.0279 -0.7960
 3019SOL     OW20689   3.782   3.312  11.882 -0.0232  0.0127 -0.1036
 3019SOL    HW120690   3.779   3.257  11.961 -1.5009 -0.9579 -0.8281
 3019SOL    HW220691   3.758   3.397  11.919  2.0814 -1.3841  4.4402
 3020SOL     OW20692   2.638   0.588   2.810 -0.1263  0.0531 -0.0590
 3020SOL    HW120693   2.617   0.646   2.884  0.5098 -2.3882  2.0417
 3020SOL    HW220694   2.582   0.631   2.745 -2.3249 -3.1030 -0.2348
 3021SOL     OW20695   2.000   0.715  12.245  0.5545 -0.2644 -0.3296
 3021SOL    HW120696   2.088   0.741  12.216  0.1670 -0.2470 -1.4942
 3021SOL    HW220697   1.949   0.768  12.184  1.4392  1.0853  0.0904
 3022SOL     OW20698   3.599   0.818   6.031 -0.1295 -0.1762  0.1773
 3022SOL    HW120699   3.683   0.858   6.053  0.6542 -1.2408 -0.8153
 3022SOL    HW220700   3.585   0.848   5.941  0.5818 -3.8036 -1.1781
 3023SOL     OW20701   1.230   4.553  16.051  0.2159 -0.4902  0.1059
 3023SOL    HW120702   1.195   4.632  16.008  0.3992 -0.6921 -0.4161
 3023SOL    HW220703   1.248   4.584  16.140  0.8665 -3.2051  0.9170
 3024SOL     OW20704   2.417   2.911   8.502  0.4775 -0.2257  0.1868
 3024SOL    HW120705   2.481   2.957   8.556  0.1845  0.1300  0.2311
 3024SOL    HW220706   2.449   2.820   8.506 -2.0219 -1.1461 -0.9591
 3025SOL     OW20707   1.087   0.817   2.684 -0.7519 -0.1665 -0.0651
 3025SOL    HW120708   1.075   0.880   2.613  0.6241 -0.7678 -0.8208
 3025SOL    HW220709   1.119   0.746   2.630  1.2665 -0.3954  1.4449
 3026SOL     OW20710   2.799   4.008   4.205  0.2847  0.5151  0.2199
 3026SOL    HW120711   2.786   3.914   4.194 -0.3210  0.4254  1.6987
 3026SOL    HW220712   2.787   4.036   4.115 -0.5311  0.3738  0.2895
 3027SOL     OW20713   0.813   3.277   7.022 -0.2322 -0.5819  0.0112
 3027SOL    HW120714   0.852   3.322   7.097 -1.4492 -3.0518  2.1194
 3027SOL    HW220715   0.854   3.192   7.038 -0.3074 -0.5980  0.1151
 3028SOL     OW20716   4.377   2.496   4.544 -0.7828 -0.1723 -0.7673
 3028SOL    HW120717   4.376   2.422   4.604 -1.4157 -1.2405 -2.1166
 3028SOL    HW220718   4.338   2.573   4.587 -0.6494 -0.4129 -0.2149
 3029SOL     OW20719   2.393   1.114  14.461  0.0195 -0.6143  0.6117
 3029SOL    HW120720   2.299   1.126  14.469  0.3438  1.3313  1.4251
 3029SOL    HW220721   2.412   1.161  14.380  0.8644 -0.6076  0.8104
 3030SOL     OW20722   2.055   0.690  13.640  0.4227 -0.0507 -0.0919
 3030SOL    HW120723   2.137   0.736  13.659  0.5753 -1.0264  1.5920
 3030SOL    HW220724   2.029   0.656  13.725 -1.1670 -1.1363 -1.0195
 3031SOL     OW20725   4.171   3.664  16.652 -0.1022 -0.6753  0.4344
 3031SOL    HW120726   4.250   3.657  16.599  0.2013 -0.4188  0.8624
 3031SOL    HW220727   4.151   3.758  16.652  2.2754 -0.1652  0.1207
 3032SOL     OW20728   0.267   1.368   2.453  0.2387 -0.4579 -0.4768
 3032SOL    HW120729   0.263   1.272   2.451  2.2263 -0.5907  1.0529
 3032SOL    HW220730   0.327   1.373   2.379 -1.5198 -1.8419 -1.9944
 3033SOL     OW20731   0.852   1.105  16.784 -0.0510  0.1453  0.0799
 3033SOL    HW120732   0.896   1.033  16.829 -0.7772  0.2546  0.9826
 3033SOL    HW220733   0.769   1.115  16.831 -1.3787 -1.6557 -1.9330
 3034SOL     OW20734   4.319   2.429   8.918  0.0061  0.0110  0.3227
 3034SOL    HW120735   4.388   2.369   8.946 -1.6875 -0.7074  2.9391
 3034SOL    HW220736   4.362   2.510   8.892 -1.2034  0.6249  0.2353
 3035SOL     OW20737   1.583   4.690   7.475 -0.1770  0.2684  0.5486
 3035SOL    HW120738   1.516   4.678   7.541 -1.0293  2.0050 -0.0135
 3035SOL    HW220739   1.636   4.611   7.486 -1.6842 -0.9282 -0.7479
 3036SOL     OW20740   0.860   3.093   0.574 -0.1214  0.1303  0.3514
 3036SOL    HW120741   0.940   3.123   0.619  0.6403  2.0147 -2.2645
 3036SOL    HW220742   0.904   3.079   0.490 -0.1490 -1.0858  0.5417
 3037SOL     OW20743   2.892   4.162   2.971 -0.3414  0.1453 -0.5570
 3037SOL    HW120744   2.961   4.099   2.990 -0.9755 -1.4384 -3.5872
 3037SOL    HW220745   2.834   4.106   2.921  1.0725  0.7716 -2.8764
 3038SOL     OW20746   0.850   1.943   9.277  0.6486 -0.1267 -0.0157
 3038SOL    HW120747   0.798   1.873   9.316  0.4526 -0.9254 -1.6883
 3038SOL    HW220748   0.927   1.899   9.241 -0.7694 -1.8070 -0.9927
 3039SOL     OW20749   3.677   2.570   6.451 -0.3361  0.0308  0.0661
 3039SOL    HW120750   3.740   2.584   6.381  1.2420  1.9985  1.8842
 3039SOL    HW220751   3.729   2.622   6.512 -1.6352  2.1828 -0.6557
 3040SOL     OW20752   3.336   3.506  11.601  0.1003  0.5617 -0.2218
 3040SOL    HW120753   3.291   3.551  11.529 -0.4262  1.1308  0.4560
 3040SOL    HW220754   3.422   3.523  11.561  0.9228  0.4046  1.4942
 3041SOL     OW20755   0.303   3.145   7.555  0.5027  0.3257 -0.1638
 3041SOL    HW120756   0.238   3.210   7.580  1.0438  0.5820  0.5854
 3041SOL    HW220757   0.257   3.067   7.588  0.2590 -0.1134 -1.5508
 3042SOL     OW20758   1.505   2.463  17.614 -0.0169 -0.8232  0.9615
 3042SOL    HW120759   1.585   2.484  17.567 -0.6183 -1.5007 -0.4091
 3042SOL    HW220760   1.447   2.444  17.539 -2.8814 -0.5276  3.0793
 3043SOL     OW20761   4.406   0.776   4.946  0.1233  0.0326 -0.2731
 3043SOL    HW120762   4.324   0.728   4.958  0.6926 -1.0517 -0.7298
 3043SOL    HW220763   4.396   0.869   4.965  0.4741 -0.2348  1.2384
 3044SOL     OW20764   4.699   3.193  14.419  0.1292 -0.2523  0.0142
 3044SOL    HW120765   0.012   3.230  14.491  1.0190  1.6415 -1.5642
 3044SOL    HW220766   4.723   3.263  14.358 -0.4173  0.4062  0.5565
 3045SOL     OW20767   4.118   1.432  14.423 -0.5164  0.6312  0.2622
 3045SOL    HW120768   4.167   1.514  14.433  0.6954 -0.0095 -0.3732
 3045SOL    HW220769   4.116   1.384  14.506  0.0885 -0.5391 -0.3928
 3046SOL     OW20770   1.522   2.756  16.829  0.4196  0.3595  0.0082
 3046SOL    HW120771   1.565   2.727  16.748 -1.9232 -2.6775 -0.1369
 3046SOL    HW220772   1.542   2.682  16.887 -1.3250  1.1380  1.5800
 3047SOL     OW20773   1.725   4.588  12.644  0.8607 -0.1720 -0.4977
 3047SOL    HW120774   1.771   4.512  12.680  3.3264  1.4909 -0.0782
 3047SOL    HW220775   1.785   4.657  12.675  0.4688 -0.1688  0.2714
 3048SOL     OW20776   1.953   4.475   3.604  0.0495  0.1836 -0.2886
 3048SOL    HW120777   2.043   4.497   3.579  1.6684 -1.0858  4.2156
 3048SOL    HW220778   1.950   4.514   3.692 -2.0957  0.5159 -0.5145
 3049SOL     OW20779   0.852   1.388   9.883  0.3755  0.0196  0.2568
 3049SOL    HW120780   0.892   1.347   9.959  0.1415  0.1724  0.4636
 3049SOL    HW220781   0.781   1.437   9.926  0.8431  0.2823  0.7243
 3050SOL     OW20782   2.298   1.059   3.147  0.1238 -0.3111  0.2518
 3050SOL    HW120783   2.207   1.080   3.169 -0.4054 -0.7885 -1.4381
 3050SOL    HW220784   2.284   0.995   3.077 -0.3768 -1.0767  1.0555
 3051SOL     OW20785   0.039   2.375   9.240 -0.2212 -0.1138 -0.0254
 3051SOL    HW120786   0.069   2.465   9.224  0.0816 -0.4760 -1.4654
 3051SOL    HW220787   4.733   2.387   9.325  0.4280 -1.1870  0.4570
 3052SOL     OW20788   3.894   2.089  17.498  0.1564  0.0601 -0.3334
 3052SOL    HW120789   3.947   2.164  17.473 -1.8595  1.4149 -0.5528
 3052SOL    HW220790   3.960   2.020  17.490 -0.2430 -0.3492 -0.1182
 3053SOL     OW20791   0.165   1.829   6.830 -0.2363 -0.4944  0.2506
 3053SOL    HW120792   0.222   1.767   6.876  0.7323  1.6390  1.9557
 3053SOL    HW220793   0.181   1.903   6.889  0.8036 -1.0910  0.7339
 3054SOL     OW20794   1.160   4.018   3.968  0.1546  0.1008  0.5589
 3054SOL    HW120795   1.134   3.926   3.971  0.6373 -0.0813 -1.1098
 3054SOL    HW220796   1.243   4.022   4.016  1.3537 -0.4220 -1.5192
 3055SOL     OW20797   3.807   2.773   6.571 -0.1613 -0.2896 -0.2140
 3055SOL    HW120798   3.846   2.817   6.647 -2.4252  1.0533  0.1987
 3055SOL    HW220799   3.822   2.841   6.506  0.6455  1.7966  2.1364
 3056SOL     OW20800   1.304   4.197   6.776 -0.1642  0.1712 -0.4869
 3056SOL    HW120801   1.324   4.288   6.798 -1.9818  0.4887 -0.0999
 3056SOL    HW220802   1.301   4.168   6.867  1.0818 -2.0295 -1.1543
 3057SOL     OW20803   1.493   2.043   7.918 -0.1519  0.1305 -0.1441
 3057SOL    HW120804   1.460   1.954   7.936 -0.3705  0.1789 -0.3085
 3057SOL    HW220805   1.483   2.071   8.009 -1.3777  1.9127 -0.8479
 3058SOL     OW20806   1.375   1.364  11.017 -0.2504 -0.5648 -0.2798
 3058SOL    HW120807   1.460   1.324  11.035  0.4008  1.8574  1.9629
 3058SOL    HW220808   1.324   1.283  11.010 -0.6524 -0.2693 -0.8083
 3059SOL     OW20809   3.318   0.163   7.047 -0.1149 -0.5606  0.2907
 3059SOL    HW120810   3.325   0.219   6.970  2.5440 -1.0870  0.1527
 3059SOL    HW220811   3.409   0.141   7.063 -1.0401 -4.2860  0.4200
 3060SOL     OW20812   2.481   1.199   8.283  0.4992  0.1289  0.2658
 3060SOL    HW120813   2.439   1.282   8.305 -0.9632 -0.9324  1.5527
 3060SOL    HW220814   2.416   1.129   8.290 -0.6544  0.9997 -1.8998
 3061SOL     OW20815   3.113   0.394   4.872 -0.1573 -0.2473 -0.3123
 3061SOL    HW120816   3.113   0.466   4.810 -0.9397  0.9752  1.1067
 3061SOL    HW220817   3.198   0.406   4.913 -1.6280  0.5747  2.5727
 3062SOL     OW20818   2.419   1.075   2.719 -0.2100  0.2282 -0.4504
 3062SOL    HW120819   2.425   1.168   2.744 -1.8763 -0.0382  0.9534
 3062SOL    HW220820   2.512   1.052   2.714  0.2630  1.7711  1.0500
 3063SOL     OW20821   4.726   1.069   2.977  0.3890  0.2987  0.0937
 3063SOL    HW120822   4.694   1.085   2.888 -0.9946 -4.5993 -0.3294
 3063SOL    HW220823   4.654   1.050   3.037 -0.6488  2.5708 -0.4416
 3064SOL     OW20824   4.029   1.478   2.520 -0.3305  0.2706 -0.1586
 3064SOL    HW120825   3.973   1.406   2.491  0.1402 -0.8271  1.6291
 3064SOL    HW220826   3.959   1.541   2.535 -0.2230  0.8200 -2.0237
 3065SOL     OW20827   1.726   2.101   0.282  0.3807  0.6278 -0.2454
 3065SOL    HW120828   1.667   2.096   0.207 -0.0101  2.5447 -0.0506
 3065SOL    HW220829   1.697   2.183   0.322  0.1610  0.8650 -0.8990
 3066SOL     OW20830   2.644   3.070   0.627 -0.0633 -0.6514 -0.0103
 3066SOL    HW120831   2.717   3.131   0.629  0.4669 -1.2779 -0.1539
 3066SOL    HW220832   2.571   3.132   0.622  0.7034  0.4130  1.8695
 3067SOL     OW20833   3.919   3.266  12.645 -0.5879  0.0070 -0.1209
 3067SOL    HW120834   3.919   3.326  12.719 -0.8254  0.3097 -0.3614
 3067SOL    HW220835   3.876   3.197  12.696 -0.6174 -1.4066 -2.0669
 3068SOL     OW20836   3.201   2.600  11.195 -0.4743  0.0089 -0.1958
 3068SOL    HW120837   3.171   2.686  11.167  0.9173  1.5508  3.0645
 3068SOL    HW220838   3.143   2.574  11.266 -1.4150  0.2558 -0.8713
 3069SOL     OW20839   2.962   4.631   3.758 -0.0129 -0.6196 -0.1017
 3069SOL    HW120840   2.877   4.673   3.774  0.2343  0.1465 -0.8331
 3069SOL    HW220841   3.006   4.638   3.843  1.3109 -0.0864 -0.8362
 3070SOL     OW20842   1.257   1.335   1.604  0.5721  0.3412  0.4001
 3070SOL    HW120843   1.273   1.258   1.659  0.1412  0.0810  0.1603
 3070SOL    HW220844   1.217   1.289   1.531  1.5083  0.1365  0.0127
 3071SOL     OW20845   0.733   0.133   9.470 -0.3706  0.2720 -0.4699
 3071SOL    HW120846   0.641   0.123   9.445 -0.9880 -0.9165  2.1827
 3071SOL    HW220847   0.740   0.101   9.560 -0.8869  1.1074 -0.1300
 3072SOL     OW20848   3.829   2.125   7.715 -0.2175  0.2692  0.5811
 3072SOL    HW120849   3.875   2.097   7.636 -0.8474  0.4781  0.1378
 3072SOL    HW220850   3.752   2.070   7.722 -1.5754  2.0166 -0.4664
 3073SOL     OW20851   3.815   0.609  15.290  0.0552 -0.6687 -0.0279
 3073SOL    HW120852   3.890   0.663  15.314 -1.5942  1.9100 -0.6913
 3073SOL    HW220853   3.763   0.601  15.370  0.0637 -2.7767 -0.2449
 3074SOL     OW20854   4.025   2.626  12.635 -0.0633 -0.1292 -0.0330
 3074SOL    HW120855   4.029   2.687  12.562  2.4052  0.9411  0.9943
 3074SOL    HW220856   3.971   2.672  12.699 -0.8055 -0.1167 -0.6709
 3075SOL     OW20857   1.586   3.052   4.853  0.1628 -0.6179 -0.7463
 3075SOL    HW120858   1.677   3.041   4.827  0.7044 -0.4761  1.0942
 3075SOL    HW220859   1.594   3.133   4.904 -2.9980 -0.8775  0.1665
 3076SOL     OW20860   1.980   3.298  10.546 -0.7857  0.7263  0.0348
 3076SOL    HW120861   1.941   3.212  10.563 -0.9806  1.1749  1.7756
 3076SOL    HW220862   1.979   3.348  10.627 -0.3219 -0.0511  0.5255
 3077SOL     OW20863   4.676   4.054   8.164  0.1058 -0.2854  0.0771
 3077SOL    HW120864   4.731   3.983   8.197  0.0812 -1.7303 -2.9938
 3077SOL    HW220865   4.723   4.135   8.184  0.4057 -0.9409  2.0031
 3078SOL     OW20866   2.430   0.389   3.334  0.0068 -0.1518 -0.0295
 3078SOL    HW120867   2.354   0.437   3.368  1.5862  1.9318  0.5878
 3078SOL    HW220868   2.421   0.300   3.367  1.5750 -0.5524 -0.6764
 3079SOL     OW20869   0.965   4.649  10.377  0.4572  0.3579 -0.1342
 3079SOL    HW120870   0.983   4.613  10.464  0.6671 -0.9022 -0.6928
 3079SOL    HW220871   0.886   4.697  10.401  1.5522  0.8805  2.4325
 3080SOL     OW20872   0.405   2.896  15.906  0.1481 -0.0265  1.0764
 3080SOL    HW120873   0.469   2.842  15.952  0.5695 -0.5511 -0.1133
 3080SOL    HW220874   0.419   2.854  15.821  0.1781 -2.1758  2.1415
 3081SOL     OW20875   3.015   4.622   6.924  0.2519  0.2833 -0.1688
 3081SOL    HW120876   3.024   4.539   6.879 -0.4095  0.4603 -0.6309
 3081SOL    HW220877   2.993   4.679   6.850 -0.5719 -0.6615 -0.6579
 3082SOL     OW20878   3.834   3.556   0.433  0.3074 -0.2385  0.2186
 3082SOL    HW120879   3.844   3.613   0.357  0.0349 -0.1282  0.2671
 3082SOL    HW220880   3.892   3.602   0.492  0.8851 -2.1581  1.1506
 3083SOL     OW20881   2.372   1.929   8.512 -0.1576 -0.9280 -0.5043
 3083SOL    HW120882   2.398   1.916   8.603  1.2911 -1.8804 -1.0495
 3083SOL    HW220883   2.276   1.933   8.514 -0.0840  1.2754 -2.1339
 3084SOL     OW20884   3.369   3.447   2.721 -0.5960 -0.3255 -0.0902
 3084SOL    HW120885   3.361   3.353   2.711  1.1999 -0.2693 -2.2351
 3084SOL    HW220886   3.284   3.475   2.687 -0.6362  0.1534  0.4110
 3085SOL     OW20887   4.199   0.098   4.675 -0.6178 -0.1928 -0.2399
 3085SOL    HW120888   4.117   0.054   4.698 -1.0017 -0.1135 -1.4445
 3085SOL    HW220889   4.162   0.176   4.634  1.0616  1.1534  0.7606
 3086SOL     OW20890   0.726   4.090   5.444 -0.1477 -0.2252  0.0094
 3086SOL    HW120891   0.703   4.037   5.520 -2.0052  0.1683 -0.2797
 3086SOL    HW220892   0.770   4.163   5.487 -1.1488 -0.7699  1.9203
 3087SOL     OW20893   3.051   0.125  16.996  0.8455  0.3419 -0.0390
 3087SOL    HW120894   3.082   0.171  17.074  1.2186  0.6137 -0.3511
 3087SOL    HW220895   2.963   0.160  16.986  0.5986  0.9322  4.1944
 3088SOL     OW20896   1.643   4.451   2.898 -0.2749 -0.3539  0.2197
 3088SOL    HW120897   1.729   4.488   2.876 -0.6675  1.3933  1.7136
 3088SOL    HW220898   1.660   4.364   2.861  2.2557  0.4742 -0.6103
 3089SOL     OW20899   3.323   0.296   8.732 -0.3519  0.3731 -0.1995
 3089SOL    HW120900   3.357   0.376   8.693  1.5710 -1.1094 -1.5541
 3089SOL    HW220901   3.411   0.260   8.743 -0.6697 -0.5649 -0.7022
 3090SOL     OW20902   0.241   1.676   5.107 -0.2434  0.1668  0.4362
 3090SOL    HW120903   0.215   1.761   5.144  2.7005  0.6455  1.3703
 3090SOL    HW220904   0.321   1.659   5.156  0.3501  0.5530 -0.3927
 3091SOL     OW20905   0.733   2.637  12.497  0.7983  0.2414 -0.3468
 3091SOL    HW120906   0.726   2.564  12.435 -1.7576  0.0698  0.1541
 3091SOL    HW220907   0.750   2.592  12.579 -2.5316 -1.6449 -0.7070
 3092SOL     OW20908   3.470   2.711   3.307 -0.4251 -0.4162  0.2725
 3092SOL    HW120909   3.459   2.763   3.227 -0.4244 -1.0760 -0.1505
 3092SOL    HW220910   3.378   2.689   3.315 -0.3700  0.1338  2.5605
 3093SOL     OW20911   3.239   1.444   0.746 -0.1105  0.8438  0.1435
 3093SOL    HW120912   3.291   1.502   0.690  0.7484 -0.0048  0.0629
 3093SOL    HW220913   3.174   1.420   0.679  1.0052 -1.4655 -0.1149
 3094SOL     OW20914   4.019   2.267   7.436 -0.0777  0.3731  0.1834
 3094SOL    HW120915   3.982   2.180   7.424 -0.4979  0.7684 -1.3657
 3094SOL    HW220916   3.937   2.314   7.452 -0.7199 -1.2559  1.5297
 3095SOL     OW20917   1.781   2.131  14.873 -0.8964  1.0485  0.2840
 3095SOL    HW120918   1.742   2.053  14.910 -2.7985  1.0899 -1.6617
 3095SOL    HW220919   1.823   2.162  14.953  0.4402 -0.8270  0.3133
 3096SOL     OW20920   2.578   1.203  16.339  0.0466  0.1855 -0.2784
 3096SOL    HW120921   2.641   1.230  16.407 -0.9781 -0.1052  0.7765
 3096SOL    HW220922   2.513   1.274  16.341 -0.5042 -0.3634  0.9720
 3097SOL     OW20923   0.486   2.449  12.213  0.2341  0.2723  0.4360
 3097SOL    HW120924   0.504   2.358  12.189  1.9812  1.3173 -2.2335
 3097SOL    HW220925   0.570   2.472  12.253 -0.9062  0.3193  2.8021
 3098SOL     OW20926   1.423   0.309   0.049 -0.5481 -0.0155 -0.0773
 3098SOL    HW120927   1.488   0.244   0.021 -0.6672  0.6282 -1.8286
 3098SOL    HW220928   1.475   0.372   0.099 -0.6076  0.1429 -0.2159
 3099SOL     OW20929   0.557   4.022  13.559  0.0539  0.6747 -0.0783
 3099SOL    HW120930   0.645   3.996  13.587  0.2837  1.7784  0.1936
 3099SOL    HW220931   0.569   4.113  13.533  0.4018  0.6950  0.1503
 3100SOL     OW20932   3.121   1.605   3.340  0.5251  0.8550 -0.3107
 3100SOL    HW120933   3.169   1.558   3.408 -0.9355  0.3035  0.3518
 3100SOL    HW220934   3.192   1.636   3.284  0.2647  3.2418  0.7108
 3101SOL     OW20935   1.728   3.206  12.560  0.5427  0.0189 -0.0144
 3101SOL    HW120936   1.810   3.168  12.592  0.2692 -0.3999  0.1868
 3101SOL    HW220937   1.759   3.293  12.534 -0.1788  1.1372  2.8383
 3102SOL     OW20938   3.207   2.807   6.083  0.1843 -0.6368 -0.3258
 3102SOL    HW120939   3.259   2.838   6.009  0.9888 -1.0391  0.0698
 3102SOL    HW220940   3.188   2.715   6.063  3.0927 -1.1830 -0.6378
 3103SOL     OW20941   3.232   1.603   2.652 -0.0512 -0.1984  0.6507
 3103SOL    HW120942   3.282   1.685   2.649 -1.8389  0.8062 -0.8282
 3103SOL    HW220943   3.157   1.616   2.595  0.4299  1.6645  0.4435
 3104SOL     OW20944   0.022   1.999  10.104  0.6137  0.2287  0.1921
 3104SOL    HW120945   0.019   2.034  10.015  2.4502 -0.7001 -0.2292
 3104SOL    HW220946   0.029   2.068  10.170 -0.5552 -0.7735  1.3772
 3105SOL     OW20947   4.510   0.962   2.415 -0.4743  0.2196  0.0576
 3105SOL    HW120948   4.568   0.888   2.398 -1.4197 -0.5813  0.3004
 3105SOL    HW220949   4.471   0.935   2.498 -1.0109  0.7675 -0.0230
 3106SOL     OW20950   1.812   2.977   5.623 -0.0661  0.4068 -0.0677
 3106SOL    HW120951   1.759   2.906   5.588  0.9784 -0.6631  0.5156
 3106SOL    HW220952   1.865   2.986   5.543  0.9466  1.1070  0.6850
 3107SOL     OW20953   2.457   3.588  14.976 -0.2223 -1.0281 -0.0536
 3107SOL    HW120954   2.364   3.611  14.988 -0.1007 -0.9141  0.6872
 3107SOL    HW220955   2.499   3.638  15.046 -0.1136  0.5326 -1.2408
 3108SOL     OW20956   1.132   1.087   3.218 -0.3256  0.0899 -0.3680
 3108SOL    HW120957   1.088   1.145   3.156 -1.7176  1.3790  1.8152
 3108SOL    HW220958   1.174   1.158   3.266  0.5492 -0.2314 -0.6647
 3109SOL     OW20959   3.641   2.022   4.853 -0.3583 -0.6991  0.4782
 3109SOL    HW120960   3.586   1.973   4.914  0.3174 -2.6007 -0.4131
 3109SOL    HW220961   3.607   2.110   4.870  0.0333 -0.2460 -1.0732
 3110SOL     OW20962   2.141   0.725  11.146 -0.0175  0.5049 -0.1225
 3110SOL    HW120963   2.076   0.684  11.204  0.7035  2.0699  1.8006
 3110SOL    HW220964   2.207   0.739  11.213  0.5063 -0.3213 -0.4744
 3111SOL     OW20965   1.332   1.282   5.519  0.0472 -0.3543 -0.6927
 3111SOL    HW120966   1.246   1.301   5.482  0.2621 -2.0733 -2.0573
 3111SOL    HW220967   1.312   1.206   5.574  1.2659 -0.3882 -0.2980
 3112SOL     OW20968   0.847   2.821   2.350 -0.2670 -0.0922 -0.2914
 3112SOL    HW120969   0.862   2.737   2.395 -1.3036 -0.6045 -0.9134
 3112SOL    HW220970   0.815   2.789   2.266  2.0235  2.7945 -2.2818
 3113SOL     OW20971   4.614   0.685   8.735  0.3202  0.6657 -0.0336
 3113SOL    HW120972   4.612   0.598   8.695  0.9448  2.2078 -3.4111
 3113SOL    HW220973   4.526   0.692   8.771  0.3188 -0.6065  0.2398
 3114SOL     OW20974   4.204   1.372   3.339  0.2116  0.2736 -0.8886
 3114SOL    HW120975   4.296   1.391   3.354  0.2757 -0.9296  0.3313
 3114SOL    HW220976   4.192   1.396   3.248  0.4188  0.2055 -0.9334
 3115SOL     OW20977   3.227   1.288  13.124 -0.2117  0.0882  0.8396
 3115SOL    HW120978   3.295   1.352  13.102 -0.6703 -0.0393 -0.9823
 3115SOL    HW220979   3.247   1.220  13.060  0.5257  0.2269  0.9219
 3116SOL     OW20980   4.251   0.882   4.507  0.3699  0.1260 -0.1589
 3116SOL    HW120981   4.262   0.855   4.415 -2.9028  0.7848 -0.7451
 3116SOL    HW220982   4.344   0.893   4.522  0.7389 -0.5001 -1.9234
 3117SOL     OW20983   3.088   1.691   7.608  0.1861  0.1729 -0.1209
 3117SOL    HW120984   3.044   1.623   7.659 -0.0415  1.6040  1.6254
 3117SOL    HW220985   3.147   1.648   7.546  1.3925 -0.4338  1.4351
 3118SOL     OW20986   3.645   2.036   0.975  0.6982  0.1533  0.1935
 3118SOL    HW120987   3.558   2.059   1.007  0.1567  0.1712 -1.2998
 3118SOL    HW220988   3.633   1.949   0.939  2.2384 -0.7634  1.8744
 3119SOL     OW20989   2.972   0.615   5.737 -0.3657  0.4177 -0.3153
 3119SOL    HW120990   2.993   0.573   5.820  0.5963 -1.2716 -1.4216
 3119SOL    HW220991   3.030   0.690   5.730  0.8003 -0.2187  2.6029
 3120SOL     OW20992   1.268   2.562  11.065  0.1503  0.6487 -0.0873
 3120SOL    HW120993   1.180   2.599  11.057 -0.0542 -0.0378 -0.9937
 3120SOL    HW220994   1.246   2.474  11.098 -2.1036  2.2396  2.6220
 3121SOL     OW20995   3.879   4.600  10.597 -0.3569 -0.6920 -0.0552
 3121SOL    HW120996   3.892   4.694  10.601 -2.8941 -0.3656  0.5919
 3121SOL    HW220997   3.949   4.576  10.536 -0.0377 -0.1843  0.1207
 3122SOL     OW20998   0.726   0.126   7.920 -0.5022 -0.3246  0.0182
 3122SOL    HW120999   0.652   0.135   7.980 -0.6527 -0.8927 -0.0805
 3122SOL    HW221000   0.801   0.140   7.977  0.2972 -3.3020 -0.2912
 3123SOL     OW21001   3.588   4.688   2.311  0.2110 -0.9498 -0.4706
 3123SOL    HW121002   3.493   4.691   2.301  0.1946  2.4568  0.8877
 3123SOL    HW221003   3.595   0.036   2.354  1.1391 -1.5219  0.5016
 3124SOL     OW21004   2.300   2.384  10.426 -0.7286  0.3391  0.0236
 3124SOL    HW121005   2.250   2.303  10.438  0.8768 -0.7185 -0.4878
 3124SOL    HW221006   2.388   2.351  10.410 -1.4663 -0.8977 -1.5327
 3125SOL     OW21007   2.549   1.362   4.445  0.4068 -0.5646  0.3436
 3125SOL    HW121008   2.454   1.376   4.452  0.7722  0.6014  2.9289
 3125SOL    HW221009   2.560   1.268   4.433 -2.3956 -0.4160 -3.3691
 3126SOL     OW21010   0.501   3.102   4.124  0.1471 -0.4677 -0.1034
 3126SOL    HW121011   0.484   3.019   4.080  0.0940  0.1170 -1.2010
 3126SOL    HW221012   0.454   3.100   4.207 -0.7374 -0.4431 -0.5996
 3127SOL     OW21013   0.945   4.179   7.184  0.2217  0.2326 -0.3701
 3127SOL    HW121014   0.936   4.178   7.280 -0.6220 -0.1347 -0.4571
 3127SOL    HW221015   0.852   4.192   7.168 -0.2414  0.0533  2.1064
 3128SOL     OW21016   3.160   2.359  15.648 -0.0877 -0.3031 -0.1703
 3128SOL    HW121017   3.253   2.369  15.628  0.5119 -0.9150  2.4095
 3128SOL    HW221018   3.149   2.412  15.726  0.5936  0.3518 -0.5224
 3129SOL     OW21019   4.490   3.584   0.325  0.0931  0.3421  0.5713
 3129SOL    HW121020   4.428   3.556   0.258 -1.5650 -0.0206  2.2630
 3129SOL    HW221021   4.444   3.658   0.364 -1.0807  0.6571 -1.4053
 3130SOL     OW21022   0.424   4.691   8.084  0.0714  0.0501  0.3587
 3130SOL    HW121023   0.493   0.018   8.103 -1.3064  1.3596  0.9544
 3130SOL    HW221024   0.350   4.702   8.142 -0.0324 -0.8902  0.4032
 3131SOL     OW21025   1.083   2.153  16.910 -0.0419  0.3043 -0.4919
 3131SOL    HW121026   1.134   2.078  16.880 -0.3724 -0.3037  0.4852
 3131SOL    HW221027   1.040   2.191  16.834  0.3462  0.4823 -0.6235
 3132SOL     OW21028   1.957   0.258  12.212  0.4545 -0.3253  0.6854
 3132SOL    HW121029   2.017   0.186  12.193 -0.7786 -1.1898  0.1028
 3132SOL    HW221030   1.906   0.218  12.282 -1.9207  0.7975 -0.3988
 3133SOL     OW21031   1.885   1.102   7.451  0.4575 -0.1594 -0.7332
 3133SOL    HW121032   1.899   1.176   7.510 -0.0968 -1.1166  0.6023
 3133SOL    HW221033   1.805   1.123   7.404 -0.4931 -1.6106  0.2462
 3134SOL     OW21034   2.243   1.799   7.478 -0.3487  0.4175  0.0512
 3134SOL    HW121035   2.233   1.730   7.544  0.2422  0.4657  0.1987
 3134SOL    HW221036   2.154   1.821   7.452 -0.1044  0.3414 -0.8503
 3135SOL     OW21037   0.146   2.592  13.698 -0.0851 -0.2358  0.0958
 3135SOL    HW121038   0.241   2.579  13.702 -0.0373 -0.4842 -1.9211
 3135SOL    HW221039   0.112   2.548  13.776  1.7116  1.4925  1.8515
 3136SOL     OW21040   3.232   1.636   8.047  0.2646 -0.1411  0.1299
 3136SOL    HW121041   3.243   1.663   8.139 -1.9132  1.1025  0.0190
 3136SOL    HW221042   3.260   1.720   8.010 -1.9461  0.1124 -0.9496
 3137SOL     OW21043   1.803   4.012  12.713 -0.2821 -0.0455 -0.6254
 3137SOL    HW121044   1.730   4.040  12.658 -0.1002  1.4872 -0.0678
 3137SOL    HW221045   1.768   3.998  12.801 -1.3096  0.0897 -1.0135
 3138SOL     OW21046   1.345   1.012   4.663  0.4448 -1.1392  0.0301
 3138SOL    HW121047   1.342   1.099   4.703  0.7683 -1.3512  0.5148
 3138SOL    HW221048   1.255   0.992   4.638  0.6456 -1.2853 -0.5754
 3139SOL     OW21049   0.994   4.535   8.108  0.4043 -0.3776  0.3410
 3139SOL    HW121050   1.066   4.485   8.149  0.6225 -0.4959 -0.1910
 3139SOL    HW221051   0.958   4.577   8.186  0.6949  1.2515 -0.4138
 3140SOL     OW21052   2.471   4.448   6.666  0.2355 -0.3020 -0.8240
 3140SOL    HW121053   2.444   4.385   6.600  0.3176 -0.7778 -0.4048
 3140SOL    HW221054   2.386   4.468   6.705  0.2636 -0.2412 -0.7936
 3141SOL     OW21055   1.530   3.295  14.446 -0.1844  0.3927 -0.4118
 3141SOL    HW121056   1.437   3.284  14.464 -0.3241  1.5539 -0.4365
 3141SOL    HW221057   1.542   3.211  14.401  2.3290  0.1961  0.6295
 3142SOL     OW21058   3.020   4.156   6.944 -0.5490 -0.2428 -0.1056
 3142SOL    HW121059   3.072   4.082   6.975 -1.4945 -0.4153  1.0895
 3142SOL    HW221060   2.944   4.114   6.903 -0.3740  1.1045 -1.8032
 3143SOL     OW21061   2.699   0.520  11.022  0.3681 -0.0203 -0.7559
 3143SOL    HW121062   2.671   0.594  11.075 -2.6032  0.1449 -2.5286
 3143SOL    HW221063   2.764   0.564  10.968 -0.9872  0.8206 -1.6987
 3144SOL     OW21064   2.608   2.065   4.698 -0.0332  0.5376 -0.0407
 3144SOL    HW121065   2.647   2.144   4.736  0.0313  0.0120  0.9802
 3144SOL    HW221066   2.553   2.100   4.628  0.5018  1.8748  0.2036
 3145SOL     OW21067   4.054   2.146  12.152 -0.3161  0.0637  0.3177
 3145SOL    HW121068   4.137   2.183  12.184 -0.7659 -0.0223  1.5605
 3145SOL    HW221069   4.053   2.189  12.066 -0.4880 -0.0922  0.2414
 3146SOL     OW21070   4.158   4.238   5.254  0.2468 -0.3484 -0.0506
 3146SOL    HW121071   4.201   4.260   5.172 -0.2949  0.9619  0.0228
 3146SOL    HW221072   4.074   4.279   5.236  0.4111  0.7267  1.6052
 3147SOL     OW21073   2.445   4.640   7.993  0.2885  0.1363  0.2211
 3147SOL    HW121074   2.373   4.636   7.929  0.9091 -0.7650 -0.4192
 3147SOL    HW221075   2.516   4.643   7.929 -0.9244 -0.6257 -1.1686
 3148SOL     OW21076   1.284   0.587   4.772 -0.1849  0.2757 -0.3440
 3148SOL    HW121077   1.244   0.635   4.845 -0.7093  0.1604 -0.5569
 3148SOL    HW221078   1.214   0.532   4.738 -0.7622  0.4604  0.5559
 3149SOL     OW21079   4.060   3.605   6.303 -1.0725 -0.2780 -0.0376
 3149SOL    HW121080   4.116   3.614   6.225  0.7022 -2.1363  1.0136
 3149SOL    HW221081   4.044   3.511   6.295  0.3022 -0.6287  1.1652
 3150SOL     OW21082   2.777   2.201  13.049  0.8397 -0.1876  0.0767
 3150SOL    HW121083   2.781   2.292  13.020  0.9295 -0.6873 -1.4395
 3150SOL    HW221084   2.759   2.158  12.966 -1.9706  2.1495 -0.5226
 3151SOL     OW21085   0.755   1.454   9.264  0.1196  0.0354  0.1773
 3151SOL    HW121086   0.723   1.535   9.222  0.0027  0.6001  1.3472
 3151SOL    HW221087   0.708   1.398   9.202  1.6693 -0.9586 -0.0932
 3152SOL     OW21088   2.006   4.122   6.739  0.7433 -0.2381 -0.2837
 3152SOL    HW121089   2.102   4.130   6.746  0.7509 -1.5459  1.1100
 3152SOL    HW221090   1.974   4.154   6.823 -0.3110 -0.5322 -0.5841
 3153SOL     OW21091   0.142   0.369   3.394  0.7323  0.1904 -0.1981
 3153SOL    HW121092   0.218   0.331   3.350 -0.4116 -2.5741  0.2003
 3153SOL    HW221093   0.164   0.462   3.398  0.5579  0.4447 -5.1670
 3154SOL     OW21094   2.898   4.600   5.489 -0.4483  0.5238 -0.2478
 3154SOL    HW121095   2.952   4.583   5.412 -1.1160  3.1190 -1.2676
 3154SOL    HW221096   2.933   4.534   5.550  0.0985  0.4820 -0.6042
 3155SOL     OW21097   1.356   3.919  13.472 -0.2092  0.3972  0.0880
 3155SOL    HW121098   1.427   3.856  13.464  0.7603  1.5052 -0.0384
 3155SOL    HW221099   1.400   4.004  13.469  1.8420 -0.7524 -2.3992
 3156SOL     OW21100   0.413   2.316   3.871  0.4929 -0.1470  0.4544
 3156SOL    HW121101   0.345   2.378   3.847 -1.3585 -2.4764 -0.2378
 3156SOL    HW221102   0.366   2.237   3.898 -1.8192  1.0897  0.0312
 3157SOL     OW21103   1.137   2.029   0.385 -0.2628  0.2353  0.4963
 3157SOL    HW121104   1.158   2.110   0.432  0.7080 -1.2039  2.5464
 3157SOL    HW221105   1.137   1.966   0.458  0.8298 -0.1190  0.1905
 3158SOL     OW21106   1.052   2.440   3.672 -0.0577 -0.2965  0.0530
 3158SOL    HW121107   1.133   2.435   3.620 -1.4690  0.5217 -2.2547
 3158SOL    HW221108   1.090   2.422   3.758  1.1813  0.3321 -0.3637
 3159SOL     OW21109   0.605   0.867   1.352 -0.9111 -0.0246  0.3226
 3159SOL    HW121110   0.609   0.831   1.441 -1.5195  0.8888  0.7175
 3159SOL    HW221111   0.529   0.924   1.363 -0.0581  0.9674  1.1114
 3160SOL     OW21112   2.634   4.194   7.547 -0.2085 -0.5016  0.2405
 3160SOL    HW121113   2.648   4.289   7.545 -0.2447 -0.5265 -0.8463
 3160SOL    HW221114   2.637   4.170   7.640 -3.2841  0.8055  0.6877
 3161SOL     OW21115   1.383   1.510   5.220  0.0539 -0.2816  0.0470
 3161SOL    HW121116   1.477   1.505   5.237  0.2847  0.0473 -1.0994
 3161SOL    HW221117   1.379   1.606   5.227 -0.3529 -0.0592 -3.1176
 3162SOL     OW21118   1.874   1.334   3.301  0.1593  0.2130 -0.2119
 3162SOL    HW121119   1.814   1.407   3.306 -0.4132 -0.0783 -2.8245
 3162SOL    HW221120   1.836   1.268   3.359 -0.0491 -1.0648 -1.7767
 3163SOL     OW21121   3.607   4.352   9.411  0.1736 -0.1753 -0.6839
 3163SOL    HW121122   3.690   4.361   9.363  1.7917  0.9017  2.2681
 3163SOL    HW221123   3.623   4.382   9.501 -0.1830 -2.3995  0.1097
 3164SOL     OW21124   3.978   4.568   9.516 -0.6180  0.4780  0.0912
 3164SOL    HW121125   3.916   4.495   9.517  0.3618 -0.3388  2.5126
 3164SOL    HW221126   3.940   4.625   9.449  1.0993  0.6035 -0.7821
 3165SOL     OW21127   2.343   3.443   3.765  0.1350  0.5963  0.8180
 3165SOL    HW121128   2.284   3.517   3.782 -0.2729  0.1662  1.2554
 3165SOL    HW221129   2.303   3.367   3.808  1.3746  0.7040  2.1586
 3166SOL     OW21130   1.953   3.001   8.456  0.5381 -0.2347  0.1720
 3166SOL    HW121131   1.929   2.962   8.540  2.3308 -1.1021  0.2695
 3166SOL    HW221132   1.918   2.940   8.390  0.4836  1.5450 -1.4422
 3167SOL     OW21133   0.840   3.102  15.200 -0.1912 -0.4368  0.5221
 3167SOL    HW121134   0.851   3.094  15.295  2.4292 -1.7517  0.1183
 3167SOL    HW221135   0.902   3.033  15.176  2.2278  2.5696 -1.8101
 3168SOL     OW21136   0.444   3.894   5.910 -0.1364 -0.6872  0.5569
 3168SOL    HW121137   0.430   3.802   5.889  2.4162 -0.0164 -4.1259
 3168SOL    HW221138   0.504   3.886   5.984 -0.0287  1.7952  0.7394
 3169SOL     OW21139   3.383   3.771  10.090  0.0463  0.3541 -0.1463
 3169SOL    HW121140   3.351   3.854  10.126 -1.1734 -0.4113  0.4994
 3169SOL    HW221141   3.329   3.764  10.011 -1.6101  1.9485  0.8493
 3170SOL     OW21142   0.646   3.877  16.361  0.0575  0.0789 -0.9100
 3170SOL    HW121143   0.634   3.891  16.267 -0.7747  3.1928 -0.3433
 3170SOL    HW221144   0.623   3.968  16.382 -2.0779 -0.0675 -2.5954
 3171SOL     OW21145   1.324   4.215   9.254  0.1563  0.3112 -0.1460
 3171SOL    HW121146   1.251   4.263   9.214 -1.5349  0.6023  3.2033
 3171SOL    HW221147   1.281   4.166   9.324 -1.8537  2.5227  0.1660
 3172SOL     OW21148   2.894   3.614   7.676 -0.2264  0.0050  0.1008
 3172SOL    HW121149   2.809   3.622   7.633  0.0465 -0.6489 -0.5681
 3172SOL    HW221150   2.952   3.621   7.600 -3.2719  0.0324 -2.2234
 3173SOL     OW21151   4.618   2.039   9.059  0.2675  0.1912  0.0841
 3173SOL    HW121152   4.689   1.994   9.014  0.0332 -1.0169  0.9153
 3173SOL    HW221153   4.552   1.973   9.081  0.7281  0.6646  2.8975
 3174SOL     OW21154   1.029   1.230   6.007  0.6971  0.0650 -0.2497
 3174SOL    HW121155   1.068   1.311   6.042 -0.6442  0.8359 -0.5549
 3174SOL    HW221156   1.048   1.168   6.077 -0.6265 -1.6739 -1.4454
 3175SOL     OW21157   4.162   1.942   2.228  0.3886 -0.1223  0.2387
 3175SOL    HW121158   4.258   1.947   2.223  0.3057  0.0984 -1.2059
 3175SOL    HW221159   4.134   2.015   2.283  1.1303 -2.2172  3.4295
 3176SOL     OW21160   1.650   4.343   6.208  0.0709  0.1307 -0.4206
 3176SOL    HW121161   1.744   4.326   6.202 -0.1462  0.4894 -4.4060
 3176SOL    HW221162   1.619   4.306   6.291 -1.5294  3.9530  0.6750
 3177SOL     OW21163   1.521   2.431   5.576 -0.3189  0.1701 -0.8067
 3177SOL    HW121164   1.537   2.435   5.670 -0.2997  0.0617 -0.8061
 3177SOL    HW221165   1.468   2.510   5.567 -1.0852 -0.5723 -2.8916
 3178SOL     OW21166   3.738   1.764  15.441 -0.4101  0.2492  0.2119
 3178SOL    HW121167   3.656   1.775  15.490 -0.5798  1.9422 -0.4492
 3178SOL    HW221168   3.797   1.790  15.512 -2.4915  0.9915  1.6817
 3179SOL     OW21169   0.665   1.279   9.013 -0.4450 -0.9476  0.0703
 3179SOL    HW121170   0.760   1.274   9.004 -0.3567  2.6138 -0.9296
 3179SOL    HW221171   0.640   1.192   8.982 -2.4951  0.0503 -1.0762
 3180SOL     OW21172   3.657   0.769   5.207 -0.1895  0.3671 -0.1481
 3180SOL    HW121173   3.657   0.731   5.295  0.9081  1.2103  0.2110
 3180SOL    HW221174   3.656   0.695   5.147 -0.8451  0.8630 -0.7362
 3181SOL     OW21175   0.492   3.771   2.893  0.3423  0.0430  0.3377
 3181SOL    HW121176   0.488   3.863   2.867  1.9759  0.3376  1.0980
 3181SOL    HW221177   0.570   3.748   2.842  0.4692  1.3783 -0.0779
 3182SOL     OW21178   1.801   2.580   3.237 -0.0318  0.1362  0.3356
 3182SOL    HW121179   1.842   2.657   3.275  0.1298 -0.1418  0.7152
 3182SOL    HW221180   1.709   2.590   3.261 -0.1803  1.8380 -0.9423
 3183SOL     OW21181   2.718   1.896   3.279  0.2169 -0.3290 -0.7005
 3183SOL    HW121182   2.785   1.953   3.316  0.5159 -1.0189 -0.1894
 3183SOL    HW221183   2.765   1.813   3.284  1.2486  0.4150  1.7078
 3184SOL     OW21184   3.402   1.465   3.914  0.6529 -0.3634 -0.4695
 3184SOL    HW121185   3.420   1.453   3.821  2.7828 -1.1923  0.0586
 3184SOL    HW221186   3.424   1.375   3.935 -1.1701 -0.6005  0.5070
 3185SOL     OW21187   0.300   2.885   9.902 -0.4887  0.3600 -0.0793
 3185SOL    HW121188   0.315   2.902   9.995  2.2600  0.5075 -0.5572
 3185SOL    HW221189   0.305   2.790   9.896  0.5597  0.3121  1.5765
 3186SOL     OW21190   0.644   2.628   2.502  0.1381  0.6342  0.2478
 3186SOL    HW121191   0.615   2.719   2.505  1.1473  0.9469  0.2241
 3186SOL    HW221192   0.680   2.627   2.590  0.5444 -0.9421  0.0652
 3187SOL     OW21193   3.548   1.023   5.479  0.0519 -0.1261  0.0586
 3187SOL    HW121194   3.527   1.107   5.519  0.8143 -0.0371  0.2790
 3187SOL    HW221195   3.464   0.994   5.444 -0.7504  2.4957 -0.1716
 3188SOL     OW21196   3.485   1.782   3.356 -0.1187 -0.0264  0.4312
 3188SOL    HW121197   3.564   1.756   3.310  0.1035  0.8335  0.3331
 3188SOL    HW221198   3.491   1.877   3.360 -0.2965  0.0340 -0.9354
 3189SOL     OW21199   4.334   2.438   6.764 -0.1586  0.6095  0.3731
 3189SOL    HW121200   4.317   2.447   6.858 -0.1829 -1.4736  0.5632
 3189SOL    HW221201   4.430   2.441   6.754  0.0150 -0.4207  1.7521
 3190SOL     OW21202   2.516   4.098   9.536  0.0442 -0.0426 -0.6011
 3190SOL    HW121203   2.461   4.110   9.614  0.5750  1.8570 -0.5276
 3190SOL    HW221204   2.464   4.106   9.456  1.8334 -1.2032 -1.8815
 3191SOL     OW21205   0.799   2.960   1.071  0.0999 -0.4438 -0.0784
 3191SOL    HW121206   0.754   3.025   1.018 -0.3461 -1.0336 -0.4212
 3191SOL    HW221207   0.799   2.889   1.006 -1.9381 -1.7040  1.2842
 3192SOL     OW21208   1.340   0.557   6.177  0.2608 -0.0626 -0.1495
 3192SOL    HW121209   1.344   0.543   6.272 -0.7090  1.3101  0.0988
 3192SOL    HW221210   1.303   0.474   6.150 -1.3598  0.1567  1.4025
 3193SOL     OW21211   0.107   1.816   7.451  0.1477 -0.3603 -0.1581
 3193SOL    HW121212   0.067   1.750   7.508 -1.3362  0.0430 -0.7286
 3193SOL    HW221213   0.087   1.779   7.365  1.7026  0.7985 -1.0303
 3194SOL     OW21214   1.043   3.095   8.731 -0.2520 -0.2435  0.2148
 3194SOL    HW121215   0.961   3.140   8.750 -0.2899  0.3674 -1.3049
 3194SOL    HW221216   1.064   3.139   8.648 -0.0020  0.3268  0.5811
 3195SOL     OW21217   0.939   4.556  10.644  0.2620 -0.1386 -0.0306
 3195SOL    HW121218   0.954   4.627  10.706  2.1870 -2.2599  1.9300
 3195SOL    HW221219   0.930   4.475  10.695  1.4126  0.8096  1.6694
 3196SOL     OW21220   0.673   3.017  17.224  0.4277 -0.4277 -0.7293
 3196SOL    HW121221   0.631   3.078  17.164  0.6668  0.4298 -0.0215
 3196SOL    HW221222   0.619   3.040  17.299  0.9865 -0.1999 -0.3928
 3197SOL     OW21223   4.684   1.117   8.032  0.1641  0.3075  0.4098
 3197SOL    HW121224   4.631   1.060   8.088 -0.3638 -1.0137 -1.4092
 3197SOL    HW221225   4.617   1.169   7.986 -0.2295  0.9452  1.7248
 3198SOL     OW21226   4.246   1.649   1.806  0.1798  0.2826 -0.2424
 3198SOL    HW121227   4.312   1.672   1.871 -1.4577  0.2744  1.4395
 3198SOL    HW221228   4.167   1.647   1.861  1.3895 -1.8168  1.4329
 3199SOL     OW21229   3.409   0.737   1.664 -0.4885 -0.1552 -0.4420
 3199SOL    HW121230   3.497   0.705   1.683 -0.9642 -0.1505  1.8607
 3199SOL    HW221231   3.406   0.823   1.708 -1.8529  0.7310 -2.2720
 3200SOL     OW21232   1.767   4.441  11.130  0.7405 -0.3066 -0.1100
 3200SOL    HW121233   1.711   4.396  11.068  0.3924  1.2749 -0.9294
 3200SOL    HW221234   1.788   4.527  11.095 -0.0477 -0.5745 -1.2064
 3201SOL     OW21235   3.270   4.314   3.962  0.6414  0.2726 -0.1761
 3201SOL    HW121236   3.186   4.356   3.975  0.3492 -1.1622  2.6305
 3201SOL    HW221237   3.242   4.224   3.946  1.0109  0.2108 -0.4890
 3202SOL     OW21238   0.032   2.781   1.445  0.1007 -0.1300 -0.1910
 3202SOL    HW121239   4.731   2.850   1.391 -0.0938 -0.4436 -0.4601
 3202SOL    HW221240   0.045   2.827   1.528 -0.4291  2.8213 -1.7532
 3203SOL     OW21241   0.854   2.357   4.769  0.2726  0.2308 -0.4678
 3203SOL    HW121242   0.936   2.311   4.753 -0.5899 -1.3487 -0.2801
 3203SOL    HW221243   0.802   2.295   4.819 -0.4934  1.0481 -0.2593
 3204SOL     OW21244   2.465   2.893   6.943  0.2586 -0.2724 -0.8682
 3204SOL    HW121245   2.411   2.828   6.898 -1.5683 -0.7072  1.9115
 3204SOL    HW221246   2.477   2.850   7.028  0.5873  0.0052 -0.7733
 3205SOL     OW21247   3.977   3.477   9.361  0.2383  0.0152 -0.5388
 3205SOL    HW121248   3.971   3.466   9.455  0.7202  1.0764 -0.3879
 3205SOL    HW221249   3.884   3.493   9.346 -0.2866 -1.8197  0.7104
 3206SOL     OW21250   1.018   3.954   7.549 -0.0218  0.2044 -0.3743
 3206SOL    HW121251   0.983   4.043   7.536 -1.5099 -0.1440  1.2107
 3206SOL    HW221252   1.061   3.942   7.464 -0.7069 -0.8218 -0.5723
 3207SOL     OW21253   3.831   1.736   2.887 -0.4934  0.0121  0.0198
 3207SOL    HW121254   3.844   1.641   2.879 -0.0933 -0.0134  0.9676
 3207SOL    HW221255   3.908   1.754   2.941 -0.7970  0.0869  0.4314
 3208SOL     OW21256   1.260   0.390   7.064 -0.1874 -0.0121  0.0475
 3208SOL    HW121257   1.290   0.300   7.057  0.5605  0.1987  0.6050
 3208SOL    HW221258   1.173   0.377   7.027 -0.6460  0.9475  0.7683
 3209SOL     OW21259   2.959   4.144   5.204 -0.6465  0.3675  0.2071
 3209SOL    HW121260   3.011   4.096   5.140 -1.2409 -3.0280  2.2844
 3209SOL    HW221261   3.021   4.196   5.256 -1.7811  0.2763  1.6540
 3210SOL     OW21262   0.787   0.583   9.656  0.4193  0.3385  0.5112
 3210SOL    HW121263   0.718   0.526   9.690 -0.1435 -0.3056 -1.7216
 3210SOL    HW221264   0.765   0.610   9.567  2.5680  1.2950  0.2865
 3211SOL     OW21265   3.603   0.761   7.187  0.0236  0.4754 -0.1094
 3211SOL    HW121266   3.570   0.685   7.139 -2.5216  1.5383 -0.0322
 3211SOL    HW221267   3.657   0.719   7.254 -0.2925 -2.5627 -1.7820
 3212SOL     OW21268   0.669   3.662  16.236  0.3568  0.0741 -0.1825
 3212SOL    HW121269   0.675   3.732  16.301 -1.0872  2.2421 -2.3709
 3212SOL    HW221270   0.607   3.684  16.167 -1.2399 -1.2657  0.8406
 3213SOL     OW21271   1.489   2.300   6.957  0.0953 -0.3222  0.5011
 3213SOL    HW121272   1.439   2.338   7.029  0.3499 -0.4403  0.7360
 3213SOL    HW221273   1.411   2.276   6.907  0.6578 -1.1724  0.0172
 3214SOL     OW21274   0.537   0.639   2.290  0.2991  1.0092  0.3401
 3214SOL    HW121275   0.460   0.675   2.246 -0.4259 -0.2765  0.5373
 3214SOL    HW221276   0.609   0.699   2.268  0.9327  0.9662  2.3235
 3215SOL     OW21277   3.290   0.995   8.560  0.3135  0.2698 -0.2717
 3215SOL    HW121278   3.385   0.986   8.554  0.5310  0.7382  2.3360
 3215SOL    HW221279   3.268   0.991   8.467 -1.9339 -0.9013  0.3030
 3216SOL     OW21280   3.377   2.740   7.527 -0.3339  0.5914 -0.3940
 3216SOL    HW121281   3.287   2.716   7.551 -1.4531  2.2083 -2.9120
 3216SOL    HW221282   3.350   2.778   7.443  1.3269 -0.6437 -1.4674
 3217SOL     OW21283   3.222   0.774  10.829  0.2305  0.4514  0.7191
 3217SOL    HW121284   3.186   0.706  10.771  1.0087 -0.6946  1.5728
 3217SOL    HW221285   3.239   0.841  10.763  2.5359 -1.9606 -1.1760
 3218SOL     OW21286   4.328   0.711   7.664  0.5802 -0.1094 -0.2928
 3218SOL    HW121287   4.310   0.747   7.751  1.9398  0.0516 -0.0775
 3218SOL    HW221288   4.420   0.724   7.643  1.0809 -0.6463  1.5166
 3219SOL     OW21289   3.294   4.189   4.515  0.8954 -0.1714  0.2745
 3219SOL    HW121290   3.383   4.224   4.509  0.8343  0.1611  1.2577
 3219SOL    HW221291   3.256   4.209   4.430 -0.4634  0.3878  1.0123
 3220SOL     OW21292   1.742   2.586   1.830  0.0135 -0.4226  0.4646
 3220SOL    HW121293   1.760   2.576   1.924 -1.2734  1.5752  0.9240
 3220SOL    HW221294   1.689   2.508   1.816 -0.2290 -0.1266 -0.2384
 3221SOL     OW21295   4.732   0.148   8.031  0.2779 -0.6736  0.2879
 3221SOL    HW121296   4.657   0.102   8.069 -1.6183  1.1224 -1.2761
 3221SOL    HW221297   4.696   0.165   7.944 -1.4364 -0.7089  0.9901
 3222SOL     OW21298   2.748   1.942   4.913  0.0515  0.0210 -0.0775
 3222SOL    HW121299   2.830   1.939   4.864  1.0276  2.0935  1.4535
 3222SOL    HW221300   2.690   1.978   4.846 -2.0609 -0.4306  1.5055
 3223SOL     OW21301   1.590   3.289  12.171 -0.0355 -0.1711  0.0342
 3223SOL    HW121302   1.638   3.222  12.220  0.5363 -0.1311 -0.4763
 3223SOL    HW221303   1.647   3.360  12.140 -1.8066  0.5928 -1.4662
 3224SOL     OW21304   2.796   1.597   8.555 -0.4974 -0.2246 -0.7686
 3224SOL    HW121305   2.809   1.616   8.648  0.4354  0.4389 -1.0324
 3224SOL    HW221306   2.731   1.662   8.528 -0.2248  0.4367  0.1659
 3225SOL     OW21307   3.230   3.004   7.815  0.4890  0.0433 -0.1630
 3225SOL    HW121308   3.307   2.982   7.868  0.0690  1.9201  1.2266
 3225SOL    HW221309   3.273   3.054   7.746  0.2385  0.7341  0.1906
 3226SOL     OW21310   1.315   2.121   4.588  0.5796  0.4978 -0.1819
 3226SOL    HW121311   1.361   2.204   4.578  0.4997  0.6341  0.6628
 3226SOL    HW221312   1.336   2.100   4.678  1.7392  1.0830 -0.3201
 3227SOL     OW21313   3.842   3.873   9.337  0.7685  0.5078 -0.4757
 3227SOL    HW121314   3.835   3.969   9.332  1.7422  0.5157 -1.8263
 3227SOL    HW221315   3.783   3.844   9.268 -1.5849 -1.4530  2.4034
 3228SOL     OW21316   4.709   1.380   3.641 -0.2014 -0.3181 -0.3119
 3228SOL    HW121317   0.056   1.335   3.650 -0.9415 -1.4719  0.8152
 3228SOL    HW221318   4.709   1.438   3.718  1.2573  0.9056 -1.2520
 3229SOL     OW21319   3.242   1.707   8.337 -0.5443 -0.3672 -0.2623
 3229SOL    HW121320   3.280   1.751   8.414 -2.7066 -1.9281  1.6999
 3229SOL    HW221321   3.161   1.755   8.320  0.4670  0.4366 -2.7351
 3230SOL     OW21322   1.328   2.288   2.497  0.2191  0.0472 -0.2297
 3230SOL    HW121323   1.306   2.220   2.434 -0.1139 -0.1490  0.0962
 3230SOL    HW221324   1.258   2.352   2.483 -0.8439 -0.9485  0.5049
 3231SOL     OW21325   4.000   2.291   4.921  0.4174  0.0259 -0.7014
 3231SOL    HW121326   4.091   2.269   4.937  0.5743  1.0666 -0.1934
 3231SOL    HW221327   3.989   2.372   4.971 -0.1942  0.0369 -0.8454
 3232SOL     OW21328   2.169   1.171   6.285 -0.0558 -0.1617  0.5210
 3232SOL    HW121329   2.192   1.213   6.368  0.5291 -0.4079  0.4804
 3232SOL    HW221330   2.094   1.228   6.268 -0.6853 -1.1656 -0.0651
 3233SOL     OW21331   4.272   4.219   7.475  0.0565 -0.7436 -0.5641
 3233SOL    HW121332   4.215   4.286   7.440 -0.2962 -0.7574 -0.0151
 3233SOL    HW221333   4.355   4.262   7.495 -0.6742  2.1529 -3.9298
 3234SOL     OW21334   4.618   3.438   4.032 -0.4475 -0.3970 -0.7559
 3234SOL    HW121335   4.606   3.532   4.044  0.0119 -0.6018  1.2335
 3234SOL    HW221336   4.712   3.425   4.034 -0.4673 -0.5082 -0.5769
 3235SOL     OW21337   2.017   0.237  11.218 -0.4484  0.2349 -0.2408
 3235SOL    HW121338   2.101   0.282  11.218 -0.6958  0.6870 -1.2057
 3235SOL    HW221339   2.003   0.226  11.124  1.2207 -2.6281 -0.1557
 3236SOL     OW21340   2.504   0.241  16.219 -0.0964  0.3899 -0.7263
 3236SOL    HW121341   2.553   0.313  16.179  1.1262  0.2794  0.5562
 3236SOL    HW221342   2.447   0.217  16.146 -0.2315  1.0594 -0.8415
 3237SOL     OW21343   2.753   1.554   5.276  0.5124 -0.3825  0.0863
 3237SOL    HW121344   2.702   1.625   5.237 -1.3669 -1.6391  0.2850
 3237SOL    HW221345   2.779   1.585   5.363 -0.4941  0.7561 -0.0201
 3238SOL     OW21346   2.943   1.699   5.776 -0.2135 -0.2385  0.1323
 3238SOL    HW121347   2.902   1.658   5.852 -1.9274 -1.8778 -1.6762
 3238SOL    HW221348   3.009   1.631   5.763 -2.5595 -2.2554 -1.1556
 3239SOL     OW21349   1.000   3.592  15.147  0.1214 -0.6393  0.5968
 3239SOL    HW121350   0.990   3.498  15.163  0.6217 -0.6950  0.5817
 3239SOL    HW221351   0.986   3.622  15.237  0.1395 -1.0378  0.7311
 3240SOL     OW21352   1.468   0.209  12.556 -0.0797 -0.7748 -0.8201
 3240SOL    HW121353   1.518   0.194  12.637 -0.2302  2.3296 -0.1427
 3240SOL    HW221354   1.444   0.121  12.530 -2.4876 -0.9166  1.9022
 3241SOL     OW21355   3.500   1.001   5.790 -0.3913 -0.4112 -0.0238
 3241SOL    HW121356   3.562   1.073   5.800 -0.5745 -0.2017 -0.4390
 3241SOL    HW221357   3.533   0.975   5.704  2.3308 -2.1372  1.5219
 3242SOL     OW21358   0.308   0.728   0.123 -0.3763 -0.3271 -0.0045
 3242SOL    HW121359   0.388   0.741   0.072  0.0971  0.2370  0.8878
 3242SOL    HW221360   0.332   0.696   0.210 -1.9714 -1.0071  0.1913
 3243SOL     OW21361   0.491   3.536   5.132 -0.1112 -0.1408 -0.0649
 3243SOL    HW121362   0.581   3.535   5.098 -0.5027  2.9882 -1.1346
 3243SOL    HW221363   0.503   3.613   5.187  1.9898  0.6476 -1.6076
 3244SOL     OW21364   4.557   1.255   3.374 -0.1234 -0.3084 -0.6866
 3244SOL    HW121365   4.536   1.326   3.313 -0.7186  1.5117  1.6276
 3244SOL    HW221366   4.604   1.297   3.446 -1.1977  0.7578 -0.6120
 3245SOL     OW21367   3.786   2.095   6.026  0.3556 -0.4620  0.0871
 3245SOL    HW121368   3.730   2.103   6.103  2.5306  0.8300  1.5319
 3245SOL    HW221369   3.717   2.103   5.960 -1.9415 -0.4624  2.4891
 3246SOL     OW21370   4.055   0.261  13.405  0.2323  0.2505  0.4130
 3246SOL    HW121371   4.102   0.267  13.488  1.5146 -2.6977 -0.0934
 3246SOL    HW221372   4.125   0.217  13.356  1.3996  2.2128  0.3421
 3247SOL     OW21373   0.422   0.924   8.510  0.1281  0.0736 -0.0779
 3247SOL    HW121374   0.448   1.016   8.508  0.6389 -0.0985 -2.6374
 3247SOL    HW221375   0.352   0.918   8.574  0.4768  0.0925  0.3015
 3248SOL     OW21376   4.009   1.089   7.576  0.3083  0.0671 -0.3945
 3248SOL    HW121377   3.943   1.158   7.574  0.5144  0.2319 -1.3249
 3248SOL    HW221378   4.025   1.069   7.669 -0.2550  1.7757  0.0676
 3249SOL     OW21379   3.211   1.431   6.864 -0.1183  0.0033 -0.1992
 3249SOL    HW121380   3.176   1.381   6.938  1.4596  1.0503  1.2766
 3249SOL    HW221381   3.215   1.520   6.900 -2.0993 -0.4921  1.1942
 3250SOL     OW21382   1.163   1.331   2.397  0.1570  0.4310 -0.3112
 3250SOL    HW121383   1.126   1.265   2.338  2.2436  0.8362 -2.0901
 3250SOL    HW221384   1.257   1.316   2.386  0.2456  0.2820  0.6662
 3251SOL     OW21385   0.836   4.356   3.223 -0.8484 -0.0413 -0.2399
 3251SOL    HW121386   0.890   4.436   3.220 -0.5750 -0.2471 -0.9273
 3251SOL    HW221387   0.880   4.319   3.299 -1.5049 -0.4554 -0.0688
 3252SOL     OW21388   1.929   0.937  12.068 -0.7421  0.3648 -0.0420
 3252SOL    HW121389   1.898   1.001  12.132  1.1799  0.6019  0.6322
 3252SOL    HW221390   1.940   0.980  11.983 -1.8070  0.3725 -0.1743
 3253SOL     OW21391   3.748   1.881  14.321  0.4388 -0.6738 -0.2282
 3253SOL    HW121392   3.814   1.827  14.365  0.7767 -0.9753 -1.1050
 3253SOL    HW221393   3.790   1.878  14.235 -0.2839  2.1043 -0.6632
 3254SOL     OW21394   3.310   1.320   8.242 -0.1627 -0.0233  0.3775
 3254SOL    HW121395   3.260   1.349   8.319 -0.9272  0.8426 -0.4521
 3254SOL    HW221396   3.241   1.272   8.198  1.0230 -0.2226 -1.2474
 3255SOL     OW21397   1.329   2.813   5.074 -0.1197 -0.1420  0.0238
 3255SOL    HW121398   1.266   2.801   5.146 -1.7808  2.1823 -1.0504
 3255SOL    HW221399   1.289   2.881   5.020 -1.0237 -0.9052 -0.2685
 3256SOL     OW21400   0.522   2.801   5.640  0.8025  0.5205 -0.2984
 3256SOL    HW121401   0.498   2.849   5.719 -0.4433 -0.5261 -0.0504
 3256SOL    HW221402   0.556   2.862   5.574  0.8849  0.7433 -0.0511
 3257SOL     OW21403   0.898   2.200   3.535  0.1915  0.2756  0.2643
 3257SOL    HW121404   0.978   2.166   3.576  0.1236 -1.1914 -0.8244
 3257SOL    HW221405   0.870   2.262   3.603  0.3946 -0.3026  0.8767
 3258SOL     OW21406   2.874   4.630  16.182  0.2217 -0.1711  0.0196
 3258SOL    HW121407   2.900   4.664  16.267 -2.9189  1.5945  0.2436
 3258SOL    HW221408   2.952   4.625  16.126 -0.2499  1.2282 -0.7526
 3259SOL     OW21409   1.706   4.008   3.765 -0.5950 -0.0051 -0.3768
 3259SOL    HW121410   1.656   4.088   3.783 -0.4761  0.1223 -0.6147
 3259SOL    HW221411   1.791   4.043   3.791 -0.4981 -0.4236 -0.1305
 3260SOL     OW21412   3.936   3.185  11.642  0.4219 -0.1898  0.2970
 3260SOL    HW121413   3.995   3.109  11.650  1.0013  0.3276  0.9172
 3260SOL    HW221414   3.922   3.193  11.736 -0.0259  0.7631  0.1479
 3261SOL     OW21415   1.331   3.520   7.000 -0.0726 -0.1601  0.3758
 3261SOL    HW121416   1.309   3.587   7.065  0.6424 -1.3155  1.8088
 3261SOL    HW221417   1.358   3.579   6.929  0.1692  0.2389  0.8002
 3262SOL     OW21418   2.289   1.443  17.721 -0.0492 -0.2676 -0.4034
 3262SOL    HW121419   2.312   1.504  17.651 -1.1804 -1.3213 -1.6835
 3262SOL    HW221420   2.195   1.447  17.702 -0.0466 -1.4821 -0.6761
 3263SOL     OW21421   1.976   0.164   6.407  0.4754 -0.3585 -0.0719
 3263SOL    HW121422   2.044   0.119   6.357 -0.5429 -1.3957 -0.5247
 3263SOL    HW221423   2.023   0.248   6.410  0.0950 -0.2365  3.0785
 3264SOL     OW21424   3.149   3.870  15.101 -0.2670  0.4558 -0.3790
 3264SOL    HW121425   3.202   3.860  15.022  0.0938  1.6989 -0.3031
 3264SOL    HW221426   3.062   3.851  15.066 -1.0310 -0.0055  1.7584
 3265SOL     OW21427   2.138   1.749   6.621 -0.2097  0.0698 -0.2572
 3265SOL    HW121428   2.178   1.667   6.650  1.9459  1.8205  1.7159
 3265SOL    HW221429   2.048   1.752   6.653  0.2836 -1.4008  1.2834
 3266SOL     OW21430   1.350   1.526   2.194 -0.3231 -0.0161  0.2012
 3266SOL    HW121431   1.281   1.544   2.130  0.0977 -0.4699 -0.3804
 3266SOL    HW221432   1.434   1.527   2.147 -1.4032 -0.8340 -1.7372
 3267SOL     OW21433   3.611   4.322   8.515 -0.3751 -0.1015 -0.7776
 3267SOL    HW121434   3.553   4.327   8.590  0.5196 -1.8291  0.0310
 3267SOL    HW221435   3.570   4.369   8.442  1.7343 -0.4338 -2.1811
 3268SOL     OW21436   0.395   2.513  13.752  0.4870 -0.6473 -0.1352
 3268SOL    HW121437   0.379   2.449  13.821 -0.1940  1.4474  1.6659
 3268SOL    HW221438   0.464   2.464  13.709  0.2438 -0.2945 -0.9337
 3269SOL     OW21439   0.399   0.921   4.221  0.0320 -0.3041 -0.1629
 3269SOL    HW121440   0.415   0.863   4.146  0.9020  1.9268 -1.7102
 3269SOL    HW221441   0.338   0.988   4.191  1.3805  1.5962  1.3711
 3270SOL     OW21442   4.244   0.025   8.189  0.3525  0.3419  0.3204
 3270SOL    HW121443   4.185   0.054   8.119  1.0621  0.3863 -0.2554
 3270SOL    HW221444   4.219   0.070   8.270  1.4035  2.8406 -0.7497
 3271SOL     OW21445   2.227   4.675   5.792  0.5193 -0.1401 -0.1822
 3271SOL    HW121446   2.159   4.654   5.728 -0.3135  0.9475  0.3562
 3271SOL    HW221447   2.272   0.012   5.752  0.8875 -0.3825 -0.2208
 3272SOL     OW21448   2.890   1.220   1.906 -0.2116  0.4649 -0.3812
 3272SOL    HW121449   2.905   1.314   1.897 -1.2258  0.6392 -0.1969
 3272SOL    HW221450   2.982   1.196   1.911 -0.9095 -1.6421  1.7585
 3273SOL     OW21451   4.087   3.314   8.488  0.4981  0.2621 -0.2686
 3273SOL    HW121452   4.085   3.249   8.559 -1.4668  1.4308  0.7411
 3273SOL    HW221453   3.994   3.318   8.466 -0.3282 -2.8433  2.6323
 3274SOL     OW21454   1.591   0.312   8.639  0.2380 -0.0830 -0.0708
 3274SOL    HW121455   1.605   0.271   8.724  0.9304  0.8910  0.2786
 3274SOL    HW221456   1.594   0.405   8.661  0.1629  0.0880 -0.7964
 3275SOL     OW21457   1.285   1.408   7.627 -0.3430  0.8942 -0.3219
 3275SOL    HW121458   1.194   1.388   7.649  0.0024  2.2002  2.2757
 3275SOL    HW221459   1.303   1.364   7.543 -3.0621 -0.1825 -0.3396
 3276SOL     OW21460   1.550   1.082  15.750  0.7588 -0.5319 -0.2208
 3276SOL    HW121461   1.544   1.050  15.840 -0.9908 -0.7224 -0.4132
 3276SOL    HW221462   1.460   1.074  15.721  0.4490 -2.6534  1.2769
 3277SOL     OW21463   1.396   0.514  12.842  0.0035 -0.7535 -0.1667
 3277SOL    HW121464   1.372   0.602  12.871  2.4718 -0.6599  1.5297
 3277SOL    HW221465   1.475   0.529  12.790 -1.2332  0.1005 -1.7866
 3278SOL     OW21466   4.722   1.533  14.371 -0.0642 -0.2324  0.1469
 3278SOL    HW121467   4.693   1.449  14.337 -0.4845 -0.1223  0.2350
 3278SOL    HW221468   0.064   1.562  14.326  0.7232  0.0078  1.6573
 3279SOL     OW21469   1.520   0.710   0.608 -0.0504  0.4681 -0.1631
 3279SOL    HW121470   1.493   0.627   0.649  2.5336 -0.8398 -1.1170
 3279SOL    HW221471   1.611   0.703   0.635 -0.3981  0.8434  1.1049
 3280SOL     OW21472   2.786   0.677   8.344 -0.5488 -0.1315 -0.5346
 3280SOL    HW121473   2.726   0.714   8.409  1.0083  2.3703 -0.4942
 3280SOL    HW221474   2.722   0.627   8.293 -1.1196  0.5760 -0.5140
 3281SOL     OW21475   0.575   0.129   2.840  0.0252  0.3163 -0.0190
 3281SOL    HW121476   0.551   0.044   2.803 -1.2793  0.6852 -0.0259
 3281SOL    HW221477   0.575   0.182   2.760  0.4617  0.3521  0.0076
 3282SOL     OW21478   1.008   2.460   2.731 -0.6124  0.0073  0.4656
 3282SOL    HW121479   1.053   2.441   2.648  1.2629 -1.0160  1.7232
 3282SOL    HW221480   1.010   2.555   2.733  0.9660 -0.1121  3.9132
 3283SOL     OW21481   2.386   3.058   3.054  0.3249  0.2583  0.0188
 3283SOL    HW121482   2.476   3.085   3.037 -0.6194  2.7746 -1.0492
 3283SOL    HW221483   2.333   3.116   2.998 -0.2241 -1.5841 -1.3711
 3284SOL     OW21484   3.630   1.681   5.146 -0.2268 -0.0155  0.2861
 3284SOL    HW121485   3.695   1.664   5.215  0.2242 -3.4461 -0.9809
 3284SOL    HW221486   3.610   1.773   5.163  0.1994  0.1295 -0.0232
 3285SOL     OW21487   0.435   3.768   5.306 -0.2735 -0.0284 -0.2399
 3285SOL    HW121488   0.485   3.849   5.305  1.3851 -1.0246  0.5123
 3285SOL    HW221489   0.351   3.813   5.312 -0.1253  0.3291 -0.8438
 3286SOL     OW21490   4.094   1.710  10.479 -0.4020 -0.0747  0.0853
 3286SOL    HW121491   4.020   1.733  10.536 -1.5281 -3.0771 -0.1826
 3286SOL    HW221492   4.114   1.802  10.463  1.7040 -0.2013  1.9533
 3287SOL     OW21493   3.145   4.263   2.525 -0.3937  0.3025  0.4732
 3287SOL    HW121494   3.169   4.198   2.460  0.1804  0.4964  0.4939
 3287SOL    HW221495   3.110   4.199   2.587 -1.4973  0.3363 -0.1078
 3288SOL     OW21496   2.819   2.749   7.656 -0.0698  0.4184  0.2223
 3288SOL    HW121497   2.832   2.791   7.571  0.7963  1.2191  0.7568
 3288SOL    HW221498   2.890   2.785   7.709 -0.7457  2.7027 -0.4166
 3289SOL     OW21499   0.529   2.896   1.559 -0.0564  0.5578 -0.3498
 3289SOL    HW121500   0.434   2.891   1.566 -0.1912  3.0597 -0.7020
 3289SOL    HW221501   0.554   2.817   1.510 -1.7464 -0.6610  0.7652
 3290SOL     OW21502   1.840   1.870   0.229 -0.0487  0.1504 -0.1851
 3290SOL    HW121503   1.826   1.948   0.283  2.8230 -0.1524  1.0311
 3290SOL    HW221504   1.787   1.806   0.276 -1.4845  0.7365 -1.0173
 3291SOL     OW21505   2.577   0.031   7.626 -0.1948  0.4744 -0.5316
 3291SOL    HW121506   2.522   0.110   7.626 -0.4994  0.2709  3.1029
 3291SOL    HW221507   2.607   0.017   7.536  1.2957 -1.2037  0.2311
 3292SOL     OW21508   1.622   0.268  11.800  0.8350 -0.0933  0.3292
 3292SOL    HW121509   1.687   0.298  11.863  0.2784  1.0190  0.3677
 3292SOL    HW221510   1.624   0.337  11.733 -1.4953  0.0120  0.3617
 3293SOL     OW21511   2.362   3.423  15.244  0.6005 -0.0020  0.3817
 3293SOL    HW121512   2.410   3.350  15.206 -0.5874 -0.8822  0.5771
 3293SOL    HW221513   2.304   3.446  15.171  4.1657 -3.0852 -3.3667
 3294SOL     OW21514   2.641   1.719  11.636 -0.4370  0.1956  0.2311
 3294SOL    HW121515   2.603   1.707  11.549  0.8964  0.6850 -0.4190
 3294SOL    HW221516   2.579   1.781  11.675  1.1747  2.2307 -0.3991
 3295SOL     OW21517   3.536   1.927  14.525 -0.9161  0.6058 -0.5830
 3295SOL    HW121518   3.577   1.872  14.591 -2.4182 -2.3401 -2.0812
 3295SOL    HW221519   3.598   1.913  14.453  1.4577 -0.5833  1.6888
 3296SOL     OW21520   2.399   0.739   7.401  0.0397 -0.3367 -0.1175
 3296SOL    HW121521   2.442   0.751   7.317 -1.8119 -2.2465 -1.3498
 3296SOL    HW221522   2.457   0.678   7.446 -1.8430 -0.8207  1.6509
 3297SOL     OW21523   2.695   3.422   1.330 -0.1693  0.1019 -0.7359
 3297SOL    HW121524   2.733   3.344   1.289 -1.9835 -0.9271 -0.4252
 3297SOL    HW221525   2.737   3.422   1.416  1.1200  3.9152 -1.3606
 3298SOL     OW21526   0.675   4.500   6.358 -0.4658  0.6074 -0.3556
 3298SOL    HW121527   0.621   4.547   6.421 -1.1783  1.5611 -1.6883
 3298SOL    HW221528   0.629   4.416   6.357 -2.2883  1.5631  2.3227
 3299SOL     OW21529   3.346   4.227   6.784  0.0751  0.0060  0.6473
 3299SOL    HW121530   3.365   4.162   6.851 -0.8876 -1.2753 -0.3360
 3299SOL    HW221531   3.279   4.180   6.734  0.1625  0.1534  0.3938
 3300SOL     OW21532   1.645   1.380   4.459 -0.3533 -0.0056  0.5880
 3300SOL    HW121533   1.550   1.390   4.451 -0.5416 -0.6709  2.1346
 3300SOL    HW221534   1.657   1.310   4.395 -0.9336 -1.7277  2.4079
 3301SOL     OW21535   4.208   1.069   1.747  0.1748 -0.1848  0.3825
 3301SOL    HW121536   4.267   1.068   1.823  2.2999 -0.6036 -1.2743
 3301SOL    HW221537   4.168   1.156   1.750 -0.3171 -0.5147  3.1955
 3302SOL     OW21538   3.831   2.204   1.366 -0.8017 -0.2875  0.2312
 3302SOL    HW121539   3.809   2.296   1.357  0.4231 -0.1452 -1.4850
 3302SOL    HW221540   3.836   2.169   1.276  0.6135 -0.4829  0.3862
 3303SOL     OW21541   2.730   2.885   6.457 -0.2586  0.3142  0.1725
 3303SOL    HW121542   2.698   2.886   6.366  1.2342  2.3943 -0.3197
 3303SOL    HW221543   2.674   2.818   6.496  1.6229 -1.6465 -0.5271
 3304SOL     OW21544   0.182   2.156  13.033  0.0681  0.1543 -0.6323
 3304SOL    HW121545   0.230   2.074  13.021 -1.3844 -0.8786  0.7809
 3304SOL    HW221546   0.191   2.191  12.944  1.4707  1.2216 -0.0719
 3305SOL     OW21547   0.103   1.600  11.155 -0.2430 -0.0783 -0.0972
 3305SOL    HW121548   0.138   1.511  11.152 -3.2696 -1.2422 -0.7240
 3305SOL    HW221549   0.093   1.623  11.062 -0.2656 -0.5495 -0.2115
 3306SOL     OW21550   2.049   2.117   6.457 -0.4213  0.0171  0.0393
 3306SOL    HW121551   2.063   2.070   6.539  2.6304  0.5088 -0.1988
 3306SOL    HW221552   2.081   2.200   6.493 -0.9114 -0.1803  0.9348
 3307SOL     OW21553   1.314   0.365  10.706 -0.4809 -0.0379 -0.0288
 3307SOL    HW121554   1.285   0.279  10.676 -0.2790 -0.1760  0.1771
 3307SOL    HW221555   1.229   0.410  10.710 -0.9388 -0.8644 -0.5405
 3308SOL     OW21556   0.512   1.311   0.734 -0.2819 -0.0389  0.0045
 3308SOL    HW121557   0.581   1.253   0.767 -1.1456 -1.0958 -0.0500
 3308SOL    HW221558   0.463   1.248   0.683  1.4761  1.2550 -3.2715
 3309SOL     OW21559   2.905   0.343  13.766  0.3201 -0.0324 -0.2292
 3309SOL    HW121560   2.855   0.318  13.843 -2.1111  0.3019 -1.6945
 3309SOL    HW221561   2.852   0.411  13.725  0.3844  0.1552  0.0003
 3310SOL     OW21562   1.945   4.603  11.734  0.1566 -0.0020  0.1614
 3310SOL    HW121563   1.925   4.672  11.797 -0.1330  1.1248 -1.1545
 3310SOL    HW221564   2.031   4.629  11.703  0.4944 -1.7974 -0.4134
 3311SOL     OW21565   0.920   0.611   4.480 -0.1020 -0.2110 -0.2418
 3311SOL    HW121566   0.842   0.601   4.425 -0.1776 -2.3566  0.2283
 3311SOL    HW221567   0.914   0.694   4.527 -0.5848 -0.9180  0.9561
 3312SOL     OW21568   1.549   4.681   1.620  0.5594  0.2159 -0.3148
 3312SOL    HW121569   1.640   4.661   1.641  0.1283 -1.6265 -0.2455
 3312SOL    HW221570   1.550   0.040   1.615  0.1224  0.1758 -1.1993
 3313SOL     OW21571   3.549   1.247  16.678  0.4806  0.1490 -0.3447
 3313SOL    HW121572   3.527   1.341  16.680 -1.4934 -0.2722 -2.1059
 3313SOL    HW221573   3.584   1.236  16.590  1.8692  0.3157  0.1826
 3314SOL     OW21574   1.739   3.169   8.460  0.3004 -0.1932 -0.2501
 3314SOL    HW121575   1.740   3.143   8.552 -1.3575  0.4658 -0.0555
 3314SOL    HW221576   1.812   3.112   8.436  1.1825  1.4939 -1.5533
 3315SOL     OW21577   1.382   1.446   4.367  0.2799  0.4952 -0.0417
 3315SOL    HW121578   1.411   1.534   4.342 -0.8500  1.2093  1.1624
 3315SOL    HW221579   1.320   1.419   4.300 -0.7287  0.7734  0.7817
 3316SOL     OW21580   2.115   3.097   0.909  0.1865 -0.0608  0.1422
 3316SOL    HW121581   2.127   3.018   0.961 -0.9941 -1.6983 -2.0510
 3316SOL    HW221582   2.194   3.092   0.855  0.8139  0.1419  1.0543
 3317SOL     OW21583   1.596   2.911  10.557  0.4548 -0.1437 -0.0155
 3317SOL    HW121584   1.503   2.934  10.565  0.5170  0.1036 -0.0206
 3317SOL    HW221585   1.594   2.836  10.616  2.1168  0.9014  1.3909
 3318SOL     OW21586   3.158   0.957   2.388  0.2247  0.2283  0.3941
 3318SOL    HW121587   3.136   0.890   2.453 -1.7669  1.1344  0.6797
 3318SOL    HW221588   3.162   0.906   2.307  3.4472  1.8163 -0.4410
 3319SOL     OW21589   3.455   2.903  13.714  0.0617  0.0786 -0.1657
 3319SOL    HW121590   3.454   2.985  13.664 -0.6142  0.6599  0.7847
 3319SOL    HW221591   3.479   2.845  13.642 -0.8209 -1.8390  1.0729
 3320SOL     OW21592   3.134   1.170   4.675  0.1600 -0.3055 -0.2911
 3320SOL    HW121593   3.210   1.177   4.734  0.3743  0.3897 -0.6588
 3320SOL    HW221594   3.185   1.168   4.594  2.8643  2.9011  1.3275
 3321SOL     OW21595   0.536   2.488   1.836 -0.5230  0.1613 -0.2148
 3321SOL    HW121596   0.481   2.410   1.836 -0.6074  0.2206 -0.7727
 3321SOL    HW221597   0.599   2.476   1.764 -0.6582 -1.9913  0.0297
 3322SOL     OW21598   3.857   3.393   5.667  0.1747 -0.0061  0.5375
 3322SOL    HW121599   3.793   3.335   5.708 -3.1612  2.7635 -0.8111
 3322SOL    HW221600   3.908   3.411   5.747 -0.3248 -2.5161  1.4045
 3323SOL     OW21601   2.788   2.657   2.768 -0.6871 -0.7140  0.1536
 3323SOL    HW121602   2.759   2.568   2.790 -6.4523  1.2354  0.3907
 3323SOL    HW221603   2.709   2.708   2.782 -0.1173  0.0966  0.4313
 3324SOL     OW21604   0.876   4.436   0.534 -0.6444 -0.0605 -0.3056
 3324SOL    HW121605   0.918   4.363   0.489  1.2667  0.5831  0.4193
 3324SOL    HW221606   0.951   4.490   0.558  0.3087 -2.0715  1.2765
 3325SOL     OW21607   2.224   1.695   0.570  0.3730 -0.2491 -0.4966
 3325SOL    HW121608   2.254   1.620   0.518  1.4279 -1.0037  1.2186
 3325SOL    HW221609   2.169   1.743   0.508  0.0931 -2.0139 -1.6253
 3326SOL     OW21610   2.693   4.629   3.465  0.6519  0.1977  0.4116
 3326SOL    HW121611   2.664   4.718   3.486  1.5135  0.7406 -0.6918
 3326SOL    HW221612   2.757   4.639   3.394  0.2307  2.5075  0.3666
 3327SOL     OW21613   1.218   0.027   9.234  0.1301 -0.1355 -0.3662
 3327SOL    HW121614   1.205   0.121   9.247 -1.8581 -0.3161 -0.9584
 3327SOL    HW221615   1.129   0.001   9.208 -0.1831  0.8893 -0.3138
 3328SOL     OW21616   1.416   3.659  12.658  0.2452 -0.0636 -0.1060
 3328SOL    HW121617   1.391   3.705  12.578  0.7277  0.3154 -0.0353
 3328SOL    HW221618   1.457   3.728  12.710 -0.0475  0.7344 -0.9403
 3329SOL     OW21619   3.852   4.588   4.043  0.0440  0.6764  0.0281
 3329SOL    HW121620   3.906   4.569   4.119 -1.9687 -0.7216  1.1032
 3329SOL    HW221621   3.897   4.536   3.976  1.3071  2.5882 -0.5805
 3330SOL     OW21622   1.613   2.751   0.028 -0.2608 -0.2061 -0.0922
 3330SOL    HW121623   1.536   2.762  17.718  0.1166 -1.6581 -0.8840
 3330SOL    HW221624   1.683   2.736  17.711 -0.5417 -0.3131 -0.3787
 3331SOL     OW21625   3.588   3.107   5.453  0.1065  0.4511  0.1366
 3331SOL    HW121626   3.528   3.157   5.398  0.7473  0.9769 -0.0965
 3331SOL    HW221627   3.557   3.145   5.535  0.0131  1.7141 -0.4798
 3332SOL     OW21628   1.943   4.540   7.651 -0.3338 -0.1084 -0.0645
 3332SOL    HW121629   2.027   4.559   7.609 -0.7981 -0.9370 -1.3640
 3332SOL    HW221630   1.912   4.619   7.694 -0.6089  0.3344 -1.0628
 3333SOL     OW21631   3.608   1.527   4.728  0.2990  0.1361 -0.1630
 3333SOL    HW121632   3.594   1.432   4.727  1.0579  0.0291 -0.4871
 3333SOL    HW221633   3.693   1.537   4.772 -0.1406  0.8152  0.5329
 3334SOL     OW21634   3.437   2.098   4.393  0.0020  0.1342 -0.4694
 3334SOL    HW121635   3.397   2.011   4.387  0.9162 -0.4731  2.3014
 3334SOL    HW221636   3.527   2.083   4.422 -0.5384  1.2719  1.8085
 3335SOL     OW21637   3.333   4.271   6.302 -0.2966 -0.0491 -0.2433
 3335SOL    HW121638   3.315   4.278   6.209  0.1413  0.3703 -0.2992
 3335SOL    HW221639   3.314   4.177   6.305 -0.9643  0.0764 -0.5407
 3336SOL     OW21640   3.941   4.499   5.456 -0.1115  0.2308 -0.1842
 3336SOL    HW121641   4.001   4.560   5.413 -0.5422 -0.4733 -1.7735
 3336SOL    HW221642   3.885   4.561   5.503  1.6266  1.8592 -0.2694
 3337SOL     OW21643   2.097   1.480  15.554  0.0448 -0.1055 -0.3855
 3337SOL    HW121644   2.013   1.502  15.515 -0.2895 -0.6514  0.0340
 3337SOL    HW221645   2.100   1.386  15.537  2.0970  0.2792 -2.1794
 3338SOL     OW21646   4.522   1.208   6.819 -0.6357  0.1066 -0.2124
 3338SOL    HW121647   4.589   1.223   6.885  1.2492 -1.3860 -1.7633
 3338SOL    HW221648   4.579   1.194   6.743  1.1846 -5.8806  2.2076
 3339SOL     OW21649   2.078   2.355   7.576 -0.6045 -0.2519 -0.0497
 3339SOL    HW121650   2.028   2.275   7.557  0.0535 -1.3983  3.0705
 3339SOL    HW221651   2.140   2.317   7.639 -0.8580  2.1235  1.6251
 3340SOL     OW21652   2.836   0.727   4.501  0.0381  0.1595 -0.2865
 3340SOL    HW121653   2.801   0.688   4.581 -1.3355  0.8457 -0.5572
 3340SOL    HW221654   2.759   0.723   4.445  0.1722 -1.1685 -0.3581
 3341SOL     OW21655   2.339   0.251  17.323 -0.2307 -0.1480 -0.1066
 3341SOL    HW121656   2.263   0.192  17.319 -0.1739 -0.2484  0.3656
 3341SOL    HW221657   2.391   0.209  17.391 -1.1338 -1.0183  0.0676
 3342SOL     OW21658   1.284   1.312   4.575  0.2273  0.0109 -0.5704
 3342SOL    HW121659   1.190   1.320   4.562  0.3753 -2.3379 -3.0237
 3342SOL    HW221660   1.312   1.363   4.499 -0.5760  3.1458  1.2264
 3343SOL     OW21661   4.381   3.576   2.024  0.2086  0.5380 -0.1686
 3343SOL    HW121662   4.289   3.602   2.023 -0.1242 -0.6194  0.0180
 3343SOL    HW221663   4.406   3.599   2.113  2.0432  0.3398 -0.6112
 3344SOL     OW21664   4.017   4.426   8.681 -0.4212  0.1206  0.0899
 3344SOL    HW121665   4.017   4.350   8.738 -0.8791  0.0467 -0.0066
 3344SOL    HW221666   3.923   4.446   8.687 -0.3515  0.3538  0.3830
 3345SOL     OW21667   1.519   4.690  17.449 -0.2585 -0.7573  0.0844
 3345SOL    HW121668   1.480   4.609  17.482 -2.2344 -0.3054 -1.1903
 3345SOL    HW221669   1.455   4.719  17.385  0.7003  0.0811 -0.4974
 3346SOL     OW21670   4.000   0.086   5.763  0.6777  0.1895 -0.0856
 3346SOL    HW121671   4.010   0.108   5.855 -3.6613  0.5395  0.2871
 3346SOL    HW221672   4.049   0.004   5.758 -2.1125 -1.4163 -0.8690
 3347SOL     OW21673   3.726   0.546   9.120 -0.1761 -0.9605 -0.3028
 3347SOL    HW121674   3.770   0.516   9.041  0.4079 -0.6729 -0.0931
 3347SOL    HW221675   3.777   0.494   9.182  0.2717 -1.5445 -1.1632
 3348SOL     OW21676   4.220   2.498   7.325 -0.1828 -0.4395 -0.5015
 3348SOL    HW121677   4.284   2.564   7.351 -1.1615  0.9557 -1.6341
 3348SOL    HW221678   4.156   2.509   7.395  0.7168  2.2818 -0.1048
 3349SOL     OW21679   0.334   2.461   4.704  0.0533 -0.2258  0.1238
 3349SOL    HW121680   0.396   2.529   4.680  1.5700 -1.6725 -0.0562
 3349SOL    HW221681   0.289   2.509   4.774 -0.6197 -3.1563  1.7186
 3350SOL     OW21682   2.651   3.039   9.391 -0.4374  0.1438 -0.0711
 3350SOL    HW121683   2.609   2.955   9.406 -0.1081  0.1196  0.7337
 3350SOL    HW221684   2.724   3.045   9.453 -0.7698 -1.3441  0.4701
 3351SOL     OW21685   0.670   0.329   5.667  0.3093 -0.0468 -0.1768
 3351SOL    HW121686   0.719   0.343   5.586  0.0785  0.5747 -0.2107
 3351SOL    HW221687   0.740   0.358   5.726 -2.7363  0.7133  3.0517
 3352SOL     OW21688   0.994   1.839   7.842 -0.1984 -0.5328 -0.0430
 3352SOL    HW121689   0.940   1.916   7.860 -0.1381 -0.5614  0.2591
 3352SOL    HW221690   0.968   1.769   7.902 -0.0861  0.0228  0.6562
 3353SOL     OW21691   2.159   3.524  14.831 -0.1463  0.0328 -0.3911
 3353SOL    HW121692   2.156   3.618  14.846 -0.0095  0.0282 -0.3395
 3353SOL    HW221693   2.242   3.510  14.785  0.7284  1.3034  0.8061
 3354SOL     OW21694   1.684   4.381   5.607  0.0496  0.7396 -0.2070
 3354SOL    HW121695   1.670   4.290   5.581 -0.5159  0.4680  1.0633
 3354SOL    HW221696   1.672   4.420   5.521  2.5937  1.5456 -0.2163
 3355SOL     OW21697   4.489   3.011   4.653 -0.1878 -0.0221 -0.0642
 3355SOL    HW121698   4.414   3.071   4.659 -0.9337 -1.1540  2.1646
 3355SOL    HW221699   4.484   2.982   4.562 -1.9701  1.4076 -0.4258
 3356SOL     OW21700   0.949   4.702   1.116  0.4231  0.6924  0.4165
 3356SOL    HW121701   1.030   0.014   1.101  1.3426 -0.3321  1.9724
 3356SOL    HW221702   0.952   4.651   1.035  1.0366 -2.6393  2.5461
 3357SOL     OW21703   2.259   1.840   1.009  0.7195 -0.3223 -0.2713
 3357SOL    HW121704   2.195   1.827   1.078 -0.6445  1.1912 -1.2545
 3357SOL    HW221705   2.281   1.747   1.006  2.4238  0.0229  1.2033
 3358SOL     OW21706   2.469   1.536   9.309 -0.4503 -0.0336  0.2984
 3358SOL    HW121707   2.512   1.511   9.391 -0.6607 -2.7088 -0.3922
 3358SOL    HW221708   2.448   1.448   9.276 -2.6839  0.0850  1.3763
 3359SOL     OW21709   1.470   3.412   7.648 -0.4814 -0.1197 -0.2050
 3359SOL    HW121710   1.535   3.374   7.589  0.6319 -1.7619  2.0749
 3359SOL    HW221711   1.519   3.450   7.721 -0.6277  0.2772 -0.3157
 3360SOL     OW21712   3.326   1.963   3.994  0.3955  0.2611  0.3558
 3360SOL    HW121713   3.394   2.005   3.941  0.9725 -1.1828 -0.0473
 3360SOL    HW221714   3.248   1.997   3.950  1.3084 -0.2567 -1.6830
 3361SOL     OW21715   4.695   2.918   2.797  0.0600 -0.8654 -0.3652
 3361SOL    HW121716   0.002   2.856   2.738  0.5286  0.4072 -1.3580
 3361SOL    HW221717   0.036   2.930   2.851  0.8017 -1.2980 -1.3352
 3362SOL     OW21718   0.936   1.683   6.567  0.1162 -0.1121  0.4648
 3362SOL    HW121719   0.922   1.752   6.502  3.6948 -0.2858 -0.4789
 3362SOL    HW221720   0.936   1.732   6.650 -1.3159  0.3678  0.1788
 3363SOL     OW21721   0.815   3.113   5.331 -0.0380  0.7934 -0.4514
 3363SOL    HW121722   0.768   3.109   5.248 -0.1071 -0.8740 -0.3227
 3363SOL    HW221723   0.830   3.207   5.340  0.1087  0.8704 -1.4751
 3364SOL     OW21724   1.492   1.201   9.785  0.5956 -0.1142  0.0814
 3364SOL    HW121725   1.553   1.194   9.712 -1.5366 -1.0119 -1.6184
 3364SOL    HW221726   1.511   1.130   9.847 -1.0442 -0.1018  0.6086
 3365SOL     OW21727   3.910   3.132   4.346 -0.2444  0.3881  0.0181
 3365SOL    HW121728   3.897   3.040   4.325  0.6758  0.0788  0.8105
 3365SOL    HW221729   3.877   3.182   4.271  1.3517  0.2211 -0.7934
 3366SOL     OW21730   2.454   2.059   6.155  0.5682 -0.9262 -0.7855
 3366SOL    HW121731   2.426   2.078   6.244 -0.3056 -0.4762 -1.1574
 3366SOL    HW221732   2.547   2.047   6.176  0.2379  1.3829  1.9634
 3367SOL     OW21733   3.150   0.514   7.475  0.7040 -0.2594  0.2142
 3367SOL    HW121734   3.081   0.477   7.420 -0.2502  1.0679  0.5149
 3367SOL    HW221735   3.227   0.479   7.429  0.3291 -0.1905 -0.4614
 3368SOL     OW21736   0.647   1.580   5.144  0.0890  0.2736 -0.5970
 3368SOL    HW121737   0.678   1.512   5.205 -0.6213  1.2564  0.8489
 3368SOL    HW221738   0.562   1.596   5.185  0.5185  0.9517  0.0204
 3369SOL     OW21739   0.759   0.259   6.907 -0.4933 -0.0905 -0.2783
 3369SOL    HW121740   0.672   0.291   6.884 -0.3740  0.0537 -0.5246
 3369SOL    HW221741   0.751   0.265   7.002  0.5038 -1.8540 -0.0833
 3370SOL     OW21742   4.720   1.074  12.719  0.6454  0.6897  0.0822
 3370SOL    HW121743   0.056   1.099  12.775  0.5762  0.0416  0.4510
 3370SOL    HW221744   0.035   1.019  12.659 -1.8567 -1.0281 -0.4770
 3371SOL     OW21745   1.066   3.508   5.447  1.0273 -0.1333 -0.0484
 3371SOL    HW121746   1.014   3.578   5.409  1.0870  0.1698  0.4309
 3371SOL    HW221747   1.151   3.530   5.411  1.3580 -0.5401  0.4770
 3372SOL     OW21748   1.617   4.702   2.638  0.2699 -0.0363  0.3957
 3372SOL    HW121749   1.523   4.708   2.655  0.5456 -0.4587  2.0652
 3372SOL    HW221750   1.651   4.732   2.722  0.9153  0.4177 -0.0230
 3373SOL     OW21751   3.869   2.911  11.884 -0.3665  0.3432 -0.6822
 3373SOL    HW121752   3.780   2.930  11.852  0.2007 -1.2579 -3.2685
 3373SOL    HW221753   3.844   2.836  11.937  2.4024 -0.3613 -0.4116
 3374SOL     OW21754   0.240   1.257  17.070 -0.0560 -0.0669  0.5847
 3374SOL    HW121755   0.295   1.184  17.099 -0.2795 -0.4350  0.0879
 3374SOL    HW221756   0.173   1.215  17.016  0.6164 -0.3370 -0.0397
 3375SOL     OW21757   2.567   2.045  13.193 -0.6726 -0.2054  0.4238
 3375SOL    HW121758   2.637   1.988  13.162  1.1655  1.7807  0.9453
 3375SOL    HW221759   2.606   2.131  13.180  0.3882 -0.9619 -1.3823
 3376SOL     OW21760   4.444   1.814  12.476 -0.3892  0.0219 -0.0757
 3376SOL    HW121761   4.431   1.760  12.398  3.1643  1.2215 -1.4845
 3376SOL    HW221762   4.485   1.897  12.451 -3.4156  1.6503  0.3768
 3377SOL     OW21763   0.562   4.508  16.928 -0.4334 -0.7358  0.0504
 3377SOL    HW121764   0.489   4.485  16.986 -0.8911 -0.3525 -0.3683
 3377SOL    HW221765   0.523   4.581  16.880  2.1526  1.1100  0.7593
 3378SOL     OW21766   2.424   4.582   9.282 -0.4984  0.6557  0.4924
 3378SOL    HW121767   2.504   4.543   9.317 -0.2598  1.6029  1.0139
 3378SOL    HW221768   2.450   4.609   9.194 -2.3020 -0.2334 -0.3027
 3379SOL     OW21769   3.237   1.116  13.763 -0.7417 -0.7863  1.0185
 3379SOL    HW121770   3.213   1.026  13.781  1.2754 -1.2559  1.4151
 3379SOL    HW221771   3.213   1.167  13.840 -0.6723  0.4399  0.2296
 3380SOL     OW21772   2.553   2.601   1.893  0.2981  0.1331  0.4033
 3380SOL    HW121773   2.573   2.507   1.886 -0.1653 -0.1569  2.8806
 3380SOL    HW221774   2.460   2.593   1.874  0.5563  1.1657 -1.3172
 3381SOL     OW21775   4.601   3.565  16.211  0.1316  0.7938  0.4744
 3381SOL    HW121776   4.539   3.637  16.220  1.7019  1.4982  5.3607
 3381SOL    HW221777   4.676   3.615  16.242  0.8663 -0.1648  0.2417
 3382SOL     OW21778   3.399   3.195  14.890 -0.5952 -0.9586 -0.7322
 3382SOL    HW121779   3.417   3.155  14.805 -0.4473 -1.4494 -0.4704
 3382SOL    HW221780   3.304   3.197  14.891 -0.5667 -0.7254  1.6842
 3383SOL     OW21781   3.683   3.288  13.229 -0.2241 -0.1678  0.2100
 3383SOL    HW121782   3.711   3.197  13.240  0.7557  0.2825  1.5007
 3383SOL    HW221783   3.751   3.336  13.275 -0.0766  0.2980 -0.4923
 3384SOL     OW21784   4.607   2.616   5.929  0.3143 -0.4831 -0.5496
 3384SOL    HW121785   4.603   2.619   6.024  2.5440 -0.8323 -0.4626
 3384SOL    HW221786   4.553   2.539   5.911 -2.8696  2.5293 -3.9294
 3385SOL     OW21787   2.624   2.107  11.927 -0.5366 -0.2832  0.7103
 3385SOL    HW121788   2.628   2.200  11.950  0.4846 -0.1801  0.1066
 3385SOL    HW221789   2.718   2.092  11.914 -0.1595  2.8713 -0.4460
 3386SOL     OW21790   3.484   0.825  13.504  0.5030  0.3659  0.2608
 3386SOL    HW121791   3.523   0.797  13.421  1.0466 -1.7785  1.2346
 3386SOL    HW221792   3.566   0.858  13.539  1.0867  2.0364 -2.6249
 3387SOL     OW21793   4.731   3.150   9.672  0.2232 -0.1527 -0.1892
 3387SOL    HW121794   4.643   3.152   9.711 -0.4171  0.7485 -1.6992
 3387SOL    HW221795   0.030   3.106   9.749  1.5832  2.0561  0.4235
 3388SOL     OW21796   3.374   2.373   1.877 -0.2224 -0.0535  0.5496
 3388SOL    HW121797   3.307   2.363   1.810 -2.0284 -1.0191  2.5088
 3388SOL    HW221798   3.334   2.337   1.956 -1.2810 -1.1577 -0.4917
 3389SOL     OW21799   4.130   1.290  10.539  0.1381 -0.1513  0.7036
 3389SOL    HW121800   4.066   1.256  10.602 -1.5106  1.1051 -0.2917
 3389SOL    HW221801   4.210   1.281  10.591  0.9869  2.2599 -0.1690
 3390SOL     OW21802   1.579   1.078   5.112  0.5870  0.1562  0.0069
 3390SOL    HW121803   1.583   1.133   5.190  0.4239 -0.2558  0.3079
 3390SOL    HW221804   1.548   0.999   5.156 -0.7412  0.4658 -0.3787
 3391SOL     OW21805   4.071   2.213   3.929  0.2397 -0.2389 -0.0316
 3391SOL    HW121806   4.054   2.265   4.008 -0.3357  1.2004 -1.1024
 3391SOL    HW221807   4.099   2.276   3.862 -0.7750 -0.6363 -0.8195
 3392SOL     OW21808   2.779   4.197  15.616  0.2051 -0.3344  0.5751
 3392SOL    HW121809   2.850   4.196  15.681 -1.7820 -2.5168  2.6820
 3392SOL    HW221810   2.815   4.139  15.548  1.1009 -2.7657  3.1090
 3393SOL     OW21811   2.643   4.017   5.696 -0.3013 -0.0137  0.5921
 3393SOL    HW121812   2.573   4.011   5.631 -2.3296  1.3748  2.6719
 3393SOL    HW221813   2.622   3.952   5.762 -0.2129  0.1842  0.8151
 3394SOL     OW21814   0.222   3.778   9.362 -0.6365 -0.6894  0.1946
 3394SOL    HW121815   0.277   3.728   9.422 -1.6908  0.4540  2.1328
 3394SOL    HW221816   0.186   3.711   9.304  0.6662  0.5062 -1.9656
 3395SOL     OW21817   2.748   0.885  10.669 -0.0852  0.3187 -0.0323
 3395SOL    HW121818   2.701   0.923  10.743  1.5680  0.8487  0.7429
 3395SOL    HW221819   2.835   0.923  10.667 -0.3804  0.9067 -2.2738
 3396SOL     OW21820   2.418   1.756   8.971 -0.6896  0.2534  0.2399
 3396SOL    HW121821   2.477   1.772   9.045 -0.1563  2.4216 -0.6645
 3396SOL    HW221822   2.334   1.735   9.011  0.0116 -1.1619  0.9701
 3397SOL     OW21823   2.752   1.298  12.753  0.1677  0.3584 -0.2054
 3397SOL    HW121824   2.806   1.230  12.795 -0.6407 -0.3696 -0.3437
 3397SOL    HW221825   2.708   1.337  12.829 -1.1784 -0.8686 -0.3419
 3398SOL     OW21826   4.184   2.364   1.974 -0.1471 -0.0705  0.6168
 3398SOL    HW121827   4.198   2.354   2.068  1.1661  0.2469  0.4579
 3398SOL    HW221828   4.233   2.284   1.951  2.3108  1.9004 -1.0511
 3399SOL     OW21829   0.372   2.899   3.080  0.0894 -0.3040  0.4217
 3399SOL    HW121830   0.287   2.882   3.121 -0.1873  0.2496  0.0729
 3399SOL    HW221831   0.423   2.915   3.159 -0.5156  0.3496  0.6863
 3400SOL     OW21832   1.044   0.013   6.387  0.1314 -0.5970  0.0364
 3400SOL    HW121833   1.021   4.658   6.397 -0.7027 -0.3879  0.0216
 3400SOL    HW221834   1.060   0.017   6.293 -0.9105 -1.0666 -0.1584
 3401SOL     OW21835   2.261   1.689   5.299  0.2373  0.0485 -0.5535
 3401SOL    HW121836   2.284   1.597   5.290  0.5311  0.3503 -2.8380
 3401SOL    HW221837   2.319   1.732   5.237 -0.3997  1.0926 -0.4342
 3402SOL     OW21838   2.022   4.437   5.424  0.1626  0.3405  0.3790
 3402SOL    HW121839   1.983   4.457   5.339 -0.6794 -0.6098  0.5483
 3402SOL    HW221840   2.114   4.454   5.402 -0.9678  3.0367 -2.2595
 3403SOL     OW21841   1.888   0.938   6.823  0.2266 -0.4161 -0.2237
 3403SOL    HW121842   1.830   0.866   6.800 -0.5624  0.0857  0.1880
 3403SOL    HW221843   1.948   0.894   6.883  0.5560 -0.2330 -0.4167
 3404SOL     OW21844   1.395   0.414   3.288  0.4989 -0.1837  0.6032
 3404SOL    HW121845   1.473   0.439   3.338  1.0905  1.1157 -0.9829
 3404SOL    HW221846   1.391   0.329   3.332  1.1267 -0.2247  0.5825
 3405SOL     OW21847   3.175   2.340   2.173  0.1694  0.2786 -0.2092
 3405SOL    HW121848   3.108   2.403   2.146 -1.3889 -0.8114  1.0925
 3405SOL    HW221849   3.125   2.261   2.196 -3.2452  2.3630 -0.4075
 3406SOL     OW21850   3.926   0.929  17.690 -0.2564 -0.3667  0.1126
 3406SOL    HW121851   3.882   0.991   0.001 -1.9053 -2.1408  0.7540
 3406SOL    HW221852   4.011   0.924  17.734 -0.5408  3.2469  1.0589
 3407SOL     OW21853   4.517   3.765  11.974  0.5656 -0.2848  0.6295
 3407SOL    HW121854   4.575   3.842  11.975  1.6422 -1.0919  0.4908
 3407SOL    HW221855   4.536   3.736  12.063  2.9589 -2.6998 -0.6619
 3408SOL     OW21856   0.389   2.437   4.276 -0.0068 -0.1812  0.3168
 3408SOL    HW121857   0.294   2.445   4.287 -0.3419 -2.3786 -1.2297
 3408SOL    HW221858   0.412   2.506   4.339 -0.1696  0.7258 -0.6105
 3409SOL     OW21859   0.540   0.144   6.115  0.3510 -1.1175 -0.6333
 3409SOL    HW121860   0.506   0.142   6.026  0.9994  3.3206 -0.9971
 3409SOL    HW221861   0.617   0.092   6.093 -0.2528 -1.2811 -2.3278
 3410SOL     OW21862   3.194   0.215   5.838 -0.1465 -0.0953 -0.1630
 3410SOL    HW121863   3.289   0.203   5.835  0.0572  0.8826  1.7831
 3410SOL    HW221864   3.171   0.162   5.914  1.5237 -0.9556 -0.2729
 3411SOL     OW21865   2.865   4.006  15.450 -0.6350  0.5534  0.0212
 3411SOL    HW121866   2.804   3.939  15.482 -1.8953  1.8462  0.3353
 3411SOL    HW221867   2.926   3.954  15.398  0.9514  2.1632  0.2516
 3412SOL     OW21868   2.784   0.167   7.862 -0.0174 -0.3033  0.0387
 3412SOL    HW121869   2.748   0.248   7.899  1.3843  0.5651 -0.5106
 3412SOL    HW221870   2.796   0.130   7.950  0.8472  1.9103  0.8663
 3413SOL     OW21871   4.386   0.943   6.403  0.3919  0.1686  0.2600
 3413SOL    HW121872   4.315   0.885   6.374 -1.7809  2.3010  1.3404
 3413SOL    HW221873   4.343   1.028   6.401 -0.5951 -0.3394  0.0951
 3414SOL     OW21874   1.160   3.371   4.704 -0.9331 -0.8285 -0.1833
 3414SOL    HW121875   1.104   3.295   4.688 -1.7665 -0.4162  0.8605
 3414SOL    HW221876   1.244   3.334   4.731  0.9611  3.3352 -0.3780
 3415SOL     OW21877   3.703   2.501   7.036 -0.3434  0.7921  0.1798
 3415SOL    HW121878   3.722   2.499   6.943  2.5112  0.4216  0.7639
 3415SOL    HW221879   3.622   2.552   7.027 -0.9764 -0.4340 -0.9554
 3416SOL     OW21880   4.684   4.646  15.993  0.1463  0.6121 -0.3941
 3416SOL    HW121881   4.642   4.693  15.921 -1.8689 -2.5561 -1.3065
 3416SOL    HW221882   4.615   4.592  16.031 -1.0023  1.1293 -1.7721
 3417SOL     OW21883   1.699   2.747   7.975 -0.3639 -0.1737 -0.5239
 3417SOL    HW121884   1.647   2.732   8.054 -2.9348 -0.9206 -2.3579
 3417SOL    HW221885   1.642   2.814   7.938  1.0167  0.5045 -1.4100
 3418SOL     OW21886   1.000   1.080   6.240  0.3123  0.5740 -0.3417
 3418SOL    HW121887   0.927   1.084   6.302  1.3550 -1.1003  0.9937
 3418SOL    HW221888   1.069   1.049   6.299  0.0639 -0.7614 -0.7599
 3419SOL     OW21889   3.980   0.493  16.220 -0.6909  0.8086  0.2671
 3419SOL    HW121890   3.916   0.470  16.153 -0.6760  0.7642  0.2680
 3419SOL    HW221891   3.998   0.579  16.183  2.1428  0.0510 -0.0799
 3420SOL     OW21892   1.010   2.186   3.974  0.4523  0.0535 -0.0375
 3420SOL    HW121893   1.037   2.194   4.066  1.2198 -0.4947 -0.2199
 3420SOL    HW221894   0.945   2.256   3.965  2.6978  2.2204  0.4621
 3421SOL     OW21895   1.540   1.095   6.943  0.5221 -0.1195 -0.5227
 3421SOL    HW121896   1.498   1.180   6.933 -0.5358 -0.2888  2.3180
 3421SOL    HW221897   1.559   1.073   6.852 -1.5594  0.0642 -0.9859
 3422SOL     OW21898   2.628   0.786  11.097 -0.2607  0.0830 -0.3772
 3422SOL    HW121899   2.710   0.831  11.116 -0.6883  0.5883  0.2769
 3422SOL    HW221900   2.589   0.851  11.039 -0.4699  0.2268 -0.0770
 3423SOL     OW21901   1.094   3.187   0.685  0.2847  0.2174  0.0794
 3423SOL    HW121902   1.176   3.184   0.734  0.4369  0.2317 -0.1702
 3423SOL    HW221903   1.093   3.283   0.680 -2.0329  0.2631  1.4629
 3424SOL     OW21904   2.648   4.723   7.351  0.4811 -0.9707 -0.5457
 3424SOL    HW121905   2.650   0.036   7.269 -0.2704 -1.5640 -0.9250
 3424SOL    HW221906   2.697   4.644   7.329 -1.2472 -2.8758  2.6271
 3425SOL     OW21907   0.920   4.213   2.161  0.0615  0.0204  0.0926
 3425SOL    HW121908   0.899   4.135   2.110  1.4113  0.8663 -1.8112
 3425SOL    HW221909   0.846   4.231   2.218  0.9133  0.1792  1.1489
 3426SOL     OW21910   0.739   0.114  16.426 -0.6898 -0.4957  0.3190
 3426SOL    HW121911   0.705   0.187  16.478 -1.1797 -1.6093  1.5929
 3426SOL    HW221912   0.734   0.153  16.339  1.9053 -0.0238  0.3994
 3427SOL     OW21913   1.726   0.801   8.310  0.3283 -0.1030 -0.0649
 3427SOL    HW121914   1.761   0.724   8.266 -0.8176 -0.5904 -0.1272
 3427SOL    HW221915   1.642   0.809   8.264 -0.4735  0.7364  1.5460
 3428SOL     OW21916   1.838   0.993  15.624  0.6155 -0.1084 -0.1425
 3428SOL    HW121917   1.931   1.012  15.611  0.2485  0.5680 -1.8229
 3428SOL    HW221918   1.792   1.075  15.607  1.7966  0.6775  0.4906
 3429SOL     OW21919   3.328   1.163   2.463 -0.3045  0.1344 -0.3829
 3429SOL    HW121920   3.277   1.221   2.520  1.8877 -1.5842  3.3467
 3429SOL    HW221921   3.279   1.082   2.473  0.6385 -0.4262 -0.3121
 3430SOL     OW21922   1.551   3.847   2.912  0.7370 -0.6008  0.6984
 3430SOL    HW121923   1.488   3.780   2.940 -0.1293  0.1388  0.5268
 3430SOL    HW221924   1.537   3.847   2.817 -1.2330 -0.5859  0.9752
 3431SOL     OW21925   1.547   0.534   1.465  0.6829 -0.0957  0.2469
 3431SOL    HW121926   1.467   0.533   1.518  0.8321  0.1999  0.4766
 3431SOL    HW221927   1.616   0.531   1.531 -0.9499 -1.8280  1.8886
 3432SOL     OW21928   4.164   1.585   5.564  0.4190 -0.7388 -0.4255
 3432SOL    HW121929   4.129   1.653   5.622  3.3027 -0.3517  0.8210
 3432SOL    HW221930   4.206   1.644   5.502  2.5411  0.1082  1.8391
 3433SOL     OW21931   2.140   3.009  10.771 -0.0518  0.2107  0.2626
 3433SOL    HW121932   2.097   2.987  10.689  0.4904 -0.0322  0.0444
 3433SOL    HW221933   2.145   3.105  10.773  1.2690  0.1247  0.9117
 3434SOL     OW21934   4.392   4.386   1.923  0.0621 -0.0505 -0.4399
 3434SOL    HW121935   4.320   4.365   1.864  0.0015  0.2179 -0.4619
 3434SOL    HW221936   4.338   4.416   1.996 -2.4871 -0.3795 -2.1670
 3435SOL     OW21937   4.051   0.970   8.384  0.4626 -0.3294  0.1917
 3435SOL    HW121938   4.071   1.059   8.411  1.5653 -1.3222  2.6882
 3435SOL    HW221939   4.066   0.926   8.468  2.2319 -0.5251 -0.2312
 3436SOL     OW21940   4.425   2.320   4.754 -0.1309 -0.5501  0.0917
 3436SOL    HW121941   4.453   2.279   4.672  0.2950 -0.2085  0.0665
 3436SOL    HW221942   4.501   2.367   4.788 -0.6451 -0.1747  0.7254
 3437SOL     OW21943   0.656   0.755   1.828 -0.8188 -0.1049  0.0449
 3437SOL    HW121944   0.631   0.708   1.907  0.6095  3.2924  2.4809
 3437SOL    HW221945   0.624   0.843   1.851  0.5200  0.1410  0.9514
 3438SOL     OW21946   3.277   3.201   9.672 -0.1778  0.5369  0.6222
 3438SOL    HW121947   3.190   3.240   9.672  0.0153  0.9719 -1.2039
 3438SOL    HW221948   3.304   3.227   9.760 -0.5285 -3.1205  1.8190
 3439SOL     OW21949   1.731   4.510  13.547  0.2241 -0.1305  0.2155
 3439SOL    HW121950   1.672   4.503  13.472 -1.0146  0.1144  1.1621
 3439SOL    HW221951   1.683   4.465  13.617  1.1984 -1.4780  0.0087
 3440SOL     OW21952   3.565   1.092   6.391  0.1566 -0.2974 -0.5720
 3440SOL    HW121953   3.499   1.071   6.324 -0.6352  0.0989  0.0819
 3440SOL    HW221954   3.638   1.127   6.340  0.2872  0.6142  0.2626
 3441SOL     OW21955   2.715   3.039   3.150 -0.4810 -0.2590 -0.1057
 3441SOL    HW121956   2.766   3.119   3.161 -0.6863 -0.3600  1.7091
 3441SOL    HW221957   2.724   2.999   3.237  0.7259 -1.4469 -0.7666
 3442SOL     OW21958   4.259   3.211   7.933  0.3129  0.5343 -0.3627
 3442SOL    HW121959   4.309   3.292   7.921  0.9155  0.3221  0.8084
 3442SOL    HW221960   4.262   3.207   8.028  0.4018 -1.0808 -0.4413
 3443SOL     OW21961   1.942   0.620   2.807 -0.1047 -0.3607 -0.6486
 3443SOL    HW121962   1.976   0.707   2.830  0.7262 -1.2698  1.4751
 3443SOL    HW221963   1.848   0.631   2.798 -0.0685  0.0636 -0.5283
 3444SOL     OW21964   1.512   2.617   2.482  0.4154 -0.5532 -0.3688
 3444SOL    HW121965   1.498   2.530   2.520  2.4692 -1.0037 -0.6495
 3444SOL    HW221966   1.557   2.596   2.400  1.1398  1.0154 -0.3754
 3445SOL     OW21967   4.501   0.208   1.968 -0.7336  0.1268  0.1029
 3445SOL    HW121968   4.515   0.229   2.060  3.1925 -0.0159 -0.4823
 3445SOL    HW221969   4.592   0.189   1.944 -0.6179 -1.5626  1.9143
 3446SOL     OW21970   4.637   0.731   6.558  0.0803  0.0237 -1.1322
 3446SOL    HW121971   4.697   0.784   6.610 -1.5073 -0.3448  1.0724
 3446SOL    HW221972   4.551   0.759   6.590  0.3731 -0.1182 -0.2044
 3447SOL     OW21973   2.814   3.162  11.608  0.1136 -0.9566  0.5270
 3447SOL    HW121974   2.740   3.154  11.548  1.3777  1.0729 -1.3152
 3447SOL    HW221975   2.860   3.229  11.556  1.8729 -2.8255 -0.3563
 3448SOL     OW21976   3.932   3.292   2.741 -0.1535 -0.1013 -0.4989
 3448SOL    HW121977   3.886   3.346   2.804  0.6758 -1.5302  1.3312
 3448SOL    HW221978   4.002   3.261   2.798  0.2298 -2.6826 -2.3492
 3449SOL     OW21979   3.394   2.829   4.606  0.1756 -0.9006  0.3739
 3449SOL    HW121980   3.458   2.789   4.665 -0.0978  0.8456  1.8510
 3449SOL    HW221981   3.317   2.801   4.654  0.2328 -0.8181  0.5129
 3450SOL     OW21982   2.503   0.801   7.898  0.2666  0.8981 -0.5349
 3450SOL    HW121983   2.596   0.778   7.904  0.1117  0.3846 -0.0344
 3450SOL    HW221984   2.463   0.727   7.852  2.5516 -0.2341 -0.6515
 3451SOL     OW21985   0.757   0.099   4.802  0.7058  0.2228 -0.5046
 3451SOL    HW121986   0.716   0.021   4.766 -0.6187  0.1038  1.2604
 3451SOL    HW221987   0.790   0.072   4.888 -0.9242  1.3498  0.4793
 3452SOL     OW21988   4.430   1.899   7.770 -0.1116 -0.8032  0.8602
 3452SOL    HW121989   4.346   1.930   7.736 -0.6048 -0.2259  2.5801
 3452SOL    HW221990   4.456   1.834   7.704  2.4445  1.5714 -0.4457
 3453SOL     OW21991   2.897   3.812  10.878  0.7185 -0.0083  0.2095
 3453SOL    HW121992   2.842   3.734  10.875  2.3427 -1.1987  1.1160
 3453SOL    HW221993   2.867   3.858  10.957  0.1882 -3.5344  2.0513
 3454SOL     OW21994   3.650   4.005   7.370 -0.2837 -0.2710  0.1247
 3454SOL    HW121995   3.742   4.019   7.394 -0.5963  0.8581  0.6330
 3454SOL    HW221996   3.625   3.940   7.436  0.7139  0.3033  1.0691
 3455SOL     OW21997   0.268   1.877   4.312 -0.0115 -0.1551  0.1001
 3455SOL    HW121998   0.345   1.820   4.307  0.2435  0.2590 -0.7534
 3455SOL    HW221999   0.301   1.967   4.305  0.0173 -0.4453 -3.4539
 3456SOL     OW22000   1.527   3.920   7.858  0.4703 -0.7750  0.5725
 3456SOL    HW122001   1.462   3.947   7.922  0.7633  1.0306  0.0956
 3456SOL    HW222002   1.483   3.858   7.799 -0.4433 -0.7911  1.2811
 3457SOL     OW22003   2.339   3.951   5.914 -0.6314 -0.0948 -0.6068
 3457SOL    HW122004   2.357   3.960   6.008 -1.3615  1.0419 -0.5794
 3457SOL    HW222005   2.413   3.899   5.882  0.2172  0.7276  0.0046
 3458SOL     OW22006   3.989   2.460   2.562  0.3410  0.6006 -0.2141
 3458SOL    HW122007   3.917   2.412   2.603  0.6366  1.5607  1.4207
 3458SOL    HW222008   4.046   2.384   2.555  1.3200  1.4425 -1.3314
 3459SOL     OW22009   3.580   0.986   6.652  0.5464  0.4856  0.1158
 3459SOL    HW122010   3.495   0.945   6.672  0.7304  0.6198  1.1610
 3459SOL    HW222011   3.561   1.025   6.567  1.1499 -0.0445 -0.2577
 3460SOL     OW22012   0.031   2.985  16.637  0.5193 -0.2543 -0.4578
 3460SOL    HW122013   0.061   2.994  16.727  3.4064  1.2488 -1.5729
 3460SOL    HW222014   0.041   3.075  16.606 -1.6855 -0.0702 -0.6115
 3461SOL     OW22015   1.543   0.218   1.609  0.7224 -0.6712 -0.2970
 3461SOL    HW122016   1.620   0.276   1.612 -0.2102  0.4660  2.3443
 3461SOL    HW222017   1.490   0.255   1.679  0.8621  2.4293 -1.8293
 3462SOL     OW22018   0.356   1.540  14.523  0.0917  0.2120  0.4576
 3462SOL    HW122019   0.294   1.564  14.592 -2.1268 -2.0286 -0.7224
 3462SOL    HW222020   0.301   1.561  14.447  0.0610  1.7124  0.8958
 3463SOL     OW22021   0.672   1.835   9.470 -0.1643  0.0753 -0.1659
 3463SOL    HW122022   0.665   1.927   9.447 -1.7491  0.0565  0.2425
 3463SOL    HW222023   0.671   1.830   9.565 -0.1214  0.4600 -0.1463
 3464SOL     OW22024   4.191   4.180   6.834  0.0262 -0.0900 -0.5215
 3464SOL    HW122025   4.146   4.257   6.800  1.9075  0.6295 -1.4220
 3464SOL    HW222026   4.271   4.178   6.781  0.3627  0.1345 -0.0243
 3465SOL     OW22027   4.486   3.225  14.046 -0.0743 -0.7611 -0.1892
 3465SOL    HW122028   4.460   3.159  14.109 -3.7332 -1.3498 -2.3446
 3465SOL    HW222029   4.462   3.302  14.097  1.9400  0.3857 -0.9770
 3466SOL     OW22030   2.832   0.789  12.546  0.0046  0.1934  0.1825
 3466SOL    HW122031   2.845   0.877  12.513 -0.3295  0.3469  0.4594
 3466SOL    HW222032   2.741   0.772  12.520  0.2888 -0.5542 -0.3453
 3467SOL     OW22033   3.709   1.307   8.427  0.1055  0.2911  0.8758
 3467SOL    HW122034   3.734   1.386   8.380  0.0422  0.0909  0.5010
 3467SOL    HW222035   3.778   1.315   8.493 -1.6821 -2.9598  3.1468
 3468SOL     OW22036   1.715   2.384   3.031 -0.5825  0.7130  0.5005
 3468SOL    HW122037   1.720   2.338   3.115  2.0351 -2.2159 -1.2269
 3468SOL    HW222038   1.805   2.416   3.023 -0.6751  0.6647 -0.8226
 3469SOL     OW22039   1.757   3.947   9.446  0.4087  0.1885 -0.1117
 3469SOL    HW122040   1.794   4.023   9.401  1.4189  0.3874  1.0622
 3469SOL    HW222041   1.833   3.900   9.479  0.6251 -0.2385 -1.2246
 3470SOL     OW22042   2.990   2.822   1.719 -0.3375  0.1049  0.5003
 3470SOL    HW122043   2.954   2.733   1.711  1.2824 -0.5999  1.0190
 3470SOL    HW222044   3.049   2.810   1.794 -0.7613 -3.4144  0.2874
 3471SOL     OW22045   3.550   1.138  15.268 -0.4064  0.3280  0.9726
 3471SOL    HW122046   3.597   1.171  15.191  0.8272  0.6729  1.8816
 3471SOL    HW222047   3.475   1.109  15.216  0.6652  1.5090 -1.2501
 3472SOL     OW22048   2.176   3.867   2.854  0.5748 -0.1057 -0.1734
 3472SOL    HW122049   2.170   3.898   2.764  2.6971  0.5155 -0.1072
 3472SOL    HW222050   2.091   3.827   2.874  0.3827  1.0271  1.3310
 3473SOL     OW22051   1.034   1.335   7.607  0.0381  0.5354 -0.4662
 3473SOL    HW122052   1.020   1.318   7.514  1.1608  1.3435 -0.7921
 3473SOL    HW222053   0.956   1.292   7.643 -0.3174 -0.4028 -2.3792
 3474SOL     OW22054   0.984   1.921  17.637 -0.1541  0.2514  0.1521
 3474SOL    HW122055   0.965   1.942  17.729  0.9252 -0.6138  0.5592
 3474SOL    HW222056   0.907   1.868  17.616  0.0635  0.5408 -1.4184
 3475SOL     OW22057   2.472   0.742   2.618  0.3859  0.2850 -0.1646
 3475SOL    HW122058   2.398   0.803   2.617 -0.4361 -0.6470  2.2246
 3475SOL    HW222059   2.450   0.692   2.540 -0.0522  0.3031 -0.0514
 3476SOL     OW22060   2.298   0.544  14.417 -0.0349  0.2692 -0.7905
 3476SOL    HW122061   2.336   0.618  14.464 -2.0369  1.7218 -1.4677
 3476SOL    HW222062   2.218   0.583  14.381 -0.6819  0.2859  0.6953
 3477SOL     OW22063   2.628   3.018   8.618 -0.4761  0.0511 -0.1888
 3477SOL    HW122064   2.694   3.062   8.672 -1.0259  0.0340  0.5007
 3477SOL    HW222065   2.670   2.940   8.584  0.7144  0.5951  0.0339
 3478SOL     OW22066   3.937   2.044   5.808  0.4841 -0.2087 -0.1323
 3478SOL    HW122067   3.983   2.127   5.821 -0.9387  0.7019 -0.9949
 3478SOL    HW222068   3.880   2.043   5.885 -0.9054 -2.4415 -1.1877
 3479SOL     OW22069   1.854   2.582   4.605  0.0376  0.1798 -0.5724
 3479SOL    HW122070   1.839   2.676   4.610  0.5988  0.2107  0.4504
 3479SOL    HW222071   1.824   2.569   4.695 -2.8575  2.6336 -1.1729
 3480SOL     OW22072   4.485   2.335   1.319  0.6291 -0.6484  0.6216
 3480SOL    HW122073   4.489   2.290   1.403  0.8110 -0.0646  0.9291
 3480SOL    HW222074   4.413   2.281   1.288  1.2761  0.3188 -2.6149
 3481SOL     OW22075   0.659   3.329   5.596  0.1615  0.5019 -0.4919
 3481SOL    HW122076   0.641   3.397   5.532 -0.9338 -0.5201 -1.2845
 3481SOL    HW222077   0.571   3.296   5.616  0.7699 -0.1871  1.0608
 3482SOL     OW22078   2.960   3.648   6.721 -0.0198 -0.2623  0.4524
 3482SOL    HW122079   3.030   3.710   6.698  1.4545 -2.1330 -0.0751
 3482SOL    HW222080   2.982   3.575   6.664  0.2061  0.3577 -0.2638
 3483SOL     OW22081   1.176   3.066   1.522 -0.5218 -0.2006  0.3592
 3483SOL    HW122082   1.155   2.978   1.489 -1.7079  0.3009 -0.2166
 3483SOL    HW222083   1.107   3.122   1.488  0.1585  0.7107  0.4837
 3484SOL     OW22084   0.978   1.767   6.849 -0.2735 -0.0182  0.6851
 3484SOL    HW122085   1.041   1.833   6.875  1.2918 -1.9825  1.8458
 3484SOL    HW222086   1.026   1.685   6.837 -0.1014  0.4381 -1.8816
 3485SOL     OW22087   2.635   2.682   2.484  0.5341  0.4308 -0.3432
 3485SOL    HW122088   2.655   2.650   2.572  0.9698  1.5728 -0.0221
 3485SOL    HW222089   2.610   2.603   2.436  1.6703 -0.5604  0.7086
 3486SOL     OW22090   0.842   4.277  12.314 -0.6639 -0.4975  0.1407
 3486SOL    HW122091   0.845   4.290  12.408 -0.1045  0.1417  0.0364
 3486SOL    HW222092   0.749   4.293  12.298 -0.4053 -0.5751 -1.4614
 3487SOL     OW22093   2.494   0.775   3.277 -0.4859 -0.0664 -0.1654
 3487SOL    HW122094   2.487   0.734   3.363 -1.0994  2.6526  1.0800
 3487SOL    HW222095   2.419   0.834   3.277  0.1873  0.7875  1.5811
 3488SOL     OW22096   3.085   2.502   8.187  0.6040 -0.2492  0.0773
 3488SOL    HW122097   3.004   2.527   8.142  1.0404  1.7093  0.3783
 3488SOL    HW222098   3.144   2.570   8.155  0.5550 -0.2991 -0.1226
 3489SOL     OW22099   3.731   2.751   2.956 -0.0526  0.1377 -0.0070
 3489SOL    HW122100   3.817   2.734   2.993 -0.7932  0.3697  1.8313
 3489SOL    HW222101   3.756   2.788   2.872 -0.9774  1.8438  0.4651
 3490SOL     OW22102   2.872   1.887   7.185  0.3147 -0.0288 -0.5403
 3490SOL    HW122103   2.817   1.829   7.238 -2.3638  1.3244 -1.8426
 3490SOL    HW222104   2.829   1.875   7.100 -0.9360 -0.0398  0.0919
 3491SOL     OW22105   0.962   0.715   2.902  0.1932 -0.4063 -0.3509
 3491SOL    HW122106   1.012   0.755   2.831  1.6170 -0.3550  0.6742
 3491SOL    HW222107   0.959   0.625   2.871  2.5085 -0.1493 -1.3033
 3492SOL     OW22108   3.376   2.525  15.829  0.0400 -0.1957 -0.1056
 3492SOL    HW122109   3.349   2.490  15.914  1.6087  3.9905  2.0944
 3492SOL    HW222110   3.372   2.618  15.850  0.8341 -0.5301  1.5441
 3493SOL     OW22111   1.076   2.646   8.209 -0.7185 -0.5400 -0.3158
 3493SOL    HW122112   1.064   2.646   8.304  0.8634 -0.3272 -0.1223
 3493SOL    HW222113   1.063   2.738   8.185 -0.6348 -0.4766 -0.1165
 3494SOL     OW22114   4.280   0.848  11.410 -0.7068 -0.0157 -0.4616
 3494SOL    HW122115   4.307   0.791  11.482  1.6248  2.0447  0.2910
 3494SOL    HW222116   4.362   0.889  11.383 -0.7314  0.4782  0.2435
 3495SOL     OW22117   1.514   3.766   2.331  0.0435 -0.3265  0.1575
 3495SOL    HW122118   1.603   3.786   2.361 -1.1531  1.5039  2.4336
 3495SOL    HW222119   1.517   3.774   2.236  0.6044 -2.5870 -0.0202
 3496SOL     OW22120   3.447   2.593   8.234 -0.5672  0.2257 -0.1615
 3496SOL    HW122121   3.373   2.549   8.276 -0.9577  2.2129  1.2016
 3496SOL    HW222122   3.524   2.565   8.284 -1.5015 -2.7885 -0.4013
 3497SOL     OW22123   4.600   4.225   5.022  0.5773 -0.0030 -0.6991
 3497SOL    HW122124   4.639   4.313   5.014 -1.2463  0.8347 -0.2804
 3497SOL    HW222125   4.603   4.188   4.934  1.3198 -0.3918 -0.5107
 3498SOL     OW22126   0.592   3.733   4.887 -0.2352 -0.0162  0.3568
 3498SOL    HW122127   0.661   3.792   4.856 -0.0222  0.3637  1.5619
 3498SOL    HW222128   0.646   3.662   4.922  1.0046  0.2327 -1.0205
 3499SOL     OW22129   1.826   0.874  14.831 -0.0576  0.1575 -0.8745
 3499SOL    HW122130   1.866   0.790  14.808  0.1950 -0.3064  1.1942
 3499SOL    HW222131   1.881   0.939  14.788 -2.4980  2.2931 -0.7468
 3500SOL     OW22132   3.964   0.607  17.567 -0.1978 -0.3619 -0.1125
 3500SOL    HW122133   3.985   0.700  17.573 -2.7452  0.3111 -1.1930
 3500SOL    HW222134   3.932   0.604  17.476  0.5143  0.6426 -0.3936
 3501SOL     OW22135   2.635   4.387  10.406  0.1824  0.0189 -0.5947
 3501SOL    HW122136   2.554   4.360  10.450  0.7980 -2.0626 -0.7387
 3501SOL    HW222137   2.702   4.349  10.463 -0.5966  2.1909  1.7485
 3502SOL     OW22138   1.638   1.627   4.599  0.2380  0.0399  0.0858
 3502SOL    HW122139   1.545   1.642   4.611  0.2786  1.0973 -0.9350
 3502SOL    HW222140   1.640   1.567   4.524 -2.3503  0.0740  0.0110
 3503SOL     OW22141   4.730   2.779   5.149  0.1087  0.1712  0.1271
 3503SOL    HW122142   0.058   2.823   5.203 -1.8856  1.3674  1.5940
 3503SOL    HW222143   4.695   2.846   5.091  0.3162 -1.0782 -1.4285
 3504SOL     OW22144   4.732   0.320   8.750  0.3287 -0.0222  0.4073
 3504SOL    HW122145   4.673   0.347   8.680  0.6731  0.4600  0.3044
 3504SOL    HW222146   4.671   0.337   8.822  1.1123 -1.3130  1.3618
 3505SOL     OW22147   1.023   0.894  14.311  0.2884  0.3723  0.5148
 3505SOL    HW122148   1.039   0.983  14.280  1.6983 -0.6443 -1.7068
 3505SOL    HW222149   0.937   0.902  14.352 -0.9273  0.3466 -2.0335
 3506SOL     OW22150   3.132   1.975  16.214 -0.1702 -0.7983  0.3780
 3506SOL    HW122151   3.076   2.030  16.267  0.0355  1.1124 -1.3871
 3506SOL    HW222152   3.154   2.031  16.140  0.9884  0.4036  1.6437
 3507SOL     OW22153   3.819   0.228   2.345  0.0910  0.6153 -0.0121
 3507SOL    HW122154   3.855   0.215   2.257 -4.4161 -2.7652 -1.3493
 3507SOL    HW222155   3.724   0.223   2.330  0.3963 -0.0875 -1.7218
 3508SOL     OW22156   4.279   4.091   2.564  0.1403  0.2236 -0.5148
 3508SOL    HW122157   4.193   4.086   2.606  0.1571  0.5849 -0.4359
 3508SOL    HW222158   4.299   4.183   2.582  0.7166  0.2628 -1.3624
 3509SOL     OW22159   1.884   4.113   7.677  0.6557  0.5362  0.7831
 3509SOL    HW122160   1.954   4.158   7.630 -0.2114  0.8966 -0.1587
 3509SOL    HW222161   1.865   4.177   7.745 -2.5057  0.8437 -0.3787
 3510SOL     OW22162   2.499   3.937   7.264  0.1729  0.3873  0.7449
 3510SOL    HW122163   2.462   4.023   7.248 -2.3979 -0.6279  1.3432
 3510SOL    HW222164   2.556   3.932   7.187  2.3563  2.9591  2.1870
 3511SOL     OW22165   0.864   0.922   0.453  0.3007  0.4326  0.2325
 3511SOL    HW122166   0.932   0.990   0.452 -1.2767  2.0138  0.0547
 3511SOL    HW222167   0.785   0.972   0.473 -1.5334 -1.7167 -1.6895
 3512SOL     OW22168   4.721   0.996   5.502 -0.3832  0.5231 -0.5083
 3512SOL    HW122169   4.626   0.986   5.513 -0.2405  0.8847  1.0540
 3512SOL    HW222170   0.006   1.037   5.586  2.2951 -0.1849 -0.8773
 3513SOL     OW22171   4.638   0.180   6.768  0.1810 -0.3060 -0.2193
 3513SOL    HW122172   4.552   0.215   6.744 -0.5226 -0.6053  1.8570
 3513SOL    HW222173   4.649   0.228   6.850 -1.8253 -1.0573  0.4835
 3514SOL     OW22174   2.219   0.432   4.319 -0.8567  0.3594  0.8471
 3514SOL    HW122175   2.146   0.399   4.266  0.0957 -1.9969  0.9967
 3514SOL    HW222176   2.290   0.379   4.284 -1.5747  0.3270 -0.5433
 3515SOL     OW22177   4.265   0.128   3.056  0.3799  0.5227  0.3662
 3515SOL    HW122178   4.276   0.206   3.003  3.4409 -0.0243  0.2335
 3515SOL    HW222179   4.341   0.123   3.113  0.2946 -0.0691  0.4250
 3516SOL     OW22180   4.696   3.422   0.415  0.0369  0.2829  0.0992
 3516SOL    HW122181   4.668   3.354   0.478  1.3791 -0.9520 -0.6346
 3516SOL    HW222182   4.613   3.448   0.374 -0.7723 -1.2106  0.7659
 3517SOL     OW22183   0.143   4.084   1.303  0.2618  0.0368 -0.9189
 3517SOL    HW122184   0.149   4.072   1.208  0.5583  0.1392 -0.9153
 3517SOL    HW222185   0.237   4.097   1.320 -0.3205  3.0078  0.0400
 3518SOL     OW22186   0.212   1.006   2.788 -0.4981 -0.2929 -0.0574
 3518SOL    HW122187   0.305   1.019   2.805 -0.3773  2.1852 -2.7466
 3518SOL    HW222188   0.184   0.992   2.879 -0.7544 -1.9550 -0.3801
 3519SOL     OW22189   3.231   0.300  10.126 -0.5163  0.0658  0.0749
 3519SOL    HW122190   3.159   0.361  10.140  0.4512  1.6000 -1.6521
 3519SOL    HW222191   3.182   0.219  10.142  0.7870 -0.7030  0.1947
 3520SOL     OW22192   1.641   2.751   4.853 -0.2912  0.1517 -0.3883
 3520SOL    HW122193   1.642   2.843   4.880 -0.1298 -0.1684  0.7038
 3520SOL    HW222194   1.581   2.753   4.779  2.7398  0.5896 -2.8783
 3521SOL     OW22195   0.508   2.985   1.991 -0.1865  0.2229 -0.1312
 3521SOL    HW122196   0.557   2.957   2.068 -1.3349 -1.0907  0.1344
 3521SOL    HW222197   0.543   2.926   1.924  0.5927 -0.8773  1.2404
 3522SOL     OW22198   1.064   3.348   7.554  0.1943  0.1913 -0.3029
 3522SOL    HW122199   1.042   3.401   7.477  1.3686  0.6965 -0.2999
 3522SOL    HW222200   1.153   3.319   7.533  0.7308  3.1881 -2.3397
 3523SOL     OW22201   1.375   0.205   2.574 -0.0012 -0.6524  0.0306
 3523SOL    HW122202   1.311   0.177   2.508 -3.5131  0.1753  3.0637
 3523SOL    HW222203   1.366   0.301   2.580 -0.3503 -0.7416  0.9046
 3524SOL     OW22204   1.146   4.204  13.599  0.4739  0.1632  0.3831
 3524SOL    HW122205   1.091   4.207  13.677 -1.3811  0.3706 -0.9464
 3524SOL    HW222206   1.218   4.259  13.628  0.5799  0.9549 -1.3954
 3525SOL     OW22207   2.574   3.154   6.008  0.4414 -0.1087 -0.1548
 3525SOL    HW122208   2.571   3.210   6.086 -0.7121 -1.3025  0.6590
 3525SOL    HW222209   2.660   3.114   6.020  0.5068  0.1831  0.3432
 3526SOL     OW22210   1.200   3.159   6.389 -0.9340 -0.0201 -0.5261
 3526SOL    HW122211   1.263   3.165   6.462 -0.4451  0.3691 -0.9787
 3526SOL    HW222212   1.158   3.244   6.375 -3.2849 -1.1838 -0.3782
 3527SOL     OW22213   0.148   0.218   9.181  0.0131  0.5957 -0.2109
 3527SOL    HW122214   0.117   0.246   9.267 -1.0988 -0.1918 -0.3539
 3527SOL    HW222215   0.086   0.146   9.170  0.5495 -0.1513  1.7239
 3528SOL     OW22216   1.561   3.302   1.012 -0.0568 -0.1911  0.9929
 3528SOL    HW122217   1.583   3.229   0.954 -0.0316  1.2826 -0.8523
 3528SOL    HW222218   1.591   3.268   1.096  1.5562 -0.7578  0.1759
 3529SOL     OW22219   1.568   2.023   7.251 -0.1304  0.8319 -0.2347
 3529SOL    HW122220   1.507   1.959   7.214 -0.9733  0.9350  0.9610
 3529SOL    HW222221   1.526   2.039   7.336  0.3333 -0.2523  0.1981
 3530SOL     OW22222   2.516   0.410   9.158  0.4320  0.7778 -0.1668
 3530SOL    HW122223   2.541   0.333   9.106  1.0603 -0.0176  1.3307
 3530SOL    HW222224   2.554   0.393   9.244 -0.6131 -1.1349 -0.0699
 3531SOL     OW22225   2.441   0.278   6.011 -0.0524  0.2773  0.0687
 3531SOL    HW122226   2.419   0.236   6.095 -1.0627 -1.3349 -0.9985
 3531SOL    HW222227   2.372   0.344   6.006 -1.5662 -1.2751  0.4717
 3532SOL     OW22228   4.137   3.212  11.992 -0.2415  0.6834 -0.1998
 3532SOL    HW122229   4.173   3.255  12.069 -1.1869 -0.5397  0.9132
 3532SOL    HW222230   4.061   3.168  12.029  0.2897 -0.9027 -1.0302
 3533SOL     OW22231   4.030   1.023   4.307 -0.0815 -0.1332 -0.3548
 3533SOL    HW122232   4.051   1.086   4.238  0.7450 -1.2033 -1.0746
 3533SOL    HW222233   4.049   1.070   4.388  1.3470 -1.4332  0.0417
 3534SOL     OW22234   3.911   4.140   7.798  0.1704 -0.1560  0.4813
 3534SOL    HW122235   3.977   4.119   7.732 -0.1535  0.6483 -0.1083
 3534SOL    HW222236   3.844   4.072   7.793  0.5884 -0.3584 -2.2624
 3535SOL     OW22237   4.113   4.196   4.922 -0.5037 -0.0774  0.2085
 3535SOL    HW122238   4.073   4.225   4.841  0.2831  0.9598  0.1975
 3535SOL    HW222239   4.149   4.276   4.960  0.1347  1.1786 -3.0722
 3536SOL     OW22240   2.227   2.536   3.067 -0.3524 -0.5530 -0.5270
 3536SOL    HW122241   2.283   2.569   2.997  0.6177  0.8907  0.9338
 3536SOL    HW222242   2.283   2.476   3.117 -1.3763  1.4510  3.0360
 3537SOL     OW22243   3.414   2.957  11.103  0.3718  0.4609  0.9182
 3537SOL    HW122244   3.508   2.964  11.119  0.2460  0.6260  1.6106
 3537SOL    HW222245   3.392   3.043  11.138  1.2583  0.9622  0.2413
 3538SOL     OW22246   3.822   1.546   3.800 -0.0766  0.2722  0.1013
 3538SOL    HW122247   3.802   1.590   3.882  1.4529  0.4402  0.3910
 3538SOL    HW222248   3.882   1.610   3.761  1.5743 -0.7773  0.9391
 3539SOL     OW22249   3.135   2.993   8.718 -0.2601 -0.5872 -0.1059
 3539SOL    HW122250   3.082   3.016   8.642  1.4068 -0.2437 -1.1569
 3539SOL    HW222251   3.156   3.078   8.758 -0.7875 -0.0461 -1.0011
 3540SOL     OW22252   4.410   3.140   2.157 -0.1217 -0.2123  0.0363
 3540SOL    HW122253   4.411   3.125   2.251 -1.1206  0.2775  0.1228
 3540SOL    HW222254   4.478   3.206   2.144 -1.1639  1.2749  2.1369
 3541SOL     OW22255   3.305   2.935   2.735  0.8960  0.2061 -0.0726
 3541SOL    HW122256   3.228   2.884   2.760  0.8143  0.2845 -0.1641
 3541SOL    HW222257   3.344   2.938   2.822 -1.1489 -0.7851  0.8576
 3542SOL     OW22258   2.859   4.330   0.967  0.2187  0.1999  0.0830
 3542SOL    HW122259   2.905   4.391   0.909  0.0690 -1.5274 -1.8352
 3542SOL    HW222260   2.932   4.269   0.967  0.1890  0.1704  1.3827
 3543SOL     OW22261   4.119   2.041   1.403  0.2053  0.2791  0.8440
 3543SOL    HW122262   4.162   1.991   1.472 -0.3197  1.3002  1.9149
 3543SOL    HW222263   4.083   2.114   1.453  0.4153  2.2821 -1.8573
 3544SOL     OW22264   0.447   2.023   9.278  0.3616  0.2363  0.1424
 3544SOL    HW122265   0.380   2.091   9.272  0.6238  0.4947  0.1192
 3544SOL    HW222266   0.513   2.062   9.335  0.2586  1.2796 -0.4336
 3545SOL     OW22267   2.223   4.608   7.833  0.0079 -0.2941 -0.0399
 3545SOL    HW122268   2.244   4.573   7.746  0.4328 -1.0903  0.3788
 3545SOL    HW222269   2.181   4.530   7.869 -1.0583  0.1996 -0.2405
 3546SOL     OW22270   1.426   3.434   2.742  0.5322 -1.2410  0.3731
 3546SOL    HW122271   1.436   3.349   2.699 -0.1653 -1.1673  0.0562
 3546SOL    HW222272   1.407   3.490   2.666 -1.5256  0.5392  2.1768
 3547SOL     OW22273   4.527   1.624   5.494  0.3872 -0.0042 -0.1663
 3547SOL    HW122274   4.467   1.644   5.422 -0.7407 -0.2970  0.6827
 3547SOL    HW222275   4.512   1.704   5.545  0.1168 -1.8490  2.6406
 3548SOL     OW22276   2.155   3.610   8.471  0.4334  0.1300  0.0378
 3548SOL    HW122277   2.061   3.622   8.455  0.0823  0.0079  2.0638
 3548SOL    HW222278   2.166   3.524   8.431 -3.3863  0.2259 -1.2081
 3549SOL     OW22279   1.732   2.355  13.321 -0.5584  0.2586  0.1565
 3549SOL    HW122280   1.745   2.438  13.275 -0.6634  0.9725  1.4126
 3549SOL    HW222281   1.698   2.301  13.250 -0.8427  1.9934 -1.0173
 3550SOL     OW22282   4.042   3.104   5.121 -0.7315  0.7115  0.5507
 3550SOL    HW122283   3.981   3.178   5.116 -0.3034  0.9578 -1.0101
 3550SOL    HW222284   4.121   3.148   5.090 -0.7877  1.7522  1.8852
 3551SOL     OW22285   4.419   0.186   9.409 -0.2866  0.1515 -0.3798
 3551SOL    HW122286   4.485   0.132   9.366 -0.4631  0.7442 -1.3992
 3551SOL    HW222287   4.403   0.140   9.491  2.6297 -0.5380 -0.2104
 3552SOL     OW22288   0.573   0.364  10.001 -0.2625  0.1965  0.0326
 3552SOL    HW122289   0.559   0.458   9.998 -0.5926  0.0712 -2.4230
 3552SOL    HW222290   0.511   0.344  10.072 -0.9375 -2.9370 -1.4122
 3553SOL     OW22291   1.442   0.244   5.587  0.4233 -0.4162 -0.3472
 3553SOL    HW122292   1.520   0.198   5.555 -1.3978 -2.1330 -2.2937
 3553SOL    HW222293   1.391   0.227   5.508  1.2553  2.8963 -1.6283
 3554SOL     OW22294   2.102   3.048   4.123  0.6374 -0.7866  0.3837
 3554SOL    HW122295   2.044   3.044   4.047  1.5432  0.6375 -0.3871
 3554SOL    HW222296   2.093   3.141   4.144 -2.8092 -0.9917 -0.1835
 3555SOL     OW22297   3.988   0.067   7.111  0.1958  0.3053  0.2381
 3555SOL    HW122298   3.930   0.053   7.036  1.6855  1.2624 -1.1078
 3555SOL    HW222299   4.074   0.055   7.070  0.4236  2.1989  0.1593
 3556SOL     OW22300   2.831   4.657   4.407 -0.1929 -0.0030  0.9749
 3556SOL    HW122301   2.846   4.565   4.427 -1.3265 -0.6799 -1.2865
 3556SOL    HW222302   2.771   4.675   4.479 -2.0094  2.4469 -1.1336
 3557SOL     OW22303   1.414   2.349   2.773  0.4210 -0.3443  0.5666
 3557SOL    HW122304   1.395   2.256   2.772  0.4681 -0.3234 -4.0794
 3557SOL    HW222305   1.409   2.354   2.677 -5.3810  0.3796  0.9119
 3558SOL     OW22306   1.704   3.985  10.438 -0.2504 -0.4079 -0.6208
 3558SOL    HW122307   1.750   4.049  10.385  0.1666 -0.5795 -0.4655
 3558SOL    HW222308   1.724   3.908  10.384 -0.9092 -1.9727  1.3768
 3559SOL     OW22309   2.262   0.817  13.712  0.4596 -0.1080 -0.4134
 3559SOL    HW122310   2.350   0.788  13.736 -0.1415 -0.4977  1.3574
 3559SOL    HW222311   2.236   0.873  13.785  2.0480 -0.9640  0.8294
 3560SOL     OW22312   4.191   1.991   3.191 -0.3720  0.4579 -0.4257
 3560SOL    HW122313   4.278   1.955   3.209  0.5185  1.2128 -3.2284
 3560SOL    HW222314   4.197   2.085   3.210  0.9625 -0.3145  2.8332
 3561SOL     OW22315   0.813   3.223   2.396  0.0537  0.1083  0.4022
 3561SOL    HW122316   0.758   3.301   2.398  0.6345  0.5374 -0.2328
 3561SOL    HW222317   0.883   3.256   2.339 -0.3459 -0.7390 -0.5919
 3562SOL     OW22318   2.958   1.290   0.248 -0.2275  0.8623 -0.2406
 3562SOL    HW122319   2.874   1.297   0.204  0.2801  0.2137 -1.3306
 3562SOL    HW222320   3.004   1.241   0.180  0.4605  0.4836  0.4951
 3563SOL     OW22321   2.220   0.323   4.667  0.3093 -0.4051 -0.5971
 3563SOL    HW122322   2.196   0.320   4.760  0.9170  0.6700 -0.3941
 3563SOL    HW222323   2.288   0.390   4.665  0.7030 -0.7382  1.2701
 3564SOL     OW22324   2.185   0.113   0.131  0.0068  0.2764  0.0152
 3564SOL    HW122325   2.217   0.138   0.044 -1.7524 -0.6494 -0.9129
 3564SOL    HW222326   2.179   0.200   0.172 -1.7865  0.8846 -1.5072
 3565SOL     OW22327   1.693   2.809   1.369  0.0440 -0.4934 -0.2901
 3565SOL    HW122328   1.773   2.852   1.338 -0.9977  0.6235 -1.4539
 3565SOL    HW222329   1.647   2.789   1.287  0.3817 -0.8427 -0.3915
 3566SOL     OW22330   2.068   2.236   6.842 -0.4448 -0.3516  0.0017
 3566SOL    HW122331   1.981   2.231   6.803 -0.2230  1.6728 -0.7354
 3566SOL    HW222332   2.101   2.156   6.801 -0.3464 -0.1704 -0.2706
 3567SOL     OW22333   3.722   1.879  15.879 -0.5144 -0.0435 -0.8277
 3567SOL    HW122334   3.681   1.963  15.857 -1.8593 -1.2330 -2.8154
 3567SOL    HW222335   3.724   1.897  15.973 -1.9924  3.3924 -1.4517
 3568SOL     OW22336   0.963   3.412   2.713 -0.1676  0.1165  0.3102
 3568SOL    HW122337   1.010   3.489   2.744 -1.6290  0.8827  0.6020
 3568SOL    HW222338   0.903   3.455   2.652  0.1973 -0.8253 -0.7096
 3569SOL     OW22339   1.443   0.464   7.386 -0.5900 -0.4336 -0.9102
 3569SOL    HW122340   1.374   0.452   7.451 -0.2522 -1.9979 -0.8363
 3569SOL    HW222341   1.420   0.554   7.364  3.2571  1.1545  1.6675
 3570SOL     OW22342   4.466   1.764   1.960 -0.3991  0.5395  0.0095
 3570SOL    HW122343   4.481   1.844   2.010  0.9814 -0.4436  1.1623
 3570SOL    HW222344   4.535   1.783   1.897 -0.6200  1.7969  0.1593
 3571SOL     OW22345   4.513   0.016   2.527 -0.1741  0.0741  0.3752
 3571SOL    HW122346   4.607   4.735   2.525  0.1021  1.4958  0.3219
 3571SOL    HW222347   4.488   4.696   2.600  1.6167  1.4707  2.0909
 3572SOL     OW22348   2.825   0.260  16.985 -0.1072  0.0966  0.8062
 3572SOL    HW122349   2.753   0.279  17.045  0.3277  0.4888  1.2036
 3572SOL    HW222350   2.845   0.349  16.954 -1.5600  0.6905  1.5521
 3573SOL     OW22351   4.098   3.701   5.621  0.3174 -0.6850 -0.6597
 3573SOL    HW122352   4.177   3.755   5.622 -0.1666  0.0331 -1.3122
 3573SOL    HW222353   4.116   3.642   5.548 -0.9740 -1.3079 -0.4779
 3574SOL     OW22354   1.746   4.311  16.612  0.1965  0.2248 -0.1045
 3574SOL    HW122355   1.699   4.347  16.537 -0.3318  0.5969  0.4083
 3574SOL    HW222356   1.840   4.319  16.595  0.4031 -1.1798  0.3924
 3575SOL     OW22357   0.465   2.719   8.994 -0.8611  0.4675 -0.1141
 3575SOL    HW122358   0.377   2.695   8.963 -0.2826  0.0234 -1.3897
 3575SOL    HW222359   0.465   2.813   9.014 -2.8443 -0.1169  2.7363
 3576SOL     OW22360   3.153   0.543   9.054 -0.5372  0.4842  0.2041
 3576SOL    HW122361   3.245   0.521   9.036 -0.1363  2.7530 -0.5953
 3576SOL    HW222362   3.113   0.457   9.054  0.0220  0.2240 -0.3898
 3577SOL     OW22363   1.842   2.431   5.924  0.2817  0.4225 -0.6164
 3577SOL    HW122364   1.872   2.350   5.884  0.4657 -0.0130  0.3842
 3577SOL    HW222365   1.888   2.423   6.008 -1.6258 -0.6007  0.3403
 3578SOL     OW22366   0.602   0.964   3.859  0.7193  0.2152  0.5129
 3578SOL    HW122367   0.510   0.969   3.883  0.6796 -1.5499  0.7499
 3578SOL    HW222368   0.619   0.880   3.901 -1.0345  0.1474  1.0927
 3579SOL     OW22369   0.399   0.187   6.723 -0.4104 -0.0658  0.9269
 3579SOL    HW122370   0.306   0.207   6.713  0.1038  1.4104 -0.9625
 3579SOL    HW222371   0.429   0.199   6.633 -0.1811 -2.6714  0.6738
 3580SOL     OW22372   1.027   0.346   6.887 -0.1900  0.2917  0.2421
 3580SOL    HW122373   0.969   0.411   6.848 -1.7226 -2.2166 -1.6831
 3580SOL    HW222374   0.957   0.285   6.909  0.1269 -0.0764  0.2479
 3581SOL     OW22375   2.092   3.277   2.157 -0.0663 -0.3064  0.0637
 3581SOL    HW122376   2.061   3.193   2.192 -0.0016  0.4520  1.9664
 3581SOL    HW222377   2.158   3.300   2.222  2.2036 -3.7295 -1.0788
 3582SOL     OW22378   1.327   1.754   1.577 -0.0045 -0.4326  0.4799
 3582SOL    HW122379   1.375   1.672   1.589  0.2501 -0.1235  1.5942
 3582SOL    HW222380   1.260   1.734   1.512 -0.1426  1.6460 -0.0028
 3583SOL     OW22381   2.242   1.881  16.227  0.1053 -0.5160  0.1058
 3583SOL    HW122382   2.306   1.831  16.177 -0.8418 -0.5320 -1.1257
 3583SOL    HW222383   2.164   1.839  16.189  0.2469  1.2848 -2.2099
 3584SOL     OW22384   0.648   1.670   3.891  0.2879 -0.2552 -0.0170
 3584SOL    HW122385   0.631   1.610   3.964 -0.4384  3.9050  3.2250
 3584SOL    HW222386   0.737   1.647   3.865 -0.2534 -2.3710 -0.0101
 3585SOL     OW22387   2.617   0.060   9.468 -0.1229 -0.0120 -0.0001
 3585SOL    HW122388   2.685   0.093   9.525  0.2713 -0.0194 -0.4610
 3585SOL    HW222389   2.665   0.075   9.386 -0.3661  1.7273  0.1889
 3586SOL     OW22390   1.155   3.561   5.176  0.3209  0.4693  0.4050
 3586SOL    HW122391   1.219   3.575   5.107  0.0840 -2.6926 -0.4501
 3586SOL    HW222392   1.200   3.606   5.248 -0.8522 -1.3962  2.3055
 3587SOL     OW22393   3.874   2.643   6.258 -0.1846  0.2327  0.3260
 3587SOL    HW122394   3.906   2.561   6.221 -0.3067  0.4576 -0.2887
 3587SOL    HW222395   3.892   2.700   6.183 -3.0302  0.7534  0.0274
 3588SOL     OW22396   0.479   1.020   2.921  0.7598 -0.3671 -0.2246
 3588SOL    HW122397   0.501   1.097   2.867 -0.2330  0.3457  0.3885
 3588SOL    HW222398   0.530   0.953   2.875 -0.2427 -1.1096 -0.2402
 3589SOL     OW22399   3.317   0.528  16.804  0.4428 -0.7496  0.1141
 3589SOL    HW122400   3.300   0.543  16.711  1.3202  1.7374  0.3554
 3589SOL    HW222401   3.248   0.588  16.832  1.9506  1.0833 -0.0918
 3590SOL     OW22402   2.163   1.002   4.576  0.8493 -0.1394  0.1404
 3590SOL    HW122403   2.182   1.069   4.641  2.0768 -0.4865  0.1407
 3590SOL    HW222404   2.233   1.017   4.512 -3.2736 -0.0612 -4.3952
 3591SOL     OW22405   3.064   2.664   3.528  0.3429  0.8580  0.7978
 3591SOL    HW122406   3.096   2.684   3.616  1.2948 -1.4883  0.9795
 3591SOL    HW222407   2.972   2.685   3.544 -0.6332 -2.4013 -0.6185
 3592SOL     OW22408   4.491   0.734  17.576  0.3149  0.5491 -0.2798
 3592SOL    HW122409   4.519   0.787  17.650 -0.7972  0.8911 -0.1014
 3592SOL    HW222410   4.411   0.778  17.544  0.2805  2.1953  2.0960
 3593SOL     OW22411   2.883   1.211  17.410  0.0880 -0.1697 -0.2987
 3593SOL    HW122412   2.919   1.234  17.324 -1.0360  0.1875 -0.6624
 3593SOL    HW222413   2.874   1.116  17.409  0.1272 -0.1832  0.5544
 3594SOL     OW22414   2.067   0.750  11.712  0.3602  0.6752  1.1541
 3594SOL    HW122415   2.141   0.770  11.768  0.4084 -0.2248  1.4101
 3594SOL    HW222416   2.001   0.699  11.760  0.9829 -0.5925  0.6693
 3595SOL     OW22417   0.617   4.338   8.766 -0.1669  0.2674 -0.6035
 3595SOL    HW122418   0.688   4.283   8.800  2.3523  1.6922 -3.5259
 3595SOL    HW222419   0.541   4.305   8.815 -0.8943  0.8081 -1.3858
 3596SOL     OW22420   0.792   4.139  13.017 -0.1864 -0.2734 -0.1020
 3596SOL    HW122421   0.807   4.185  13.100  2.1440  2.1064 -1.8442
 3596SOL    HW222422   0.837   4.057  13.034  0.8176 -0.1789 -2.3301
 3597SOL     OW22423   4.381   3.073  11.365  0.1854  0.3760 -0.1104
 3597SOL    HW122424   4.329   2.993  11.363  0.6953  0.0953 -2.4417
 3597SOL    HW222425   4.354   3.108  11.450 -2.4667  3.0729 -2.0637
 3598SOL     OW22426   2.329   2.558  16.270 -0.1089 -0.0023 -0.6264
 3598SOL    HW122427   2.344   2.470  16.236  0.4619  0.2108 -0.9136
 3598SOL    HW222428   2.249   2.543  16.321  0.0607 -1.3534 -0.7550
 3599SOL     OW22429   1.118   1.933   7.633 -0.5968  0.0647 -0.1954
 3599SOL    HW122430   1.087   2.022   7.646  0.7421  0.5372 -0.2359
 3599SOL    HW222431   1.072   1.889   7.704 -2.2855  2.3421  0.1160
 3600SOL     OW22432   1.343   4.081   7.032  0.0371 -0.4403  0.3040
 3600SOL    HW122433   1.314   4.053   7.119  0.7629  2.4656  1.5085
 3600SOL    HW222434   1.404   4.152   7.053  1.1267 -0.4917 -2.6631
 3601SOL     OW22435   4.107   2.072  12.523  0.4385  0.3522  0.2085
 3601SOL    HW122436   4.134   1.983  12.499 -1.0671  0.0616 -0.4764
 3601SOL    HW222437   4.047   2.055  12.595 -1.9461  0.6234 -1.7122
 3602SOL     OW22438   2.840   1.779   9.075 -0.8009 -0.1006  0.0824
 3602SOL    HW122439   2.861   1.871   9.090 -0.0604 -0.1896 -0.4050
 3602SOL    HW222440   2.755   1.769   9.118 -0.9529  0.5527 -0.0721
 3603SOL     OW22441   1.299   0.776   3.034  0.0564  0.6752 -0.2947
 3603SOL    HW122442   1.294   0.818   3.120 -4.9767 -3.1469  1.3046
 3603SOL    HW222443   1.386   0.737   3.037  1.3737  3.7505  1.1389
 3604SOL     OW22444   1.197   4.678   3.752  0.5521  0.4279 -0.3995
 3604SOL    HW122445   1.128   4.685   3.818  1.3472  2.0005  0.2694
 3604SOL    HW222446   1.145   4.667   3.672 -0.5816  1.5182  0.1915
 3605SOL     OW22447   3.662   3.745   3.006  0.0217 -0.1902  0.4196
 3605SOL    HW122448   3.666   3.834   3.042  0.0631  0.0864 -0.2522
 3605SOL    HW222449   3.706   3.704   3.080  3.0708  0.3602 -1.0406
 3606SOL     OW22450   1.899   3.545   3.966  0.2176 -0.8575 -0.3884
 3606SOL    HW122451   1.877   3.585   3.882 -0.1035 -3.0572 -1.3338
 3606SOL    HW222452   1.824   3.572   4.019 -1.3759 -2.5311 -1.8034
 3607SOL     OW22453   1.753   2.166   8.383 -0.1816 -0.3240  0.1943
 3607SOL    HW122454   1.821   2.214   8.430 -1.1507  1.5745 -0.3439
 3607SOL    HW222455   1.727   2.223   8.311  2.5844  0.0099 -0.5242
 3608SOL     OW22456   2.733   2.698   5.426 -0.1763  0.5527  0.4167
 3608SOL    HW122457   2.657   2.685   5.484 -1.2684  2.1298 -0.6805
 3608SOL    HW222458   2.765   2.608   5.414 -1.9175  0.0705 -0.5975
 3609SOL     OW22459   0.338   4.699   3.085  0.2838 -0.5123 -0.3993
 3609SOL    HW122460   0.331   4.728   2.994  0.3869 -3.9423 -1.4912
 3609SOL    HW222461   0.286   0.025   3.134  1.7757 -1.1312  1.9653
 3610SOL     OW22462   2.825   0.396   6.655  0.3164  0.3077 -0.5954
 3610SOL    HW122463   2.868   0.474   6.618  0.5317  0.6729  0.4252
 3610SOL    HW222464   2.874   0.381   6.736 -1.1638 -1.5357 -0.0476
 3611SOL     OW22465   1.351   3.572  15.966  0.7271  1.0472 -0.1494
 3611SOL    HW122466   1.403   3.606  15.893  0.5324 -0.5705 -1.0420
 3611SOL    HW222467   1.266   3.615  15.963  0.1944 -0.3233 -3.9720
 3612SOL     OW22468   3.942   0.180   2.807  0.3100  0.0121 -0.1735
 3612SOL    HW122469   3.954   0.235   2.885 -1.2231 -2.5047  1.8164
 3612SOL    HW222470   3.997   0.234   2.750 -1.5924  0.8360 -1.2350
 3613SOL     OW22471   0.407   4.698   6.885 -0.8017  0.5140  0.0344
 3613SOL    HW122472   0.451   0.014   6.818 -3.3853  0.5631 -1.5999
 3613SOL    HW222473   0.332   4.658   6.841 -1.0010 -0.3784  1.1883
 3614SOL     OW22474   1.482   3.633   1.609 -0.3517  0.1813  0.1110
 3614SOL    HW122475   1.438   3.611   1.691 -1.7029  1.4018 -0.2874
 3614SOL    HW222476   1.569   3.600   1.633 -0.3806  0.3369  0.4271
 3615SOL     OW22477   2.459   2.165   4.501 -0.3289 -0.5716 -0.1784
 3615SOL    HW122478   2.507   2.234   4.456 -1.7461  1.6288  1.6587
 3615SOL    HW222479   2.424   2.116   4.427 -0.3247  1.1760 -1.3356
 3616SOL     OW22480   4.023   1.485   7.670  0.7377  0.1484  0.8229
 3616SOL    HW122481   3.987   1.565   7.630  1.2062  0.5202  1.1421
 3616SOL    HW222482   3.950   1.425   7.681  1.8163 -1.1239  1.0507
 3617SOL     OW22483   4.090   1.795  11.850  0.1791  0.2535 -0.1959
 3617SOL    HW122484   4.002   1.824  11.875  0.9330 -0.3887  3.2031
 3617SOL    HW222485   4.053   1.733  11.787 -1.0163 -0.0588  0.8048
 3618SOL     OW22486   0.912   1.870   6.358  0.3518  0.0382 -0.2838
 3618SOL    HW122487   0.845   1.915   6.409  1.6706  1.4398  0.1839
 3618SOL    HW222488   0.862   1.868   6.276 -2.4260  0.9384  1.3835
 3619SOL     OW22489   1.734   4.363   8.560  0.3286 -0.0217  0.3999
 3619SOL    HW122490   1.707   4.366   8.651 -3.3457  1.3186 -0.7239
 3619SOL    HW222491   1.666   4.417   8.519  0.8748  0.0913 -0.3704
 3620SOL     OW22492   3.037   2.408   7.673 -0.1762  0.8684 -0.0175
 3620SOL    HW122493   2.956   2.394   7.721 -0.5266  1.6412 -0.3816
 3620SOL    HW222494   3.079   2.324   7.691 -3.3212 -0.8294 -0.6767
 3621SOL     OW22495   3.971   4.382   5.856  0.0609  0.6410 -0.4426
 3621SOL    HW122496   3.889   4.432   5.861  0.0955  0.9421 -3.0132
 3621SOL    HW222497   3.957   4.336   5.774  2.4994 -0.7225 -0.0959
 3622SOL     OW22498   1.820   2.319   6.269  0.4342 -0.2140 -0.0135
 3622SOL    HW122499   1.826   2.266   6.349  0.5688 -0.2173 -0.0248
 3622SOL    HW222500   1.738   2.365   6.283  1.2548  0.5484  2.3875
 3623SOL     OW22501   1.133   1.435   6.181 -0.1015 -0.2465 -0.0963
 3623SOL    HW122502   1.087   1.456   6.262 -0.6749  1.4998 -0.8817
 3623SOL    HW222503   1.113   1.509   6.123 -1.9384 -1.0435 -0.4918
 3624SOL     OW22504   1.137   0.253   3.312  0.8532  0.1618 -0.2067
 3624SOL    HW122505   1.144   0.241   3.217  0.4543  1.5376 -0.4146
 3624SOL    HW222506   1.212   0.207   3.350 -0.9350 -0.5251  2.4191
 3625SOL     OW22507   4.029   4.134   2.709  0.0874 -0.4357 -0.4511
 3625SOL    HW122508   3.966   4.206   2.701  0.7409  0.2864  0.8453
 3625SOL    HW222509   4.000   4.104   2.796  2.3706  1.5104  0.9910
 3626SOL     OW22510   3.090   4.461   5.983  0.0749 -0.3521  0.3443
 3626SOL    HW122511   3.015   4.491   6.035 -0.9134 -0.9292 -0.7489
 3626SOL    HW222512   3.064   4.369   5.981  1.3160 -0.7009  0.4935
 3627SOL     OW22513   2.429   0.987  15.645 -0.0972  0.6797  0.5093
 3627SOL    HW122514   2.494   0.918  15.635 -0.7999 -0.0552  1.0211
 3627SOL    HW222515   2.417   1.005  15.738  0.7231  1.5141  0.4557
 3628SOL     OW22516   0.347   0.339  13.965  0.0784  0.1778 -0.1332
 3628SOL    HW122517   0.331   0.401  14.036 -1.5600 -0.5903  0.1746
 3628SOL    HW222518   0.267   0.286  13.959  0.1588 -0.0572  1.0034
 3629SOL     OW22519   3.046   3.860   2.505 -0.0221 -0.1506 -0.2574
 3629SOL    HW122520   2.991   3.910   2.445 -0.5508 -3.1443 -2.2464
 3629SOL    HW222521   2.982   3.816   2.562 -0.3386 -0.0105 -0.5028
 3630SOL     OW22522   1.218   0.326   6.117  0.0422 -0.1725  0.0119
 3630SOL    HW122523   1.153   0.375   6.066 -0.3984 -0.3976  0.3526
 3630SOL    HW222524   1.276   0.283   6.054 -1.7344 -1.2533 -0.8881
 3631SOL     OW22525   3.036   0.569   8.801 -0.1031 -0.0948 -0.6523
 3631SOL    HW122526   3.131   0.571   8.790  0.1038 -1.9592  0.7197
 3631SOL    HW222527   3.022   0.554   8.895 -0.9667  0.8169 -0.6433
 3632SOL     OW22528   0.332   1.931   3.088 -0.0194  0.3411 -0.1744
 3632SOL    HW122529   0.347   2.025   3.094 -1.1341  0.5739 -1.1957
 3632SOL    HW222530   0.417   1.898   3.120 -0.1664 -0.7318 -0.8764
 3633SOL     OW22531   3.967   4.066   5.419  0.2706  0.7952 -0.5119
 3633SOL    HW122532   4.051   4.019   5.419 -0.7795 -1.0985  0.8154
 3633SOL    HW222533   3.975   4.128   5.348  0.0222  0.2601 -1.0067
 3634SOL     OW22534   3.651   1.552   6.889  0.3924 -0.4967  0.3889
 3634SOL    HW122535   3.691   1.578   6.806  0.3357  1.8317  1.0980
 3634SOL    HW222536   3.564   1.530   6.856 -0.0331  1.1228  0.4256
 3635SOL     OW22537   3.424   1.351   6.203  0.2798 -0.5936 -0.4954
 3635SOL    HW122538   3.362   1.316   6.139 -1.5555  0.7589  0.5450
 3635SOL    HW222539   3.505   1.314   6.169  0.6528 -0.0484 -0.1986
 3636SOL     OW22540   1.009   3.378  12.889 -0.0702 -0.8639 -0.1685
 3636SOL    HW122541   0.934   3.365  12.947  0.5776  0.5573  0.9959
 3636SOL    HW222542   1.010   3.474  12.887 -0.2568 -0.8358  0.8230
 3637SOL     OW22543   2.112   3.852   4.346  0.3176  0.4627 -0.7482
 3637SOL    HW122544   2.095   3.821   4.257 -0.3773  1.5666 -0.9950
 3637SOL    HW222545   2.195   3.811   4.368  0.4908  0.6598 -1.0373
 3638SOL     OW22546   4.361   3.149  15.970 -0.1114 -0.0024 -0.0698
 3638SOL    HW122547   4.358   3.202  15.891  1.6495 -0.8781 -0.7113
 3638SOL    HW222548   4.394   3.212  16.034 -2.1406 -0.2510  1.2389
 3639SOL     OW22549   3.283   0.870   4.772  0.2591 -0.0528 -0.1102
 3639SOL    HW122550   3.267   0.922   4.850 -1.6275  0.9631 -1.1669
 3639SOL    HW222551   3.358   0.823   4.809  0.1981 -0.5642 -0.6230
 3640SOL     OW22552   2.970   2.348   8.589  0.0850 -1.0073  0.1333
 3640SOL    HW122553   2.927   2.310   8.666  0.4558 -0.4864  0.5942
 3640SOL    HW222554   3.062   2.350   8.613  0.2985 -1.2510 -0.6587
 3641SOL     OW22555   3.587   1.036   7.278 -0.3670 -0.1915  0.6336
 3641SOL    HW122556   3.673   1.076   7.267 -0.7436  0.4692  0.0600
 3641SOL    HW222557   3.596   0.948   7.244  0.1526  0.7982 -1.7654
 3642SOL     OW22558   1.781   2.241   3.261 -0.3228 -0.0047  0.1063
 3642SOL    HW122559   1.857   2.201   3.303  0.0791  0.4937 -0.1441
 3642SOL    HW222560   1.756   2.298   3.334  2.2388 -1.0706  1.8087
 3643SOL     OW22561   2.914   3.203  15.606 -0.0603 -0.6166 -0.7139
 3643SOL    HW122562   2.870   3.248  15.534 -1.0301 -1.4205 -0.6128
 3643SOL    HW222563   2.868   3.120  15.618  0.5813 -0.9790 -0.7989
 3644SOL     OW22564   2.410   0.576   4.434 -0.0957 -0.2176 -0.3002
 3644SOL    HW122565   2.345   0.518   4.395  1.8492 -1.8731 -1.0684
 3644SOL    HW222566   2.391   0.569   4.527 -0.8925 -0.9858 -0.5231
 3645SOL     OW22567   0.952   1.748   2.310  0.3204  0.0676  0.7534
 3645SOL    HW122568   0.960   1.838   2.341 -0.0552  0.1396  0.6382
 3645SOL    HW222569   1.011   1.749   2.234 -1.0609  2.6836 -0.2775
 3646SOL     OW22570   4.330   1.193   8.318 -0.3532 -0.6219 -0.2749
 3646SOL    HW122571   4.375   1.226   8.395  1.8745 -1.0941 -1.3778
 3646SOL    HW222572   4.287   1.270   8.280 -0.6787 -0.2255  0.8908
 3647SOL     OW22573   0.741   2.727   2.091  0.7175  0.1294 -0.2278
 3647SOL    HW122574   0.716   2.776   2.013  1.7203 -1.1327 -1.3483
 3647SOL    HW222575   0.776   2.647   2.051 -0.5360 -0.3070 -0.4528
 3648SOL     OW22576   4.452   2.690   4.186 -0.0998 -0.0824  0.2213
 3648SOL    HW122577   4.389   2.664   4.118 -0.2932  1.3983 -0.1694
 3648SOL    HW222578   4.474   2.775   4.148 -1.5254  0.3614  0.3832
 3649SOL     OW22579   2.042   0.762  11.443 -0.0755 -0.2076 -0.4975
 3649SOL    HW122580   2.051   0.755  11.538  1.3724 -3.9992 -0.9180
 3649SOL    HW222581   2.112   0.827  11.431 -1.2150  1.0230 -0.4161
 3650SOL     OW22582   1.168   0.875   7.953 -0.5784 -0.0974 -0.8527
 3650SOL    HW122583   1.237   0.935   7.982  0.1712 -0.9583 -0.8511
 3650SOL    HW222584   1.112   0.939   7.908  0.5773  1.2257 -0.3994
 3651SOL     OW22585   4.615   3.336  13.000 -0.1520 -0.3834 -0.5176
 3651SOL    HW122586   4.525   3.304  13.001 -0.2738 -0.0033  0.4333
 3651SOL    HW222587   4.660   3.252  12.992  1.2644  0.1318  2.1583
 3652SOL     OW22588   1.547   0.014   6.406 -0.5362 -0.0640 -0.2450
 3652SOL    HW122589   1.475   0.074   6.389 -0.0645  1.1706  2.0896
 3652SOL    HW222590   1.495   4.673   6.424 -0.9325  1.0672  3.6035
 3653SOL     OW22591   3.108   4.386   6.802 -0.1019  0.2487  0.3852
 3653SOL    HW122592   3.073   4.302   6.832  1.5298 -0.2730  0.8493
 3653SOL    HW222593   3.202   4.369   6.809  0.4903  2.6169 -1.6913
 3654SOL     OW22594   2.686   0.665   0.999  0.3595 -1.0940 -0.1749
 3654SOL    HW122595   2.708   0.669   1.092  1.6440  0.8776 -0.5580
 3654SOL    HW222596   2.626   0.738   0.980 -0.6077 -1.6135  0.9190
 3655SOL     OW22597   0.260   3.421   5.045 -0.1251  0.1902 -0.0259
 3655SOL    HW122598   0.206   3.484   5.092 -1.2762 -1.1097  0.3835
 3655SOL    HW222599   0.348   3.456   5.064  0.3328  0.4861 -2.7487
 3656SOL     OW22600   1.454   2.234  15.497 -0.1738  0.4077  0.3655
 3656SOL    HW122601   1.474   2.328  15.503  2.3432 -0.0517 -0.9241
 3656SOL    HW222602   1.470   2.211  15.589 -0.0877 -1.7312 -0.1927
 3657SOL     OW22603   4.196   3.555   4.243 -0.4314 -0.1279  0.1402
 3657SOL    HW122604   4.204   3.645   4.210 -2.0418 -0.7785 -2.0254
 3657SOL    HW222605   4.214   3.509   4.161 -2.3276 -1.1955  0.3299
 3658SOL     OW22606   3.381   1.835   4.433  0.1810  0.3119  1.0990
 3658SOL    HW122607   3.437   1.808   4.361 -1.8227 -0.2606 -0.2351
 3658SOL    HW222608   3.410   1.785   4.510  0.1935 -0.8154  0.3554
 3659SOL     OW22609   1.570   3.178   2.933 -0.3798 -0.4953 -0.2060
 3659SOL    HW122610   1.636   3.113   2.908 -1.7999 -1.5978 -1.1067
 3659SOL    HW222611   1.612   3.213   3.012  0.2939 -1.4379 -0.1507
 3660SOL     OW22612   0.630   4.621  16.311  0.6504  0.4539 -0.3405
 3660SOL    HW122613   0.670   4.702  16.343  1.3038  1.9236 -4.8780
 3660SOL    HW222614   0.575   4.651  16.239 -0.5256  2.1210  1.2621
 3661SOL     OW22615   3.826   2.436  17.726  0.1288 -0.1272  0.5256
 3661SOL    HW122616   3.861   2.511  17.677  0.4690 -0.2273  0.6175
 3661SOL    HW222617   3.799   2.478   0.061 -0.8147 -1.6723  0.9926
 3662SOL     OW22618   3.979   0.816   8.603 -0.7380 -0.4396 -0.4958
 3662SOL    HW122619   3.933   0.736   8.577  0.7231 -1.8882  1.3208
 3662SOL    HW222620   4.027   0.777   8.676 -2.5916  1.5024  1.7563
 3663SOL     OW22621   1.472   3.680   3.743  0.3505 -0.0123  0.0500
 3663SOL    HW122622   1.422   3.635   3.811 -1.7984  1.9203 -0.2420
 3663SOL    HW222623   1.405   3.691   3.675  0.1473 -0.4305  0.1859
 3664SOL     OW22624   4.677   1.724   2.520 -0.1115  0.2153 -0.4673
 3664SOL    HW122625   4.706   1.646   2.568  0.9169  0.4133 -0.7679
 3664SOL    HW222626   0.009   1.787   2.541  1.1667 -1.9719  1.8916
 3665SOL     OW22627   0.397   2.049   6.085 -0.0757  0.4318  0.7032
 3665SOL    HW122628   0.401   1.971   6.141  0.0747 -1.0989 -1.4278
 3665SOL    HW222629   0.304   2.069   6.090 -0.1771  0.1410 -0.0950
 3666SOL     OW22630   2.091   3.269   3.245  0.0027  0.3781  0.5104
 3666SOL    HW122631   2.152   3.266   3.172 -1.0302 -2.1054 -0.2544
 3666SOL    HW222632   2.086   3.175   3.265  0.9357 -0.1086 -1.5663
 3667SOL     OW22633   1.914   3.286   2.737  0.3305 -0.0812 -0.1606
 3667SOL    HW122634   1.997   3.327   2.764 -0.0908  0.1879  0.7245
 3667SOL    HW222635   1.849   3.341   2.779  0.7425  0.6423 -0.4730
 3668SOL     OW22636   3.195   3.945   5.958  0.4276  0.6515 -0.3454
 3668SOL    HW122637   3.100   3.932   5.954  0.3005  1.7785 -0.8235
 3668SOL    HW222638   3.218   3.852   5.967 -1.1841  0.3775  1.1041
 3669SOL     OW22639   4.403   3.221  16.491 -0.2830  0.0536 -0.0056
 3669SOL    HW122640   4.460   3.286  16.450  1.1866 -1.3745 -0.2730
 3669SOL    HW222641   4.322   3.253  16.452  0.1192 -0.6755 -1.4536
 3670SOL     OW22642   4.262   0.409  12.886  0.2560 -0.1571 -0.0936
 3670SOL    HW122643   4.325   0.413  12.958 -0.6874  0.2692  0.7082
 3670SOL    HW222644   4.283   0.485  12.833  0.4881 -0.7310 -0.8224
 3671SOL     OW22645   0.089   0.726   2.689 -0.2336  0.0663  0.1494
 3671SOL    HW122646   0.114   0.734   2.781 -2.1764 -3.9936  1.0546
 3671SOL    HW222647   0.176   0.732   2.650  0.8225  0.5236  2.5435
 3672SOL     OW22648   3.711   2.282  17.535 -0.3077  0.3718  0.1305
 3672SOL    HW122649   3.775   2.211  17.537 -0.7926 -0.1147 -1.5044
 3672SOL    HW222650   3.757   2.343  17.592 -0.4541  0.1716  0.4686
 3673SOL     OW22651   1.591   0.678  13.702  0.7081  0.9074 -0.2749
 3673SOL    HW122652   1.648   0.754  13.709  1.9108  0.0094 -0.3966
 3673SOL    HW222653   1.653   0.618  13.662  1.1291  1.6631 -0.7426
 3674SOL     OW22654   0.679   3.708   2.701  1.1517  0.1372  0.7044
 3674SOL    HW122655   0.656   3.623   2.661  1.3660 -0.5760  2.1177
 3674SOL    HW222656   0.749   3.733   2.641  0.6732 -3.0533 -1.2025
 3675SOL     OW22657   1.119   4.296  12.205  0.2881  0.0558  0.1985
 3675SOL    HW122658   1.162   4.348  12.272 -1.4952 -0.6975  1.9418
 3675SOL    HW222659   1.029   4.290  12.239 -0.5657  0.9732 -1.8592
 3676SOL     OW22660   1.704   2.004   0.932 -0.0098  0.4212 -0.3623
 3676SOL    HW122661   1.660   2.089   0.932  0.3542  0.6114  0.3701
 3676SOL    HW222662   1.766   2.009   1.005 -0.3696  0.5934 -0.0714
 3677SOL     OW22663   3.455   2.220  16.690 -0.7243  0.1389 -0.4428
 3677SOL    HW122664   3.407   2.302  16.704 -0.8717  0.0524 -0.4375
 3677SOL    HW222665   3.388   2.160  16.657 -1.1292 -1.2402  2.9296
 3678SOL     OW22666   1.150   0.921   7.518  0.1797 -0.5211  0.2865
 3678SOL    HW122667   1.207   0.932   7.442  0.2012  3.1311  0.8104
 3678SOL    HW222668   1.169   0.999   7.570  1.4617  0.2042 -1.2678
 3679SOL     OW22669   0.053   0.310   3.950 -0.5555  0.4390 -0.0791
 3679SOL    HW122670   0.143   0.311   3.982 -0.3960 -2.7625 -0.4337
 3679SOL    HW222671   0.049   0.375   3.879 -1.8343 -0.5634 -0.9343
 3680SOL     OW22672   1.824   0.671   6.525 -0.0691 -0.4416 -0.0272
 3680SOL    HW122673   1.774   0.745   6.488 -1.4379 -1.7455 -0.7888
 3680SOL    HW222674   1.852   0.629   6.444  0.3327 -0.7684  0.2843
 3681SOL     OW22675   2.325   3.001   5.488  0.6632  0.2298  0.0271
 3681SOL    HW122676   2.242   3.039   5.517 -0.3123 -2.7686  1.1602
 3681SOL    HW222677   2.362   2.969   5.570 -1.2977 -0.2640  0.7306
 3682SOL     OW22678   3.883   1.275   2.429 -0.0295 -0.4535  0.4561
 3682SOL    HW122679   3.889   1.227   2.346 -2.0037 -0.5236  0.3611
 3682SOL    HW222680   3.790   1.284   2.446  0.1398  1.4406  0.3634
 3683SOL     OW22681   4.517   1.898   7.129  0.4585 -0.6425  0.0388
 3683SOL    HW122682   4.466   1.864   7.055 -1.7784  0.6548  0.9775
 3683SOL    HW222683   4.591   1.838   7.133  3.0109  2.6150  1.2442
 3684SOL     OW22684   1.455   0.045   3.819 -0.8371 -0.4888 -0.4205
 3684SOL    HW122685   1.429   0.111   3.883 -2.0226  1.3112 -2.7593
 3684SOL    HW222686   1.369   0.010   3.794 -1.2470 -0.5696  1.1064
 3685SOL     OW22687   1.877   1.778   6.725 -0.0889 -0.6402 -0.1784
 3685SOL    HW122688   1.791   1.814   6.703  0.0263  0.1779  0.7463
 3685SOL    HW222689   1.856   1.785   6.818 -1.9166  3.7674 -0.9543
 3686SOL     OW22690   3.249   2.729   8.087 -0.1622  0.3377  0.1103
 3686SOL    HW122691   3.270   2.715   7.994 -1.1045 -0.3791  0.0063
 3686SOL    HW222692   3.324   2.691   8.133  1.0998  1.7780 -0.7474
 3687SOL     OW22693   4.441   4.565   6.154  0.4714 -0.3883  0.3501
 3687SOL    HW122694   4.406   4.484   6.191  3.5623 -0.3577  3.4431
 3687SOL    HW222695   4.466   4.536   6.067 -0.1503 -1.5746  0.5797
 3688SOL     OW22696   4.191   1.359  11.731 -0.1548 -0.0102  0.3174
 3688SOL    HW122697   4.194   1.317  11.818  1.2468  0.0101  0.2875
 3688SOL    HW222698   4.265   1.420  11.735 -1.8288  2.1155 -1.4871
 3689SOL     OW22699   4.245   2.472  12.673  0.8547 -0.1645  0.0939
 3689SOL    HW122700   4.233   2.444  12.764  0.5081  2.5499  0.9038
 3689SOL    HW222701   4.167   2.528  12.665  0.7766 -0.2939 -0.0525
 3690SOL     OW22702   1.950   3.320   4.829 -0.2676 -0.4815 -0.4513
 3690SOL    HW122703   1.917   3.243   4.783 -0.5618 -0.5171 -0.1837
 3690SOL    HW222704   1.920   3.396   4.777 -0.5501 -0.5738 -0.4244
 3691SOL     OW22705   2.673   1.498   3.131 -0.4216  0.0147 -0.5137
 3691SOL    HW122706   2.624   1.431   3.085  1.5042 -0.3112 -2.1197
 3691SOL    HW222707   2.615   1.574   3.120 -0.2861  0.0167 -1.2504
 3692SOL     OW22708   1.492   2.733   8.166  0.3227  0.0631 -0.0173
 3692SOL    HW122709   1.506   2.820   8.204 -0.8055  0.7123 -1.1060
 3692SOL    HW222710   1.454   2.680   8.236 -3.1865  0.2989 -1.7540
 3693SOL     OW22711   3.233   3.250  11.952 -0.1669 -0.2723 -0.0251
 3693SOL    HW122712   3.251   3.280  11.863 -3.2606  0.8487 -0.2595
 3693SOL    HW222713   3.188   3.319  12.001 -1.6106 -0.6191 -0.8778
 3694SOL     OW22714   2.199   0.402   0.819  0.1696  0.5034  0.1882
 3694SOL    HW122715   2.185   0.475   0.879 -3.2460 -1.3265  1.6090
 3694SOL    HW222716   2.282   0.425   0.777  0.1597  2.5306  1.2721
 3695SOL     OW22717   4.236   1.967   4.874 -0.3710 -0.4500  0.3982
 3695SOL    HW122718   4.233   2.061   4.891 -2.1278 -0.5449  0.5923
 3695SOL    HW222719   4.277   1.929   4.951  1.2691 -0.4142 -0.4516
 3696SOL     OW22720   4.396   1.384   1.919  0.3446 -0.0017 -0.0350
 3696SOL    HW122721   4.392   1.334   1.837  1.4993 -1.2984  0.7025
 3696SOL    HW222722   4.422   1.472   1.893  4.0464 -1.5609 -1.5584
 3697SOL     OW22723   0.054   1.948   2.112  0.6771  0.0593 -0.3289
 3697SOL    HW122724   4.696   1.943   2.112  0.6927 -0.2935 -2.0051
 3697SOL    HW222725   0.073   2.005   2.037 -0.2355  0.0712 -0.5449
 3698SOL     OW22726   3.517   1.630  15.291  0.0789  0.3598  0.2038
 3698SOL    HW122727   3.597   1.675  15.319 -0.1879  1.1861 -0.3866
 3698SOL    HW222728   3.525   1.545  15.335  0.3214  0.3807  0.2001
 3699SOL     OW22729   1.082   4.085  12.639 -0.4565 -1.0509  0.4182
 3699SOL    HW122730   1.081   4.180  12.632 -0.4784 -1.2194 -1.7587
 3699SOL    HW222731   1.129   4.051  12.563 -3.3792 -1.9133 -1.0117
 3700SOL     OW22732   3.809   4.085   5.798  0.4872 -0.1064 -0.2997
 3700SOL    HW122733   3.775   4.016   5.741  2.1079  0.5941 -2.1112
 3700SOL    HW222734   3.833   4.150   5.732  0.1329  0.3265 -0.0028
 3701SOL     OW22735   0.130   4.715   8.198  0.1802  0.5519  0.0212
 3701SOL    HW122736   0.104   0.037   8.127 -2.8482 -2.6079 -1.5487
 3701SOL    HW222737   0.063   0.007   8.260  0.7834  2.2548 -0.1397
 3702SOL     OW22738   3.464   0.045   8.427 -0.3044  0.1243  0.5406
 3702SOL    HW122739   3.492   4.724   8.356  0.5360 -0.7337  1.5765
 3702SOL    HW222740   3.451   4.721   8.499  0.2753  1.4589  1.7840
 3703SOL     OW22741   3.012   2.624  12.231  0.4367 -0.2396 -0.2721
 3703SOL    HW122742   2.987   2.684  12.301  0.8726  0.8396 -1.0402
 3703SOL    HW222743   2.994   2.679  12.155  0.6265  1.2496  0.7701
 3704SOL     OW22744   0.465   4.360  17.657  0.4176  0.1676  0.1203
 3704SOL    HW122745   0.436   4.445  17.690 -0.8047 -0.1405 -0.1575
 3704SOL    HW222746   0.542   4.386  17.606 -0.5342  0.0813 -1.3717
 3705SOL     OW22747   2.475   3.991   5.473  0.1411 -0.1569 -0.5402
 3705SOL    HW122748   2.477   3.910   5.422  1.4716  0.4187 -1.4199
 3705SOL    HW222749   2.407   4.044   5.433 -0.3005  0.2303  0.7399
 3706SOL     OW22750   2.847   1.380   6.225 -0.5183 -0.1050 -0.0118
 3706SOL    HW122751   2.860   1.353   6.316 -1.2203  1.6131  0.5997
 3706SOL    HW222752   2.831   1.474   6.234 -0.9592 -0.4156  2.4029
 3707SOL     OW22753   2.161   4.096   6.438 -0.2575  0.1956 -0.1586
 3707SOL    HW122754   2.080   4.060   6.404  0.0799 -0.7293  0.0198
 3707SOL    HW222755   2.208   4.014   6.456 -2.9438 -1.6111 -1.3322
 3708SOL     OW22756   3.403   0.505   5.387  0.1787 -0.0878  0.1735
 3708SOL    HW122757   3.371   0.488   5.475 -3.0170 -0.3308 -1.0445
 3708SOL    HW222758   3.486   0.549   5.407 -0.3917  1.0586  0.0374
 3709SOL     OW22759   1.794   2.492   4.082 -0.1831  0.6533  0.0921
 3709SOL    HW122760   1.707   2.531   4.094 -0.8693 -0.8709  0.0816
 3709SOL    HW222761   1.854   2.561   4.110 -1.8588  1.0964  2.6925
 3710SOL     OW22762   4.367   3.232  13.022 -0.1608 -0.1856 -0.2377
 3710SOL    HW122763   4.339   3.238  13.113 -1.4985  1.4145 -0.7619
 3710SOL    HW222764   4.366   3.137  13.009 -0.8654 -0.4092  1.4820
 3711SOL     OW22765   2.745   3.243   4.744  0.2700 -0.5037  0.6593
 3711SOL    HW122766   2.796   3.187   4.804  0.4310  0.6258  1.5815
 3711SOL    HW222767   2.735   3.194   4.662 -0.6078  0.8846 -0.0571
 3712SOL     OW22768   0.988   3.080   7.080  0.0237  0.3303 -0.3414
 3712SOL    HW122769   1.025   3.029   7.152 -0.4388 -0.5452 -0.7383
 3712SOL    HW222770   0.976   3.011   7.016  0.2122  0.6557 -0.7294
 3713SOL     OW22771   1.594   2.090  14.333  0.3230 -0.1796  0.5863
 3713SOL    HW122772   1.684   2.085  14.301  0.1613  3.2977 -0.3800
 3713SOL    HW222773   1.616   2.118  14.422 -0.6958 -1.5660  1.2776
 3714SOL     OW22774   1.027   0.280   5.447  0.2068  0.1897  0.3138
 3714SOL    HW122775   0.946   0.330   5.436 -2.4875 -4.5787 -1.9563
 3714SOL    HW222776   0.994   0.192   5.465 -0.7700  0.7391  1.2214
 3715SOL     OW22777   2.333   0.925   5.956 -0.1508  0.0236  0.2477
 3715SOL    HW122778   2.415   0.882   5.983  0.9038  1.2344 -1.0228
 3715SOL    HW222779   2.264   0.862   5.974 -0.3463 -0.1464 -1.0755
 3716SOL     OW22780   1.865   0.352   8.684  0.9607 -0.4073 -0.7581
 3716SOL    HW122781   1.794   0.348   8.620  0.1929  0.9174  0.0126
 3716SOL    HW222782   1.865   0.448   8.678  0.5353 -0.3007  0.9620
 3717SOL     OW22783   0.851   4.163  13.554 -0.5978  0.6239  0.5462
 3717SOL    HW122784   0.855   4.069  13.572 -1.4716  0.3245 -0.9032
 3717SOL    HW222785   0.940   4.186  13.526 -0.2884  0.1798  1.1533
 3718SOL     OW22786   0.694   2.248  14.019  0.4295 -0.2131  0.2396
 3718SOL    HW122787   0.743   2.225  14.098  0.2562  0.8208  0.6525
 3718SOL    HW222788   0.668   2.161  13.988 -1.3503 -0.3731  2.1937
 3719SOL     OW22789   0.035   2.246   0.022  0.3539 -0.1540 -0.3047
 3719SOL    HW122790   0.102   2.286   0.077  3.2868 -3.1180 -1.7456
 3719SOL    HW222791   0.080   2.163   0.008  0.0154 -0.7631  2.3737
 3720SOL     OW22792   4.239   1.978   5.421 -0.3011  0.0711 -0.9790
 3720SOL    HW122793   4.313   2.028   5.457 -0.4994 -0.4162  0.1196
 3720SOL    HW222794   4.196   2.049   5.374  1.0290  1.7705  0.3420
 3721SOL     OW22795   2.379   4.214  13.986  0.2561  0.0454  0.2514
 3721SOL    HW122796   2.406   4.263  13.908  0.1638 -0.4695 -0.1009
 3721SOL    HW222797   2.448   4.228  14.051  0.4735 -1.9967  0.4356
 3722SOL     OW22798   1.011   2.776  16.188 -0.0844 -0.0567  0.1071
 3722SOL    HW122799   1.022   2.868  16.161 -0.3339 -0.4498 -1.3346
 3722SOL    HW222800   1.018   2.743  16.099 -1.2233  0.0719 -0.0351
 3723SOL     OW22801   0.581   3.380   2.369  0.1749 -0.0470  0.5302
 3723SOL    HW122802   0.559   3.456   2.315  5.0015 -0.1323 -1.6116
 3723SOL    HW222803   0.502   3.328   2.355 -1.5820  2.3668  1.5039
 3724SOL     OW22804   1.494   2.854  14.024  0.1184 -0.3900 -0.0196
 3724SOL    HW122805   1.449   2.835  14.106  1.4971 -2.7464  0.1784
 3724SOL    HW222806   1.579   2.885  14.055  0.7889 -2.5156  0.2882
 3725SOL     OW22807   4.062   3.920   0.502  0.7109  0.0981 -0.6231
 3725SOL    HW122808   3.993   3.984   0.485  0.2235  0.1948  1.7354
 3725SOL    HW222809   4.124   3.974   0.550 -0.5823 -0.3117  1.4981
 3726SOL     OW22810   0.361   3.122   7.294 -0.0305  0.4886  0.0675
 3726SOL    HW122811   0.339   3.145   7.385  0.0302 -2.2148  0.7721
 3726SOL    HW222812   0.454   3.142   7.305 -0.1546  0.5976  0.8985
 3727SOL     OW22813   3.982   4.046   2.397  0.5817  0.8041  0.3992
 3727SOL    HW122814   4.046   3.975   2.396  1.0607  1.2564 -1.0528
 3727SOL    HW222815   3.909   4.002   2.440  0.7083  1.0808  0.8984
 3728SOL     OW22816   0.294   4.621  10.065  0.4180 -0.6671 -0.2932
 3728SOL    HW122817   0.209   4.665  10.072  0.5196 -0.6604  0.9038
 3728SOL    HW222818   0.337   4.686  10.009 -0.1807 -0.5812 -0.6505
 3729SOL     OW22819   4.735   4.606   2.957 -0.0632 -0.3971 -0.4905
 3729SOL    HW122820   4.706   4.697   2.962  0.0117 -0.2876 -1.9209
 3729SOL    HW222821   4.717   4.581   3.047  0.4787  0.8491 -0.0390
 3730SOL     OW22822   4.353   2.919   5.989  0.1827 -0.6769 -0.1099
 3730SOL    HW122823   4.293   2.884   5.923  0.1521 -0.6464 -0.0980
 3730SOL    HW222824   4.369   3.010   5.962  0.9156 -0.2089  1.8852
 3731SOL     OW22825   4.305   1.433  10.947  0.1293 -0.5778 -0.4571
 3731SOL    HW122826   4.250   1.486  10.889 -1.9029 -1.8405  0.3167
 3731SOL    HW222827   4.384   1.487  10.952 -0.3078 -0.0703  0.9683
 3732SOL     OW22828   1.319   1.507   8.107  0.3168  0.0700 -0.1275
 3732SOL    HW122829   1.301   1.416   8.133  0.6832 -0.2486 -0.9731
 3732SOL    HW222830   1.241   1.561   8.110 -0.4320 -1.0677  0.9630
 3733SOL     OW22831   3.772   2.978  12.330  0.0867 -0.3024  0.4309
 3733SOL    HW122832   3.720   3.058  12.341 -0.3935 -0.5968  0.2591
 3733SOL    HW222833   3.785   2.951  12.421  0.6789  0.5811  0.6157
 3734SOL     OW22834   3.712   0.994  11.302 -0.0953 -0.9198 -0.0135
 3734SOL    HW122835   3.680   0.944  11.376 -2.2240 -1.4690 -1.3130
 3734SOL    HW222836   3.650   0.957  11.239  1.3833 -0.5070 -1.7387
 3735SOL     OW22837   0.655   3.712   1.531 -0.3324 -0.0394 -0.0271
 3735SOL    HW122838   0.590   3.764   1.483  1.5388  1.6529 -0.7184
 3735SOL    HW222839   0.736   3.761   1.541  0.3599 -1.1765 -0.0270
 3736SOL     OW22840   0.438   2.329   9.526 -0.0082  0.5342 -0.8389
 3736SOL    HW122841   0.417   2.243   9.560 -0.3113  0.9009 -0.1006
 3736SOL    HW222842   0.372   2.381   9.572  0.2207 -0.0438  0.1360
 3737SOL     OW22843   4.042   3.601   7.677  0.0317  0.3597  0.3252
 3737SOL    HW122844   4.136   3.588   7.688 -0.1219 -1.3504 -0.4030
 3737SOL    HW222845   4.027   3.612   7.771  0.4148  1.0297  0.3053
 3738SOL     OW22846   3.303   3.057   2.030 -0.2762  0.3209 -0.6401
 3738SOL    HW122847   3.287   3.130   2.090 -0.3600 -1.5283  1.5740
 3738SOL    HW222848   3.387   3.022   2.059  0.5614 -0.9589 -4.5922
 3739SOL     OW22849   4.551   1.204   1.755  0.1460  0.3546  0.4135
 3739SOL    HW122850   4.477   1.228   1.699 -1.7523 -2.5131  1.6790
 3739SOL    HW222851   4.538   1.110   1.758 -1.8681  0.5157 -4.0053
 3740SOL     OW22852   1.412   0.570   3.735  0.3072  0.5397  0.0136
 3740SOL    HW122853   1.365   0.583   3.817 -1.3448 -0.0490 -0.8550
 3740SOL    HW222854   1.331   0.560   3.685  1.0646  0.2511 -1.1849
 3741SOL     OW22855   3.839   2.665   0.198  0.1322 -0.4097  0.4590
 3741SOL    HW122856   3.880   2.744   0.233  0.4260 -1.4700  2.4797
 3741SOL    HW222857   3.832   2.692   0.106 -0.2832 -0.6773  0.4132
 3742SOL     OW22858   3.942   3.379   3.690  0.5548  0.0683 -0.3980
 3742SOL    HW122859   3.958   3.433   3.767 -1.3734  0.4908 -0.2916
 3742SOL    HW222860   3.868   3.322   3.710 -0.9627  1.9952 -0.5696
 3743SOL     OW22861   3.016   2.049  12.990 -0.2503 -0.3899 -0.3667
 3743SOL    HW122862   2.933   2.059  13.036 -0.7530  1.4958 -1.7157
 3743SOL    HW222863   3.056   1.975  13.037 -0.8206  0.6873  1.8245
 3744SOL     OW22864   2.938   0.697   9.114  0.0740  0.5337 -0.0457
 3744SOL    HW122865   3.012   0.636   9.110 -0.5620 -0.2371 -0.2247
 3744SOL    HW222866   2.905   0.663   9.197  2.6176  2.7898  1.8815
 3745SOL     OW22867   1.563   2.664   4.148  0.3243 -0.0186  0.0011
 3745SOL    HW122868   1.508   2.634   4.220  1.6131 -2.6748 -0.1368
 3745SOL    HW222869   1.495   2.691   4.086 -0.9868  1.3010  1.9860
 3746SOL     OW22870   3.882   0.044   9.336  0.4265 -0.1486  0.9258
 3746SOL    HW122871   3.835   0.123   9.364 -0.8639 -0.9816  1.0854
 3746SOL    HW222872   3.973   0.075   9.342 -0.1845  1.7328  0.6484
 3747SOL     OW22873   3.667   3.815   2.232 -0.0355 -0.0905  0.0807
 3747SOL    HW122874   3.683   3.880   2.300 -2.6328 -1.7300  2.2446
 3747SOL    HW222875   3.745   3.812   2.177  0.3718 -0.3577  0.6769
 3748SOL     OW22876   1.967   1.756  15.723 -0.5711 -0.4430 -0.1291
 3748SOL    HW122877   1.916   1.682  15.757 -2.0878  1.0745  0.8782
 3748SOL    HW222878   2.001   1.722  15.640 -0.1650 -0.2202 -0.0521
 3749SOL     OW22879   4.390   2.377   2.681  0.1359 -0.0508  0.8288
 3749SOL    HW122880   4.305   2.336   2.698  1.4306 -2.5925  1.2049
 3749SOL    HW222881   4.421   2.342   2.598 -0.4688  1.2298  0.0588
 3750SOL     OW22882   0.326   2.994   6.440  0.3513 -0.5179  0.0973
 3750SOL    HW122883   0.394   3.053   6.470 -0.0926  0.3744 -0.6411
 3750SOL    HW222884   0.369   2.951   6.365 -1.1903 -0.1486 -1.0024
 3751SOL     OW22885   1.691   3.407   4.326 -0.1851 -0.4123 -0.9874
 3751SOL    HW122886   1.723   3.479   4.273 -0.6935  0.0988 -0.6093
 3751SOL    HW222887   1.769   3.378   4.372 -1.0010 -1.7538 -0.4315
 3752SOL     OW22888   4.407   1.025   8.817 -0.1079 -0.4121  0.4954
 3752SOL    HW122889   4.353   0.966   8.870  0.4753  0.4626  2.0269
 3752SOL    HW222890   4.341   1.064   8.759  1.6417 -1.6119 -2.2885
 3753SOL     OW22891   0.117   2.867   3.215 -0.0917  0.2604  0.1369
 3753SOL    HW122892   0.074   2.797   3.167  0.9107 -1.4533  1.7717
 3753SOL    HW222893   0.076   2.950   3.191 -2.6668 -0.9450  0.3431
 3754SOL     OW22894   0.057   1.871  13.914 -0.4909 -0.0921  0.1056
 3754SOL    HW122895   0.067   1.905  14.003 -2.3519 -1.3571  0.8028
 3754SOL    HW222896   0.127   1.923  13.876  1.0456 -0.7922  1.9740
 3755SOL     OW22897   2.786   3.233   4.028  0.8311  0.1258  0.0596
 3755SOL    HW122898   2.798   3.189   3.944  1.7506  2.4618 -1.0259
 3755SOL    HW222899   2.832   3.315   4.009  1.5050 -0.1819  0.3508
 3756SOL     OW22900   2.912   2.755  16.832  0.6769 -0.2938  0.4172
 3756SOL    HW122901   2.902   2.720  16.921  1.1391 -0.2073  0.5051
 3756SOL    HW222902   2.850   2.827  16.828  1.4326  0.3116 -0.3436
 3757SOL     OW22903   0.943   4.501   0.919 -0.2593  0.4618  0.8136
 3757SOL    HW122904   1.019   4.519   0.864  0.4567 -2.8226  0.7304
 3757SOL    HW222905   0.964   4.416   0.958  0.9440 -0.3209 -1.5873
 3758SOL     OW22906   4.601   0.604   6.837  0.1012  0.3828 -1.0143
 3758SOL    HW122907   4.655   0.634   6.764  1.8354  0.5816  0.3419
 3758SOL    HW222908   4.511   0.596   6.804  0.5269  0.1639 -2.1094
 3759SOL     OW22909   3.362   1.498   2.274  0.2410 -0.3223 -0.2203
 3759SOL    HW122910   3.275   1.466   2.297  0.7139 -1.4516 -0.0013
 3759SOL    HW222911   3.367   1.487   2.179  0.5773 -0.6579 -0.1640
 3760SOL     OW22912   0.429   2.210   3.044 -0.2957  1.0158 -0.0407
 3760SOL    HW122913   0.404   2.244   2.958  2.1277 -0.3251 -1.2630
 3760SOL    HW222914   0.511   2.254   3.066  0.9107 -1.1210 -0.2725
 3761SOL     OW22915   1.982   3.474  10.766 -0.2295  0.5198 -0.3446
 3761SOL    HW122916   1.905   3.521  10.732 -1.1433  0.7959  2.0584
 3761SOL    HW222917   1.998   3.531  10.842  0.1957  1.2925 -1.0129
 3762SOL     OW22918   1.372   2.253   4.280 -0.4001  0.1319  0.3366
 3762SOL    HW122919   1.451   2.208   4.249 -1.6918 -0.7397 -1.7375
 3762SOL    HW222920   1.403   2.293   4.361  0.5908  0.3339 -0.1367
 3763SOL     OW22921   0.758   0.955  10.363  0.1614  0.0131 -0.3367
 3763SOL    HW122922   0.772   0.997  10.448 -0.7144 -0.3029 -0.0311
 3763SOL    HW222923   0.830   0.892  10.360  1.0745  1.0504 -0.2555
 3764SOL     OW22924   0.354   1.533   4.491  0.5998 -0.4075  0.1531
 3764SOL    HW122925   0.407   1.460   4.521 -0.6426 -0.5769  1.8979
 3764SOL    HW222926   0.264   1.522   4.521 -0.9071 -0.5319 -4.4054
 3765SOL     OW22927   3.089   3.270   7.886  0.3653  0.6110  0.3483
 3765SOL    HW122928   2.998   3.276   7.912  0.7108  0.7904  1.5366
 3765SOL    HW222929   3.105   3.176   7.877 -2.6019  0.1747 -0.3199
 3766SOL     OW22930   0.584   3.287   3.359 -0.5242 -0.2132  0.2271
 3766SOL    HW122931   0.510   3.310   3.302 -2.0995 -1.3717  1.8174
 3766SOL    HW222932   0.631   3.370   3.365 -1.5027  0.3351  0.3380
 3767SOL     OW22933   0.961   3.191   1.026  0.7351  0.1429  0.1054
 3767SOL    HW122934   0.913   3.116   1.060 -1.1226  0.5802 -1.5830
 3767SOL    HW222935   0.910   3.221   0.951  0.8656  1.6321  0.6170
 3768SOL     OW22936   1.882   1.079  11.504  0.1500  1.0144 -0.2891
 3768SOL    HW122937   1.967   1.090  11.548  0.5582  0.3661 -0.9213
 3768SOL    HW222938   1.830   1.125  11.570  1.7683 -1.6925  2.8798
 3769SOL     OW22939   1.203   3.594   8.174  0.2817 -0.6355  0.1626
 3769SOL    HW122940   1.245   3.541   8.241 -1.2565 -1.6766  0.3065
 3769SOL    HW222941   1.165   3.527   8.118 -2.2641  0.8717  0.0598
 3770SOL     OW22942   0.326   1.830   8.404 -0.4900 -0.4597  0.3311
 3770SOL    HW122943   0.281   1.907   8.370 -1.1122 -1.1287 -0.3544
 3770SOL    HW222944   0.416   1.846   8.376 -1.0495  0.7101 -0.8165
 3771SOL     OW22945   0.148   2.939   7.696  0.3981 -0.1006  0.1867
 3771SOL    HW122946   0.157   3.016   7.753  1.7076  0.6319 -0.9991
 3771SOL    HW222947   0.056   2.946   7.670 -0.1674 -1.2676  1.8560
 3772SOL     OW22948   4.206   0.765   1.908 -0.2762 -0.4882 -0.0178
 3772SOL    HW122949   4.196   0.778   1.814  3.8052 -1.3146 -0.5520
 3772SOL    HW222950   4.132   0.707   1.928 -1.9939  1.3582 -1.0253
 3773SOL     OW22951   1.497   2.490  15.555 -0.3159 -0.6546 -0.3707
 3773SOL    HW122952   1.434   2.562  15.548  1.9525  1.5563  2.1924
 3773SOL    HW222953   1.572   2.540  15.588  0.0777 -0.8508 -0.9505
 3774SOL     OW22954   3.056   3.419   6.598 -0.2241 -0.3821 -0.3144
 3774SOL    HW122955   3.062   3.350   6.664  2.2574 -1.8144 -2.0214
 3774SOL    HW222956   3.141   3.404   6.557 -0.0235 -1.3400  0.4514
 3775SOL     OW22957   1.985   1.014   3.412 -0.0936 -0.1298 -0.2186
 3775SOL    HW122958   1.893   0.996   3.396 -0.5745  1.5028  0.7277
 3775SOL    HW222959   1.987   0.966   3.495  1.0449 -1.1905 -0.8443
 3776SOL     OW22960   0.079   3.629   6.097 -0.0143  0.2077  0.5393
 3776SOL    HW122961   0.034   3.667   6.022  1.3360 -3.2100 -1.9709
 3776SOL    HW222962   0.019   3.557   6.116  0.6293 -0.4422  0.1055
 3777SOL     OW22963   2.593   3.808  13.328  0.3714 -0.1465  0.0939
 3777SOL    HW122964   2.508   3.765  13.340 -0.1251  0.3189 -1.7313
 3777SOL    HW222965   2.660   3.741  13.316 -0.2208 -0.8863  0.8564
 3778SOL     OW22966   4.316   3.526   7.605  0.6471  0.0199  0.3746
 3778SOL    HW122967   4.346   3.484   7.685 -1.8609 -1.4787  0.5368
 3778SOL    HW222968   4.343   3.461   7.540 -0.0546 -0.0494  0.1544
 3779SOL     OW22969   1.085   4.341   9.111  0.1133  0.1359  0.4170
 3779SOL    HW122970   1.051   4.411   9.054  2.3933  1.5385  0.7987
 3779SOL    HW222971   1.024   4.269   9.091 -0.0594 -0.2885  2.5122
 3780SOL     OW22972   0.012   1.812   1.810  0.3658  0.0324  0.0687
 3780SOL    HW122973   0.043   1.735   1.858  0.3662 -0.3334 -0.5196
 3780SOL    HW222974   4.694   1.777   1.740 -0.0493 -0.1235  0.4708
 3781SOL     OW22975   2.930   4.700   4.749  0.0721  0.0049  0.2353
 3781SOL    HW122976   2.917   4.623   4.693 -0.7599 -0.8002  1.5358
 3781SOL    HW222977   2.840   4.711   4.779 -0.8621 -2.5552 -1.6139
 3782SOL     OW22978   3.001   2.520   2.595 -0.2653  0.2328 -0.1452
 3782SOL    HW122979   3.068   2.533   2.528 -0.1456 -1.3087 -0.3225
 3782SOL    HW222980   2.958   2.606   2.590  1.6073  1.0456 -2.4961
 3783SOL     OW22981   1.611   2.583   3.781  0.3643 -0.2688  0.4690
 3783SOL    HW122982   1.581   2.574   3.691 -0.2287  1.7556  0.4852
 3783SOL    HW222983   1.695   2.537   3.786 -0.8660 -2.9119 -3.4909
 3784SOL     OW22984   1.316   1.332   3.960 -0.2849 -0.0170 -0.6231
 3784SOL    HW122985   1.284   1.325   4.049  2.1441  0.8262  0.3063
 3784SOL    HW222986   1.406   1.307   3.977 -0.5823  0.1995  1.2830
 3785SOL     OW22987   0.165   0.053   5.603 -0.2183  0.0966 -0.3967
 3785SOL    HW122988   0.112   0.126   5.635 -0.0115 -0.1490  0.5028
 3785SOL    HW222989   0.107   0.028   5.531 -0.3201 -3.0282  0.7355
 3786SOL     OW22990   3.685   0.113   8.676  0.0235  0.0715  0.1623
 3786SOL    HW122991   3.709   0.047   8.610  0.2229  0.9748 -0.6582
 3786SOL    HW222992   3.605   0.076   8.712 -1.5960  0.3959 -3.1087
 3787SOL     OW22993   3.345   0.739   8.338 -0.1861  0.0814 -0.1043
 3787SOL    HW122994   3.291   0.716   8.414 -0.6130  0.4222 -0.3025
 3787SOL    HW222995   3.304   0.819   8.305 -1.5935 -0.4706  0.3126
 3788SOL     OW22996   1.533   2.231  15.242 -0.5376 -0.0652  0.0052
 3788SOL    HW122997   1.502   2.210  15.330 -0.8221  1.2378  0.2137
 3788SOL    HW222998   1.455   2.274  15.207  0.2761  1.6077  0.2435
 3789SOL     OW22999   2.947   1.403   2.901  0.3607  0.2703  0.5817
 3789SOL    HW123000   3.008   1.477   2.900  1.5222 -0.7080  0.4287
 3789SOL    HW223001   2.934   1.389   2.994  4.3232 -0.3204  1.0433
 3790SOL     OW23002   3.992   2.562   6.601  0.1215 -0.9005  0.3940
 3790SOL    HW123003   4.052   2.586   6.671  0.3728  2.1344 -0.8116
 3790SOL    HW223004   3.948   2.644   6.577  2.3827 -0.1693 -1.2152
 3791SOL     OW23005   1.985   4.184  16.864  0.0546  0.6322 -0.3937
 3791SOL    HW123006   1.985   4.175  16.769  0.9452 -0.5442 -0.2814
 3791SOL    HW223007   2.020   4.273  16.874 -0.0156  0.6321 -0.1438
 3792SOL     OW23008   1.047   1.846   4.360 -0.4145  0.3736 -0.4513
 3792SOL    HW123009   1.014   1.778   4.301  1.9692 -0.6086 -0.6732
 3792SOL    HW223010   0.984   1.844   4.431  0.7804 -1.2727  0.5773
 3793SOL     OW23011   4.545   4.495   5.174 -1.0924 -0.6751 -0.1104
 3793SOL    HW123012   4.495   4.575   5.191  0.5725  0.0755  1.1831
 3793SOL    HW223013   4.619   4.533   5.126 -2.2855 -1.1224 -2.3080
 3794SOL     OW23014   4.234   2.421   2.244  0.2710 -0.2478 -0.6819
 3794SOL    HW123015   4.203   2.512   2.252  0.6760 -0.0533 -1.3736
 3794SOL    HW223016   4.318   2.429   2.288  0.7095  0.8036 -1.7201
 3795SOL     OW23017   1.291   3.414   7.967  0.0231  0.1074  0.0272
 3795SOL    HW123018   1.381   3.408   7.935 -0.0965  1.4917 -0.5759
 3795SOL    HW223019   1.239   3.426   7.887  1.2573  0.1923 -0.7641
 3796SOL     OW23020   1.880   3.984  17.202 -0.2005 -0.4593  0.1054
 3796SOL    HW123021   1.824   4.013  17.274 -0.6326  0.9522 -0.8041
 3796SOL    HW223022   1.819   4.004  17.131  0.2858  0.4732 -0.0480
 3797SOL     OW23023   4.650   4.098   1.474 -0.1196 -0.0692  0.5354
 3797SOL    HW123024   4.692   4.024   1.518  0.7407 -0.3964 -0.8184
 3797SOL    HW223025   4.721   4.129   1.417 -1.2927  2.2670  0.3441
 3798SOL     OW23026   0.113   2.333   6.574  0.3738  0.0028  0.4561
 3798SOL    HW123027   0.031   2.289   6.596  0.2743  1.4527  2.8860
 3798SOL    HW223028   0.106   2.327   6.478 -0.4892 -1.3398  0.5902
 3799SOL     OW23029   3.629   2.107  14.153 -0.4873 -0.3257 -0.2005
 3799SOL    HW123030   3.570   2.161  14.101 -0.0841  0.1688 -0.1447
 3799SOL    HW223031   3.629   2.153  14.237 -1.2634 -1.3526  0.3695
 3800SOL     OW23032   1.310   4.436   6.879  0.4046  0.5594  0.2130
 3800SOL    HW123033   1.254   4.506   6.845  1.1475  1.0901  0.0844
 3800SOL    HW223034   1.254   4.413   6.953 -0.7941 -0.0053 -0.8686
 3801SOL     OW23035   0.730   2.893  13.374 -0.1476 -0.4331  0.1559
 3801SOL    HW123036   0.738   2.878  13.280  0.0233 -0.2482  0.1411
 3801SOL    HW223037   0.811   2.848  13.401 -0.7718 -0.6391  1.6729
 3802SOL     OW23038   0.061   3.874   6.993 -0.1680 -0.0709 -1.0871
 3802SOL    HW123039   0.135   3.838   6.944  0.9486  0.4094  0.2554
 3802SOL    HW223040   0.037   3.801   7.050 -0.3071  1.8798  1.3747
 3803SOL     OW23041   4.108   0.592   5.332 -0.0059  0.2056 -0.5901
 3803SOL    HW123042   4.203   0.600   5.331 -0.0146  0.4508  0.3534
 3803SOL    HW223043   4.104   0.499   5.309 -1.9062  0.6323 -1.9988
 3804SOL     OW23044   2.706   4.309   1.805 -0.6084  0.2472  0.0135
 3804SOL    HW123045   2.617   4.313   1.841 -0.8130  1.1012 -0.5729
 3804SOL    HW223046   2.743   4.223   1.823  1.0799  0.9544 -0.0430
 3805SOL     OW23047   2.085   2.686   4.358  0.5397 -0.1040  0.7817
 3805SOL    HW123048   2.026   2.761   4.353  2.8069  1.6414  0.4095
 3805SOL    HW223049   2.066   2.640   4.276 -1.8930  0.7656  0.8590
 3806SOL     OW23050   0.735   2.288   5.408  0.2190 -0.8248 -0.2356
 3806SOL    HW123051   0.828   2.307   5.401  0.4636 -2.2908 -1.1291
 3806SOL    HW223052   0.714   2.321   5.495  2.5362  2.0042 -0.7448
 3807SOL     OW23053   1.724   0.090   8.397 -0.1704 -0.5880 -0.5188
 3807SOL    HW123054   1.735   0.077   8.491  0.6656  0.2216 -0.4994
 3807SOL    HW223055   1.762   0.011   8.357  2.3725  0.8396 -0.9464
 3808SOL     OW23056   1.507   0.205   8.238  0.1751  0.3791  0.2025
 3808SOL    HW123057   1.562   0.152   8.296 -0.8884  0.3204  1.1402
 3808SOL    HW223058   1.450   0.248   8.302  1.2510  1.0545  0.7145
 3809SOL     OW23059   1.508   1.262   1.758  0.5785 -0.7053  0.2564
 3809SOL    HW123060   1.427   1.212   1.770  0.5393 -0.4008  1.2578
 3809SOL    HW223061   1.561   1.189   1.725  2.6166  0.1321  1.6347
 3810SOL     OW23062   1.879   3.254   8.134 -0.0256 -0.0983  0.5434
 3810SOL    HW123063   1.900   3.165   8.161 -0.2064 -0.1697  0.4464
 3810SOL    HW223064   1.879   3.245   8.039  1.0563  1.1713  0.4248
 3811SOL     OW23065   3.056   2.726   6.388  0.4234  0.2770  0.1002
 3811SOL    HW123066   3.101   2.783   6.450 -0.1356 -0.0536  0.7983
 3811SOL    HW223067   3.001   2.780   6.330 -1.7143 -1.1806  0.7827
 3812SOL     OW23068   1.920   0.146   5.571 -0.2052 -0.0407  0.0888
 3812SOL    HW123069   1.920   0.239   5.552 -0.1570 -0.6001 -2.5393
 3812SOL    HW223070   2.007   0.117   5.544  0.4141 -1.5268  3.5788
 3813SOL     OW23071   0.716   0.276   4.468 -0.1934 -0.4939 -0.5803
 3813SOL    HW123072   0.746   0.361   4.500 -2.8112 -1.3606  4.1289
 3813SOL    HW223073   0.626   0.276   4.501  1.5311 -2.2846  4.1535
 3814SOL     OW23074   0.878   0.700   7.836 -0.0167  0.2327  0.0384
 3814SOL    HW123075   0.814   0.644   7.881  0.0436  0.7009  0.7141
 3814SOL    HW223076   0.949   0.703   7.899 -0.4859  1.8942  0.4866
 3815SOL     OW23077   1.286   0.187   1.765  0.0284 -0.0784  0.8486
 3815SOL    HW123078   1.264   0.106   1.719 -0.9677  0.1105  1.0034
 3815SOL    HW223079   1.203   0.234   1.755 -1.5124 -3.0345 -0.2067
 3816SOL     OW23080   3.975   4.226  13.796 -0.7334 -0.2860  0.0235
 3816SOL    HW123081   4.043   4.294  13.797 -0.7024 -0.3169 -0.1121
 3816SOL    HW223082   3.895   4.280  13.797  1.3962  2.9107 -1.7153
 3817SOL     OW23083   2.902   1.519  16.445  0.0123  0.7947  0.1179
 3817SOL    HW123084   2.986   1.538  16.486 -0.4172 -2.0461  2.2849
 3817SOL    HW223085   2.867   1.445  16.494 -0.1318  1.1642  0.5668
 3818SOL     OW23086   2.279   2.564   1.836 -0.1958  0.3700  0.2213
 3818SOL    HW123087   2.186   2.580   1.817  0.0563  1.1460 -0.3709
 3818SOL    HW223088   2.283   2.554   1.931 -1.5989 -0.5330  0.1884
 3819SOL     OW23089   2.406   3.682   5.641 -0.0301  0.4050 -0.2470
 3819SOL    HW123090   2.425   3.717   5.554  0.9260 -2.5999 -1.2492
 3819SOL    HW223091   2.310   3.688   5.645 -0.1048 -0.7633 -0.2007
 3820SOL     OW23092   2.281   2.123   1.044 -0.5253  0.2629 -0.0148
 3820SOL    HW123093   2.361   2.126   0.992 -0.0543 -3.7667  0.4229
 3820SOL    HW223094   2.278   2.029   1.065 -0.4619  0.4293  0.7283
 3821SOL     OW23095   3.751   3.888   6.248 -0.4590  0.2094  0.0372
 3821SOL    HW123096   3.774   3.915   6.337 -1.1768 -1.0730  0.6085
 3821SOL    HW223097   3.677   3.939   6.217 -2.5488 -1.4574  2.2585
 3822SOL     OW23098   0.690   3.236  11.591  0.1018  0.2302  0.2926
 3822SOL    HW123099   0.642   3.246  11.509 -1.2588  1.8081  1.2668
 3822SOL    HW223100   0.641   3.160  11.623  0.3810  0.5746  1.5597
 3823SOL     OW23101   1.654   3.560  11.137 -0.4088 -0.0007 -0.1645
 3823SOL    HW123102   1.578   3.582  11.192 -0.1390  1.6020 -0.4347
 3823SOL    HW223103   1.729   3.572  11.195 -0.0155  0.9336 -0.8594
 3824SOL     OW23104   1.992   0.598   4.857  0.0230  0.7796 -0.4254
 3824SOL    HW123105   1.945   0.681   4.858 -2.7289 -0.7646  1.0023
 3824SOL    HW223106   2.085   0.619   4.860  0.2898 -0.2022 -1.5093
 3825SOL     OW23107   3.347   2.210   2.618 -0.4289  0.3315 -0.3925
 3825SOL    HW123108   3.376   2.302   2.616  1.2944 -0.1836  0.5964
 3825SOL    HW223109   3.430   2.167   2.598 -0.2810 -0.4572  1.9537
 3826SOL     OW23110   3.360   0.801   7.298  0.3242 -0.2347 -0.5189
 3826SOL    HW123111   3.337   0.709   7.285 -0.5379 -0.2631  1.2952
 3826SOL    HW223112   3.454   0.784   7.300  0.4581  0.4458 -0.9945
 3827SOL     OW23113   4.017   2.053  15.837 -0.2896  0.2338 -0.0669
 3827SOL    HW123114   4.093   2.100  15.804 -0.0244  0.2858  0.6112
 3827SOL    HW223115   3.964   2.127  15.869 -2.1633 -0.9722 -0.3625
 3828SOL     OW23116   0.896   0.016   5.541 -0.0833  1.2045 -0.3354
 3828SOL    HW123117   0.894   4.685   5.608  0.1360  1.2619 -0.2700
 3828SOL    HW223118   0.805   0.045   5.542 -0.3253  0.2755  3.8728
 3829SOL     OW23119   4.522   0.015   8.112 -0.3116 -0.2875 -0.4702
 3829SOL    HW123120   4.426   0.019   8.111 -0.3145 -0.0370  0.5800
 3829SOL    HW223121   4.537   4.674   8.167 -1.6766 -1.5276 -1.8519
 3830SOL     OW23122   3.071   3.511   2.998 -0.4571  0.2676  0.8888
 3830SOL    HW123123   3.061   3.595   2.954  1.0881  0.7610  1.5065
 3830SOL    HW223124   3.118   3.539   3.076 -1.8065  2.6519  0.8597
 3831SOL     OW23125   2.926   3.907  14.936  0.0331  0.1975 -0.0448
 3831SOL    HW123126   2.889   3.854  14.865 -0.4379 -3.3625  2.8796
 3831SOL    HW223127   2.965   3.983  14.892  0.2577  0.9417  1.4326
 3832SOL     OW23128   3.232   1.896  12.698  0.9102  0.3889  0.5540
 3832SOL    HW123129   3.148   1.920  12.658 -0.3212 -0.6153  2.5366
 3832SOL    HW223130   3.277   1.980  12.698 -0.7827  1.2970 -0.0764
 3833SOL     OW23131   2.056   0.566   0.650  0.6447 -0.4275 -0.8275
 3833SOL    HW123132   2.102   0.516   0.717 -0.2175  0.3693  0.3624
 3833SOL    HW223133   2.008   0.498   0.604 -2.9570  1.6463 -0.1329
 3834SOL     OW23134   3.477   3.170  10.780  0.7019 -0.1143 -0.5024
 3834SOL    HW123135   3.492   3.091  10.727  0.2145  0.5794 -1.6684
 3834SOL    HW223136   3.522   3.234  10.725 -0.4609  0.3174 -0.9468
 3835SOL     OW23137   2.787   4.588  11.508  0.2862  0.1068 -0.4533
 3835SOL    HW123138   2.807   4.679  11.528 -2.6000  0.1769  2.0518
 3835SOL    HW223139   2.846   4.572  11.435 -1.2880  0.2827 -1.7551
 3836SOL     OW23140   1.412   4.672   9.035 -0.2759 -0.0709 -0.3468
 3836SOL    HW123141   1.497   4.690   9.074 -0.0864 -0.1054 -0.7370
 3836SOL    HW223142   1.352   4.698   9.105  1.4065  1.0028  0.6898
 3837SOL     OW23143   0.086   1.914   4.833 -0.3581  0.4573 -0.1099
 3837SOL    HW123144   0.070   1.946   4.744 -0.4108 -2.6382 -1.1853
 3837SOL    HW223145   0.062   1.823   4.816 -1.1073  1.1435 -2.7329
 3838SOL     OW23146   0.084   0.837   3.431  0.1639 -0.6712 -1.2602
 3838SOL    HW123147   0.095   0.748   3.398  3.3614 -0.4073 -0.9362
 3838SOL    HW223148   0.049   0.886   3.357  0.4381  0.4113 -0.6834
 3839SOL     OW23149   4.484   1.170  10.430  0.4661 -0.0095 -0.0518
 3839SOL    HW123150   4.425   1.201  10.499  0.3814 -1.3823  0.4987
 3839SOL    HW223151   4.428   1.106  10.385  1.4234 -0.1814 -0.9987
 3840SOL     OW23152   1.177   0.686  12.905  0.4790  0.0261  0.0677
 3840SOL    HW123153   1.216   0.730  12.830  1.7420 -0.9796  0.1588
 3840SOL    HW223154   1.083   0.697  12.886  0.8371  0.4103 -1.4529
 3841SOL     OW23155   0.983   3.028  15.759 -0.4815  0.1036  0.6042
 3841SOL    HW123156   0.913   3.060  15.815  0.8358 -0.6352  2.6509
 3841SOL    HW223157   0.973   2.933  15.769 -1.0883 -0.2246 -3.1061
 3842SOL     OW23158   2.539   1.083   6.632 -0.2201 -0.4023  0.2512
 3842SOL    HW123159   2.608   1.034   6.675  0.9920  1.3579  0.2970
 3842SOL    HW223160   2.465   1.029   6.661  0.1564 -1.7347 -1.2601
 3843SOL     OW23161   3.508   1.266  12.067  0.3479  1.0693  0.3013
 3843SOL    HW123162   3.560   1.253  12.147  2.3314 -0.6168 -1.2552
 3843SOL    HW223163   3.425   1.233  12.099  0.5986  0.3832  0.2524
 3844SOL     OW23164   3.615   0.465   7.584  0.4201 -0.4870 -0.1713
 3844SOL    HW123165   3.633   0.395   7.647  4.4096 -0.3718 -1.1730
 3844SOL    HW223166   3.670   0.535   7.620 -0.3600 -0.4474  0.9423
 3845SOL     OW23167   3.276   2.009   6.924 -0.0236  0.5245 -0.3907
 3845SOL    HW123168   3.297   2.052   7.007 -0.0975 -0.3380  0.0769
 3845SOL    HW223169   3.233   2.086   6.885 -0.5866  0.8310  0.8095
 3846SOL     OW23170   3.069   2.792   2.928  0.2188 -0.8027 -0.0124
 3846SOL    HW123171   3.031   2.868   2.973  1.3849  0.2172 -0.7280
 3846SOL    HW223172   3.056   2.805   2.834 -2.6004 -0.5198  0.3966
 3847SOL     OW23173   0.401   3.357  17.311 -0.1362  0.2562  0.1384
 3847SOL    HW123174   0.397   3.271  17.353 -1.3698 -0.4817 -1.5078
 3847SOL    HW223175   0.378   3.321  17.225 -2.2046 -0.1568  0.8512
 3848SOL     OW23176   2.479   0.824   4.415 -0.7102  0.0495 -0.0461
 3848SOL    HW123177   2.439   0.738   4.423 -1.9069  0.5670 -0.4903
 3848SOL    HW223178   2.413   0.882   4.376 -1.4275 -0.8967 -0.2248
 3849SOL     OW23179   2.096   2.091   1.538  0.2275 -0.4120 -0.3578
 3849SOL    HW123180   2.148   2.046   1.605 -0.6444 -0.0081  0.5872
 3849SOL    HW223181   2.047   2.014   1.509  2.4066 -2.5515  1.6054
 3850SOL     OW23182   0.674   1.807   8.054 -0.6088  0.2407  0.7933
 3850SOL    HW123183   0.707   1.895   8.036 -0.1850 -0.4980 -2.0615
 3850SOL    HW223184   0.745   1.749   8.028 -0.7977  0.8740 -1.1312
 3851SOL     OW23185   0.606   0.296   4.924 -0.3709  0.5903 -0.1968
 3851SOL    HW123186   0.653   0.246   4.857 -1.3983 -1.3485  0.5250
 3851SOL    HW223187   0.560   0.218   4.956 -0.2658 -0.2917 -2.1587
 3852SOL     OW23188   4.294   1.692   4.554  0.0725 -0.2677 -0.0306
 3852SOL    HW123189   4.315   1.785   4.563 -0.4092 -0.1533 -0.0663
 3852SOL    HW223190   4.219   1.680   4.612  1.6384 -0.0136  2.0398
 3853SOL     OW23191   1.405   1.417   9.226  0.0758 -0.3503  0.7426
 3853SOL    HW123192   1.322   1.460   9.209  1.7731  4.0274  3.3743
 3853SOL    HW223193   1.459   1.469   9.167  0.1968 -0.6258  0.6119
 3854SOL     OW23194   3.231   2.287   9.398 -0.2752  0.1913  0.0874
 3854SOL    HW123195   3.292   2.347   9.439  1.5312 -2.3054  1.0870
 3854SOL    HW223196   3.156   2.285   9.457  0.1391  2.9602  0.6783
 3855SOL     OW23197   3.682   2.729  10.516 -0.2963  0.2270 -0.5447
 3855SOL    HW123198   3.762   2.716  10.565  0.3682 -1.0589 -1.9764
 3855SOL    HW223199   3.708   2.738  10.424  0.1293  1.8508 -0.2726
 3856SOL     OW23200   2.343   3.056   4.712 -0.4125  0.0639  0.3601
 3856SOL    HW123201   2.371   3.103   4.633  0.5738 -0.3955  0.4283
 3856SOL    HW223202   2.320   2.970   4.675 -2.5707  1.6916 -2.0588
 3857SOL     OW23203   1.419   1.164  11.885 -0.2419  0.1363 -0.3368
 3857SOL    HW123204   1.456   1.091  11.835 -0.9362  0.3612 -1.1697
 3857SOL    HW223205   1.409   1.120  11.970 -1.0699  1.2087  0.1204
 3858SOL     OW23206   1.909   4.543   5.685 -0.3876  0.1867  0.6855
 3858SOL    HW123207   1.823   4.507   5.664 -1.2484  2.8099 -0.3306
 3858SOL    HW223208   1.960   4.529   5.605  0.4927  1.0494  1.0937
 3859SOL     OW23209   1.388   0.265   8.471  0.4084  0.3108 -0.1369
 3859SOL    HW123210   1.343   0.348   8.484  1.6633  1.3732 -2.6985
 3859SOL    HW223211   1.474   0.274   8.512  0.8443 -2.2112 -0.5185
 3860SOL     OW23212   2.698   4.730   3.980 -0.5488 -0.3391  0.6878
 3860SOL    HW123213   2.646   0.040   4.045 -0.1394 -0.8684  1.4005
 3860SOL    HW223214   2.684   4.639   4.004 -2.4572 -0.5477 -1.1584
 3861SOL     OW23215   1.091   4.481   5.482 -0.2243  0.3186 -0.0658
 3861SOL    HW123216   1.019   4.449   5.427 -1.4333 -0.2319  1.8694
 3861SOL    HW223217   1.057   4.463   5.569  3.3997 -1.7476  0.9313
 3862SOL     OW23218   2.986   2.171   5.470  0.1341 -0.1359  0.3220
 3862SOL    HW123219   3.069   2.174   5.423  0.2271 -0.1802  0.4857
 3862SOL    HW223220   3.004   2.089   5.515  1.7195  0.8963  1.5616
 3863SOL     OW23221   4.392   3.711   4.544  0.4953 -0.1370 -0.2592
 3863SOL    HW123222   4.408   3.644   4.610  0.8163 -0.4818 -0.6912
 3863SOL    HW223223   4.423   3.678   4.460  1.5100  0.3175 -0.0741
 3864SOL     OW23224   3.837   0.825   8.032 -0.3671  0.0241  0.3353
 3864SOL    HW123225   3.809   0.908   8.073 -1.2751  0.3634 -0.9558
 3864SOL    HW223226   3.804   0.761   8.095 -1.1069 -0.1066 -0.1737
 3865SOL     OW23227   0.224   0.511   4.210 -0.2577 -0.3010  0.2508
 3865SOL    HW123228   0.131   0.490   4.203 -0.8042  1.3049  2.6689
 3865SOL    HW223229   0.241   0.512   4.305  3.5433  0.7065 -0.4231
 3866SOL     OW23230   4.655   1.537  10.612  0.5192  0.1708  0.4201
 3866SOL    HW123231   4.717   1.551  10.541 -2.3825  1.9737 -1.7710
 3866SOL    HW223232   4.575   1.563  10.565 -0.1825 -0.3127  1.3427
 3867SOL     OW23233   4.701   1.008   5.124 -0.2729 -0.3422 -0.2776
 3867SOL    HW123234   0.015   1.088   5.108 -0.0449 -0.6118 -0.8946
 3867SOL    HW223235   4.614   1.022   5.085  0.3664  1.6119 -1.0135
 3868SOL     OW23236   1.320   0.058  11.224 -0.0971  0.3372 -0.6943
 3868SOL    HW123237   1.313   0.053  11.129 -0.2446 -2.3444 -0.5339
 3868SOL    HW223238   1.324   0.154  11.227 -1.1814  0.3306  1.0783
 3869SOL     OW23239   2.749   1.297   3.327  0.3768 -0.4795 -0.2475
 3869SOL    HW123240   2.714   1.362   3.266 -0.5048 -0.1193  0.6558
 3869SOL    HW223241   2.677   1.292   3.389  0.1974  0.8369 -0.3431
 3870SOL     OW23242   0.871   3.852   6.270 -0.4131 -0.5855  0.6620
 3870SOL    HW123243   0.821   3.884   6.345 -1.7135  0.3015 -0.5926
 3870SOL    HW223244   0.950   3.832   6.320  1.2066  1.2946 -1.1491
 3871SOL     OW23245   2.438   2.552  14.099  0.5239 -0.1697 -0.5592
 3871SOL    HW123246   2.475   2.464  14.095  0.9593 -0.0765  1.8480
 3871SOL    HW223247   2.476   2.587  14.018 -1.0853  0.3787 -1.0692
 3872SOL     OW23248   1.171   4.408  14.995  0.5465 -0.2366 -0.4054
 3872SOL    HW123249   1.170   4.344  14.924  0.8422  0.0314 -0.6507
 3872SOL    HW223250   1.143   4.364  15.076  1.5585 -0.7705 -0.3409
 3873SOL     OW23251   3.230   3.193   1.155 -0.6310 -0.5775  0.2842
 3873SOL    HW123252   3.240   3.187   1.060  0.0032 -1.3858  0.3968
 3873SOL    HW223253   3.225   3.102   1.184  1.5635 -0.9552 -0.4892
 3874SOL     OW23254   3.172   4.634  11.881  0.2958  0.1467  0.2696
 3874SOL    HW123255   3.145   4.644  11.790 -0.5215  0.0346  0.4932
 3874SOL    HW223256   3.265   4.654  11.876  0.3053  0.0191 -0.0121
 3875SOL     OW23257   4.729   3.836  12.665 -0.6587  0.2008  0.1307
 3875SOL    HW123258   0.036   3.833  12.750  0.5613 -0.9118 -0.5549
 3875SOL    HW223259   0.024   3.753  12.629 -2.2145  0.3897 -1.7111
 3876SOL     OW23260   4.246   3.905   6.163 -0.7288 -0.6872 -0.3174
 3876SOL    HW123261   4.170   3.904   6.222 -0.8281 -1.1802 -0.4470
 3876SOL    HW223262   4.207   3.900   6.076  0.7346 -1.2588 -0.9329
 3877SOL     OW23263   0.323   4.652  12.091  0.5633 -0.4146 -0.1543
 3877SOL    HW123264   0.237   4.628  12.125  0.1466  0.5749 -0.4968
 3877SOL    HW223265   0.371   4.658  12.174 -0.5633  0.4999  0.4392
 3878SOL     OW23266   0.669   3.314   3.896  0.2837  0.0134  0.0827
 3878SOL    HW123267   0.666   3.222   3.920 -3.2774  0.2789  0.6725
 3878SOL    HW223268   0.670   3.315   3.800  0.3985  0.8498  0.0901
 3879SOL     OW23269   1.593   0.108   9.344 -0.1885 -0.4749 -0.1080
 3879SOL    HW123270   1.685   0.120   9.323  0.1457  0.9426  2.2035
 3879SOL    HW223271   1.599   0.149   9.431  0.0125 -0.3703 -0.1726
 3880SOL     OW23272   3.880   2.104  11.827 -0.3416  0.0512  0.0757
 3880SOL    HW123273   3.840   2.018  11.837  0.7825 -0.7631 -2.4286
 3880SOL    HW223274   3.820   2.150  11.768 -0.6197  2.3187  2.0693
 3881SOL     OW23275   0.215   2.007   5.521  0.6685  0.3533  0.2892
 3881SOL    HW123276   0.127   2.031   5.493  1.1102  0.7477 -0.7510
 3881SOL    HW223277   0.201   1.960   5.603 -2.0256  0.9252  0.1467
 3882SOL     OW23278   0.891   2.618   9.484  0.2037 -0.4409 -0.7138
 3882SOL    HW123279   0.906   2.553   9.415  0.2180  0.6811 -1.7642
 3882SOL    HW223280   0.800   2.598   9.507  0.4919 -0.7037  0.2022
 3883SOL     OW23281   3.405   2.369   4.632 -0.1298  0.2642  0.3176
 3883SOL    HW123282   3.344   2.387   4.561 -0.7120 -1.1929  0.4363
 3883SOL    HW223283   3.377   2.278   4.641  1.7588 -0.4100 -0.6409
 3884SOL     OW23284   3.543   1.902   5.442  0.3936 -0.1382  0.5740
 3884SOL    HW123285   3.596   1.880   5.518  0.0986 -1.5697  0.3697
 3884SOL    HW223286   3.479   1.831   5.444  0.8201 -0.6381 -3.7819
 3885SOL     OW23287   2.275   4.095   3.741  0.0233  0.1458  0.8299
 3885SOL    HW123288   2.326   4.153   3.685 -0.2920 -0.8182 -0.4527
 3885SOL    HW223289   2.316   4.105   3.827  1.2130  0.4663  0.2280
 3886SOL     OW23290   0.250   2.572   4.957  0.9132  0.5403  0.6838
 3886SOL    HW123291   0.220   2.564   5.048  1.1582  1.6394  0.8614
 3886SOL    HW223292   0.171   2.603   4.914  1.2100 -2.0322 -1.6808
 3887SOL     OW23293   3.117   3.479   7.174 -0.1598 -0.2657  0.1056
 3887SOL    HW123294   3.061   3.489   7.097 -0.8084  1.0286  0.7596
 3887SOL    HW223295   3.156   3.566   7.179 -1.2979  0.1997  0.9079
 3888SOL     OW23296   0.553   1.775   6.598  0.1625  0.2663 -0.6145
 3888SOL    HW123297   0.597   1.691   6.607  2.0065  1.4843  1.6231
 3888SOL    HW223298   0.622   1.836   6.572 -1.1297  1.2437 -1.7681
 3889SOL     OW23299   2.852   3.680   8.143  0.2408 -0.6617 -0.1167
 3889SOL    HW123300   2.804   3.617   8.197  1.0288 -1.2293 -0.0659
 3889SOL    HW223301   2.900   3.620   8.085  1.2614  1.2967 -1.3157
 3890SOL     OW23302   4.511   3.111   3.222 -0.4215  0.4883  0.1303
 3890SOL    HW123303   4.525   3.150   3.308  0.7257 -1.5559  0.8833
 3890SOL    HW223304   4.597   3.095   3.183 -0.5808 -0.6845  0.2486
 3891SOL     OW23305   2.299   1.763   4.831  0.1135 -0.5094  0.1838
 3891SOL    HW123306   2.248   1.759   4.750  0.4317 -0.5902 -0.0103
 3891SOL    HW223307   2.245   1.727   4.902  0.7737 -1.2019  0.3324
 3892SOL     OW23308   4.593   3.939   1.981  0.0771 -0.2990  0.5174
 3892SOL    HW123309   4.572   4.017   1.930 -0.8311 -2.2984 -2.1445
 3892SOL    HW223310   4.610   3.975   2.068  3.3413  0.2786 -0.3826
 3893SOL     OW23311   2.966   1.977  12.707  0.3964  0.2391  0.1362
 3893SOL    HW123312   2.944   2.008  12.795  1.6353  0.4708  0.3590
 3893SOL    HW223313   2.964   2.062  12.664 -1.4539  0.5885  0.8964
 3894SOL     OW23314   3.884   4.073  12.027  0.3509  0.6061  0.0458
 3894SOL    HW123315   3.856   4.133  12.096  2.7665 -0.7495  2.2151
 3894SOL    HW223316   3.844   4.124  11.956 -1.7211 -1.9167 -0.6338
 3895SOL     OW23317   2.799   4.363   2.411  0.4057  0.1798 -0.1396
 3895SOL    HW123318   2.769   4.276   2.439  0.6761  0.1082 -0.0750
 3895SOL    HW223319   2.857   4.341   2.339  2.3275 -2.5452  2.2535
 3896SOL     OW23320   0.307   1.038   4.904 -0.0393  0.9137  0.3121
 3896SOL    HW123321   0.390   1.000   4.933 -0.7776  1.0233  2.5579
 3896SOL    HW223322   0.267   1.069   4.985 -0.2925  1.4620 -0.0231
 3897SOL     OW23323   3.175   3.942  10.833 -0.2765 -0.1750  0.2925
 3897SOL    HW123324   3.142   3.922  10.921  0.1367 -0.4603  0.3820
 3897SOL    HW223325   3.199   4.035  10.838 -0.0492 -0.1295 -1.9769
 3898SOL     OW23326   4.057   3.807   6.591  0.4175 -0.2106  0.4857
 3898SOL    HW123327   4.006   3.729   6.611 -0.4344 -0.4620 -2.6881
 3898SOL    HW223328   4.092   3.827   6.678 -1.9027  2.9922  0.6602
 3899SOL     OW23329   1.993   2.514   4.955  0.0276  0.3473 -0.2959
 3899SOL    HW123330   1.991   2.419   4.946  1.3446  0.4104 -1.1683
 3899SOL    HW223331   1.900   2.532   4.971 -0.6395 -1.6347 -1.9789
 3900SOL     OW23332   0.127   3.181  10.446  0.0101 -0.5402 -0.3215
 3900SOL    HW123333   0.125   3.206  10.538 -0.5845 -0.4427 -0.3666
 3900SOL    HW223334   0.207   3.230  10.426 -0.3405 -0.3390 -1.2162
 3901SOL     OW23335   0.028   2.519   9.819  0.4770  0.2352  0.7640
 3901SOL    HW123336   4.685   2.533   9.769 -0.0129 -2.9596  0.7103
 3901SOL    HW223337   4.735   2.564   9.898 -2.4037 -0.6219  0.1481
 3902SOL     OW23338   4.415   3.739  16.572  0.4103  0.1339 -0.2697
 3902SOL    HW123339   4.411   3.795  16.650  0.5023 -1.1313  0.6527
 3902SOL    HW223340   4.510   3.728  16.564  0.5837  0.9531  0.6135
 3903SOL     OW23341   2.920   0.197   6.974 -0.2078  0.0560 -0.1708
 3903SOL    HW123342   2.839   0.167   6.933  0.3146  0.1882 -1.2693
 3903SOL    HW223343   2.977   0.191   6.898  0.6089 -0.3614  0.4760
 3904SOL     OW23344   3.271   3.133   7.371  0.0069 -0.2707 -0.0307
 3904SOL    HW123345   3.228   3.198   7.316 -0.6267 -1.3680 -0.8404
 3904SOL    HW223346   3.270   3.047   7.328  0.0746  0.3564 -1.2881
 3905SOL     OW23347   1.623   3.792   5.040 -0.0656  0.7400 -0.2155
 3905SOL    HW123348   1.638   3.722   4.976 -0.6937  0.6473 -0.2550
 3905SOL    HW223349   1.624   3.744   5.123 -2.6267 -0.8427 -1.1092
 3906SOL     OW23350   0.398   2.826   7.211  0.1286  0.1215  0.8328
 3906SOL    HW123351   0.393   2.920   7.227 -0.0542 -0.0267  1.6375
 3906SOL    HW223352   0.401   2.814   7.116  0.2874 -1.7508  1.0687
 3907SOL     OW23353   0.173   0.501  14.343 -0.8266 -0.0413  0.2013
 3907SOL    HW123354   0.117   0.578  14.342  0.3454  0.7938 -1.4427
 3907SOL    HW223355   0.243   0.550  14.299 -0.5004  0.4667  1.2942
 3908SOL     OW23356   0.429   2.454  12.510 -0.2716  0.2559  0.2461
 3908SOL    HW123357   0.393   2.375  12.470 -1.4872  0.6737  0.5304
 3908SOL    HW223358   0.422   2.517  12.438 -0.4903 -1.3817 -1.1460
 3909SOL     OW23359   0.515   3.758  13.448 -0.1328  0.2923 -0.1316
 3909SOL    HW123360   0.527   3.842  13.492 -0.0345  0.0279  0.3455
 3909SOL    HW223361   0.490   3.787  13.360 -1.6864 -0.4293  0.0674
 3910SOL     OW23362   1.254   0.733  10.722 -0.1500 -0.4760 -0.7618
 3910SOL    HW123363   1.186   0.668  10.737 -0.2942 -0.3922 -1.0695
 3910SOL    HW223364   1.268   0.758  10.814 -0.3319 -4.0275  0.2201
 3911SOL     OW23365   2.024   2.940  11.005 -0.0579 -0.4942 -0.0662
 3911SOL    HW123366   2.046   3.015  11.060 -0.7141 -0.1270 -0.3117
 3911SOL    HW223367   2.066   2.959  10.921 -1.2575 -1.3563 -0.8618
 3912SOL     OW23368   2.027   1.961   7.453 -0.3389 -0.5542 -0.5619
 3912SOL    HW123369   1.961   1.963   7.385  0.2908  3.4582 -1.0504
 3912SOL    HW223370   2.106   2.004   7.420 -0.0991  0.7405  1.6981
 3913SOL     OW23371   1.186   1.590   4.988  0.1588  0.3067  0.4366
 3913SOL    HW123372   1.155   1.584   5.078 -0.1242 -0.3594  0.2977
 3913SOL    HW223373   1.211   1.682   4.997 -1.3024  0.4054  3.4095
 3914SOL     OW23374   3.963   0.296   4.951  0.0641  0.1051  0.1768
 3914SOL    HW123375   3.899   0.363   4.928  0.7089  0.3500 -0.8605
 3914SOL    HW223376   3.912   0.215   4.955 -0.5315  0.5329  1.1560
 3915SOL     OW23377   4.578   0.679   2.786 -0.5291  0.1790  0.1236
 3915SOL    HW123378   4.598   0.586   2.778 -2.0369 -0.2650  1.4916
 3915SOL    HW223379   4.655   0.716   2.742  0.5236 -0.1740  1.6582
 3916SOL     OW23380   3.149   3.118  13.484  0.1495  0.3487  0.1040
 3916SOL    HW123381   3.236   3.126  13.524 -1.0390 -1.5318  3.0203
 3916SOL    HW223382   3.173   3.134  13.392 -1.9885 -0.0198 -0.5143
 3917SOL     OW23383   0.966   2.848   0.458 -0.1882 -0.2649 -0.2254
 3917SOL    HW123384   0.899   2.878   0.520 -3.5322 -5.0144 -1.5113
 3917SOL    HW223385   0.965   2.919   0.393 -1.9276  0.6030  0.7359
 3918SOL     OW23386   3.130   0.393   6.301 -0.0815  0.8737 -0.7093
 3918SOL    HW123387   3.134   0.369   6.393 -0.1880  0.2686 -0.8629
 3918SOL    HW223388   3.186   0.325   6.263  1.2293  1.9919 -0.7688
 3919SOL     OW23389   1.019   1.861  13.573 -0.5376  0.8554  0.1704
 3919SOL    HW123390   0.944   1.808  13.548  0.4551 -0.5682  0.1796
 3919SOL    HW223391   1.017   1.933  13.510  2.9595  1.2124  0.4646
 3920SOL     OW23392   0.447   4.577  11.430  0.4867  0.6063  0.5156
 3920SOL    HW123393   0.379   4.645  11.438  0.9612  1.1100  0.2954
 3920SOL    HW223394   0.406   4.505  11.382  0.1845  0.6854  0.6562
 3921SOL     OW23395   0.988   3.375  14.746  0.1492  0.4397  0.2614
 3921SOL    HW123396   1.033   3.402  14.666  0.8314 -0.0211  0.4916
 3921SOL    HW223397   0.905   3.335  14.720  0.8180  0.2687 -1.5845
 3922SOL     OW23398   4.214   3.177   4.663 -0.3275 -0.5749 -0.1578
 3922SOL    HW123399   4.237   3.195   4.572  1.0493 -0.3051  0.2531
 3922SOL    HW223400   4.127   3.217   4.671  0.7318  2.1933 -2.2697
 3923SOL     OW23401   4.156   0.615   4.919 -0.3102 -0.0989  0.4116
 3923SOL    HW123402   4.090   0.655   4.975 -0.6191 -0.2184  0.1361
 3923SOL    HW223403   4.106   0.617   4.837  0.2244  2.9049  0.1393
 3924SOL     OW23404   0.264   2.169   0.917  0.6159  0.1221  0.2321
 3924SOL    HW123405   0.248   2.197   0.827  0.2297  2.2725  0.9699
 3924SOL    HW223406   0.233   2.241   0.972  0.9103  0.1935  0.3093
 3925SOL     OW23407   1.430   1.758   8.285  0.0092 -0.4280  0.0342
 3925SOL    HW123408   1.458   1.772   8.195  2.5971 -0.9738  0.7305
 3925SOL    HW223409   1.449   1.846   8.320 -0.9755 -0.4173  0.5289
 3926SOL     OW23410   4.129   1.191   2.928 -1.1043  0.0461 -0.0673
 3926SOL    HW123411   4.113   1.204   2.834 -0.5808  0.5487 -0.0850
 3926SOL    HW223412   4.040   1.207   2.959 -1.3913  0.8280 -1.2825
 3927SOL     OW23413   2.541   0.358   4.159  0.4438  0.4901  0.0179
 3927SOL    HW123414   2.577   0.442   4.185 -1.7527  1.4063  0.1229
 3927SOL    HW223415   2.621   0.306   4.154  0.3041  0.1819  0.9393
 3928SOL     OW23416   0.128   2.496   4.330  0.0302 -0.2450  0.8378
 3928SOL    HW123417   0.061   2.487   4.262 -0.2241  1.5173  0.8563
 3928SOL    HW223418   0.111   2.582   4.369 -0.5951 -0.0995  0.2468
 3929SOL     OW23419   0.839   0.037  11.156  0.0962  0.4334  0.5929
 3929SOL    HW123420   0.751   4.737  11.158  0.9377 -1.5735  0.9400
 3929SOL    HW223421   0.818   0.115  11.207  0.9312  0.1235  1.4214
 3930SOL     OW23422   4.526   4.189   3.883 -0.6339 -0.0941 -0.8024
 3930SOL    HW123423   4.445   4.222   3.922 -0.2788  2.0287 -1.8501
 3930SOL    HW223424   4.581   4.267   3.893 -0.5081  0.3216 -4.6744
 3931SOL     OW23425   1.676   2.614  15.709  0.0849  0.2333 -0.5392
 3931SOL    HW123426   1.663   2.616  15.804  0.4040  2.7754 -0.5418
 3931SOL    HW223427   1.768   2.589  15.699  0.1943  0.5199 -0.2632
 3932SOL     OW23428   3.708   3.327   8.095 -0.0072 -0.0894  0.0932
 3932SOL    HW123429   3.796   3.313   8.060  0.9948  0.2201  2.4557
 3932SOL    HW223430   3.700   3.420   8.074  2.4050  0.0470 -0.2115
 3933SOL     OW23431   0.141   0.543   7.266 -0.2723  0.5888  0.1611
 3933SOL    HW123432   0.184   0.618   7.306 -0.5729 -1.4653  4.3558
 3933SOL    HW223433   0.098   0.586   7.192 -1.7381  0.0407  0.6785
 3934SOL     OW23434   1.859   3.588   1.528  0.5923  0.7850  0.2412
 3934SOL    HW123435   1.808   3.662   1.496  0.9778  1.7672  1.9333
 3934SOL    HW223436   1.891   3.554   1.444  0.2418 -0.3960  0.5863
 3935SOL     OW23437   0.315   4.643   8.736  0.0369 -0.1923  0.1530
 3935SOL    HW123438   0.273   4.696   8.805 -1.5681 -1.4114  0.1023
 3935SOL    HW223439   0.235   4.604   8.703 -0.5878  0.2958  1.0880
 3936SOL     OW23440   2.369   3.158   7.939  0.2066  0.2316 -0.3621
 3936SOL    HW123441   2.340   3.077   7.895  0.7640 -0.6595  0.9100
 3936SOL    HW223442   2.313   3.174   8.015  0.0074 -1.1283 -0.2221
 3937SOL     OW23443   4.647   4.400   7.481 -0.3337  0.0193  0.5260
 3937SOL    HW123444   4.692   4.468   7.532  2.1983 -0.4260 -1.1776
 3937SOL    HW223445   4.626   4.348   7.558 -2.5038 -3.4115 -2.3997
 3938SOL     OW23446   3.888   1.855  10.996  0.7567  0.2420  0.3131
 3938SOL    HW123447   3.865   1.923  11.059 -3.7614 -0.0277 -1.0695
 3938SOL    HW223448   3.829   1.783  11.016 -1.7944  2.3303  0.3455
 3939SOL     OW23449   2.052   1.860   0.064  0.3432  0.3835  0.1835
 3939SOL    HW123450   2.092   1.925   0.123  0.2688  0.9435 -0.3828
 3939SOL    HW223451   1.968   1.863   0.111  0.6865 -3.1042  1.0044
 3940SOL     OW23452   3.504   3.614  17.259  0.3716 -0.6530  0.3811
 3940SOL    HW123453   3.448   3.658  17.195  1.7564  0.7581  0.1450
 3940SOL    HW223454   3.511   3.680  17.328  1.9220 -0.5856  0.1492
 3941SOL     OW23455   0.466   4.362  10.774 -0.5134 -0.1935 -0.0308
 3941SOL    HW123456   0.543   4.418  10.787 -0.0564 -1.1065  1.1995
 3941SOL    HW223457   0.399   4.430  10.786  2.1220  2.9139 -2.8284
 3942SOL     OW23458   1.952   2.946  17.492  0.5142 -0.0546  0.2321
 3942SOL    HW123459   2.023   3.009  17.502 -1.1210  2.1112 -1.6179
 3942SOL    HW223460   1.953   2.934  17.397 -0.2556  0.0020  0.2099
 3943SOL     OW23461   1.199   3.200   1.896 -0.2843 -0.3390  0.7251
 3943SOL    HW123462   1.104   3.210   1.895 -0.0250  2.0377 -2.4265
 3943SOL    HW223463   1.226   3.273   1.951 -2.1453 -0.5213  1.8624
 3944SOL     OW23464   1.397   1.919  13.485 -0.8201 -0.1316 -0.2096
 3944SOL    HW123465   1.341   1.896  13.560  1.5185 -1.7588  1.0456
 3944SOL    HW223466   1.335   1.941  13.416 -1.7498 -2.8269 -0.2142
 3945SOL     OW23467   3.058   1.541  16.097  0.4124 -0.7651 -0.1974
 3945SOL    HW123468   3.105   1.459  16.088  0.7191 -0.8290  2.0611
 3945SOL    HW223469   3.110   1.596  16.154 -0.7528 -0.3080  0.4324
 3946SOL     OW23470   4.341   1.831   2.782  0.8009  0.1104 -0.5420
 3946SOL    HW123471   4.330   1.761   2.717  1.3514 -1.9529  1.5861
 3946SOL    HW223472   4.436   1.840   2.789  1.0785 -0.9757 -3.0023
 3947SOL     OW23473   3.331   2.484  16.150  0.1049 -0.5352  0.5241
 3947SOL    HW123474   3.420   2.493  16.184  0.2739 -2.4985  0.6055
 3947SOL    HW223475   3.279   2.480  16.230 -1.5153  0.9138 -0.4649
 3948SOL     OW23476   2.808   3.010   5.976 -0.2269  0.6335  0.3962
 3948SOL    HW123477   2.863   2.958   6.035 -0.0562 -0.4640 -0.7305
 3948SOL    HW223478   2.812   2.959   5.895 -0.6145 -2.3972  2.2861
 3949SOL     OW23479   4.538   0.026   4.480 -0.5063 -0.1073  0.3695
 3949SOL    HW123480   4.460   4.731   4.436 -1.1881  1.3216  0.5391
 3949SOL    HW223481   4.551   0.105   4.426 -1.0254 -0.0334  0.3550
 3950SOL     OW23482   0.885   2.705   4.186 -0.0477  0.4044  0.2729
 3950SOL    HW123483   0.910   2.624   4.229 -0.3034 -0.3862 -1.0852
 3950SOL    HW223484   0.947   2.707   4.113 -0.2134  0.3685  0.1288
 3951SOL     OW23485   1.151   2.573   9.901 -0.0126  0.5992 -0.1594
 3951SOL    HW123486   1.128   2.647   9.958 -1.3487  1.9969 -2.5125
 3951SOL    HW223487   1.137   2.614   9.816 -1.6828  0.9602  0.2902
 3952SOL     OW23488   1.967   4.483   5.159  0.5610  0.0187 -0.5070
 3952SOL    HW123489   1.989   4.543   5.087 -0.2753  0.6095 -0.2660
 3952SOL    HW223490   1.876   4.467   5.135  0.5171  0.9396 -0.9497
 3953SOL     OW23491   1.487   0.566   5.455  0.4049 -0.0672 -0.5511
 3953SOL    HW123492   1.457   0.649   5.420 -2.2377 -0.7830 -0.0132
 3953SOL    HW223493   1.486   0.595   5.547 -2.7449 -1.2366 -0.2176
 3954SOL     OW23494   3.140   2.570  16.857 -0.3405  0.6228  0.2900
 3954SOL    HW123495   3.064   2.628  16.863  0.2881  1.5720 -0.9240
 3954SOL    HW223496   3.174   2.570  16.946 -0.0532  0.2917  0.1810
 3955SOL     OW23497   1.944   0.028   7.463 -0.1711  0.1684 -0.2057
 3955SOL    HW123498   1.941   0.120   7.488 -1.7600  0.4849 -1.5818
 3955SOL    HW223499   1.864   4.733   7.504 -0.8474 -0.1299 -1.7761
 3956SOL     OW23500   1.531   2.547   7.845  0.2254 -0.1410  0.2726
 3956SOL    HW123501   1.589   2.617   7.875 -0.6635  0.3577  0.8386
 3956SOL    HW223502   1.544   2.488   7.919  3.3356  0.5946  0.3136
 3957SOL     OW23503   3.741   2.774  12.177 -0.1944  0.1501  0.0739
 3957SOL    HW123504   3.761   2.702  12.237 -1.1254  0.7612  1.1184
 3957SOL    HW223505   3.787   2.850  12.214  1.1654 -0.0008 -1.3155
 3958SOL     OW23506   4.495   0.893  13.798  0.3472  0.1064 -0.2360
 3958SOL    HW123507   4.437   0.867  13.870  0.0371  3.7446  0.8520
 3958SOL    HW223508   4.434   0.943  13.744  0.7532 -0.3976 -1.1454
 3959SOL     OW23509   2.147   4.084   9.201 -0.2763 -0.2826  0.3189
 3959SOL    HW123510   2.087   4.145   9.158 -0.9991  0.2542  2.0666
 3959SOL    HW223511   2.219   4.136   9.237 -0.6165  0.5620 -0.2264
 3960SOL     OW23512   4.183   3.465   3.249  0.3409  0.3904  0.2913
 3960SOL    HW123513   4.214   3.494   3.164  2.5747  2.2473  1.7380
 3960SOL    HW223514   4.149   3.382   3.219 -3.5101  1.8216  0.6617
 3961SOL     OW23515   1.401   2.031   2.678 -0.3646  0.3960  0.4986
 3961SOL    HW123516   1.346   2.006   2.604  0.3783  3.6106 -1.1664
 3961SOL    HW223517   1.336   2.042   2.747  0.7250 -0.0819  1.6096
 3962SOL     OW23518   0.861   4.647  16.987 -0.1019  0.0098 -0.2673
 3962SOL    HW123519   0.938   4.629  16.932 -0.9496  0.9066 -1.7571
 3962SOL    HW223520   0.788   4.640  16.925  0.2060 -1.0852 -0.5258
 3963SOL     OW23521   1.258   2.977   3.382  0.2179 -0.3217  0.5791
 3963SOL    HW123522   1.306   2.991   3.300  0.1705 -1.2722  0.3842
 3963SOL    HW223523   1.172   3.015   3.366  1.3716  1.6639 -0.9757
 3964SOL     OW23524   4.332   0.478   4.649 -0.1165 -0.0034 -0.3259
 3964SOL    HW123525   4.372   0.391   4.657  1.2346  0.5573 -1.0489
 3964SOL    HW223526   4.261   0.462   4.587 -1.2554 -0.5239  1.0881
 3965SOL     OW23527   1.290   2.479   7.745  0.1934 -0.0518 -0.1248
 3965SOL    HW123528   1.384   2.479   7.763  0.3200 -0.2748 -0.7656
 3965SOL    HW223529   1.261   2.536   7.816  0.6664  1.0029 -0.7745
 3966SOL     OW23530   4.525   2.036   7.992  0.4323 -0.7360  0.0616
 3966SOL    HW123531   4.544   2.122   7.956 -0.9126 -0.8268 -0.8804
 3966SOL    HW223532   4.504   1.994   7.908 -2.6137  2.1924 -0.6282
 3967SOL     OW23533   3.553   4.734   5.993  0.1662  0.2441  0.6715
 3967SOL    HW123534   3.558   0.030   5.903 -1.4360  2.3803  1.3563
 3967SOL    HW223535   3.464   4.700   5.986  0.4066 -0.4187  0.8949
 3968SOL     OW23536   0.943   0.958  16.420  0.0440 -0.6265 -0.2305
 3968SOL    HW123537   0.896   0.890  16.371  1.2138  0.2094 -2.4940
 3968SOL    HW223538   0.969   0.907  16.497 -0.8448 -0.9456 -0.1411
 3969SOL     OW23539   1.884   0.236   7.645  0.8207  0.2720 -0.1287
 3969SOL    HW123540   1.861   0.162   7.701 -0.4321  0.1284 -0.8499
 3969SOL    HW223541   1.802   0.239   7.597  0.9765 -1.2030 -0.4869
 3970SOL     OW23542   0.938   4.177   6.457 -0.2545 -0.1600 -0.1741
 3970SOL    HW123543   0.953   4.246   6.521 -0.6100 -2.2389  2.1709
 3970SOL    HW223544   1.003   4.111   6.480 -0.1855  0.3516  1.0898
 3971SOL     OW23545   1.872   2.815   6.446  0.3637  0.2371 -0.0618
 3971SOL    HW123546   1.911   2.903   6.443 -2.1376  1.3619  0.7780
 3971SOL    HW223547   1.795   2.825   6.502  1.4940 -0.9851  1.7014
 3972SOL     OW23548   1.498   3.106  14.276  0.0686 -0.3331 -0.3162
 3972SOL    HW123549   1.546   3.066  14.204  0.0478 -0.1734 -0.4176
 3972SOL    HW223550   1.421   3.151  14.241 -1.3530 -2.5479 -0.1015
 3973SOL     OW23551   2.524   3.421   8.940  0.2305 -0.1927 -0.1969
 3973SOL    HW123552   2.503   3.331   8.968 -4.1180 -0.2364 -3.6025
 3973SOL    HW223553   2.444   3.469   8.961 -0.5298  0.2851 -4.3155
 3974SOL     OW23554   1.317   4.328   3.238 -0.4914 -0.0486  0.0809
 3974SOL    HW123555   1.253   4.292   3.176 -1.6820 -0.9024  1.7751
 3974SOL    HW223556   1.319   4.262   3.307  0.9211  1.0983  1.1407
 3975SOL     OW23557   3.701   1.189   2.776  0.0732  0.2874 -0.4196
 3975SOL    HW123558   3.619   1.170   2.820  0.6912 -2.8252 -0.6261
 3975SOL    HW223559   3.681   1.168   2.685 -0.1601 -2.1393  0.1910
 3976SOL     OW23560   1.145   2.115   2.781 -0.1768 -0.1817  0.2743
 3976SOL    HW123561   1.145   2.034   2.832 -0.3605 -1.1893 -1.3410
 3976SOL    HW223562   1.163   2.185   2.845  2.1215  1.3160 -2.0423
 3977SOL     OW23563   4.101   0.037   7.727  0.2161  0.0585 -0.7370
 3977SOL    HW123564   4.185   0.000   7.699 -0.9138 -2.4621 -0.8425
 3977SOL    HW223565   4.093   0.106   7.661  2.1492  0.6694 -0.3092
 3978SOL     OW23566   0.355   1.756  16.204  0.1524 -0.1466  0.1161
 3978SOL    HW123567   0.370   1.849  16.221 -2.3404  0.2027  0.3839
 3978SOL    HW223568   0.331   1.732  16.293  0.0021 -0.4095  0.0038
 3979SOL     OW23569   3.952   0.434   3.442 -0.1135  0.3431 -0.6179
 3979SOL    HW123570   3.987   0.345   3.436  1.5656  0.8679  1.6240
 3979SOL    HW223571   3.866   0.411   3.478 -0.1012 -1.0266 -1.4608
 3980SOL     OW23572   3.354   0.873   6.736  0.0660  0.1643  0.0291
 3980SOL    HW123573   3.342   0.878   6.831 -0.0715 -0.1894  0.0285
 3980SOL    HW223574   3.389   0.784   6.731 -1.0942 -0.2836 -0.0387
 3981SOL     OW23575   2.178   3.243   3.863 -0.2263  0.1502  0.3089
 3981SOL    HW123576   2.143   3.254   3.951  0.6099  0.6140  0.5785
 3981SOL    HW223577   2.098   3.257   3.811 -0.2969 -0.1906  0.3213
 3982SOL     OW23578   2.396   3.328   1.673  0.3061 -0.1280  0.1319
 3982SOL    HW123579   2.347   3.410   1.671  2.3795  1.1223  0.2545
 3982SOL    HW223580   2.322   3.273   1.649  1.6459 -2.4902  1.4735
 3983SOL     OW23581   1.616   4.123   5.967  0.0237 -0.1680 -0.1416
 3983SOL    HW123582   1.526   4.113   5.936  0.1679  0.5496 -0.7828
 3983SOL    HW223583   1.605   4.077   6.050 -2.1237 -1.2867 -1.0530
 3984SOL     OW23584   1.919   1.596   0.578 -0.2663 -0.4617 -0.3147
 3984SOL    HW123585   1.956   1.671   0.531  0.8423  0.5599  2.1843
 3984SOL    HW223586   1.827   1.621   0.570 -0.1292 -0.4970 -1.9082
 3985SOL     OW23587   1.294   3.194  17.279 -0.2544  0.1136 -0.2813
 3985SOL    HW123588   1.306   3.252  17.204  1.0847 -0.9180 -0.8647
 3985SOL    HW223589   1.295   3.253  17.355 -0.0790  1.5943 -1.4227
 3986SOL     OW23590   2.978   3.151  12.825 -0.0070 -0.5927 -0.1971
 3986SOL    HW123591   3.055   3.096  12.813  1.9669  1.6497  2.3964
 3986SOL    HW223592   3.008   3.207  12.897  0.4438 -1.0213 -0.0530
 3987SOL     OW23593   3.068   3.770   4.224  0.2171  0.0343 -0.7001
 3987SOL    HW123594   3.047   3.836   4.290  1.1091 -1.1751  0.8186
 3987SOL    HW223595   3.096   3.823   4.150  1.9702 -0.1875 -0.1996
 3988SOL     OW23596   2.380   0.815  14.438  0.4101 -0.0556  0.2055
 3988SOL    HW123597   2.338   0.895  14.471 -0.4720 -0.9310  1.1915
 3988SOL    HW223598   2.369   0.833  14.345  1.3661 -2.4011 -0.3447
 3989SOL     OW23599   0.438   2.520   7.450  0.0208 -0.0868  0.0459
 3989SOL    HW123600   0.404   2.447   7.397 -2.3061  0.1774  1.1924
 3989SOL    HW223601   0.361   2.532   7.505 -0.5253 -2.3578 -0.2041
 3990SOL     OW23602   1.822   3.577   5.690 -0.2916 -0.3433 -0.2278
 3990SOL    HW123603   1.737   3.532   5.692  0.5712 -1.7923  3.6862
 3990SOL    HW223604   1.862   3.533   5.616 -1.0009 -3.3185  1.1505
 3991SOL     OW23605   2.635   2.844  16.780 -0.5162 -0.4231 -0.1536
 3991SOL    HW123606   2.663   2.892  16.857 -1.1597 -3.5178  2.0058
 3991SOL    HW223607   2.604   2.762  16.818  1.6534 -1.1736 -0.0144
 3992SOL     OW23608   0.843   2.054   7.976 -0.0711 -0.5983  0.2194
 3992SOL    HW123609   0.799   2.123   7.926 -0.4846 -0.7931  0.3178
 3992SOL    HW223610   0.892   2.110   8.036 -0.4283  1.3137 -1.2386
 3993SOL     OW23611   2.689   4.591   6.746 -0.0954  0.1064 -0.6441
 3993SOL    HW123612   2.716   4.525   6.810 -1.2258 -0.4239 -0.7121
 3993SOL    HW223613   2.609   4.547   6.716 -0.9908  0.7074  0.8710
 3994SOL     OW23614   2.414   1.999   4.262  0.4481 -0.0363  0.5894
 3994SOL    HW123615   2.391   1.907   4.272 -0.0015 -0.1243 -1.1378
 3994SOL    HW223616   2.416   2.007   4.167 -1.1281 -2.9688  0.3033
 3995SOL     OW23617   2.751   1.056   8.497  0.7012  0.0130  0.1482
 3995SOL    HW123618   2.739   1.147   8.473 -2.0236 -0.0519  1.1990
 3995SOL    HW223619   2.841   1.050   8.467  0.5050 -1.7485 -0.1387
 3996SOL     OW23620   4.253   3.513   1.491 -0.4079 -0.1444  0.5732
 3996SOL    HW123621   4.196   3.444   1.455 -0.6619 -0.4768  1.6245
 3996SOL    HW223622   4.332   3.495   1.441 -1.5933  0.6950 -1.6445
 3997SOL     OW23623   2.594   4.485   4.187 -0.1051  0.0231 -0.3752
 3997SOL    HW123624   2.578   4.403   4.233 -3.3571  0.1096 -1.3325
 3997SOL    HW223625   2.626   4.459   4.101  0.9291 -1.8273  0.5849
 3998SOL     OW23626   2.699   1.413   0.421 -0.1452 -0.0138 -0.5283
 3998SOL    HW123627   2.706   1.411   0.325 -3.9650 -1.3024 -0.7795
 3998SOL    HW223628   2.643   1.336   0.424 -2.3524  1.5792 -0.6691
 3999SOL     OW23629   2.464   2.806   3.595  0.2407  0.2425 -0.0683
 3999SOL    HW123630   2.388   2.829   3.649  1.4866 -0.1089  1.8454
 3999SOL    HW223631   2.429   2.741   3.534  0.5150  0.9808 -1.0211
 4000SOL     OW23632   3.039   1.232   8.159 -0.6821  0.2640 -0.4617
 4000SOL    HW123633   3.011   1.181   8.083 -2.2720 -0.2317  0.4655
 4000SOL    HW223634   2.962   1.208   8.210  0.2358 -1.5950  0.0845
 4001SOL     OW23635   0.953   3.762   5.422 -0.2090  0.7093  0.2291
 4001SOL    HW123636   0.984   3.837   5.473 -0.0552  0.2872  0.7495
 4001SOL    HW223637   0.877   3.800   5.379 -0.5369  0.2752  0.4316
 4002SOL     OW23638   2.709   2.023   4.337 -0.2483 -0.2752  0.5273
 4002SOL    HW123639   2.701   1.929   4.353 -1.9095 -0.0751  0.7860
 4002SOL    HW223640   2.628   2.056   4.300 -0.1192 -0.7097 -0.1492
 4003SOL     OW23641   3.150   3.731   8.126 -0.1156 -0.1853  0.2211
 4003SOL    HW123642   3.199   3.648   8.132 -0.4903 -0.6318 -2.9617
 4003SOL    HW223643   3.092   3.711   8.053 -1.1750 -0.7847  1.2223
 4004SOL     OW23644   3.605   2.787  11.955  0.7309  0.0022 -0.3122
 4004SOL    HW123645   3.539   2.856  11.958  0.8664  0.2138 -1.9826
 4004SOL    HW223646   3.625   2.772  12.047 -0.7944 -0.0125  0.0147
 4005SOL     OW23647   1.945   2.057  16.175  0.7848 -0.1227 -0.1464
 4005SOL    HW123648   1.969   2.057  16.082 -0.3659 -0.0688 -0.4471
 4005SOL    HW223649   1.853   2.033  16.170  0.1530  2.2514  0.3503
 4006SOL     OW23650   0.941   2.454   9.273  0.1539 -0.0636 -0.3472
 4006SOL    HW123651   0.931   2.368   9.316  0.2021 -0.2446 -0.6980
 4006SOL    HW223652   0.975   2.423   9.189 -1.2074  1.9518 -1.6239
 4007SOL     OW23653   2.663   3.206   7.087 -0.6705 -0.4034  0.1894
 4007SOL    HW123654   2.596   3.250   7.035  1.0043  0.0327 -1.6197
 4007SOL    HW223655   2.731   3.195   7.020 -0.8025 -0.0712  0.0002
 4008SOL     OW23656   1.816   1.493  10.617 -0.1480 -0.6511  0.1260
 4008SOL    HW123657   1.750   1.425  10.628 -0.0968 -0.5838  0.7975
 4008SOL    HW223658   1.897   1.447  10.594  0.1641  0.2010 -0.5238
 4009SOL     OW23659   4.413   2.679   7.347 -0.1830  0.3376  0.0257
 4009SOL    HW123660   4.392   2.716   7.433  0.1505  0.6646 -0.0322
 4009SOL    HW223661   4.440   2.761   7.305 -0.4518  0.3374 -0.1493
 4010SOL     OW23662   3.932   1.217  15.649  0.4662 -1.0502 -0.1870
 4010SOL    HW123663   3.902   1.225  15.739  2.5677 -0.2775  0.4364
 4010SOL    HW223664   3.885   1.292  15.612  0.3491 -1.1415 -0.2218
 4011SOL     OW23665   0.148   2.262   3.133 -0.5868 -0.2050 -0.0715
 4011SOL    HW123666   0.122   2.240   3.043 -0.0258 -0.7222 -0.1050
 4011SOL    HW223667   0.241   2.241   3.129  0.3007  3.6508 -0.2605
 4012SOL     OW23668   1.283   2.449  16.078 -0.2328  0.5259 -0.1110
 4012SOL    HW123669   1.340   2.499  16.019 -0.7254 -1.1026 -1.9874
 4012SOL    HW223670   1.252   2.516  16.138 -4.6188 -0.7364 -0.9415
 4013SOL     OW23671   2.565   0.323   6.719 -0.1086  0.0335 -0.2445
 4013SOL    HW123672   2.633   0.351   6.658 -0.2164 -2.4720 -1.5309
 4013SOL    HW223673   2.602   0.255   6.775 -0.7971 -0.0795  0.0719
 4014SOL     OW23674   0.046   2.002   4.206 -0.3207 -0.1053 -0.0318
 4014SOL    HW123675   0.117   1.949   4.242  0.8061  1.5434  0.1565
 4014SOL    HW223676   0.055   2.085   4.251  3.0333  0.3485 -1.5292
 4015SOL     OW23677   0.439   2.689   2.790  0.3351 -0.0365  0.1806
 4015SOL    HW123678   0.367   2.687   2.853  0.3778  2.0498  0.3078
 4015SOL    HW223679   0.504   2.644   2.844 -0.0970 -1.9136 -0.8641
 4016SOL     OW23680   2.869   4.584  10.516 -0.5710  0.6684 -0.1483
 4016SOL    HW123681   2.828   4.515  10.463  0.1542 -1.3440  1.8804
 4016SOL    HW223682   2.854   4.662  10.462  0.6241  0.3906 -0.8828
 4017SOL     OW23683   3.768   3.403  16.753 -0.6319  0.2222 -0.1628
 4017SOL    HW123684   3.775   3.380  16.845 -0.0763 -1.6359 -0.6867
 4017SOL    HW223685   3.844   3.364  16.709 -0.4685  1.4299 -0.9526
 4018SOL     OW23686   4.397   4.702   7.675  0.1396  0.6111  0.5901
 4018SOL    HW123687   4.490   4.717   7.658  0.0214  1.3301  0.6083
 4018SOL    HW223688   4.381   0.042   7.729  1.6595  0.6974  0.9270
 4019SOL     OW23689   1.412   1.507  11.544  0.4236 -0.2367  0.2336
 4019SOL    HW123690   1.507   1.502  11.554  0.4109 -2.0189 -0.6096
 4019SOL    HW223691   1.408   1.576  11.477 -0.5119  1.1883  1.7682
 4020SOL     OW23692   1.584   3.174  12.839 -0.9636  0.0644 -0.9207
 4020SOL    HW123693   1.565   3.262  12.872  1.0620 -0.5152  1.7715
 4020SOL    HW223694   1.611   3.202  12.752 -0.0942  3.5561  0.4585
 4021SOL     OW23695   2.928   2.727   8.721 -0.4907 -0.1038  0.2933
 4021SOL    HW123696   2.956   2.818   8.729  0.9338 -0.7153  2.4259
 4021SOL    HW223697   3.011   2.680   8.726  0.2152  1.1158 -0.3167
 4022SOL     OW23698   1.752   2.635   0.248  0.1616 -0.4316  0.0562
 4022SOL    HW123699   1.806   2.676   0.314 -0.0378 -1.0201  0.5819
 4022SOL    HW223700   1.723   2.707   0.191  1.8377 -0.2104 -0.5107
 4023SOL     OW23701   0.025   2.981   5.353  0.1270  0.2249 -0.1594
 4023SOL    HW123702   0.054   2.991   5.444 -1.6776 -1.1742  0.5718
 4023SOL    HW223703   0.074   3.054   5.315  0.4267 -0.2685 -0.7053
 4024SOL     OW23704   0.212   0.117   3.661  0.4132  0.0756  0.3145
 4024SOL    HW123705   0.292   0.127   3.713  0.2948 -2.0037  0.9236
 4024SOL    HW223706   0.189   0.208   3.642 -0.2649 -0.1151  0.2376
 4025SOL     OW23707   0.666   3.849   6.474  0.1470 -0.1029  0.3410
 4025SOL    HW123708   0.612   3.916   6.517 -0.5219 -0.7659  0.5217
 4025SOL    HW223709   0.597   3.813   6.418  0.7919 -0.8580  0.0336
 4026SOL     OW23710   0.191   3.772   0.322 -0.2021  0.6462 -0.4759
 4026SOL    HW123711   0.261   3.710   0.299  0.3509  1.3254 -0.6151
 4026SOL    HW223712   0.181   3.751   0.415 -1.3903 -0.4596 -0.8595
 4027SOL     OW23713   2.141   4.107  11.186  0.2535 -0.3590  0.1012
 4027SOL    HW123714   2.163   4.178  11.125  1.3554 -1.7197 -1.0735
 4027SOL    HW223715   2.215   4.107  11.246 -0.1039  0.7857  0.5423
 4028SOL     OW23716   1.250   4.403  12.875 -0.4015  0.1767  0.5321
 4028SOL    HW123717   1.243   4.322  12.824 -0.5855 -0.0805  0.9699
 4028SOL    HW223718   1.344   4.422  12.874  0.1161 -2.5075 -3.1853
 4029SOL     OW23719   3.749   3.545   3.569  0.4329 -0.0222 -0.2013
 4029SOL    HW123720   3.829   3.494   3.585  1.8552  2.2197 -0.1361
 4029SOL    HW223721   3.702   3.526   3.651 -0.1509  1.1645 -0.2669
 4030SOL     OW23722   1.864   0.602  11.846 -0.5784  0.0639  0.1034
 4030SOL    HW123723   1.829   0.675  11.896  0.7892 -0.7893  2.2746
 4030SOL    HW223724   1.853   0.528  11.905  2.9103 -0.9779 -0.5552
 4031SOL     OW23725   3.675   3.118   3.983  0.3939  0.2790 -0.5207
 4031SOL    HW123726   3.732   3.188   3.950 -0.8856  1.1318 -0.9360
 4031SOL    HW223727   3.688   3.047   3.921 -1.5331 -0.8234  0.3367
 4032SOL     OW23728   0.212   3.263  16.312 -0.6374  0.3235 -0.6122
 4032SOL    HW123729   0.149   3.237  16.245 -2.8806 -1.9755  2.3873
 4032SOL    HW223730   0.286   3.300  16.265 -1.0092 -1.1721 -2.3781
 4033SOL     OW23731   4.074   4.248   8.879  0.0221 -0.5698  0.3082
 4033SOL    HW123732   4.136   4.189   8.836 -0.8097 -0.9301 -0.3735
 4033SOL    HW223733   4.050   4.190   8.951 -1.6640 -1.5221 -1.0295
 4034SOL     OW23734   2.446   4.494   3.383  0.3076 -0.1953 -0.6422
 4034SOL    HW123735   2.510   4.562   3.407 -0.3093  0.4747 -0.8986
 4034SOL    HW223736   2.462   4.495   3.288 -0.7625 -0.7677 -0.8241
 4035SOL     OW23737   4.264   4.678   4.448 -0.3226 -0.5002  0.7214
 4035SOL    HW123738   4.213   4.704   4.525 -1.0343  1.5931 -0.4720
 4035SOL    HW223739   4.240   0.012   4.389 -2.2887 -0.8754  1.0541
 4036SOL     OW23740   1.897   0.122   8.852 -0.0598  0.2768 -1.0356
 4036SOL    HW123741   1.874   0.202   8.803  0.9732  0.8264 -0.6273
 4036SOL    HW223742   1.884   0.144   8.944  3.3998 -0.1906 -0.4439
 4037SOL     OW23743   2.074   0.275   6.065 -0.3944  0.6765  0.2620
 4037SOL    HW123744   1.982   0.303   6.056  0.0626  1.3907 -2.2597
 4037SOL    HW223745   2.117   0.318   5.991  1.0590  2.3293  2.0996
 4038SOL     OW23746   3.654   2.532   9.676 -0.0097  0.0064  0.5172
 4038SOL    HW123747   3.609   2.611   9.706 -0.6316  0.1438 -0.7657
 4038SOL    HW223748   3.733   2.538   9.729  1.3392  1.4749 -1.6820
 4039SOL     OW23749   2.534   4.144   6.864 -0.3256 -0.1205  0.1773
 4039SOL    HW123750   2.520   4.236   6.886  2.6058  0.0547  1.3031
 4039SOL    HW223751   2.466   4.100   6.916 -0.2639  0.3999  0.6927
 4040SOL     OW23752   1.714   2.898   3.218  0.9602 -0.1095  0.0076
 4040SOL    HW123753   1.662   2.848   3.154 -0.4420  1.7975 -0.3380
 4040SOL    HW223754   1.691   2.862   3.304 -0.1076 -2.1696 -1.1431
 4041SOL     OW23755   3.576   0.343   8.780  0.1782  0.3004  0.4100
 4041SOL    HW123756   3.613   0.424   8.744  0.9927 -0.9621 -1.5579
 4041SOL    HW223757   3.637   0.278   8.747  2.8375  1.7793  2.4516
 4042SOL     OW23758   2.194   0.574   6.822  0.3312  0.0958  0.6272
 4042SOL    HW123759   2.272   0.601   6.773 -0.5739  0.7347 -0.4709
 4042SOL    HW223760   2.238   0.527   6.893 -1.4997 -2.1963  0.2330
 4043SOL     OW23761   4.474   1.918  14.578 -0.0993  0.3841 -0.1538
 4043SOL    HW123762   4.519   1.851  14.526 -0.0098  0.3257 -0.0002
 4043SOL    HW223763   4.427   1.965  14.508  0.2886  1.7504  0.4916
 4044SOL     OW23764   1.557   0.729   1.891 -0.0717  0.4037 -0.1588
 4044SOL    HW123765   1.519   0.699   1.974 -0.8061 -3.8801 -2.0487
 4044SOL    HW223766   1.494   0.793   1.858 -0.3403  0.4298  0.4015
 4045SOL     OW23767   3.294   0.387   4.505  0.6003 -0.3382  0.1832
 4045SOL    HW123768   3.272   0.469   4.461 -3.1332 -1.2246  0.3926
 4045SOL    HW223769   3.382   0.387   4.467  0.8164 -0.4805  0.6877
 4046SOL     OW23770   3.508   1.142   8.186 -0.2324  0.6579 -0.1253
 4046SOL    HW123771   3.462   1.099   8.113  0.7222  0.1406 -0.4172
 4046SOL    HW223772   3.441   1.201   8.220 -0.3280  0.5867 -0.1896
 4047SOL     OW23773   3.763   3.891   7.797  0.0240  0.3738  0.1479
 4047SOL    HW123774   3.769   3.841   7.715  3.8834 -0.1682  0.7857
 4047SOL    HW223775   3.669   3.890   7.816 -0.1681 -0.2941 -0.7926
 4048SOL     OW23776   0.152   2.149   2.605 -0.2807 -0.1890 -0.3590
 4048SOL    HW123777   0.129   2.162   2.513 -2.5053 -0.3740  0.1657
 4048SOL    HW223778   0.157   2.054   2.609 -1.6384 -0.2498  0.0060
 4049SOL     OW23779   3.697   0.118   4.311  0.1918 -0.6548  0.1996
 4049SOL    HW123780   3.722   0.197   4.263  0.3057 -0.3814  0.7128
 4049SOL    HW223781   3.620   0.142   4.363 -1.0027 -2.3656 -0.7850
 4050SOL     OW23782   0.399   1.665   9.424  0.2929 -0.0722 -0.2165
 4050SOL    HW123783   0.411   1.677   9.518 -0.1773 -1.8591  0.0640
 4050SOL    HW223784   0.464   1.722   9.381  0.0354 -0.1330 -0.6855
 4051SOL     OW23785   0.706   1.996   6.499 -0.3146 -0.0610 -0.4490
 4051SOL    HW123786   0.731   2.084   6.471 -0.4949  0.0248 -0.3456
 4051SOL    HW223787   0.611   2.001   6.503 -0.2642 -0.2636  1.3025
 4052SOL     OW23788   2.082   0.796   1.821 -0.2334  0.8367  0.0409
 4052SOL    HW123789   2.146   0.839   1.878 -0.4868 -0.0074  0.9676
 4052SOL    HW223790   2.031   0.873   1.796 -2.7210 -0.7754  0.1609
 4053SOL     OW23791   1.907   2.268   8.132 -0.0475 -0.3991  0.2071
 4053SOL    HW123792   1.959   2.345   8.157  0.4582 -0.7132  0.1206
 4053SOL    HW223793   1.981   2.207   8.126 -0.9651 -1.5018  0.0813
 4054SOL     OW23794   3.456   2.056   3.770 -0.0170 -0.5274 -0.0218
 4054SOL    HW123795   3.530   2.068   3.710  0.1485  1.1792  0.5221
 4054SOL    HW223796   3.419   1.974   3.737  2.5661 -1.7732  0.1849
 4055SOL     OW23797   3.444   2.725   2.601  0.1251  0.3334 -0.0580
 4055SOL    HW123798   3.539   2.735   2.595 -0.0874  2.1937 -0.2926
 4055SOL    HW223799   3.407   2.805   2.639  2.1278  0.6230  1.2553
 4056SOL     OW23800   2.301   3.707   7.281  0.0823 -0.1417  0.4147
 4056SOL    HW123801   2.342   3.791   7.301 -0.2764  0.2439 -0.4795
 4056SOL    HW223802   2.220   3.701   7.331  0.5916 -0.2376  1.2300
 4057SOL     OW23803   4.087   3.215  15.253 -0.4617 -0.8153 -0.5111
 4057SOL    HW123804   4.142   3.145  15.218  0.2732  0.0826 -1.1791
 4057SOL    HW223805   4.016   3.164  15.291  0.3869  0.5774  2.8908
 4058SOL     OW23806   1.629   3.241   9.674  0.0746 -0.0272 -0.5860
 4058SOL    HW123807   1.639   3.335   9.685 -1.3284  0.2754 -1.8995
 4058SOL    HW223808   1.676   3.219   9.594  0.2503 -0.0986 -0.4625
 4059SOL     OW23809   4.343   1.613   5.939  0.0917 -0.3626 -0.3144
 4059SOL    HW123810   4.434   1.617   5.969 -0.0893  0.4318  0.1265
 4059SOL    HW223811   4.357   1.557   5.863  1.4022 -2.4189  1.4482
 4060SOL     OW23812   3.766   3.557  11.984 -0.0187  0.7895  0.1428
 4060SOL    HW123813   3.754   3.644  12.020 -0.6089  0.3781  0.9423
 4060SOL    HW223814   3.858   3.541  12.001 -0.6342 -0.4279  2.3431
 4061SOL     OW23815   4.330   0.870  14.040 -0.0804 -0.1454 -0.1874
 4061SOL    HW123816   4.340   0.899  14.131 -0.6033  0.3060 -0.2708
 4061SOL    HW223817   4.235   0.880  14.027 -0.0406  0.5233  0.0050
 4062SOL     OW23818   1.024   1.594   7.476 -0.3240  0.0810  0.1707
 4062SOL    HW123819   1.113   1.628   7.491 -0.8916  1.5750  0.1069
 4062SOL    HW223820   1.041   1.507   7.514 -0.7965 -0.6096 -1.1969
 4063SOL     OW23821   3.509   1.226   3.944  0.1914 -0.0556  0.4333
 4063SOL    HW123822   3.484   1.136   3.963 -0.0807  0.3435  1.9529
 4063SOL    HW223823   3.580   1.219   3.880  0.5601  0.6449  0.7662
 4064SOL     OW23824   2.985   1.764   5.446 -0.0526 -0.0086  0.0310
 4064SOL    HW123825   2.997   1.671   5.467 -1.2181 -0.1455  0.1237
 4064SOL    HW223826   2.890   1.775   5.456  0.2717  0.9235  2.1712
 4065SOL     OW23827   3.031   4.469   5.700 -0.1218 -0.0437 -0.2986
 4065SOL    HW123828   3.030   4.385   5.654  1.1319 -0.5191  0.5329
 4065SOL    HW223829   3.010   4.447   5.791  1.2452 -0.4411 -0.0749
 4066SOL     OW23830   3.715   3.563  17.050 -0.4188  0.2364 -0.3657
 4066SOL    HW123831   3.689   3.609  17.130 -0.1204 -0.0494 -0.1095
 4066SOL    HW223832   3.635   3.568  16.998 -0.4886  0.2144 -0.2604
 4067SOL     OW23833   3.806   0.347   9.705  0.0527  0.1197 -0.6495
 4067SOL    HW123834   3.819   0.425   9.759 -1.5459  1.9718 -2.9340
 4067SOL    HW223835   3.785   0.389   9.622 -2.4189 -1.1149 -0.6667
 4068SOL     OW23836   1.906   0.596  16.259  0.4013  0.0067 -0.3136
 4068SOL    HW123837   1.982   0.569  16.208  2.1407  3.6490  0.3170
 4068SOL    HW223838   1.919   0.686  16.290  0.5330 -0.6012  1.3920
 4069SOL     OW23839   1.824   1.921   7.253  0.1354 -0.4349  0.1432
 4069SOL    HW123840   1.749   1.980   7.249  0.9582  0.6876  1.2869
 4069SOL    HW223841   1.849   1.900   7.163 -1.1905  0.7865 -0.5005
 4070SOL     OW23842   0.745   1.985   3.914  0.2547  0.6182  0.0907
 4070SOL    HW123843   0.791   1.901   3.913  0.6799  0.8380  0.8086
 4070SOL    HW223844   0.807   2.036   3.861  2.5331  0.4493  2.5528
 4071SOL     OW23845   1.256   4.605   0.993  0.2872 -0.5678  0.3150
 4071SOL    HW123846   1.236   4.699   0.993  1.3864 -0.3305  1.1255
 4071SOL    HW223847   1.256   4.592   1.087 -2.6675  0.3269  0.4561
 4072SOL     OW23848   4.542   2.642   1.647  0.4883 -0.6286  0.0958
 4072SOL    HW123849   4.490   2.677   1.575 -0.1597  0.8617  1.3080
 4072SOL    HW223850   4.497   2.561   1.672 -1.5826  0.6516  0.4301
 4073SOL     OW23851   2.764   3.106   9.786  0.1176  0.0260 -0.9143
 4073SOL    HW123852   2.716   3.123   9.867  1.9130  1.4625 -0.1486
 4073SOL    HW223853   2.703   3.042   9.748  0.4594 -0.3134 -0.8856
 4074SOL     OW23854   4.208   4.488   1.239  0.2174 -0.1715  0.6653
 4074SOL    HW123855   4.238   4.401   1.215  3.0528  0.9705  0.0607
 4074SOL    HW223856   4.114   4.483   1.226  0.4531  0.2702 -1.1606
 4075SOL     OW23857   0.595   1.992  13.927  0.1243 -0.1054 -0.3444
 4075SOL    HW123858   0.652   1.924  13.965 -0.6147  0.4068  1.6474
 4075SOL    HW223859   0.640   2.009  13.844  1.2945  2.4577  0.8043
 4076SOL     OW23860   0.233   1.259   3.609  0.6088 -0.2941 -0.6492
 4076SOL    HW123861   0.269   1.306   3.533 -0.0374  2.7479  0.9144
 4076SOL    HW223862   0.258   1.168   3.596  0.3781 -0.7006  1.7644
 4077SOL     OW23863   3.810   4.718   2.175 -0.0309  0.0509 -0.2444
 4077SOL    HW123864   3.728   4.705   2.222 -0.2223  3.5650  0.3983
 4077SOL    HW223865   3.783   0.049   2.114 -2.1998 -0.3551  0.2548
 4078SOL     OW23866   0.020   0.510  15.664 -0.2448  0.7915 -0.4678
 4078SOL    HW123867   0.023   0.555  15.579 -2.3081 -0.3360 -1.1591
 4078SOL    HW223868   4.676   0.543  15.702 -0.3071 -1.4874  1.3540
 4079SOL     OW23869   3.785   3.117  12.821 -0.0185  0.1780  0.7621
 4079SOL    HW123870   3.788   3.077  12.908 -0.9420 -0.5870  0.4406
 4079SOL    HW223871   3.713   3.177  12.835 -0.9686 -1.0001  0.8783
 4080SOL     OW23872   1.984   3.810   3.218 -0.3204  0.3331  0.3428
 4080SOL    HW123873   2.004   3.877   3.284 -0.3593 -1.1085  1.8174
 4080SOL    HW223874   1.945   3.745   3.275 -0.3401  0.3593  0.3588
 4081SOL     OW23875   2.846   2.116  14.923  0.2858  0.2452  0.6683
 4081SOL    HW123876   2.940   2.100  14.930  0.1300 -1.0325 -0.1036
 4081SOL    HW223877   2.832   2.174  14.848  0.5563 -0.5348  0.0141
 4082SOL     OW23878   1.044   1.119   7.853 -0.0675  0.5242  0.0658
 4082SOL    HW123879   1.057   1.205   7.892 -0.9520  0.6407  0.0995
 4082SOL    HW223880   0.952   1.108   7.876  0.0543 -0.6859 -0.0074
 4083SOL     OW23881   3.144   1.254  13.994  0.6475 -0.2200 -0.6601
 4083SOL    HW123882   3.199   1.195  14.045  3.4867  0.4166 -2.9848
 4083SOL    HW223883   3.108   1.288  14.076 -1.7135 -1.4044 -1.2171
 4084SOL     OW23884   0.536   1.480   6.289  0.3887 -0.7230 -0.6559
 4084SOL    HW123885   0.535   1.483   6.384  0.4870  0.9321 -0.7095
 4084SOL    HW223886   0.566   1.391   6.271  1.2961 -0.5031 -0.2175
 4085SOL     OW23887   0.337   4.650   6.408  0.0561 -0.0008  0.0235
 4085SOL    HW123888   0.244   4.644   6.433 -0.4604 -0.5624 -2.0644
 4085SOL    HW223889   0.371   4.626   6.494  1.1911 -1.6314 -0.8972
 4086SOL     OW23890   4.670   3.795  16.616 -0.5895  0.0789  0.2264
 4086SOL    HW123891   4.678   3.843  16.698 -2.4397  0.3003  0.2796
 4086SOL    HW223892   0.022   3.764  16.601 -0.8220 -0.2962 -0.4207
 4087SOL     OW23893   2.125   0.389   5.828  0.7909 -0.1641  0.0635
 4087SOL    HW123894   2.032   0.394   5.805  0.3298  0.4213  2.0212
 4087SOL    HW223895   2.147   0.478   5.855  0.8682  0.1427 -1.0014
 4088SOL     OW23896   4.392   4.518  15.261 -0.0254  0.4792  0.4108
 4088SOL    HW123897   4.341   4.475  15.330 -0.1481  0.2412  0.1688
 4088SOL    HW223898   4.325   4.564  15.210 -0.8120 -0.1689  0.8482
 4089SOL     OW23899   0.707   3.810  12.277 -0.1151 -0.1181  0.7896
 4089SOL    HW123900   0.756   3.730  12.263 -0.0910 -0.0837  0.6840
 4089SOL    HW223901   0.760   3.880  12.240 -0.5388  0.4756  1.3017
 4090SOL     OW23902   3.165   2.639   8.489 -0.2920 -0.5310  0.3178
 4090SOL    HW123903   3.094   2.683   8.443 -0.1959 -1.5266 -0.7818
 4090SOL    HW223904   3.140   2.661   8.579  0.5541 -0.3430  0.5078
 4091SOL     OW23905   3.805   0.932   7.109 -0.2288  0.4825  0.2108
 4091SOL    HW123906   3.891   0.896   7.130 -0.4206 -1.1580 -1.8274
 4091SOL    HW223907   3.744   0.858   7.119  0.5367 -0.7737 -4.6740
 4092SOL     OW23908   3.762   0.858   1.969 -0.5191 -0.3608  0.2416
 4092SOL    HW123909   3.835   0.871   2.031  0.7286 -1.3089 -1.0310
 4092SOL    HW223910   3.697   0.858   2.039 -0.6874  0.5511  0.0918
 4093SOL     OW23911   2.328   4.039   8.688  0.3812 -0.5323 -0.0094
 4093SOL    HW123912   2.330   4.106   8.755  1.4261 -0.1245 -0.4572
 4093SOL    HW223913   2.410   3.989   8.697  1.4420  1.7441  2.7158
 4094SOL     OW23914   1.394   0.129   6.928  0.6554 -0.4562  0.0494
 4094SOL    HW123915   1.447   0.098   6.854  2.3312  1.3210  0.5285
 4094SOL    HW223916   1.362   0.046   6.963 -3.8345  1.4340  0.3466
 4095SOL     OW23917   1.436   1.604   9.881 -0.4135 -0.1867  0.3627
 4095SOL    HW123918   1.375   1.531   9.869 -1.3129  0.9103 -1.7191
 4095SOL    HW223919   1.436   1.634   9.972  1.1013  1.9552 -0.3329
 4096SOL     OW23920   3.032   0.641   0.180 -0.4742 -0.8104  0.1895
 4096SOL    HW123921   2.961   0.596   0.134 -1.0784 -0.8882  1.1900
 4096SOL    HW223922   3.106   0.630   0.122  0.9040 -0.7242  1.9336
 4097SOL     OW23923   1.687   1.891   4.551  0.2787 -0.2391 -0.1341
 4097SOL    HW123924   1.696   1.797   4.568  0.8461 -0.0284  0.7243
 4097SOL    HW223925   1.667   1.888   4.457 -2.0787 -2.2664  0.4240
 4098SOL     OW23926   0.096   0.083  14.816 -0.1478 -0.2688 -0.1397
 4098SOL    HW123927   0.086   0.171  14.852 -1.2691 -0.4500 -0.0316
 4098SOL    HW223928   0.175   0.048  14.858 -0.8260  0.3407  1.6152
 4099SOL     OW23929   4.518   0.836   8.498 -0.3751 -0.4704  0.0125
 4099SOL    HW123930   4.569   0.913   8.524  1.1681 -1.4103 -0.2307
 4099SOL    HW223931   4.538   0.762   8.556 -3.3554  0.6420  2.4787
 4100SOL     OW23932   3.393   2.878   6.595 -0.0580  0.1950 -0.1090
 4100SOL    HW123933   3.302   2.901   6.580 -0.2606 -1.1206 -0.9486
 4100SOL    HW223934   3.427   2.946   6.653  0.4003  0.1160 -0.2813
 4101SOL     OW23935   4.155   3.312   5.999  0.0147 -0.5018 -0.5534
 4101SOL    HW123936   4.183   3.403   6.003  3.0645 -1.5185  1.8776
 4101SOL    HW223937   4.240   3.270   6.017  1.2642  1.4439 -1.9560
 4102SOL     OW23938   0.786   3.983   2.371 -0.4104  0.2301  0.3020
 4102SOL    HW123939   0.865   4.037   2.372  1.4589 -2.5572  1.4474
 4102SOL    HW223940   0.752   3.996   2.459 -0.2452  0.0434  0.3933
 4103SOL     OW23941   2.741   0.516   2.469  0.3224 -0.0730  0.2200
 4103SOL    HW123942   2.831   0.485   2.457  0.6877  0.9116  0.3675
 4103SOL    HW223943   2.727   0.570   2.392  0.3700 -2.3896 -1.4056
 4104SOL     OW23944   2.831   1.046  12.418  0.3747 -0.1802 -0.3148
 4104SOL    HW123945   2.762   1.029  12.354  0.1787 -3.0330  0.6604
 4104SOL    HW223946   2.817   1.138  12.440 -0.2214 -0.0427 -1.2565
 4105SOL     OW23947   0.821   3.232  16.686  0.1186  0.2728  0.4376
 4105SOL    HW123948   0.820   3.202  16.777 -0.5962 -0.5002  0.1655
 4105SOL    HW223949   0.776   3.161  16.641  0.8151 -1.4065  2.3935
 4106SOL     OW23950   0.539   2.773  16.097 -0.2255  0.0450  0.7300
 4106SOL    HW123951   0.473   2.790  16.165 -0.6188  2.9393 -0.3962
 4106SOL    HW223952   0.617   2.763  16.152 -0.0161  0.7352  0.5501
 4107SOL     OW23953   2.122   3.148  10.038 -0.3171 -0.1208  0.3480
 4107SOL    HW123954   2.213   3.166  10.015 -0.7696  0.7284 -0.7721
 4107SOL    HW223955   2.073   3.206   9.980 -1.4656 -1.1886  0.2489
 4108SOL     OW23956   0.098   1.712  10.916  0.2306  0.2899 -0.2387
 4108SOL    HW123957   0.029   1.766  10.878  0.3356  0.9035  0.4542
 4108SOL    HW223958   0.144   1.680  10.839 -1.9089 -0.6644 -1.1235
 4109SOL     OW23959   0.495   3.657  12.094  0.9481 -0.6736 -0.5089
 4109SOL    HW123960   0.422   3.638  12.153  2.8502 -0.5796  1.8876
 4109SOL    HW223961   0.549   3.711  12.151 -0.4206  0.7166 -0.5155
 4110SOL     OW23962   0.338   0.710   8.207  0.2330 -0.1033  0.3192
 4110SOL    HW123963   0.291   0.632   8.235  1.1497 -1.1515 -1.0927
 4110SOL    HW223964   0.292   0.784   8.247 -1.8294 -1.9621  1.4291
 4111SOL     OW23965   0.962   1.167   8.204  0.0250 -0.0467 -0.1222
 4111SOL    HW123966   1.042   1.122   8.231 -0.5981 -1.1417 -0.0902
 4111SOL    HW223967   0.923   1.179   8.291  1.1836 -0.9972  0.5398
 4112SOL     OW23968   1.602   4.501   2.450 -0.1256 -0.0392  0.1283
 4112SOL    HW123969   1.604   4.552   2.531  1.0077  0.5656 -0.2704
 4112SOL    HW223970   1.560   4.559   2.386  2.1105  1.2206 -0.2142
 4113SOL     OW23971   3.648   3.572  15.839  0.3171 -0.0084  0.0639
 4113SOL    HW123972   3.604   3.551  15.757  1.7110  1.2726 -0.9969
 4113SOL    HW223973   3.585   3.541  15.904 -0.7195 -1.4925 -1.6772
 4114SOL     OW23974   2.205   2.596   5.656  0.3256 -0.0041  0.0304
 4114SOL    HW123975   2.161   2.594   5.742 -1.3840 -1.2297 -0.8774
 4114SOL    HW223976   2.272   2.664   5.661 -0.3283  0.6632 -0.2644
 4115SOL     OW23977   2.466   2.930  16.116  0.1284 -0.3901  0.4351
 4115SOL    HW123978   2.438   3.020  16.099  0.2491 -0.6924 -1.3317
 4115SOL    HW223979   2.382   2.889  16.096 -0.2663 -0.8277  2.9727
 4116SOL     OW23980   4.330   4.707   1.380 -0.2851 -0.4652  0.2563
 4116SOL    HW123981   4.295   4.632   1.331 -1.2776 -0.1964  0.5476
 4116SOL    HW223982   4.263   0.030   1.348  0.1969  0.5067  1.0478
 4117SOL     OW23983   2.961   3.191   3.123 -0.4003  0.0699 -0.3767
 4117SOL    HW123984   3.026   3.234   3.179 -1.2412 -0.5343  1.0546
 4117SOL    HW223985   2.982   3.098   3.131  1.2849  0.4244 -0.6602
 4118SOL     OW23986   0.971   2.404   2.990 -0.2099 -0.7754 -0.1495
 4118SOL    HW123987   0.951   2.494   3.013  3.7158  0.4308 -1.4676
 4118SOL    HW223988   0.983   2.397   2.895  0.2159 -2.0029 -0.0019
 4119SOL     OW23989   1.889   1.802  16.021 -0.5766  0.4088 -0.0898
 4119SOL    HW123990   1.952   1.761  16.081 -1.3172  0.9424  1.0548
 4119SOL    HW223991   1.815   1.785  16.079  0.8785 -0.8445  1.4206
 4120SOL     OW23992   0.918   0.200   6.533 -0.1157 -0.3166  0.3355
 4120SOL    HW123993   0.937   0.124   6.477 -0.3210 -0.7161  0.8147
 4120SOL    HW223994   0.849   0.165   6.588 -0.3339 -3.0453 -1.6630
 4121SOL     OW23995   3.564   2.275   4.856  0.0708 -0.3106 -0.5211
 4121SOL    HW123996   3.560   2.357   4.905  2.2917 -0.9352  0.7413
 4121SOL    HW223997   3.496   2.302   4.794 -0.4044 -0.3064  0.0049
 4122SOL     OW23998   1.113   2.700   9.668  0.2973  0.0123  0.3557
 4122SOL    HW123999   1.043   2.682   9.604  1.2319 -0.4384 -0.5426
 4122SOL    HW224000   1.160   2.756   9.606 -0.9252  0.2818 -0.3381
 4123SOL     OW24001   4.097   0.838   7.189  0.0662 -0.1844  0.2659
 4123SOL    HW124002   4.134   0.876   7.269 -1.0431  4.7185 -1.5564
 4123SOL    HW224003   4.079   0.746   7.207  1.3581 -0.1581  1.7610
 4124SOL     OW24004   4.456   0.405   3.831  0.3127  0.1812 -0.0343
 4124SOL    HW124005   4.551   0.416   3.839  0.2686  0.3129  0.3076
 4124SOL    HW224006   4.444   0.460   3.753 -0.8126 -0.0006  0.0133
 4125SOL     OW24007   4.700   1.176  16.246 -0.2473  0.4224  0.2096
 4125SOL    HW124008   4.714   1.150  16.155 -0.0108 -0.1538  0.4118
 4125SOL    HW224009   4.733   1.266  16.249 -2.3231  1.1928 -0.4608
 4126SOL     OW24010   1.847   1.671  10.381 -0.3779  0.5302  0.1644
 4126SOL    HW124011   1.904   1.627  10.318  1.2890  1.1989  1.2259
 4126SOL    HW224012   1.848   1.604  10.448 -0.9639 -1.4661 -1.8294
 4127SOL     OW24013   0.084   4.302   6.667  0.4189 -0.4234 -0.5197
 4127SOL    HW124014   0.146   4.242   6.627  0.8925 -0.0702 -0.3058
 4127SOL    HW224015   0.050   4.350   6.591 -0.4126 -2.2572 -1.3137
 4128SOL     OW24016   1.161   0.195   3.021 -0.5979  0.1382  0.1352
 4128SOL    HW124017   1.093   0.178   2.956  0.0071  0.9522 -0.7071
 4128SOL    HW224018   1.227   0.127   3.005 -0.6982 -0.0549  0.5506
 4129SOL     OW24019   4.147   4.308   8.365 -0.4310  0.7898  0.6796
 4129SOL    HW124020   4.163   4.382   8.307 -0.2956  2.8407  3.3272
 4129SOL    HW224021   4.238   4.283   8.381 -1.2427 -1.4948  1.7356
 4130SOL     OW24022   2.891   0.754  17.020 -0.3208 -0.5220  0.2239
 4130SOL    HW124023   2.980   0.781  16.998 -0.1473 -0.7852  0.5914
 4130SOL    HW224024   2.845   0.766  16.937 -0.1781 -2.0375 -0.0779
 4131SOL     OW24025   4.207   1.295  15.657 -0.2429 -0.0997  0.3739
 4131SOL    HW124026   4.118   1.260  15.649 -1.1183  1.7320  2.3061
 4131SOL    HW224027   4.255   1.221  15.618 -1.4907 -0.7535  0.0902
 4132SOL     OW24028   0.707   0.823  13.074  0.1095 -0.3536 -0.1146
 4132SOL    HW124029   0.699   0.917  13.090 -0.4304 -0.8139  2.3961
 4132SOL    HW224030   0.613   0.806  13.085  0.1598 -0.1723  0.5797
 4133SOL     OW24031   2.757   1.281   7.923 -0.5731 -0.7566 -0.3256
 4133SOL    HW124032   2.671   1.291   7.964  0.1270  0.4700  0.8403
 4133SOL    HW224033   2.810   1.253   7.998  0.0075  3.7806  0.9656
 4134SOL     OW24034   2.627   3.049   2.080  0.0163  0.0490  0.1698
 4134SOL    HW124035   2.547   3.091   2.049 -0.7829 -1.0966  0.6658
 4134SOL    HW224036   2.596   2.959   2.087  1.1334 -0.2410  1.4174
 4135SOL     OW24037   4.399   2.861   3.168 -0.1102 -0.3865  0.1856
 4135SOL    HW124038   4.398   2.848   3.073  0.4653 -2.1212  0.4167
 4135SOL    HW224039   4.436   2.949   3.177  0.0689 -0.2553 -1.8959
 4136SOL     OW24040   0.947   0.107   4.540  0.3589  0.1087  0.3835
 4136SOL    HW124041   0.955   0.158   4.620 -2.1766  0.1533  0.6166
 4136SOL    HW224042   0.881   0.162   4.497 -0.6513  0.5173  2.4587
 4137SOL     OW24043   1.639   3.570  17.349  0.1997 -0.1332  0.1748
 4137SOL    HW124044   1.711   3.507  17.357 -1.5130 -2.0481  0.3236
 4137SOL    HW224045   1.628   3.553  17.256  0.4005 -3.2653  0.6990
 4138SOL     OW24046   4.201   1.238   1.395  0.1647  0.2081 -0.1910
 4138SOL    HW124047   4.172   1.227   1.305  2.2730 -0.6166 -0.7696
 4138SOL    HW224048   4.292   1.208   1.399  0.0558  0.2348  2.6128
 4139SOL     OW24049   1.099   1.475   8.320 -0.2895  0.9434 -0.0586
 4139SOL    HW124050   1.013   1.513   8.305  0.5688  2.2006 -1.7862
 4139SOL    HW224051   1.082   1.450   8.411  0.3674  1.0141  0.0837
 4140SOL     OW24052   2.985   2.804   2.669  0.6936  0.2470 -0.2826
 4140SOL    HW124053   2.962   2.891   2.636  0.7722  0.7465  0.9836
 4140SOL    HW224054   2.905   2.777   2.714  0.5190  1.5278  0.1799
 4141SOL     OW24055   4.323   2.692   7.802  0.6207  0.2606 -0.9884
 4141SOL    HW124056   4.384   2.635   7.754 -1.3832 -0.0158 -3.1661
 4141SOL    HW224057   4.340   2.769   7.748 -1.3806  2.6726  1.8449
 4142SOL     OW24058   0.392   0.598   9.221 -0.6319  0.1363 -0.5185
 4142SOL    HW124059   0.297   0.605   9.210 -0.7325 -0.6019 -0.1517
 4142SOL    HW224060   0.425   0.625   9.135  1.0556  2.3345  0.8357
 4143SOL     OW24061   4.646   2.537  15.049 -0.0233  0.0804 -0.1779
 4143SOL    HW124062   4.728   2.490  15.035 -0.7863 -1.0298 -0.9281
 4143SOL    HW224063   4.618   2.511  15.137  3.5443 -1.3531  0.5204
 4144SOL     OW24064   1.446   3.347  12.557  0.2905 -0.3946  0.3394
 4144SOL    HW124065   1.540   3.332  12.555  0.6021  1.8615 -0.9623
 4144SOL    HW224066   1.435   3.429  12.604  0.0390 -0.4774  0.4276
 4145SOL     OW24067   2.709   4.350   9.042 -0.5402  0.2429  0.1408
 4145SOL    HW124068   2.775   4.358   9.110 -0.0896 -0.9991 -0.1452
 4145SOL    HW224069   2.728   4.260   9.013 -0.1171  0.8568 -1.5192
 4146SOL     OW24070   1.335   0.429  13.815  0.1854 -0.4813 -0.0318
 4146SOL    HW124071   1.281   0.374  13.758  0.5920 -0.3718 -0.5216
 4146SOL    HW224072   1.334   0.379  13.896  0.2181 -0.9571 -0.3214
 4147SOL     OW24073   2.933   1.095  10.660  0.7201  0.0480 -0.1079
 4147SOL    HW124074   2.979   1.168  10.700 -0.1214 -0.1912  1.2980
 4147SOL    HW224075   2.859   1.133  10.611  1.2512 -0.1509 -1.0728
 4148SOL     OW24076   4.118   4.408   7.347  0.0990 -0.3192  0.1241
 4148SOL    HW124077   4.118   4.448   7.261  0.2578  1.5002  0.9703
 4148SOL    HW224078   4.036   4.360   7.358  0.4120 -0.6324  1.1342
 4149SOL     OW24079   4.064   0.080   6.046 -0.4155  0.2633 -0.1332
 4149SOL    HW124080   4.032   4.735   6.083 -1.8131  1.5870  1.5733
 4149SOL    HW224081   4.157   0.063   6.034 -0.5074  0.7178 -1.4842
 4150SOL     OW24082   2.473   2.652   6.661 -0.1054 -0.1262 -0.1138
 4150SOL    HW124083   2.401   2.657   6.725 -0.2644 -0.2104 -0.2881
 4150SOL    HW224084   2.500   2.560   6.656 -0.5744 -0.4004  2.3372
 4151SOL     OW24085   3.186   2.863   1.897  0.1782  0.4824  0.0815
 4151SOL    HW124086   3.220   2.942   1.937 -0.9297 -0.6841  3.3186
 4151SOL    HW224087   3.240   2.847   1.819  1.2617  1.0102  0.7291
 4152SOL     OW24088   4.351   1.165   2.473 -0.1873  0.4420 -0.1504
 4152SOL    HW124089   4.397   1.248   2.455  2.2470  0.1085  4.4177
 4152SOL    HW224090   4.413   1.097   2.448  0.8613  0.6503  1.8761
 4153SOL     OW24091   1.032   1.337   3.447 -0.0752 -0.2021  0.1100
 4153SOL    HW124092   0.987   1.413   3.483  0.3981  1.1282 -2.1038
 4153SOL    HW224093   0.965   1.312   3.383 -1.5903  1.7818  0.8993
 4154SOL     OW24094   1.415   2.802   7.609 -0.1523  0.8694  0.5145
 4154SOL    HW124095   1.452   2.890   7.617  2.8336 -0.6934  3.4314
 4154SOL    HW224096   1.442   2.756   7.688  0.9593  0.3990 -0.1303
 4155SOL     OW24097   0.327   2.544  12.760  0.0865 -0.0461 -0.2050
 4155SOL    HW124098   0.399   2.602  12.786  1.4170 -0.9156 -1.9285
 4155SOL    HW224099   0.335   2.528  12.666 -0.7389  0.7931 -0.4135
 4156SOL     OW24100   0.891   3.315   0.220  0.0416  0.1416  0.0406
 4156SOL    HW124101   0.816   3.331   0.277 -1.3081 -1.0904 -1.3951
 4156SOL    HW224102   0.847   3.322   0.136 -0.7536  0.4323  0.4786
 4157SOL     OW24103   4.659   1.597   2.815 -0.4831 -0.3135 -0.1104
 4157SOL    HW124104   4.689   1.551   2.893  1.0753  0.4256 -0.2782
 4157SOL    HW224105   4.656   1.516   2.763 -1.2371 -0.0243 -0.5331
 4158SOL     OW24106   2.535   1.575   1.532  0.3488  0.0689  0.0821
 4158SOL    HW124107   2.525   1.540   1.443  1.3867 -0.9321  0.3604
 4158SOL    HW224108   2.624   1.610   1.533  0.4062 -0.0463 -1.0127
 4159SOL     OW24109   3.627   3.604   5.148  0.6530  0.3178 -0.0860
 4159SOL    HW124110   3.656   3.671   5.085 -0.8787  0.9299 -0.1482
 4159SOL    HW224111   3.709   3.579   5.189  0.9974 -2.3016 -2.3523
 4160SOL     OW24112   4.563   2.340   7.915  0.0288 -0.5636  0.1880
 4160SOL    HW124113   4.632   2.383   7.965  1.2531 -0.6123 -1.5011
 4160SOL    HW224114   4.486   2.375   7.961  0.3616  0.3626  0.0443
 4161SOL     OW24115   2.296   0.000   2.904  0.5651 -0.2292  0.5053
 4161SOL    HW124116   2.261   4.695   2.826 -1.8956  1.8764  0.4617
 4161SOL    HW224117   2.222   0.052   2.937  0.0222 -0.3976 -0.4517
 4162SOL     OW24118   0.162   1.788   9.351  0.0450  0.3671 -0.0104
 4162SOL    HW124119   0.195   1.771   9.263  0.8436  0.1357  0.3345
 4162SOL    HW224120   0.233   1.750   9.402  0.7072 -0.2469 -1.3829
 4163SOL     OW24121   4.264   2.817   1.312  0.8121  0.1270 -0.7702
 4163SOL    HW124122   4.330   2.748   1.325 -0.2956 -0.4664  1.5277
 4163SOL    HW224123   4.247   2.831   1.405 -0.6615 -0.5988 -0.9343
 4164SOL     OW24124   3.313   3.976  15.492  0.1712  0.2057  0.0132
 4164SOL    HW124125   3.394   3.947  15.451  0.0787  0.7185 -0.5320
 4164SOL    HW224126   3.350   4.010  15.574 -1.1801  1.2074  0.2080
 4165SOL     OW24127   0.390   2.443   9.206 -0.1546  0.0571  0.6443
 4165SOL    HW124128   0.484   2.460   9.192  0.6542 -2.7607  2.5855
 4165SOL    HW224129   0.394   2.370   9.268 -0.3535  1.7053  2.6007
 4166SOL     OW24130   3.560   1.233   1.346  0.7730  0.0023 -0.4755
 4166SOL    HW124131   3.540   1.149   1.305  1.0641  0.1792 -0.9784
 4166SOL    HW224132   3.654   1.240   1.329  0.4879  1.0834 -1.5641
 4167SOL     OW24133   2.165   3.900   9.392 -0.3272 -0.8363 -0.4130
 4167SOL    HW124134   2.169   3.953   9.472 -0.5943 -0.6643 -0.5136
 4167SOL    HW224135   2.158   3.967   9.324  0.2588  1.2836  1.5836
 4168SOL     OW24136   3.213   2.185  16.918  0.1764 -0.6744  0.7761
 4168SOL    HW124137   3.189   2.232  16.998 -0.3336 -0.0121  0.2337
 4168SOL    HW224138   3.280   2.237  16.873  0.3899 -1.4118  0.2432
 4169SOL     OW24139   1.826   3.927   2.101  0.4189 -0.3398  0.1858
 4169SOL    HW124140   1.848   3.906   2.191 -0.0835 -0.2982  0.3176
 4169SOL    HW224141   1.910   3.909   2.058  0.1056 -0.9552 -0.1743
 4170SOL     OW24142   0.922   0.592   7.218  0.2741  0.3648 -0.1141
 4170SOL    HW124143   1.015   0.602   7.239  1.0202 -0.4195 -3.0448
 4170SOL    HW224144   0.919   0.631   7.131 -1.3998  0.2885 -0.0794
 4171SOL     OW24145   2.329   3.041   3.361 -0.1291  0.6170 -0.3391
 4171SOL    HW124146   2.322   3.072   3.271  1.3689  1.0606 -0.3080
 4171SOL    HW224147   2.366   2.955   3.340  0.8186  0.7644  0.7086
 4172SOL     OW24148   2.031   2.374   4.537 -0.3365 -0.3161 -0.4470
 4172SOL    HW124149   2.124   2.394   4.526  0.1216 -1.8571  0.6633
 4172SOL    HW224150   1.993   2.457   4.568 -1.6697 -0.5815 -1.3765
 4173SOL     OW24151   4.042   4.325  11.161 -0.5506 -0.1269  0.5930
 4173SOL    HW124152   3.955   4.287  11.177 -0.7459 -0.5614 -1.5868
 4173SOL    HW224153   4.049   4.302  11.069  0.6263 -0.3884  0.7453
 4174SOL     OW24154   0.110   3.237  16.558 -0.5234 -0.5362 -0.1979
 4174SOL    HW124155   0.151   3.264  16.476  0.7083  0.3666  0.7061
 4174SOL    HW224156   0.087   3.323  16.593 -0.0769 -0.8116  0.7852
 4175SOL     OW24157   2.949   0.338   2.319  0.2172  0.0807  0.4734
 4175SOL    HW124158   3.043   0.320   2.316  0.5625  2.0700 -0.4480
 4175SOL    HW224159   2.931   0.290   2.238 -0.8484  2.6351 -0.7830
 4176SOL     OW24160   3.648   0.980   2.445  0.3515  0.2523 -0.3401
 4176SOL    HW124161   3.691   0.918   2.504  0.1297  0.7236  0.3114
 4176SOL    HW224162   3.643   1.057   2.501 -2.6597  1.0807 -1.7596
 4177SOL     OW24163   1.271   0.546   4.036 -0.0939  0.1074 -0.6540
 4177SOL    HW124164   1.288   0.640   4.031 -0.2849  0.2028  0.7194
 4177SOL    HW224165   1.265   0.532   4.130  0.6724 -0.8463 -0.7542
 4178SOL     OW24166   0.691   4.218   7.097  0.0928  0.4146  0.2034
 4178SOL    HW124167   0.624   4.275   7.133 -1.2482 -1.2425  0.3353
 4178SOL    HW224168   0.643   4.136   7.113  0.3566  0.2483  0.1520
 4179SOL     OW24169   3.630   2.088   7.512 -0.2315 -0.3561 -0.5173
 4179SOL    HW124170   3.670   2.022   7.455 -0.1205  0.1290 -0.9996
 4179SOL    HW224171   3.576   2.025   7.560  0.7034 -0.4524  0.4005
 4180SOL     OW24172   2.584   2.263   4.052  0.2918  0.3058 -0.0773
 4180SOL    HW124173   2.546   2.291   4.135  1.9122 -0.1107  0.8083
 4180SOL    HW224174   2.569   2.342   4.000  0.2211 -0.0217 -0.5615
 4181SOL     OW24175   2.529   3.086   6.780 -0.1948 -0.0481 -0.5379
 4181SOL    HW124176   2.479   3.035   6.845  0.2952  0.4501  0.2320
 4181SOL    HW224177   2.469   3.122   6.715  0.9916 -0.7268 -1.9835
 4182SOL     OW24178   4.006   2.285   3.289  0.4317 -0.6780  0.2000
 4182SOL    HW124179   3.968   2.339   3.220 -0.7045  0.5478  1.7843
 4182SOL    HW224180   4.083   2.335   3.317  0.9537 -2.0089  1.1133
 4183SOL     OW24181   0.639   1.033   0.562  0.5267  0.2720  0.1426
 4183SOL    HW124182   0.665   1.090   0.635  1.6035  0.5827 -0.4964
 4183SOL    HW224183   0.613   1.094   0.494 -0.3783  0.6006  0.7773
 4184SOL     OW24184   1.759   3.974  11.360  0.2878  0.8354  0.0496
 4184SOL    HW124185   1.674   4.016  11.347  0.7289  1.7979  0.2857
 4184SOL    HW224186   1.819   4.048  11.372  1.5159  0.1704 -1.9834
 4185SOL     OW24187   2.893   4.443   4.622  0.3842  0.2300 -0.1222
 4185SOL    HW124188   2.920   4.355   4.649  0.4316  0.3553  0.2416
 4185SOL    HW224189   2.801   4.437   4.647  0.5092 -0.3167  0.2228
 4186SOL     OW24190   4.218   0.910   8.995  0.4272 -0.0413 -0.6135
 4186SOL    HW124191   4.142   0.894   8.940  0.1741  2.6150 -1.0381
 4186SOL    HW224192   4.164   0.939   9.069  0.2528  0.2331 -0.8485
 4187SOL     OW24193   2.907   3.987   9.185 -0.3171  0.3771  0.1705
 4187SOL    HW124194   2.909   3.965   9.092  0.7035 -0.6198  0.4279
 4187SOL    HW224195   2.817   3.975   9.214  0.1273  0.3772  1.5333
 4188SOL     OW24196   3.350   2.756   6.892 -0.3728 -0.1055  0.3590
 4188SOL    HW124197   3.366   2.684   6.952  0.3031 -1.0390 -0.9251
 4188SOL    HW224198   3.412   2.751   6.819  0.1349  0.2457  0.7672
 4189SOL     OW24199   2.030   2.165  15.243 -0.6034  0.9644 -0.2810
 4189SOL    HW124200   1.961   2.176  15.308  0.2033 -0.4268  0.7856
 4189SOL    HW224201   1.997   2.208  15.163 -3.3418 -1.0764 -0.2647
 4190SOL     OW24202   0.309   1.049  14.573 -0.3651  0.1714  0.2738
 4190SOL    HW124203   0.391   1.097  14.563 -0.2528 -0.2586 -0.9078
 4190SOL    HW224204   0.248   1.121  14.558 -1.7344 -0.8522  0.8865
 4191SOL     OW24205   2.009   1.252   1.770 -0.0619 -0.1615  0.0020
 4191SOL    HW124206   2.096   1.216   1.755 -0.1992 -0.1797 -0.7563
 4191SOL    HW224207   1.962   1.171   1.791  1.8779 -1.9807 -2.5899
 4192SOL     OW24208   0.121   1.300   0.403 -0.4563 -0.0482 -0.1409
 4192SOL    HW124209   0.051   1.355   0.367 -0.6584 -0.6778 -0.7102
 4192SOL    HW224210   0.077   1.216   0.389 -0.4849 -0.4956  2.4715
 4193SOL     OW24211   2.791   3.884   5.206 -0.2188 -0.3554 -0.1346
 4193SOL    HW124212   2.845   3.962   5.201 -0.4274 -0.2194 -0.2742
 4193SOL    HW224213   2.822   3.842   5.286  0.3656  0.3217 -0.0006
 4194SOL     OW24214   4.248   1.039   2.025 -0.4010 -0.2510 -1.0083
 4194SOL    HW124215   4.162   1.082   2.025 -0.5266 -0.5055  0.0481
 4194SOL    HW224216   4.223   0.948   2.011 -0.2694 -0.3789 -0.3997
 4195SOL     OW24217   2.516   3.531   8.566 -0.4071 -0.0599  0.1008
 4195SOL    HW124218   2.502   3.523   8.660 -0.5912 -0.8865  0.0038
 4195SOL    HW224219   2.608   3.508   8.555 -0.0388  0.2408  2.4954
 4196SOL     OW24220   2.653   3.788  15.534  0.0975 -0.1296  0.5895
 4196SOL    HW124221   2.604   3.720  15.486 -2.6681  2.5015 -0.3258
 4196SOL    HW224222   2.614   3.789  15.621 -0.6964 -0.4600  0.2412
 4197SOL     OW24223   3.012   2.419  16.253 -0.0932  0.6034 -0.3153
 4197SOL    HW124224   2.953   2.410  16.327 -2.0938 -1.6361 -2.1782
 4197SOL    HW224225   3.085   2.453  16.305 -0.8621  0.6054  0.7527
 4198SOL     OW24226   3.287   3.404   6.034 -0.4071 -0.5357 -0.0363
 4198SOL    HW124227   3.366   3.415   6.086  0.5439 -0.1643 -1.5436
 4198SOL    HW224228   3.312   3.329   5.980 -0.0289 -0.8056  0.5190
 4199SOL     OW24229   2.849   3.708   2.217  0.5886 -0.6501 -0.6997
 4199SOL    HW124230   2.834   3.614   2.229 -0.0508 -0.3936  0.5464
 4199SOL    HW224231   2.942   3.726   2.205  0.5121 -0.6088 -1.2395
 4200SOL     OW24232   2.385   3.530   9.271 -0.2543 -0.7258 -0.6276
 4200SOL    HW124233   2.456   3.472   9.245  0.0290 -0.3955 -0.5941
 4200SOL    HW224234   2.324   3.530   9.198  2.9966  1.8141 -3.3460
 4201SOL     OW24235   1.749   1.622  11.816 -0.3176 -0.1923 -0.0933
 4201SOL    HW124236   1.679   1.557  11.806  2.5126 -3.6318  2.1723
 4201SOL    HW224237   1.716   1.699  11.769 -0.3439  0.0401  0.3008
 4202SOL     OW24238   2.629   3.850   2.141 -0.4242  0.4784  0.0435
 4202SOL    HW124239   2.686   3.788   2.187 -0.8367 -0.6252 -0.9260
 4202SOL    HW224240   2.691   3.891   2.081  0.0682 -0.3561 -0.0164
 4203SOL     OW24241   0.735   2.397   1.613  0.4769  0.1985  0.3890
 4203SOL    HW124242   0.776   2.329   1.666  1.7942  0.7222  0.0244
 4203SOL    HW224243   0.761   2.377   1.523  0.2026  1.4423  0.0345
 4204SOL     OW24244   2.264   4.091   1.498  0.0888  0.6846  0.2433
 4204SOL    HW124245   2.339   4.031   1.498 -0.6744 -0.2724  0.4320
 4204SOL    HW224246   2.206   4.036   1.446  1.3186 -0.1377 -0.2607
 4205SOL     OW24247   0.695   1.612   2.703 -0.1193 -0.8595 -0.4647
 4205SOL    HW124248   0.763   1.677   2.719  0.4023 -1.1100 -1.6906
 4205SOL    HW224249   0.614   1.651   2.735  0.0260 -0.3514 -0.7150
 4206SOL     OW24250   0.154   0.370   7.694  0.0632  0.4783  0.1593
 4206SOL    HW124251   0.110   0.454   7.708  1.5436  1.0244  1.6192
 4206SOL    HW224252   0.218   0.403   7.631 -0.8900  1.7428 -0.1527
 4207SOL     OW24253   1.196   3.805   8.349 -0.8115  0.1400  0.1587
 4207SOL    HW124254   1.283   3.826   8.382 -0.8395  0.2546  0.1597
 4207SOL    HW224255   1.214   3.736   8.285 -1.0501  0.8475 -0.6772
 4208SOL     OW24256   0.946   0.418   5.991  0.4955 -0.0799 -0.2236
 4208SOL    HW124257   0.982   0.506   6.000 -2.0591  0.9771 -0.1306
 4208SOL    HW224258   0.899   0.431   5.908 -1.5465 -0.4797  0.8629
 4209SOL     OW24259   1.573   4.546   4.109  0.0462 -0.3385  0.2577
 4209SOL    HW124260   1.492   4.582   4.147  0.0351  1.1417 -1.1887
 4209SOL    HW224261   1.638   4.592   4.161  1.0666 -1.8195  0.2796
 4210SOL     OW24262   2.277   2.449  14.526 -0.0072 -0.3213  0.2936
 4210SOL    HW124263   2.239   2.377  14.475 -0.0111  1.2130 -1.8405
 4210SOL    HW224264   2.280   2.509  14.452  0.6504  0.2561  0.7936
 4211SOL     OW24265   3.274   0.003   2.338 -0.0099  0.0125 -0.3711
 4211SOL    HW124266   3.194   0.020   2.389  0.5125  1.1466  0.0721
 4211SOL    HW224267   3.302   4.672   2.400 -0.4314  0.2037  0.0302
 4212SOL     OW24268   1.960   1.268  13.006  0.7453  0.4598 -0.5729
 4212SOL    HW124269   2.055   1.256  13.003  0.8181  1.0462 -0.5561
 4212SOL    HW224270   1.955   1.335  13.074 -1.3117 -1.3873  1.0922
 4213SOL     OW24271   3.734   3.822   9.082 -0.3435 -0.2361 -0.1707
 4213SOL    HW124272   3.673   3.770   9.031  0.7863 -1.6700 -0.0499
 4213SOL    HW224273   3.759   3.895   9.025 -0.7816 -0.5523 -0.7590
 4214SOL     OW24274   2.991   4.209   6.015  0.7337 -0.3104 -0.6684
 4214SOL    HW124275   2.981   4.193   6.109 -0.3642  0.3413 -0.6818
 4214SOL    HW224276   2.934   4.143   5.976  0.9959 -0.2348 -1.1811
 4215SOL     OW24277   1.252   4.549  11.295  0.3502 -0.9892  0.1576
 4215SOL    HW124278   1.283   4.635  11.266 -0.2922 -0.1984  1.7870
 4215SOL    HW224279   1.161   4.541  11.268  0.4783 -0.3161 -0.4597
 4216SOL     OW24280   3.000   1.793   8.279 -0.2880 -0.1468  0.4359
 4216SOL    HW124281   2.939   1.761   8.214  0.4808 -1.8138  0.5397
 4216SOL    HW224282   2.949   1.848   8.339  0.5985 -1.5470  2.4978
 4217SOL     OW24283   2.589   2.776  16.320  0.3347  0.0124 -0.0203
 4217SOL    HW124284   2.527   2.703  16.313 -1.5557  1.5144  1.3340
 4217SOL    HW224285   2.552   2.826  16.248  1.4068  0.7679 -0.0543
 4218SOL     OW24286   3.408   0.325  15.306  0.0421  0.1363  0.3418
 4218SOL    HW124287   3.502   0.323  15.323  0.2078  1.6158 -0.3334
 4218SOL    HW224288   3.402   0.312  15.212  1.6990 -0.9790  0.3822
 4219SOL     OW24289   3.931   1.931   6.421 -0.0759  0.3424 -0.0677
 4219SOL    HW124290   3.992   1.893   6.485 -1.9321  1.8572  2.6023
 4219SOL    HW224291   3.949   2.024   6.425  1.3412  0.0745 -0.3263
 4220SOL     OW24292   3.229   2.753   4.367 -0.1569  0.0112 -0.5308
 4220SOL    HW124293   3.263   2.788   4.285 -0.5380  1.0793 -0.2342
 4220SOL    HW224294   3.301   2.775   4.427 -1.6869  0.3154  1.1784
 4221SOL     OW24295   0.038   1.245  10.376 -0.0396  0.0272 -0.0247
 4221SOL    HW124296   0.077   1.168  10.418 -0.5631 -0.8134 -1.0800
 4221SOL    HW224297   4.685   1.213  10.375 -0.5095  1.3419 -0.2751
 4222SOL     OW24298   0.351   3.125   0.888 -0.5526  0.2259  0.4656
 4222SOL    HW124299   0.264   3.096   0.915 -0.3023 -0.8085  0.1266
 4222SOL    HW224300   0.381   3.163   0.971  0.1092 -0.1203  0.3821
 4223SOL     OW24301   0.960   3.094   3.312  0.5517  0.7840  0.2702
 4223SOL    HW124302   0.936   3.024   3.372 -0.1781  2.0584  1.4501
 4223SOL    HW224303   0.894   3.087   3.243  0.0007  2.2344  0.6572
 4224SOL     OW24304   4.590   4.159  12.313  0.2510  0.0932 -0.0405
 4224SOL    HW124305   4.681   4.143  12.338  0.0651 -0.6789  0.1366
 4224SOL    HW224306   4.560   4.069  12.318  2.2823 -0.5583  0.5282
 4225SOL     OW24307   0.507   4.093   4.599  0.2904 -0.1821  0.3377
 4225SOL    HW124308   0.550   4.009   4.581 -0.8483 -0.1838 -2.4393
 4225SOL    HW224309   0.425   4.073   4.554  0.4713 -0.3791  0.0958
 4226SOL     OW24310   0.227   3.876  16.246  0.1368  0.2751  0.9057
 4226SOL    HW124311   0.317   3.857  16.220  0.5526  2.3178  0.8935
 4226SOL    HW224312   0.242   3.905  16.336  0.8793  1.5806  0.3604
 4227SOL     OW24313   2.881   1.653   6.856 -0.1472 -0.5279 -0.4658
 4227SOL    HW124314   2.864   1.559   6.863  1.9793 -0.8261  0.7082
 4227SOL    HW224315   2.946   1.657   6.926  0.4794  1.2873 -1.1556
 4228SOL     OW24316   0.233   0.719   7.854  0.0229 -0.0269  0.8097
 4228SOL    HW124317   0.235   0.738   7.761  0.2863  1.9555  1.2193
 4228SOL    HW224318   0.320   0.749   7.882  1.6795 -3.1858 -0.9568
 4229SOL     OW24319   1.063   2.757   5.625  0.3691  0.5925 -0.2711
 4229SOL    HW124320   0.978   2.751   5.581 -0.0399 -1.3654  0.7839
 4229SOL    HW224321   1.096   2.838   5.586 -3.7674  2.1188 -0.5302
 4230SOL     OW24322   4.164   1.810  12.553  0.2316  0.1350  0.0368
 4230SOL    HW124323   4.191   1.718  12.562 -1.7723 -0.5405 -1.0397
 4230SOL    HW224324   4.246   1.859  12.557  0.8074 -0.9785  2.0732
 4231SOL     OW24325   3.725   4.303   8.236 -0.1714 -0.8649  0.0470
 4231SOL    HW124326   3.783   4.253   8.294 -0.9583  0.1762  1.7471
 4231SOL    HW224327   3.685   4.235   8.182  0.7552 -1.0570 -0.3980
 4232SOL     OW24328   0.878   1.526   6.320 -0.0302  0.1792 -0.0030
 4232SOL    HW124329   0.807   1.544   6.382  1.5994  1.2743  1.5559
 4232SOL    HW224330   0.952   1.524   6.381 -0.7773  1.1684  0.9320
 4233SOL     OW24331   1.514   2.805   3.040 -0.0693 -0.0923 -0.0104
 4233SOL    HW124332   1.499   2.713   3.022 -1.3537 -0.0927  1.0360
 4233SOL    HW224333   1.429   2.848   3.035  0.2967  0.6097 -0.2145
 4234SOL     OW24334   0.971   1.734   1.731 -0.4975 -0.0781 -0.1383
 4234SOL    HW124335   1.004   1.802   1.790  1.3502 -0.3289 -0.8855
 4234SOL    HW224336   0.888   1.717   1.773 -0.1147  0.6184  0.8920
 4235SOL     OW24337   4.093   2.625   7.029 -0.6937  0.3501  0.4671
 4235SOL    HW124338   4.140   2.570   7.092  1.0618  0.3208 -0.8548
 4235SOL    HW224339   4.008   2.644   7.068  0.2962  0.3364  2.5826
 4236SOL     OW24340   3.780   1.184   9.265 -0.4462 -0.1531  0.0829
 4236SOL    HW124341   3.773   1.110   9.205  0.7430 -0.2116  0.0305
 4236SOL    HW224342   3.690   1.216   9.275 -0.4481  0.1052 -0.7604
 4237SOL     OW24343   2.539   4.562  12.101  0.0014 -0.0972 -0.7205
 4237SOL    HW124344   2.575   4.630  12.044  1.0398 -0.1459 -0.1355
 4237SOL    HW224345   2.607   4.495  12.107 -0.2442 -0.2901 -0.0577
 4238SOL     OW24346   4.483   4.391   6.510  0.2157 -0.0823 -0.0504
 4238SOL    HW124347   4.416   4.421   6.572  3.1789 -0.6901  3.4771
 4238SOL    HW224348   4.470   4.297   6.524 -0.3332  0.3704  2.6292
 4239SOL     OW24349   1.045   1.294  13.585  0.1464 -0.0764 -0.1083
 4239SOL    HW124350   0.964   1.345  13.595  0.3441  0.0193  1.0230
 4239SOL    HW224351   1.025   1.257  13.499 -0.5558  0.1147 -0.0283
 4240SOL     OW24352   1.071   3.222  10.277 -0.3492  0.3081  0.2880
 4240SOL    HW124353   1.019   3.302  10.285 -0.0902  0.6706 -1.6560
 4240SOL    HW224354   1.049   3.182  10.193  0.1115  0.1966  0.2206
 4241SOL     OW24355   3.418   2.392   3.698 -0.3201  0.2917 -0.4963
 4241SOL    HW124356   3.438   2.311   3.745  0.9131  0.1208 -1.3081
 4241SOL    HW224357   3.354   2.430   3.758 -1.0801  0.4697 -1.4179
 4242SOL     OW24358   4.037   0.242   9.061 -0.2778 -0.7081 -0.3279
 4242SOL    HW124359   4.115   0.211   9.108  0.2261  0.5330 -0.3579
 4242SOL    HW224360   3.972   0.249   9.131  3.1829 -1.2142  2.9810
 4243SOL     OW24361   1.240   0.726   4.459  0.4885 -0.8314  0.2102
 4243SOL    HW124362   1.166   0.740   4.519  0.7522 -1.1729  0.6057
 4243SOL    HW224363   1.261   0.816   4.431  0.4698 -0.7958  0.3118
 4244SOL     OW24364   3.799   1.367   1.293  0.2609  0.0392 -0.4919
 4244SOL    HW124365   3.815   1.432   1.225  0.2507  1.2770  0.6752
 4244SOL    HW224366   3.855   1.393   1.367  0.9062  0.2212 -1.0344
 4245SOL     OW24367   3.888   3.608   7.894 -0.3095 -0.3294 -0.2710
 4245SOL    HW124368   3.906   3.547   7.966 -1.6238 -0.6309 -0.1961
 4245SOL    HW224369   3.810   3.659   7.919  0.6921  1.9768 -1.8599
 4246SOL     OW24370   4.464   1.842   3.194  0.2951  0.4018 -0.6278
 4246SOL    HW124371   4.493   1.751   3.201  2.0351  0.8975 -1.4644
 4246SOL    HW224372   4.407   1.839   3.271 -1.8116  4.0809 -2.0325
 4247SOL     OW24373   3.689   3.822   7.071 -0.2053 -0.1921  0.1968
 4247SOL    HW124374   3.784   3.837   7.066 -0.2001 -0.2525  0.1007
 4247SOL    HW224375   3.656   3.900   7.027 -0.8377 -0.3151  0.4658
 4248SOL     OW24376   1.625   1.366   7.326  0.1974  0.2149  0.5576
 4248SOL    HW124377   1.652   1.280   7.294 -1.1945  0.2370 -0.7122
 4248SOL    HW224378   1.670   1.370   7.410  0.7190 -0.4269  0.3023
 4249SOL     OW24379   1.064   2.205   4.676  0.3202  0.0648 -0.0238
 4249SOL    HW124380   1.009   2.127   4.689  0.5495 -0.0271  0.4109
 4249SOL    HW224381   1.153   2.174   4.659  0.2498 -0.6361  0.8489
 4250SOL     OW24382   4.128   4.646   5.326 -0.8926 -0.1587 -0.2491
 4250SOL    HW124383   4.158   4.716   5.385 -0.1583 -0.3161 -0.4355
 4250SOL    HW224384   4.105   4.697   5.249  0.2540 -0.5696 -0.8587
 4251SOL     OW24385   0.148   2.177   7.267 -0.2484 -0.5060 -0.0958
 4251SOL    HW124386   0.216   2.194   7.333  1.5230 -3.0204 -1.2770
 4251SOL    HW224387   0.191   2.142   7.190 -0.3842 -2.1825  0.5673
 4252SOL     OW24388   2.420   3.459   7.432  0.4415  0.0988  0.0716
 4252SOL    HW124389   2.502   3.464   7.481  2.3739 -5.1829 -2.5996
 4252SOL    HW224390   2.390   3.550   7.431 -2.9581 -1.0317  1.7503
 4253SOL     OW24391   2.210   3.989   5.065 -0.1353  0.3222  0.2866
 4253SOL    HW124392   2.304   3.991   5.082  0.1934 -3.1813 -0.9288
 4253SOL    HW224393   2.193   4.083   5.061 -0.6361  0.2324  0.3376
 4254SOL     OW24394   2.952   2.567   9.029  0.3971 -0.5777 -0.2651
 4254SOL    HW124395   2.986   2.636   8.971 -0.6995 -0.0135 -0.2417
 4254SOL    HW224396   2.941   2.622   9.106  0.3613 -0.6914 -0.1900
 4255SOL     OW24397   2.116   1.648   3.335  0.0065 -0.4266  0.2587
 4255SOL    HW124398   2.082   1.648   3.424  2.2064  1.6462  1.1109
 4255SOL    HW224399   2.159   1.733   3.325 -1.1959 -0.0383 -1.5059
 4256SOL     OW24400   0.916   4.167   8.774 -0.2123 -0.4633  0.6239
 4256SOL    HW124401   0.981   4.237   8.761 -0.1637 -0.8349 -1.1262
 4256SOL    HW224402   0.951   4.143   8.860 -0.2922  0.9129  1.0406
 4257SOL     OW24403   3.926   4.469   3.520  0.3289  0.0413  0.0555
 4257SOL    HW124404   3.916   4.552   3.472 -0.5906 -0.8545 -1.3002
 4257SOL    HW224405   4.014   4.454   3.486  0.4921  0.6627  0.2033
 4258SOL     OW24406   2.795   1.405   9.069  0.3762 -1.3336 -0.0897
 4258SOL    HW124407   2.839   1.322   9.051  0.1627 -2.0437  2.6431
 4258SOL    HW224408   2.782   1.390   9.163  1.0273  1.8785  0.5059
 4259SOL     OW24409   3.866   0.958   6.235 -0.2484 -0.3923 -0.0886
 4259SOL    HW124410   3.884   1.051   6.218  0.1639 -0.6516 -1.1226
 4259SOL    HW224411   3.860   0.928   6.144  3.7651 -1.4334 -0.0203
 4260SOL     OW24412   2.318   4.246   7.507  0.4520 -0.3169  0.1637
 4260SOL    HW124413   2.364   4.225   7.426  0.4974 -1.3522  0.4549
 4260SOL    HW224414   2.329   4.167   7.560 -2.5458 -1.6366 -1.2251
 4261SOL     OW24415   4.545   3.440  14.659 -0.4722 -0.6301 -0.2380
 4261SOL    HW124416   4.638   3.440  14.681 -0.1365 -1.6277 -1.6300
 4261SOL    HW224417   4.541   3.533  14.634 -1.6862 -1.3424 -2.7091
 4262SOL     OW24418   1.862   2.485   7.221 -0.4098  0.2442 -0.4661
 4262SOL    HW124419   1.917   2.544   7.169 -0.2370  0.7319  0.2687
 4262SOL    HW224420   1.874   2.524   7.307  0.5363 -1.8847  0.3758
 4263SOL     OW24421   0.044   2.417  17.004  0.0398  0.7803 -0.3653
 4263SOL    HW124422   4.722   2.471  16.952 -0.4947  0.3043 -0.2499
 4263SOL    HW224423   0.029   2.323  16.991  2.4697  0.5191 -1.4028
 4264SOL     OW24424   3.750   2.318   7.471  0.1871  0.1837  0.1347
 4264SOL    HW124425   3.716   2.238   7.513  0.9223 -1.4028 -2.2811
 4264SOL    HW224426   3.754   2.288   7.380  0.5383  2.4502 -0.5959
 4265SOL     OW24427   3.178   2.270  12.956  0.5694  0.3196  0.1653
 4265SOL    HW124428   3.116   2.197  12.946  1.3615 -0.2652 -0.4324
 4265SOL    HW224429   3.249   2.240  12.900 -1.5584  0.1405 -2.4638
 4266SOL     OW24430   2.524   1.548   7.679 -0.0395 -0.7063  0.7008
 4266SOL    HW124431   2.610   1.550   7.720 -0.5666 -1.0116  1.8257
 4266SOL    HW224432   2.550   1.492   7.605  0.5398  0.0574  0.3285
 4267SOL     OW24433   3.573   4.392   6.762  0.0624 -0.1538  0.1192
 4267SOL    HW124434   3.562   4.480   6.726  0.2707  0.8139  2.4279
 4267SOL    HW224435   3.482   4.364   6.773 -0.6954  1.2951 -2.4388
 4268SOL     OW24436   1.419   1.156   5.828 -0.6143  0.1348 -0.3355
 4268SOL    HW124437   1.418   1.132   5.920 -1.4383  0.9303 -0.1384
 4268SOL    HW224438   1.457   1.244   5.832 -0.4514 -0.0188  1.5350
 4269SOL     OW24439   0.513   1.357   1.499 -0.2860  0.0628  0.3388
 4269SOL    HW124440   0.533   1.264   1.503  2.4504  0.5054 -2.9053
 4269SOL    HW224441   0.451   1.369   1.571 -0.2438  1.9294  0.0783
 4270SOL     OW24442   0.126   2.142   2.317  0.3213 -0.0061  0.3032
 4270SOL    HW124443   0.100   2.064   2.268  1.1991  0.4733 -0.9077
 4270SOL    HW224444   0.221   2.142   2.307  0.3952  3.1465  0.8286
 4271SOL     OW24445   2.727   4.575  16.560 -0.2747  0.5185  0.2136
 4271SOL    HW124446   2.805   4.533  16.523 -1.2633 -0.0888 -1.2007
 4271SOL    HW224447   2.719   4.649  16.500  1.0581  0.6764  0.2338
 4272SOL     OW24448   0.535   0.945   8.832  0.2878  0.4753 -0.5183
 4272SOL    HW124449   0.443   0.967   8.845  0.1291 -0.8593  0.5360
 4272SOL    HW224450   0.575   0.955   8.919  0.4066  0.6971 -0.5975
 4273SOL     OW24451   1.536   3.789   9.290  0.6454  0.3958  0.2170
 4273SOL    HW124452   1.591   3.809   9.366 -2.2923  0.8027  2.1923
 4273SOL    HW224453   1.528   3.695   9.304  0.7850  0.2226 -0.8101
 4274SOL     OW24454   0.744   1.940   0.093  0.0860 -0.3177  0.3593
 4274SOL    HW124455   0.729   2.034   0.101  0.2951 -0.2856  0.3782
 4274SOL    HW224456   0.742   1.914   0.185 -1.9787 -1.4326  0.0090
 4275SOL     OW24457   2.205   1.232   7.033  0.0206  0.4089  0.1004
 4275SOL    HW124458   2.197   1.208   7.125  1.2065 -2.8033 -0.6412
 4275SOL    HW224459   2.179   1.324   7.033 -0.5701  0.2399  0.3712
 4276SOL     OW24460   4.710   0.493   6.448 -0.0525  0.4281  0.4869
 4276SOL    HW124461   0.046   0.489   6.510  2.6691 -0.1832 -2.7528
 4276SOL    HW224462   4.682   0.583   6.467 -2.8206 -0.7807  2.0757
 4277SOL     OW24463   2.735   3.483   6.011 -0.1111  0.7730 -0.1164
 4277SOL    HW124464   2.693   3.460   6.094  1.5288  1.0174  0.7755
 4277SOL    HW224465   2.820   3.444   6.032 -0.0360  0.3375 -1.1961
 4278SOL     OW24466   0.953   4.583   3.192 -0.0119  0.2226 -0.3735
 4278SOL    HW124467   0.925   4.621   3.109  1.2591  0.7508 -0.5633
 4278SOL    HW224468   1.047   4.584   3.171  0.1373 -0.3080  0.2613
 4279SOL     OW24469   4.093   0.900   3.721  0.1666  0.4473 -0.2920
 4279SOL    HW124470   4.027   0.830   3.726  1.6147 -0.8339  1.2306
 4279SOL    HW224471   4.140   0.871   3.643 -1.9217 -1.0544 -0.9960
 4280SOL     OW24472   0.797   2.254   9.640  0.4598  0.4311 -0.8698
 4280SOL    HW124473   0.782   2.208   9.723  1.4940 -0.3668 -1.1225
 4280SOL    HW224474   0.833   2.330   9.685 -0.5091  0.1519  0.3938
 4281SOL     OW24475   1.340   1.205   7.417  0.4082  0.2520 -0.0344
 4281SOL    HW124476   1.406   1.143   7.448 -0.9533 -1.5609 -0.7764
 4281SOL    HW224477   1.315   1.157   7.338  0.3214 -1.1069  0.8181
 4282SOL     OW24478   1.590   2.574   1.531 -0.0960 -0.0426  0.0132
 4282SOL    HW124479   1.676   2.539   1.553 -0.7332 -1.3628  0.4209
 4282SOL    HW224480   1.617   2.655   1.489  2.9387 -0.7434  0.6596
 4283SOL     OW24481   3.836   1.726   7.782 -0.3612 -0.0750 -0.2953
 4283SOL    HW124482   3.786   1.740   7.862 -1.2747 -2.5729 -0.4409
 4283SOL    HW224483   3.766   1.704   7.720  1.0539 -2.9017 -0.9216
 4284SOL     OW24484   2.221   1.281   1.016 -0.1412  0.2610  0.0119
 4284SOL    HW124485   2.191   1.312   0.930 -1.9732  1.2352  1.0011
 4284SOL    HW224486   2.135   1.271   1.058 -0.4650 -2.2367 -1.2212
 4285SOL     OW24487   0.758   0.852  16.970 -0.3045  0.4938 -0.5488
 4285SOL    HW124488   0.744   0.863  17.064 -1.9019 -1.7383 -0.5353
 4285SOL    HW224489   0.693   0.787  16.943 -0.1576  0.7856 -1.5955
 4286SOL     OW24490   3.482   2.922   7.859 -0.5291  0.4893  0.2516
 4286SOL    HW124491   3.555   2.879   7.904 -1.3683  0.0872  1.2195
 4286SOL    HW224492   3.508   2.909   7.768 -1.1904 -2.1613  0.4355
 4287SOL     OW24493   3.441   0.496   6.347  0.2943 -0.6098  0.8170
 4287SOL    HW124494   3.475   0.413   6.312 -1.1611 -1.2759  0.9570
 4287SOL    HW224495   3.500   0.512   6.421  1.1596 -4.1890  0.9235
 4288SOL     OW24496   3.876   3.132   7.101  0.1184 -0.4473  0.1934
 4288SOL    HW124497   3.868   3.169   7.189  0.1612  0.5989 -0.2389
 4288SOL    HW224498   3.785   3.115   7.080  0.5307 -1.5304 -0.7015
 4289SOL     OW24499   2.967   4.178   3.680  0.4416 -0.0834  0.2874
 4289SOL    HW124500   3.036   4.130   3.633  0.0353 -0.3758 -0.0049
 4289SOL    HW224501   2.887   4.133   3.654  1.0741 -1.0315 -0.0109
 4290SOL     OW24502   3.773   0.106   4.926  0.0955  0.4398  0.4423
 4290SOL    HW124503   3.746   0.021   4.962 -0.7554 -0.6138 -2.7461
 4290SOL    HW224504   3.723   0.106   4.845 -2.6563  1.7511  2.1701
 4291SOL     OW24505   2.345   0.755   3.993 -0.1098 -0.2846 -0.3653
 4291SOL    HW124506   2.412   0.756   4.061  1.0378  1.5328 -1.5342
 4291SOL    HW224507   2.386   0.791   3.915  0.9918 -0.3520  0.1818
 4292SOL     OW24508   1.552   3.685   4.302 -0.2415  0.6386 -0.3778
 4292SOL    HW124509   1.630   3.740   4.308  0.7394 -0.8274  0.2715
 4292SOL    HW224510   1.481   3.748   4.318  0.2091  1.5604 -2.0277
 4293SOL     OW24511   2.489   4.290   3.684  0.3027  0.2200 -0.2985
 4293SOL    HW124512   2.581   4.262   3.675 -0.1114 -0.4486 -2.4206
 4293SOL    HW224513   2.469   4.309   3.592  0.1064 -0.4270 -0.3856
 4294SOL     OW24514   1.432   1.532   3.849  0.0944 -0.0596 -0.1958
 4294SOL    HW124515   1.378   1.460   3.881  4.0369 -2.2636  1.4519
 4294SOL    HW224516   1.377   1.607   3.823 -0.1811  0.0813  0.7894
 4295SOL     OW24517   3.038   2.468   1.469  0.6293 -0.3725 -0.2994
 4295SOL    HW124518   3.127   2.455   1.436  0.3392  0.3550 -1.3812
 4295SOL    HW224519   3.030   2.562   1.457 -2.5486 -0.8972 -2.2700
 4296SOL     OW24520   4.364   3.982  15.214  0.6228  0.3958  0.4676
 4296SOL    HW124521   4.339   4.058  15.161  0.3090  1.0547  1.5618
 4296SOL    HW224522   4.425   4.010  15.282 -0.6830  2.8435  0.6122
 4297SOL     OW24523   3.406   3.802   2.134 -0.0771 -0.1928  0.2256
 4297SOL    HW124524   3.490   3.787   2.176 -0.0117  1.8721  0.8634
 4297SOL    HW224525   3.435   3.887   2.100  0.5505 -0.2387  0.6393
 4298SOL     OW24526   2.304   1.210   7.624 -0.0434  0.3929 -0.2009
 4298SOL    HW124527   2.396   1.228   7.641 -0.1957  1.0561 -0.0563
 4298SOL    HW224528   2.303   1.123   7.585 -0.0772  0.4120 -0.2426
 4299SOL     OW24529   3.435   1.447   0.527  0.0215 -0.0373 -0.4289
 4299SOL    HW124530   3.415   1.368   0.576 -2.5065  0.8668 -0.0268
 4299SOL    HW224531   3.448   1.410   0.439  1.5785  2.8983 -1.4344
 4300SOL     OW24532   4.610   1.674   7.566  0.4140 -0.6267  0.8504
 4300SOL    HW124533   4.567   1.652   7.483 -1.2711  1.7442  1.0666
 4300SOL    HW224534   4.584   1.592   7.608  2.2564 -1.1837  0.9094
 4301SOL     OW24535   4.026   4.133   6.196  0.1495  0.2462 -0.4994
 4301SOL    HW124536   4.030   4.063   6.260 -1.7885  0.5302 -0.0534
 4301SOL    HW224537   3.954   4.117   6.135 -0.8155  1.3954  0.3324
 4302SOL     OW24538   2.579   0.912   5.195  0.1281 -0.2560  0.4252
 4302SOL    HW124539   2.579   0.863   5.278  0.6256  0.1333  0.6609
 4302SOL    HW224540   2.631   0.989   5.219 -0.6572  0.2392  0.5530
 4303SOL     OW24541   2.275   1.026   8.114 -0.3596 -0.0810 -0.0145
 4303SOL    HW124542   2.251   0.966   8.184 -1.8773  0.4999 -0.0422
 4303SOL    HW224543   2.369   1.006   8.116 -0.2610  0.3304 -0.5868
 4304SOL     OW24544   0.687   4.002   2.623 -0.2873 -0.2571 -0.5187
 4304SOL    HW124545   0.599   4.008   2.662  2.3354  2.4417  4.8953
 4304SOL    HW224546   0.739   4.045   2.690  2.6952 -0.0287 -3.0184
 4305SOL     OW24547   1.445   3.504   4.493 -0.8845 -0.0445 -0.2692
 4305SOL    HW124548   1.531   3.517   4.453 -1.7036  1.2636 -1.6264
 4305SOL    HW224549   1.391   3.545   4.425 -1.6513  2.7820  2.0476
 4306SOL     OW24550   0.341   2.316   8.926 -0.4828  0.0468 -0.5764
 4306SOL    HW124551   0.331   2.260   9.003  0.8432  1.5373  0.7045
 4306SOL    HW224552   0.401   2.381   8.963 -0.6888 -1.8633  3.1229
 4307SOL     OW24553   2.632   2.326   1.712 -0.4691 -0.0373  0.1566
 4307SOL    HW124554   2.577   2.393   1.673  1.8385  0.6375 -1.9510
 4307SOL    HW224555   2.697   2.326   1.642 -0.3901 -0.2503  0.2278
 4308SOL     OW24556   3.657   3.756   8.082  0.2066 -0.2830  0.7145
 4308SOL    HW124557   3.629   3.667   8.104  0.6476 -1.3187 -2.8043
 4308SOL    HW224558   3.682   3.791   8.167  1.7514  2.6688 -0.9480
 4309SOL     OW24559   4.336   0.636  12.783 -0.3781  0.5157  0.4146
 4309SOL    HW124560   4.281   0.679  12.718  0.6191  0.2835 -0.5819
 4309SOL    HW224561   4.421   0.673  12.757 -0.5427 -0.1119 -1.0352
 4310SOL     OW24562   2.215   3.306  11.749 -0.3013  0.2192  0.2112
 4310SOL    HW124563   2.179   3.229  11.792 -0.5763 -0.1997 -0.7821
 4310SOL    HW224564   2.275   3.354  11.807 -2.0034 -0.8343  2.8588
 4311SOL     OW24565   3.234   4.491   3.739 -0.0539  0.1489 -0.4039
 4311SOL    HW124566   3.185   4.564   3.702 -1.0777 -0.5174 -0.3536
 4311SOL    HW224567   3.194   4.484   3.826 -0.1009  3.3792 -0.1746
 4312SOL     OW24568   4.029   0.584   7.267 -0.3120 -0.2561 -0.1535
 4312SOL    HW124569   4.098   0.583   7.334 -1.3343  0.4457  0.9052
 4312SOL    HW224570   4.033   0.492   7.243  1.1981  0.7170 -3.5880
 4313SOL     OW24571   0.969   0.000  10.922  0.4798 -0.9432  0.1415
 4313SOL    HW124572   1.043   4.689  10.960  0.3678 -1.7695 -0.7091
 4313SOL    HW224573   0.906   4.736  10.994 -1.0417  0.4673 -1.1496
 4314SOL     OW24574   3.936   0.275   1.862 -0.2211 -0.0311 -0.2088
 4314SOL    HW124575   3.986   0.280   1.780 -1.2222  0.6945 -0.7687
 4314SOL    HW224576   3.852   0.241   1.833 -0.3118 -1.0131  1.1948
 4315SOL     OW24577   0.587   2.622   4.403  0.5449  0.2491 -0.1841
 4315SOL    HW124578   0.668   2.572   4.411  1.3219  1.8527  1.8842
 4315SOL    HW224579   0.580   2.641   4.496  0.1812 -0.2862 -0.1088
 4316SOL     OW24580   2.272   3.383   2.331 -0.1901  0.5871 -0.0278
 4316SOL    HW124581   2.281   3.454   2.394  1.3056 -0.2348  0.6947
 4316SOL    HW224582   2.290   3.309   2.389 -0.4178 -0.9561 -1.9344
 4317SOL     OW24583   1.646   2.805   5.483 -0.3731  0.3271 -0.2828
 4317SOL    HW124584   1.613   2.854   5.408 -0.0474  0.0667 -0.5973
 4317SOL    HW224585   1.566   2.757   5.504 -1.5040  2.6129  0.6634
 4318SOL     OW24586   3.749   4.099  17.327 -0.4265  0.0319 -0.4581
 4318SOL    HW124587   3.694   4.174  17.303  0.2893  0.0415 -2.0656
 4318SOL    HW224588   3.832   4.145  17.331 -1.3696  1.6637  0.2966
 4319SOL     OW24589   3.864   1.853   4.833 -0.3626 -0.3970  0.3730
 4319SOL    HW124590   3.786   1.907   4.819  0.5208  0.2275 -2.0820
 4319SOL    HW224591   3.903   1.873   4.748  0.0144  0.0873  0.6587
 4320SOL     OW24592   4.700   1.872   2.825 -0.1232 -0.3992 -0.0363
 4320SOL    HW124593   4.710   1.887   2.919  1.4073  1.3149 -0.4843
 4320SOL    HW224594   4.668   1.782   2.821  2.8406 -1.3172 -3.9780
 4321SOL     OW24595   0.345   3.001   4.338  0.5512  0.0207  0.3615
 4321SOL    HW124596   0.316   2.935   4.275 -0.9528  1.2816 -0.2294
 4321SOL    HW224597   0.270   3.021   4.393 -0.9612 -1.6020 -1.1388
 4322SOL     OW24598   0.667   2.987  14.918  0.3153 -0.4938  0.6381
 4322SOL    HW124599   0.646   3.013  14.828  2.6280  1.7261  0.7552
 4322SOL    HW224600   0.758   3.016  14.920  0.0941  0.0683  2.0206
 4323SOL     OW24601   1.390   2.683   6.702 -0.4646  0.3769  0.3184
 4323SOL    HW124602   1.401   2.703   6.795 -0.4397  1.8673 -0.0075
 4323SOL    HW224603   1.302   2.715   6.680 -0.3585  0.8589  0.6009
 4324SOL     OW24604   4.450   3.600   3.016 -0.3813 -0.3185 -0.1365
 4324SOL    HW124605   4.477   3.543   3.088 -0.8246 -0.8691 -0.4043
 4324SOL    HW224606   4.355   3.607   3.015 -0.4415 -1.6125 -1.7965
 4325SOL     OW24607   2.141   1.912   8.713  0.2557  0.3625 -0.6726
 4325SOL    HW124608   2.189   1.832   8.731 -0.6813  0.2420  1.2333
 4325SOL    HW224609   2.077   1.888   8.646 -0.1367 -0.8684  0.1558
 4326SOL     OW24610   1.218   2.158   5.600  0.1165  0.0316  0.1239
 4326SOL    HW124611   1.279   2.169   5.527 -0.9044 -0.9635 -0.8836
 4326SOL    HW224612   1.165   2.238   5.600  0.3944  0.2151  0.7729
 4327SOL     OW24613   3.776   2.185   2.930  0.2469 -0.1871 -0.0029
 4327SOL    HW124614   3.757   2.159   3.020 -0.8111 -1.8872 -0.7116
 4327SOL    HW224615   3.868   2.158   2.927  0.2213 -0.0848 -1.9122
 4328SOL     OW24616   3.477   3.069   2.924  0.3926 -0.0994 -0.5641
 4328SOL    HW124617   3.416   3.141   2.941  0.0709 -0.0664 -1.8642
 4328SOL    HW224618   3.541   3.109   2.865  1.1172 -0.9059 -0.3245
 4329SOL     OW24619   4.210   1.608   2.977  0.6006 -0.1481 -0.4918
 4329SOL    HW124620   4.273   1.545   2.941 -0.8746 -1.9975  0.1632
 4329SOL    HW224621   4.230   1.691   2.935 -1.4807  0.2060 -0.7717
 4330SOL     OW24622   3.081   1.447   7.257  0.2923 -0.1660  0.4606
 4330SOL    HW124623   3.008   1.385   7.260 -0.3973  0.6241 -0.1710
 4330SOL    HW224624   3.146   1.391   7.215 -0.6398 -0.5859 -0.4398
 4331SOL     OW24625   1.352   2.688   0.598  0.7099 -0.1757 -0.1496
 4331SOL    HW124626   1.280   2.745   0.625  1.3815  0.8688 -0.5663
 4331SOL    HW224627   1.354   2.621   0.666 -1.4299 -0.9226 -0.8190
 4332SOL     OW24628   1.532   4.561   4.519 -0.3875 -0.5940  0.0363
 4332SOL    HW124629   1.557   4.477   4.557 -0.7584 -0.9787 -0.5702
 4332SOL    HW224630   1.470   4.527   4.455 -1.5003  0.1541  0.7184
 4333SOL     OW24631   0.207   1.590  15.979 -0.0475  0.7434 -0.0459
 4333SOL    HW124632   0.141   1.579  16.048 -0.2666 -1.8351 -0.6518
 4333SOL    HW224633   0.269   1.659  16.001  0.0304  0.3553  0.9963
 4334SOL     OW24634   3.180   0.361   8.254  0.4714 -0.0663 -0.3578
 4334SOL    HW124635   3.194   0.283   8.307 -0.5969  0.8814  1.3051
 4334SOL    HW224636   3.115   0.328   8.192 -0.9330 -1.8473  2.0845
 4335SOL     OW24637   0.010   4.622   1.065  0.4627 -0.1797 -0.3092
 4335SOL    HW124638   0.080   4.627   0.999 -0.2233  0.6582 -0.9851
 4335SOL    HW224639   4.709   4.540   1.033  0.5041 -0.2973 -0.0565
 4336SOL     OW24640   0.073   1.550  14.624  0.4167  0.6756  0.5706
 4336SOL    HW124641   0.086   1.645  14.630 -1.6550  0.9371  1.0494
 4336SOL    HW224642   0.047   1.539  14.532  0.4993  1.6731  0.4275
 4337SOL     OW24643   1.166   3.079  14.854 -0.7080 -0.1591  0.0143
 4337SOL    HW124644   1.184   3.168  14.885  2.0306 -0.4060 -0.9090
 4337SOL    HW224645   1.178   3.089  14.760 -0.5276  0.9847  0.1569
 4338SOL     OW24646   4.024   1.636   8.092  0.0387  0.4984 -0.7538
 4338SOL    HW124647   3.942   1.586   8.084  0.3970 -0.5653  2.1513
 4338SOL    HW224648   4.006   1.679   8.175 -0.1139  1.4190 -1.2721
 4339SOL     OW24649   1.906   1.227   7.815 -0.1169  0.2759  0.8748
 4339SOL    HW124650   1.967   1.154   7.821 -0.1823  0.2611  1.4181
 4339SOL    HW224651   1.962   1.301   7.792  2.5810 -0.8111  3.8802
 4340SOL     OW24652   4.091   3.731   2.703 -0.7789 -0.2134 -0.2682
 4340SOL    HW124653   3.996   3.740   2.706 -0.5673  1.8550  0.1607
 4340SOL    HW224654   4.112   3.793   2.773 -0.5554 -1.0122  0.3645
 4341SOL     OW24655   3.559   1.378  15.414  0.0840 -0.3163 -0.2003
 4341SOL    HW124656   3.556   1.290  15.377  1.5145 -0.1437 -0.7339
 4341SOL    HW224657   3.507   1.379  15.494  1.2829 -1.6205  0.5838
 4342SOL     OW24658   2.826   2.636   6.145  0.8392 -0.0971 -0.0895
 4342SOL    HW124659   2.860   2.722   6.171  0.6131  0.6986 -2.3870
 4342SOL    HW224660   2.806   2.591   6.227  0.4248 -1.1126 -0.7521
 4343SOL     OW24661   0.065   3.180  16.881  0.5494 -0.1201 -0.1524
 4343SOL    HW124662   0.138   3.202  16.823  0.0156  4.3198  0.8451
 4343SOL    HW224663   4.730   3.198  16.821  0.6523  0.3216 -0.1409
 4344SOL     OW24664   0.612   1.880   1.335  0.2536  0.6442 -0.5405
 4344SOL    HW124665   0.698   1.850   1.307 -0.4742 -3.1865  1.2836
 4344SOL    HW224666   0.624   1.854   1.426 -2.2986 -0.3803 -0.4689
 4345SOL     OW24667   0.679   1.028   5.174  0.6675  0.1392  0.0003
 4345SOL    HW124668   0.740   1.028   5.247 -0.7926 -1.4666  1.2278
 4345SOL    HW224669   0.646   1.118   5.186  0.6722 -0.1310  2.0943
 4346SOL     OW24670   1.977   3.320   6.149 -0.2425  0.1072  0.3922
 4346SOL    HW124671   2.027   3.365   6.081 -0.5375  1.6112  1.1745
 4346SOL    HW224672   2.030   3.242   6.166  1.5122  1.1404 -0.3903
 4347SOL     OW24673   2.061   0.669   8.590 -0.1407 -0.1971 -0.1600
 4347SOL    HW124674   2.115   0.623   8.525 -3.4708 -0.2647 -2.8932
 4347SOL    HW224675   2.116   0.671   8.668  1.8197 -1.7651 -1.5103
 4348SOL     OW24676   4.290   0.064   6.702  0.4908 -0.0536  0.1043
 4348SOL    HW124677   4.268   0.091   6.613 -0.4286  0.6528  0.5379
 4348SOL    HW224678   4.306   0.150   6.742  0.3799  0.0711 -0.1189
 4349SOL     OW24679   2.798   0.627   0.375 -0.6533  0.2790  0.2545
 4349SOL    HW124680   2.873   0.679   0.348 -0.8562 -0.0198 -0.9060
 4349SOL    HW224681   2.744   0.701   0.402  0.3058  0.7501  0.8726
 4350SOL     OW24682   1.285   2.965  11.688 -0.0936  0.0636 -0.0687
 4350SOL    HW124683   1.375   2.948  11.658  0.2761 -0.7625  1.5045
 4350SOL    HW224684   1.267   2.907  11.761 -1.2347 -1.7145 -1.7641
 4351SOL     OW24685   4.289   3.090   6.727  0.2466  0.2816  0.7335
 4351SOL    HW124686   4.356   3.076   6.661  0.4415 -2.3440  1.4743
 4351SOL    HW224687   4.314   3.175   6.762 -1.9871  1.4066 -0.4315
 4352SOL     OW24688   1.656   0.849   6.079 -0.1271 -0.4557  0.4822
 4352SOL    HW124689   1.694   0.888   6.158  1.3064  0.4950 -0.6911
 4352SOL    HW224690   1.650   0.755   6.097 -2.1447 -0.0262  2.1377
 4353SOL     OW24691   1.799   4.698   6.501  0.1270 -0.3597 -0.1721
 4353SOL    HW124692   1.831   0.029   6.440 -0.5935  0.4434  0.3537
 4353SOL    HW224693   1.710   4.696   6.467 -0.3499  2.0870  0.9397
 4354SOL     OW24694   1.984   1.564   5.270 -0.1077  0.5626 -0.4162
 4354SOL    HW124695   1.918   1.633   5.258  1.9109  2.0472 -2.9777
 4354SOL    HW224696   1.995   1.564   5.365 -1.5687 -1.1116 -0.2445
 4355SOL     OW24697   0.519   2.422   0.907 -0.0333  0.5043  0.5410
 4355SOL    HW124698   0.571   2.498   0.932  1.3072 -0.5430  1.0155
 4355SOL    HW224699   0.546   2.349   0.963 -0.6051 -0.9068 -1.0212
 4356SOL     OW24700   0.579   0.807   8.308 -0.0222  0.5083 -0.2253
 4356SOL    HW124701   0.513   0.758   8.259  0.1144  0.5726 -0.4728
 4356SOL    HW224702   0.521   0.864   8.359 -1.9243 -0.1515 -1.6551
 4357SOL     OW24703   3.399   3.169   7.597  0.7125  0.2554  1.1340
 4357SOL    HW124704   3.382   3.255   7.636  0.5280  0.1372  1.3082
 4357SOL    HW224705   3.344   3.181   7.520 -1.6949 -1.3633  2.6199
 4358SOL     OW24706   3.903   1.058   6.785 -0.2491  0.1446 -0.4391
 4358SOL    HW124707   3.900   0.995   6.857 -0.3466 -0.2770 -0.8049
 4358SOL    HW224708   3.822   1.109   6.788  0.7310  1.7127 -0.5777
 4359SOL     OW24709   2.332   4.205  11.384 -0.0095 -0.4821  0.8696
 4359SOL    HW124710   2.349   4.111  11.384 -2.7085 -0.9771  1.2290
 4359SOL    HW224711   2.362   4.235  11.470  2.0700  3.5696 -1.2957
 4360SOL     OW24712   3.815   1.978   4.246  0.2499 -0.4139 -0.0265
 4360SOL    HW124713   3.737   1.925   4.232  0.6356 -1.1672  0.6139
 4360SOL    HW224714   3.805   2.048   4.182  0.4583 -0.4289 -0.0780
 4361SOL     OW24715   1.830   0.673  15.449 -0.0168  0.0247 -0.1271
 4361SOL    HW124716   1.863   0.717  15.371 -1.4106 -0.1354 -0.8112
 4361SOL    HW224717   1.766   0.738  15.478  1.3224  0.3335  2.1195
 4362SOL     OW24718   0.862   0.501   5.759  0.0889 -0.4425  0.6644
 4362SOL    HW124719   0.804   0.576   5.771  1.1298  0.6563 -1.2576
 4362SOL    HW224720   0.903   0.529   5.677 -2.2996 -0.3511 -0.4695
 4363SOL     OW24721   1.711   3.415   6.604 -0.0683  0.1479 -0.1128
 4363SOL    HW124722   1.699   3.424   6.699 -0.0972  1.1915 -0.2101
 4363SOL    HW224723   1.635   3.464   6.573 -1.0956 -1.4097 -0.0264
 4364SOL     OW24724   0.660   2.072   2.940  0.0198  0.4148 -0.3988
 4364SOL    HW124725   0.608   2.057   3.019  0.9900  0.1910  0.2009
 4364SOL    HW224726   0.594   2.059   2.872 -0.8743  2.5209  0.0543
 4365SOL     OW24727   0.678   0.404  15.237 -0.6974 -0.5261 -0.4096
 4365SOL    HW124728   0.693   0.440  15.149 -2.2969 -0.1316 -0.5311
 4365SOL    HW224729   0.764   0.407  15.279 -1.2497 -1.4021  0.7819
 4366SOL     OW24730   3.867   0.893   3.429 -0.0628 -0.2272  0.3381
 4366SOL    HW124731   3.807   0.967   3.440  1.2888  0.8006  0.6603
 4366SOL    HW224732   3.870   0.904   3.334  1.5267 -1.4430  0.2461
 4367SOL     OW24733   0.874   0.693   0.611 -0.4872 -0.7846 -0.0216
 4367SOL    HW124734   0.889   0.762   0.546  1.1568 -1.5317 -0.4379
 4367SOL    HW224735   0.920   0.619   0.571  1.7221  0.8538 -0.4472
 4368SOL     OW24736   3.983   0.934  15.870 -0.1754  0.0061 -0.1337
 4368SOL    HW124737   4.053   0.997  15.890  0.3539 -0.3835 -0.7445
 4368SOL    HW224738   3.973   0.937  15.775 -0.4924  0.8629 -0.0777
 4369SOL     OW24739   1.641   1.432   3.670  0.0818 -0.1429  0.0025
 4369SOL    HW124740   1.572   1.472   3.722 -0.8415  0.9582 -2.0799
 4369SOL    HW224741   1.601   1.454   3.586  0.3059  0.3563  0.0299
 4370SOL     OW24742   2.785   2.524  11.181 -0.4345  0.3693  0.5556
 4370SOL    HW124743   2.760   2.593  11.121 -0.8796  2.5572  3.2497
 4370SOL    HW224744   2.857   2.580  11.209 -2.0429  1.8171  1.7903
 4371SOL     OW24745   1.853   0.525   7.700  1.0000 -0.1700 -0.9602
 4371SOL    HW124746   1.854   0.431   7.716  2.1105  0.1225  0.6925
 4371SOL    HW224747   1.941   0.546   7.669  1.4020 -0.6755 -0.1462
 4372SOL     OW24748   3.091   3.345  11.112 -0.2581  1.2445 -0.0166
 4372SOL    HW124749   3.139   3.290  11.175  0.2002  0.4972 -1.0135
 4372SOL    HW224750   2.998   3.335  11.131  0.0990 -0.2396  1.0278
 4373SOL     OW24751   3.024   1.569   9.028 -0.6691 -0.0303 -0.1150
 4373SOL    HW124752   2.948   1.514   9.044  0.1973 -1.0500  0.5041
 4373SOL    HW224753   2.991   1.651   9.066  2.0398  1.4656 -1.0065
 4374SOL     OW24754   1.601   1.851   2.351  0.2525  0.1911  0.1500
 4374SOL    HW124755   1.513   1.887   2.344  0.5496  0.4635 -2.0837
 4374SOL    HW224756   1.627   1.906   2.425 -2.1723  0.5465  0.7159
 4375SOL     OW24757   0.289   3.938  16.757  0.0308  0.6924 -0.2894
 4375SOL    HW124758   0.365   3.963  16.809  0.9862 -2.1594 -0.3525
 4375SOL    HW224759   0.224   3.934  16.827  0.2316  0.0331 -0.1465
 4376SOL     OW24760   4.625   0.762   8.257 -0.3847 -0.3745 -0.3158
 4376SOL    HW124761   4.613   0.787   8.349 -1.6825 -1.4774 -0.1858
 4376SOL    HW224762   4.718   0.787   8.253  0.3896 -3.3985 -1.0477
 4377SOL     OW24763   2.265   0.104   4.895  0.6785  0.1582  0.1534
 4377SOL    HW124764   2.267   0.174   4.960  0.9652  0.5530 -0.2781
 4377SOL    HW224765   2.184   0.121   4.847  1.2223  1.2983 -0.3555
 4378SOL     OW24766   4.732   0.079   9.612 -0.1975 -0.0124  0.1150
 4378SOL    HW124767   0.024   4.727   9.593 -0.2862  0.1198 -0.6638
 4378SOL    HW224768   4.640   0.057   9.629 -0.8760  3.8345  1.4236
 4379SOL     OW24769   1.599   4.251  11.392  0.0427  0.7127  0.1355
 4379SOL    HW124770   1.689   4.283  11.400  0.4147 -0.6598  1.3333
 4379SOL    HW224771   1.568   4.314  11.327 -2.4840 -2.2383 -1.5291
 4380SOL     OW24772   4.479   3.013  14.607  0.1014  0.5799 -0.3569
 4380SOL    HW124773   4.426   2.979  14.679  1.9695  0.5582  0.9792
 4380SOL    HW224774   4.512   3.100  14.626 -0.4588  0.8790 -0.7399
 4381SOL     OW24775   1.327   0.690   9.286  0.7832  0.1324 -0.3254
 4381SOL    HW124776   1.266   0.656   9.221  0.2176 -2.3804  1.5341
 4381SOL    HW224777   1.326   0.616   9.347 -1.8880 -0.3735 -0.9924
 4382SOL     OW24778   0.065   4.291   1.859  0.5934 -0.3096 -0.0266
 4382SOL    HW124779   0.029   4.374   1.888  2.0459  0.3177 -0.0593
 4382SOL    HW224780   0.148   4.295   1.905  0.3152 -0.6343  0.5102
 4383SOL     OW24781   0.019   0.066   8.671 -0.7567 -0.4932 -0.2643
 4383SOL    HW124782   0.059   0.025   8.748 -0.7195 -1.6698 -0.9126
 4383SOL    HW224783   0.025   0.158   8.697 -1.9355 -0.9411  1.5943
 4384SOL     OW24784   2.771   2.307  15.759 -0.4584 -0.2326 -0.1291
 4384SOL    HW124785   2.800   2.317  15.668 -2.1980 -0.0350 -0.6522
 4384SOL    HW224786   2.856   2.281  15.794 -0.8022 -2.0277 -0.6118
 4385SOL     OW24787   4.576   4.122  15.732  0.1922 -0.6923 -0.1939
 4385SOL    HW124788   4.614   4.040  15.764 -1.0029 -1.0954  0.2082
 4385SOL    HW224789   4.638   4.149  15.664 -1.0407  0.0062 -1.0326
 4386SOL     OW24790   1.057   1.339   3.101 -0.5415  0.1174  0.5601
 4386SOL    HW124791   1.129   1.401   3.087 -1.6390  1.0269 -1.1749
 4386SOL    HW224792   0.987   1.374   3.046  0.1096  0.6353  0.0570
 4387SOL     OW24793   3.934   0.260   8.548  0.0322  0.0197 -0.4105
 4387SOL    HW124794   3.842   0.237   8.533 -0.1552  1.0946 -0.9396
 4387SOL    HW224795   3.937   0.263   8.644 -0.1154 -0.4241 -0.3903
 4388SOL     OW24796   0.575   2.138   7.210  0.5239  0.2872 -0.1502
 4388SOL    HW124797   0.617   2.090   7.282  1.0436 -0.8544 -1.2298
 4388SOL    HW224798   0.603   2.087   7.135 -0.2941  1.8320 -1.4912
 4389SOL     OW24799   2.680   3.286   7.690 -0.4787  0.8808 -0.2072
 4389SOL    HW124800   2.755   3.315   7.638  0.6237 -2.0103 -0.2784
 4389SOL    HW224801   2.666   3.367   7.739  0.4324 -2.2379  5.2391
 4390SOL     OW24802   2.708   4.586  12.617  0.0114  0.0196  0.2359
 4390SOL    HW124803   2.688   4.567  12.708 -1.4068 -0.3081 -0.1407
 4390SOL    HW224804   2.620   4.590  12.580 -0.5271  0.8844  1.6631
 4391SOL     OW24805   0.301   3.238   1.566 -0.1497  0.2632  0.0235
 4391SOL    HW124806   0.245   3.296   1.616 -2.8580 -1.6655 -0.7520
 4391SOL    HW224807   0.350   3.187   1.630 -1.6212  0.3815  1.2190
 4392SOL     OW24808   3.640   2.827   6.901 -0.0544  0.0090 -0.0516
 4392SOL    HW124809   3.725   2.807   6.860  0.0926 -1.6862  1.0819
 4392SOL    HW224810   3.621   2.915   6.869  0.0178 -0.5658 -1.7251
 4393SOL     OW24811   2.884   0.696   3.244 -0.2021  0.4883 -0.0731
 4393SOL    HW124812   2.925   0.645   3.314 -2.0243  1.9429  2.0492
 4393SOL    HW224813   2.956   0.714   3.183 -0.4271  1.5079 -0.0408
 4394SOL     OW24814   4.166   2.787   5.196 -0.5213  0.7035  0.3197
 4394SOL    HW124815   4.143   2.846   5.124 -2.1061 -0.5440 -0.2039
 4394SOL    HW224816   4.171   2.853   5.265  0.4896 -0.7817  1.6660
 4395SOL     OW24817   3.527   4.698  16.818  0.4672 -0.7966  0.4423
 4395SOL    HW124818   3.441   4.708  16.860  0.1697  0.2321 -0.4204
 4395SOL    HW224819   3.520   4.603  16.811 -2.0395 -0.6877  1.5583
 4396SOL     OW24820   0.098   2.970   8.674  0.2740  0.3394  0.0220
 4396SOL    HW124821   0.059   3.000   8.756  1.1300 -2.7605  1.5765
 4396SOL    HW224822   0.026   2.923   8.632  1.0100  1.8542 -2.9815
 4397SOL     OW24823   3.022   4.119   7.962  0.1346 -0.3505 -0.6738
 4397SOL    HW124824   3.076   4.058   7.911  0.8965 -1.0435  0.9610
 4397SOL    HW224825   2.960   4.052   7.991 -2.7123  2.4443 -0.3761
 4398SOL     OW24826   0.931   4.040  14.710 -0.1965 -0.2551 -0.3054
 4398SOL    HW124827   1.004   4.093  14.740 -0.5187  0.0341 -0.0326
 4398SOL    HW224828   0.959   3.950  14.731  0.6530 -0.6538 -3.2012
 4399SOL     OW24829   3.117   1.155   6.343  0.4431 -0.3936 -0.9591
 4399SOL    HW124830   3.155   1.126   6.425 -2.0961  2.2833  1.2059
 4399SOL    HW224831   3.071   1.231   6.380  1.3568 -1.0525  1.4924
 4400SOL     OW24832   2.838   3.722   2.621  0.3938 -0.3307 -0.3220
 4400SOL    HW124833   2.859   3.726   2.714 -1.3448 -1.3466  0.1010
 4400SOL    HW224834   2.803   3.633   2.613 -1.8782  0.4432  1.3405
 4401SOL     OW24835   4.152   3.186   8.972  0.1458 -0.1311  0.9731
 4401SOL    HW124836   4.236   3.219   9.004  0.1053  0.1567  0.7857
 4401SOL    HW224837   4.110   3.164   9.055 -0.6293  2.7867  1.3616
 4402SOL     OW24838   2.087   1.704   1.934  0.0516 -0.2317  0.0044
 4402SOL    HW124839   2.053   1.615   1.925 -0.1047 -0.3947  2.3496
 4402SOL    HW224840   2.166   1.691   1.986  0.7012 -0.2448 -0.9649
 4403SOL     OW24841   0.740   0.518  10.578  0.3385  0.4661 -0.3098
 4403SOL    HW124842   0.789   0.493  10.500  1.2840  2.5679 -0.4001
 4403SOL    HW224843   0.713   0.607  10.555  1.1461  1.3476  2.2039
 4404SOL     OW24844   2.396   1.751   5.542  0.8519  0.0464  0.3229
 4404SOL    HW124845   2.348   1.731   5.461 -0.0635  0.4607  0.7549
 4404SOL    HW224846   2.380   1.846   5.547 -2.1547 -0.5492  2.2787
 4405SOL     OW24847   2.522   4.040  12.396 -0.4943  0.3417  0.0418
 4405SOL    HW124848   2.507   4.064  12.487 -0.1002 -2.5065  0.8525
 4405SOL    HW224849   2.593   4.100  12.373 -1.5587  0.8355 -1.9316
 4406SOL     OW24850   4.390   2.590  10.186  0.2402 -0.3803 -0.7481
 4406SOL    HW124851   4.310   2.609  10.137  0.3444 -0.5635 -0.9909
 4406SOL    HW224852   4.363   2.512  10.234 -1.3447  2.0272  2.2757
 4407SOL     OW24853   3.166   0.933   8.802  0.1803  0.2002  0.6303
 4407SOL    HW124854   3.188   1.004   8.862  1.3700 -0.3374  0.8330
 4407SOL    HW224855   3.189   0.969   8.717 -1.8725  2.4045  1.0024
 4408SOL     OW24856   2.319   3.452   7.731  0.1604  0.0414  0.1608
 4408SOL    HW124857   2.363   3.453   7.816  0.1273  1.5148  0.1471
 4408SOL    HW224858   2.335   3.364   7.697 -0.1297  0.5921 -1.3816
 4409SOL     OW24859   2.534   0.933   3.856  0.4079 -0.3662  0.2834
 4409SOL    HW124860   2.556   0.906   3.945  0.6598 -0.1563  0.2835
 4409SOL    HW224861   2.513   1.026   3.867  1.4799 -0.2545  1.3416
 4410SOL     OW24862   2.769   1.244   9.611 -0.3441  0.0869  0.5170
 4410SOL    HW124863   2.818   1.279   9.685  2.0641  0.7794 -1.3849
 4410SOL    HW224864   2.812   1.160   9.595 -4.1541 -1.3101 -2.4366
 4411SOL     OW24865   4.094   3.335   6.302 -0.3052 -0.1300 -0.1719
 4411SOL    HW124866   4.070   3.322   6.210 -0.1628  0.9069 -0.3566
 4411SOL    HW224867   4.132   3.249   6.321  0.4519  0.9104  2.9156
 4412SOL     OW24868   3.699   3.679  16.640  0.6422 -0.4842 -0.2718
 4412SOL    HW124869   3.702   3.604  16.700  2.3523 -0.2925 -0.1180
 4412SOL    HW224870   3.606   3.700  16.645  0.5627 -1.4186  2.0985
 4413SOL     OW24871   3.792   3.434   6.500 -0.3167  0.2221  0.1416
 4413SOL    HW124872   3.815   3.488   6.575 -0.4182  2.2554 -1.3037
 4413SOL    HW224873   3.829   3.348   6.523  0.7477  1.0350  1.4742
 4414SOL     OW24874   3.053   0.455   8.502  0.4688 -0.2189  1.0039
 4414SOL    HW124875   3.073   0.462   8.409 -0.7974  0.8147  0.8123
 4414SOL    HW224876   3.092   0.535   8.538 -1.7275  1.3158 -0.0389
 4415SOL     OW24877   2.789   1.058  11.572 -0.4031  0.0247 -0.3207
 4415SOL    HW124878   2.861   1.004  11.542  1.1748  1.2075  1.3689
 4415SOL    HW224879   2.824   1.146  11.556 -1.0149  0.0978 -1.3172
 4416SOL     OW24880   1.015   0.813   3.132  0.3158  0.2366  0.3144
 4416SOL    HW124881   0.970   0.897   3.124  2.1520  1.1074 -1.1693
 4416SOL    HW224882   1.020   0.777   3.043 -0.4191  0.9896 -0.0238
 4417SOL     OW24883   3.111   0.378   0.516  0.1184  0.2122 -0.5705
 4417SOL    HW124884   3.119   0.462   0.471 -0.5058  0.6694  0.1622
 4417SOL    HW224885   3.203   0.355   0.526  0.2765  1.1542  0.1442
 4418SOL     OW24886   0.682   2.007   5.535  0.6866  0.6640 -0.5931
 4418SOL    HW124887   0.771   1.992   5.565 -0.0486 -0.8432  0.8665
 4418SOL    HW224888   0.693   1.984   5.443  1.8697  2.6859 -0.9447
 4419SOL     OW24889   0.278   3.912   2.650 -0.4541 -0.3937 -0.0736
 4419SOL    HW124890   0.216   3.845   2.621 -0.8850 -0.0466  0.0418
 4419SOL    HW224891   0.361   3.894   2.606 -0.4859  0.4948 -0.5079
 4420SOL     OW24892   1.583   2.515  16.674 -0.2024  0.2556 -0.3407
 4420SOL    HW124893   1.498   2.471  16.668 -0.1895  0.0320  1.0739
 4420SOL    HW224894   1.637   2.446  16.636 -0.2102 -0.0755  0.2494
 4421SOL     OW24895   3.681   3.176  13.609  0.4938 -0.2859 -0.3978
 4421SOL    HW124896   3.693   3.270  13.594  0.1883  0.0118  1.2137
 4421SOL    HW224897   3.762   3.150  13.651  0.8722  1.2182 -0.2129
 4422SOL     OW24898   1.246   2.135  12.766  0.2586 -0.3529 -0.5863
 4422SOL    HW124899   1.179   2.203  12.761  1.7785  1.1633 -0.3401
 4422SOL    HW224900   1.205   2.061  12.720 -3.0033  0.6377  0.7383
 4423SOL     OW24901   3.987   3.086   6.036 -0.1175  0.2188 -0.1802
 4423SOL    HW124902   4.032   3.170   6.037 -0.4689  0.4206 -0.9340
 4423SOL    HW224903   4.056   3.037   5.991 -0.4495  0.1001 -0.5560
 4424SOL     OW24904   0.591   1.595   0.772  0.1939 -0.3235 -0.0781
 4424SOL    HW124905   0.534   1.571   0.845  0.8579  2.6007  1.4029
 4424SOL    HW224906   0.582   1.521   0.712  2.3357 -0.0522 -0.7289
 4425SOL     OW24907   0.458   4.694  14.034  0.2610 -0.0283 -0.1196
 4425SOL    HW124908   0.491   0.015  13.965  1.0681 -0.1894  0.1259
 4425SOL    HW224909   0.366   4.693  14.008 -0.3402  1.0564  1.9439
 4426SOL     OW24910   3.768   2.096   6.799 -0.5442 -0.8466 -0.2574
 4426SOL    HW124911   3.845   2.141   6.833 -1.4250  0.9234 -0.5880
 4426SOL    HW224912   3.798   2.019   6.750  1.7494 -0.3091  0.3298
 4427SOL     OW24913   4.517   1.917   5.679 -0.4563  0.0541 -0.2969
 4427SOL    HW124914   4.447   1.929   5.743  0.8352 -0.9806  1.2973
 4427SOL    HW224915   4.491   1.974   5.606 -4.0823 -2.3109 -0.8527
 4428SOL     OW24916   0.005   2.112   1.204  0.1176  1.0143 -0.1977
 4428SOL    HW124917   0.042   2.072   1.125  1.5670  0.2611  0.8780
 4428SOL    HW224918   0.019   2.205   1.185  0.4264  1.0550  0.2346
 4429SOL     OW24919   0.219   3.881   6.058  0.0515  0.2653  0.1042
 4429SOL    HW124920   0.163   3.839   5.993  1.0275 -0.1922 -0.4424
 4429SOL    HW224921   0.300   3.889   6.009  0.1957 -2.7114 -0.1637
 4430SOL     OW24922   0.046   4.362   2.431  0.2011  0.5540 -0.2111
 4430SOL    HW124923   0.095   4.340   2.352 -0.9647 -2.3805 -0.1453
 4430SOL    HW224924   4.694   4.342   2.401  0.0583  1.1995 -0.2004
 4431SOL     OW24925   4.199   0.564   7.466 -0.4947 -0.2081  0.2665
 4431SOL    HW124926   4.225   0.598   7.551 -2.7441 -0.2418  0.9714
 4431SOL    HW224927   4.272   0.505   7.446 -0.5445 -0.1723 -0.0198
 4432SOL     OW24928   1.028   2.896   7.284 -0.0074 -0.1160 -0.6919
 4432SOL    HW124929   1.087   2.838   7.332  0.1421  0.7481  0.1758
 4432SOL    HW224930   0.983   2.822   7.245 -0.3520 -0.1720 -0.1878
 4433SOL     OW24931   4.113   2.904   7.031 -0.6216 -1.1316  0.0301
 4433SOL    HW124932   4.154   2.953   7.102  0.9807 -1.9109 -0.3614
 4433SOL    HW224933   4.148   2.816   7.040 -1.4193 -1.3144  1.2892
 4434SOL     OW24934   4.472   3.166  14.856  0.2924 -0.0765  0.3471
 4434SOL    HW124935   4.427   3.201  14.778 -0.4079  0.7470  1.1260
 4434SOL    HW224936   4.450   3.074  14.843 -0.2743  0.0503  0.4337
 4435SOL     OW24937   0.106   2.844   0.912 -0.9905  0.2342 -0.3571
 4435SOL    HW124938   0.102   2.925   0.861  0.2135 -0.5972 -1.7739
 4435SOL    HW224939   0.071   2.781   0.849 -1.9920 -0.0472  0.4900
 4436SOL     OW24940   0.932   1.629   4.237  0.4385 -0.3339  0.0847
 4436SOL    HW124941   0.907   1.560   4.176  3.5488 -2.8494  1.6653
 4436SOL    HW224942   0.931   1.595   4.326 -2.3592 -0.7251 -0.1177
 4437SOL     OW24943   4.069   4.108   8.039 -0.2662  0.2137 -0.3176
 4437SOL    HW124944   4.034   4.133   7.953 -2.5203 -2.6356 -0.2173
 4437SOL    HW224945   4.040   4.017   8.041  2.4698 -0.7270 -2.9771
 4438SOL     OW24946   4.011   2.347   5.596  0.1690  0.4444 -0.1728
 4438SOL    HW124947   3.928   2.394   5.599  0.0259  0.2815 -1.3195
 4438SOL    HW224948   4.011   2.312   5.507 -0.2815 -0.2596  0.1055
 4439SOL     OW24949   1.355   0.294  10.096 -0.1109 -0.2126  0.3981
 4439SOL    HW124950   1.367   0.360  10.028 -0.9978 -1.4160 -0.9112
 4439SOL    HW224951   1.295   0.335  10.159  0.4248  1.3834 -0.1265
 4440SOL     OW24952   3.034   3.419   5.788  0.0777 -0.8016 -0.4207
 4440SOL    HW124953   3.021   3.433   5.882 -0.4373  1.5946 -0.8491
 4440SOL    HW224954   2.983   3.339   5.786 -0.1880 -0.6668  0.8007
 4441SOL     OW24955   1.039   0.748  16.953  0.1024 -0.4795 -0.4066
 4441SOL    HW124956   1.033   0.667  16.903 -0.0585  0.0394 -1.2283
 4441SOL    HW224957   0.969   0.806  16.925 -1.5171 -1.3273  1.8509
 4442SOL     OW24958   0.923   4.599   2.429  0.2086 -0.2643  0.2375
 4442SOL    HW124959   0.889   4.568   2.513  0.5559 -1.6645 -0.1408
 4442SOL    HW224960   0.992   4.536   2.411 -0.7265 -1.4603  0.8833
 4443SOL     OW24961   3.450   1.423  15.944  0.1094  0.5877  0.2014
 4443SOL    HW124962   3.497   1.394  16.022 -0.7843  0.2638  0.6175
 4443SOL    HW224963   3.358   1.409  15.964 -0.1992  0.5723 -1.1898
 4444SOL     OW24964   1.950   4.517  10.423  0.2776  0.0166  0.1677
 4444SOL    HW124965   1.903   4.526  10.340  1.5645 -0.1734 -0.5806
 4444SOL    HW224966   1.875   4.544  10.477 -1.8167 -1.0323 -2.1960
 4445SOL     OW24967   0.309   0.340   8.981 -0.2788 -0.0744  0.3680
 4445SOL    HW124968   0.256   0.341   9.060 -1.7508  0.2144 -0.6177
 4445SOL    HW224969   0.394   0.369   9.016 -0.8142  1.0304  0.7338
 4446SOL     OW24970   3.782   0.823   6.654  0.1257 -0.3938 -0.5095
 4446SOL    HW124971   3.711   0.888   6.657 -0.9042 -1.5031 -0.6476
 4446SOL    HW224972   3.776   0.780   6.569 -0.0072  0.5372 -0.9724
 4447SOL     OW24973   2.071   0.571   7.549 -0.3675 -0.4839  0.3625
 4447SOL    HW124974   2.128   0.644   7.573 -0.1851 -0.4620 -0.1290
 4447SOL    HW224975   2.133   0.498   7.539  2.4045  1.8495  0.3408
 4448SOL     OW24976   2.347   4.264   8.916 -0.6102  0.7728 -0.6764
 4448SOL    HW124977   2.257   4.295   8.914 -0.7885  0.3032 -0.1501
 4448SOL    HW224978   2.378   4.305   8.836 -2.8418 -0.2739 -2.0860
 4449SOL     OW24979   2.351   3.291   5.238  0.2227  0.7743 -0.2325
 4449SOL    HW124980   2.284   3.231   5.206  0.7219  0.5782 -0.9360
 4449SOL    HW224981   2.416   3.278   5.169  0.4875  3.0857 -0.4213
 4450SOL     OW24982   2.163   3.871  17.003 -0.0267  0.5017 -0.5821
 4450SOL    HW124983   2.204   3.957  17.007  1.0174  0.0843 -2.1629
 4450SOL    HW224984   2.233   3.814  17.036 -0.3369  1.9001  2.4703
 4451SOL     OW24985   1.268   2.026   8.746 -0.4256  0.4507  0.1907
 4451SOL    HW124986   1.228   2.049   8.829 -0.0845 -1.6124  0.9200
 4451SOL    HW224987   1.250   1.932   8.740 -1.5178  0.6582  0.2996
 4452SOL     OW24988   1.467   2.349   4.527  0.0384 -0.0564 -0.6019
 4452SOL    HW124989   1.555   2.355   4.489  0.8497 -1.3334  1.0496
 4452SOL    HW224990   1.452   2.430   4.575 -1.5568 -0.1432 -0.9539
 4453SOL     OW24991   3.120   2.070   3.839  0.4694  0.0980 -0.0255
 4453SOL    HW124992   3.083   2.085   3.751  1.6207 -0.3286 -0.5744
 4453SOL    HW224993   3.127   2.163   3.860  1.0658 -0.0070  0.2081
 4454SOL     OW24994   0.621   3.341  17.449 -0.3965 -0.1832 -0.1236
 4454SOL    HW124995   0.544   3.372  17.403  0.1064 -0.8064 -1.3914
 4454SOL    HW224996   0.688   3.371  17.387  0.3250 -0.9907  0.2476
 4455SOL     OW24997   4.385   3.076   1.362  0.0349  0.4369 -0.1114
 4455SOL    HW124998   4.299   3.117   1.349  1.8702  4.2051 -0.4797
 4455SOL    HW224999   4.381   3.051   1.454 -0.5896 -1.1673 -0.5755
 4456SOL     OW25000   0.004   1.046   8.876  0.2967 -0.0958 -0.1188
 4456SOL    HW125001   4.661   1.090   8.848  0.1335 -0.4188 -0.1614
 4456SOL    HW225002   0.017   1.102   8.952  1.2984 -1.0541  0.4210
 4457SOL     OW25003   0.940   0.375   9.254 -0.0743  0.2065 -0.0188
 4457SOL    HW125004   0.845   0.371   9.263 -0.1113  0.2648 -0.4029
 4457SOL    HW225005   0.965   0.352   9.344  0.5616  2.3233  0.3654
 4458SOL     OW25006   2.640   2.379  14.888  0.5657  0.2212  0.1932
 4458SOL    HW125007   2.556   2.406  14.851  0.5271 -2.4766 -1.6382
 4458SOL    HW225008   2.690   2.348  14.813  1.0666 -0.1801  0.6925
 4459SOL     OW25009   0.128   1.806   5.821  0.2614  0.2344  0.3311
 4459SOL    HW125010   0.220   1.829   5.835 -0.4458  3.9541 -1.1198
 4459SOL    HW225011   0.110   1.749   5.896  0.1558  0.7104  0.6657
 4460SOL     OW25012   3.450   1.488   5.135 -0.0796 -0.1795 -0.7092
 4460SOL    HW125013   3.528   1.442   5.164  1.3668  2.6061 -0.1057
 4460SOL    HW225014   3.488   1.576   5.130  1.6970 -1.0024 -1.8895
 4461SOL     OW25015   2.696   3.625  12.359  0.2540  0.5850 -0.3347
 4461SOL    HW125016   2.698   3.700  12.418 -1.9086  1.2611 -1.1208
 4461SOL    HW225017   2.683   3.552  12.421 -0.8843  0.3648 -0.8400
 4462SOL     OW25018   1.459   0.299   2.243  0.1254  0.0678  0.1914
 4462SOL    HW125019   1.401   0.297   2.166 -1.1798 -1.6367  1.2175
 4462SOL    HW225020   1.410   0.269   2.320  0.0869 -0.0548  0.1203
 4463SOL     OW25021   0.041   2.019   1.481 -0.0856 -0.2836 -0.0842
 4463SOL    HW125022   0.029   2.045   1.390 -0.4358  1.5536  0.4753
 4463SOL    HW225023   0.056   1.925   1.475  1.6022 -0.0609  0.6163
 4464SOL     OW25024   4.202   3.615   6.058  0.0315  0.1130 -0.1618
 4464SOL    HW125025   4.136   3.644   5.994 -2.2631 -1.2689  1.5551
 4464SOL    HW225026   4.271   3.674   6.027 -1.6721  1.5893 -1.1713
 4465SOL     OW25027   1.890   3.037   5.878  0.6465 -0.4854  0.4084
 4465SOL    HW125028   1.896   2.942   5.874  1.9346 -0.3324 -1.5464
 4465SOL    HW225029   1.843   3.059   5.797 -0.8054 -1.3395  1.0289
 4466SOL     OW25030   1.967   2.735  11.718 -0.1134  0.0752 -0.3401
 4466SOL    HW125031   2.002   2.680  11.648  0.6543  2.3434 -1.7494
 4466SOL    HW225032   1.872   2.735  11.706 -0.1164 -0.8764 -0.2804
 4467SOL     OW25033   2.993   3.612   9.108 -0.3795 -0.1159 -0.6054
 4467SOL    HW125034   2.897   3.613   9.101 -0.4574  1.4692  0.5248
 4467SOL    HW225035   3.030   3.695   9.079  1.1311  0.2568  2.4084
 4468SOL     OW25036   3.868   3.382   8.899  0.2166 -0.1977 -0.3690
 4468SOL    HW125037   3.891   3.290   8.890  2.8284  0.4511 -0.5654
 4468SOL    HW225038   3.956   3.418   8.912  1.1697 -2.3189 -0.8741
 4469SOL     OW25039   0.843   4.435   3.645  0.1292  0.6717 -0.1259
 4469SOL    HW125040   0.898   4.409   3.719  0.2029  2.3241  0.3881
 4469SOL    HW225041   0.857   4.529   3.640 -0.6363  0.7639 -0.6376
 4470SOL     OW25042   1.441   3.992  15.157 -0.1545  0.0668 -0.6308
 4470SOL    HW125043   1.456   4.079  15.118 -0.9065  0.3309 -0.3419
 4470SOL    HW225044   1.510   3.942  15.115 -2.1829 -2.3704 -1.0217
 4471SOL     OW25045   2.650   1.585  12.800 -0.4932 -0.4217  0.6916
 4471SOL    HW125046   2.643   1.504  12.850  0.6504  0.1982  1.8397
 4471SOL    HW225047   2.741   1.568  12.776 -0.6303  0.1428 -0.2266
 4472SOL     OW25048   1.090   1.705   7.250  0.2767 -0.1101  0.2577
 4472SOL    HW125049   1.004   1.728   7.213  0.1654  1.5944  1.5581
 4472SOL    HW225050   1.066   1.625   7.296  0.8758 -0.2239  0.3651
 4473SOL     OW25051   4.039   2.155  11.126 -0.2243 -0.0399  0.0528
 4473SOL    HW125052   3.947   2.138  11.108  0.2386  0.0679 -2.3059
 4473SOL    HW225053   4.079   2.123  11.046 -1.9995  0.5967 -1.0809
 4474SOL     OW25054   4.084   2.219   2.293  0.1081 -0.3347 -0.5343
 4474SOL    HW125055   4.127   2.302   2.274 -3.4680  1.8310  0.9280
 4474SOL    HW225056   4.078   2.222   2.389 -0.8389 -0.7516 -0.5876
 4475SOL     OW25057   1.050   2.774   5.929  0.3669  0.3528  0.0167
 4475SOL    HW125058   0.968   2.821   5.945  0.3740 -0.5811  2.6848
 4475SOL    HW225059   1.042   2.758   5.835 -1.2020 -0.4491  0.2913
 4476SOL     OW25060   0.635   0.348   6.322 -0.2127  0.4797 -0.2157
 4476SOL    HW125061   0.579   0.272   6.309  1.6923 -1.1632  1.2646
 4476SOL    HW225062   0.717   0.304   6.302  0.3963  2.1865 -1.4597
 4477SOL     OW25063   3.059   3.080   8.193  0.0007 -0.4055  0.1153
 4477SOL    HW125064   3.057   3.171   8.223 -1.5828 -0.2057 -0.6155
 4477SOL    HW225065   2.969   3.060   8.166  0.6152 -1.3405 -1.2396
 4478SOL     OW25066   1.528   2.069   7.655 -0.0437 -0.4165  0.4970
 4478SOL    HW125067   1.514   2.065   7.749 -3.4290 -1.0238 -0.0319
 4478SOL    HW225068   1.574   2.153   7.657  0.3655 -0.6377  0.3483
 4479SOL     OW25069   4.641   3.527   7.661 -0.4641  0.2346  0.1730
 4479SOL    HW125070   4.663   3.591   7.728  2.2276  0.1361 -0.6192
 4479SOL    HW225071   4.551   3.501   7.680 -1.4524  1.6782 -2.5950
 4480SOL     OW25072   1.480   2.424   8.775  0.0984 -0.3092  0.2181
 4480SOL    HW125073   1.559   2.376   8.749  1.0348  0.2356  2.0460
 4480SOL    HW225074   1.500   2.460   8.861 -0.2100 -0.0539  0.1829
 4481SOL     OW25075   4.550   0.228   2.245 -0.0669  0.9761  0.4170
 4481SOL    HW125076   4.523   0.185   2.327  2.2439 -0.1999  0.5923
 4481SOL    HW225077   4.608   0.291   2.288 -0.5531  1.1430  0.8271
 4482SOL     OW25078   4.198   0.347  16.975 -0.1785 -0.5343 -0.3782
 4482SOL    HW125079   4.169   0.325  16.887 -0.5992  1.5005 -0.7411
 4482SOL    HW225080   4.155   0.281  17.029  2.5787 -0.1769  2.2723
 4483SOL     OW25081   0.663   0.738   3.994  0.0417  0.3368  0.0945
 4483SOL    HW125082   0.731   0.692   3.945 -0.5242  1.4474 -1.7511
 4483SOL    HW225083   0.605   0.665   4.017 -1.9681  1.6320 -0.8372
 4484SOL     OW25084   2.395   1.149  15.432  0.2895 -0.1081  0.4478
 4484SOL    HW125085   2.399   1.086  15.503  1.5973 -0.3968  0.1078
 4484SOL    HW225086   2.469   1.119  15.380 -0.3498  0.4884 -0.8250
 4485SOL     OW25087   1.846   0.555  14.466  0.1029  0.2488 -0.4643
 4485SOL    HW125088   1.752   0.564  14.485 -0.2177  0.1512 -1.9646
 4485SOL    HW225089   1.876   0.533  14.554  0.1592 -1.3776 -0.8854
 4486SOL     OW25090   3.550   3.210   7.098  0.1439 -0.2592  0.1542
 4486SOL    HW125091   3.464   3.231   7.063 -0.7595 -0.4533  2.2252
 4486SOL    HW225092   3.559   3.279   7.163  0.1219 -0.0655 -0.0518
 4487SOL     OW25093   2.556   0.516   4.944 -0.7447 -0.4271 -0.2253
 4487SOL    HW125094   2.506   0.472   5.012 -1.3085  1.4595  0.5804
 4487SOL    HW225095   2.586   0.591   4.995  3.0878 -0.7350 -2.0161
 4488SOL     OW25096   0.007   1.360   5.338 -0.6940  0.0592  0.2323
 4488SOL    HW125097   0.013   1.399   5.251  0.3441 -0.4667  0.0698
 4488SOL    HW225098   4.649   1.365   5.345 -0.7960 -0.8303 -0.5716
 4489SOL     OW25099   0.235   0.510  17.119 -0.1101 -0.6529 -1.0621
 4489SOL    HW125100   0.168   0.529  17.184  1.0437 -1.3150  0.3038
 4489SOL    HW225101   0.229   0.414  17.110 -3.4966 -0.7839  2.3439
 4490SOL     OW25102   0.204   4.426   3.128  0.5780 -0.1747 -0.2073
 4490SOL    HW125103   0.284   4.422   3.180 -0.1407 -1.0109  0.8340
 4490SOL    HW225104   0.223   4.505   3.079  1.5248 -0.0701  0.3333
 4491SOL     OW25105   3.042   2.448   5.400 -0.1529 -0.0320 -0.7021
 4491SOL    HW125106   3.004   2.469   5.485  0.3462 -0.0843 -0.4697
 4491SOL    HW225107   3.016   2.358   5.383  2.3277 -0.5764 -1.5554
 4492SOL     OW25108   2.453   4.212   7.258  0.6291 -0.6686 -0.1229
 4492SOL    HW125109   2.534   4.243   7.298 -0.6608  1.7961  0.6086
 4492SOL    HW225110   2.440   4.263   7.178 -0.3797 -0.5765  0.0975
 4493SOL     OW25111   1.609   3.565   4.079 -0.0042  0.3643 -0.1628
 4493SOL    HW125112   1.591   3.625   4.151  1.9786  0.1054  0.5373
 4493SOL    HW225113   1.519   3.559   4.046  0.3107 -2.1726 -0.5184
 4494SOL     OW25114   1.307   0.909   3.275 -0.1284  0.0831  0.0210
 4494SOL    HW125115   1.353   0.991   3.293  4.9584 -2.6582 -0.4791
 4494SOL    HW225116   1.226   0.948   3.244 -1.9603 -1.7082  2.5835
 4495SOL     OW25117   0.939   0.606   5.105 -0.7960  0.3224  0.3493
 4495SOL    HW125118   0.892   0.602   5.188  0.0199 -1.8559  0.7094
 4495SOL    HW225119   0.863   0.613   5.047  1.2803  1.9257 -2.1922
 4496SOL     OW25120   0.114   0.801  15.063 -0.5759 -0.4933  0.3516
 4496SOL    HW125121   0.108   0.887  15.023 -0.7198 -0.7129 -0.1021
 4496SOL    HW225122   0.045   0.802  15.129 -0.7415  0.3862  0.1565
 4497SOL     OW25123   3.849   4.358  12.090  0.2351  0.3561  0.5147
 4497SOL    HW125124   3.831   4.443  12.130 -0.1143 -0.0406  1.2080
 4497SOL    HW225125   3.944   4.364  12.083  0.1841  2.1548  1.1695
 4498SOL     OW25126   0.624   2.894   8.765 -0.5130  0.0041 -1.1193
 4498SOL    HW125127   0.555   2.934   8.711 -1.6207 -0.3244  0.0497
 4498SOL    HW225128   0.577   2.892   8.848 -1.4056  0.1890 -1.6189
 4499SOL     OW25129   0.918   2.441   7.387 -0.1051  0.2734  0.1324
 4499SOL    HW125130   0.978   2.366   7.384  0.3697  0.6089  1.2388
 4499SOL    HW225131   0.843   2.405   7.339  0.4444 -1.5678  0.6439
 4500SOL     OW25132   4.667   1.034   3.296  0.2619 -0.2472 -0.1021
 4500SOL    HW125133   4.624   1.106   3.340  2.1369  2.1000 -2.1146
 4500SOL    HW225134   4.592   0.991   3.255  0.9279 -2.1802  0.7031
 4501SOL     OW25135   0.350   1.378   4.961 -0.1750 -0.2144 -0.3803
 4501SOL    HW125136   0.412   1.396   4.891 -0.4610  0.7805 -0.3773
 4501SOL    HW225137   0.330   1.465   4.994  1.0744  0.3574 -1.1402
 4502SOL     OW25138   2.245   2.575   6.274 -0.0495  0.0005 -0.4389
 4502SOL    HW125139   2.159   2.551   6.240 -1.6317  2.8898  1.5716
 4502SOL    HW225140   2.240   2.542   6.364 -1.4540  2.7041  0.4496
 4503SOL     OW25141   2.134   1.180  11.563  0.6471 -0.1019  0.6595
 4503SOL    HW125142   2.141   1.156  11.470 -3.1583  0.4627  0.2259
 4503SOL    HW225143   2.220   1.154  11.594  0.3962 -0.6997  0.8536
 4504SOL     OW25144   3.845   4.080   4.977 -0.0933 -0.1434 -0.4272
 4504SOL    HW125145   3.790   4.101   4.901  0.3995  3.2286  0.1277
 4504SOL    HW225146   3.785   4.074   5.051 -0.1804 -2.1365 -0.6556
 4505SOL     OW25147   3.355   0.171  16.959  0.4980  0.5056  0.2624
 4505SOL    HW125148   3.391   0.095  17.005  2.0302  0.0063 -1.7799
 4505SOL    HW225149   3.262   0.158  16.978  0.4327  0.2963 -0.2067
 4506SOL     OW25150   2.623   2.870  15.231  0.0674  0.3894 -0.5516
 4506SOL    HW125151   2.708   2.845  15.195  0.4866 -0.7130  1.2501
 4506SOL    HW225152   2.610   2.797  15.291  0.5496 -0.6277 -1.6628
 4507SOL     OW25153   3.229   2.235   5.392 -0.5471 -0.1491  0.2322
 4507SOL    HW125154   3.244   2.299   5.322 -1.3177 -0.1583  0.0591
 4507SOL    HW225155   3.316   2.212   5.424 -0.0263  2.2080  0.4603
 4508SOL     OW25156   2.973   4.719  12.588 -0.4384 -0.2657 -0.5170
 4508SOL    HW125157   2.895   4.667  12.605  0.3731 -0.7890  1.6086
 4508SOL    HW225158   3.040   4.651  12.582  0.6602  0.7041  0.9401
 4509SOL     OW25159   4.262   1.630   2.583  0.2228 -0.2882  0.8855
 4509SOL    HW125160   4.339   1.576   2.564  1.3536  1.4157  0.6840
 4509SOL    HW225161   4.198   1.560   2.571  0.7138 -0.6905  0.6122
 4510SOL     OW25162   1.530   3.810  12.846  0.5671  0.4036 -0.2983
 4510SOL    HW125163   1.618   3.841  12.870  0.5392 -0.3702  0.8009
 4510SOL    HW225164   1.470   3.881  12.869  1.8449  1.3340  0.2205
 4511SOL     OW25165   0.483   2.165   3.544  0.0824 -0.0690  0.3221
 4511SOL    HW125166   0.478   2.249   3.589  0.3959  0.9016 -1.4566
 4511SOL    HW225167   0.412   2.164   3.479  0.5135  0.6303 -0.1627
 4512SOL     OW25168   2.623   2.349   4.363  0.0546  0.3203  0.2037
 4512SOL    HW125169   2.714   2.327   4.386  0.2791 -0.4528 -1.3964
 4512SOL    HW225170   2.612   2.443   4.378  0.5807  0.5769 -0.9470
 4513SOL     OW25171   0.724   0.030  10.522  0.3296  0.3636  0.3279
 4513SOL    HW125172   0.812   0.037  10.561  0.5391  2.6995 -0.5428
 4513SOL    HW225173   0.682   0.095  10.578 -1.3881 -1.0238  0.6244
 4514SOL     OW25174   1.954   2.893   0.135  0.2497 -0.2195 -0.0650
 4514SOL    HW125175   2.029   2.951   0.124  0.5995 -0.2399  2.2354
 4514SOL    HW225176   1.995   2.836   0.201 -2.0818 -0.0916  1.5133
 4515SOL     OW25177   1.965   3.523   9.974  0.4019  0.6363 -0.4134
 4515SOL    HW125178   1.882   3.530  10.022 -0.5466 -2.0607 -1.7067
 4515SOL    HW225179   1.953   3.446   9.919 -0.0198 -0.0153  0.5750
 4516SOL     OW25180   0.226   0.818   7.603 -0.2176  0.0138 -0.5448
 4516SOL    HW125181   0.283   0.895   7.601  1.0034 -0.9205 -1.4602
 4516SOL    HW225182   0.167   0.830   7.529  0.4572  0.1861 -1.0615
 4517SOL     OW25183   2.629   3.850  12.594 -0.5974 -0.0138 -0.0070
 4517SOL    HW125184   2.624   3.864  12.689  2.8043  1.1470 -0.0086
 4517SOL    HW225185   2.541   3.885  12.576 -0.1576  0.9014 -0.4139
 4518SOL     OW25186   1.037   4.587   2.740  0.1184  0.0473 -0.1198
 4518SOL    HW125187   1.093   4.570   2.665 -1.0645  0.4776 -1.1020
 4518SOL    HW225188   1.032   4.501   2.781  0.8730  0.5118  0.9303
 4519SOL     OW25189   0.769   2.603   4.831 -0.3771 -0.1595 -0.3484
 4519SOL    HW125190   0.735   2.585   4.919 -0.8015  1.1444 -0.2366
 4519SOL    HW225191   0.789   2.516   4.799  1.9589  0.6563 -1.0447
 4520SOL     OW25192   1.673   4.439   3.332  0.6968 -0.3661  0.0235
 4520SOL    HW125193   1.737   4.377   3.365 -0.9940  0.5581  5.0633
 4520SOL    HW225194   1.588   4.419   3.371  0.3656  1.4936  0.2815
 4521SOL     OW25195   2.139   1.511   7.011  0.4088 -0.4931 -0.1127
 4521SOL    HW125196   2.055   1.494   6.969 -0.1389  0.7000  0.5082
 4521SOL    HW225197   2.104   1.553   7.089  0.3818 -0.1760 -0.2959
 4522SOL     OW25198   2.702   3.523   9.380 -0.2545 -0.0995  0.3337
 4522SOL    HW125199   2.717   3.517   9.286  2.2264 -2.1316  0.8578
 4522SOL    HW225200   2.619   3.570   9.386  0.0843  0.6836 -1.1220
 4523SOL     OW25201   3.725   2.766  15.761 -0.0044 -0.4635 -0.7422
 4523SOL    HW125202   3.792   2.725  15.706  2.8958  1.6500  1.2120
 4523SOL    HW225203   3.651   2.713  15.732  0.7790 -1.3934 -1.0611
 4524SOL     OW25204   1.092   3.887   4.289 -0.0203 -0.3181  0.2646
 4524SOL    HW125205   1.101   3.981   4.308 -1.3619  0.2004 -1.6846
 4524SOL    HW225206   1.097   3.893   4.194  2.1645  0.3149  0.4188
 4525SOL     OW25207   1.806   1.416   1.956 -0.5688  0.2338  0.3408
 4525SOL    HW125208   1.864   1.374   2.020 -1.0191 -3.0893 -1.3934
 4525SOL    HW225209   1.846   1.386   1.874 -0.2490 -1.3746  1.0934
 4526SOL     OW25210   3.951   0.058   8.851 -0.2791  0.2236  0.7564
 4526SOL    HW125211   3.863   0.074   8.816 -0.1515 -0.5881  0.0535
 4526SOL    HW225212   3.962   0.116   8.926  0.2327 -0.1557  0.9766
 4527SOL     OW25213   2.285   1.213   7.297 -0.3547  0.4448 -0.4125
 4527SOL    HW125214   2.366   1.225   7.248  0.4638  0.9919  1.0980
 4527SOL    HW225215   2.311   1.229   7.388  0.0569  1.0772 -0.6381
 4528SOL     OW25216   1.713   4.093   5.196 -0.2427  0.4176 -0.0154
 4528SOL    HW125217   1.765   4.118   5.120  2.4474 -3.5947  0.5037
 4528SOL    HW225218   1.780   4.076   5.262 -1.5782  1.0683  1.5407
 4529SOL     OW25219   1.727   2.142   8.866  0.0809  0.5252 -0.8366
 4529SOL    HW125220   1.697   2.102   8.947  1.8817 -1.4039 -1.1108
 4529SOL    HW225221   1.660   2.115   8.803 -0.3529  2.5171 -1.2281
 4530SOL     OW25222   0.354   0.416  11.975  0.8491  0.1881  0.2578
 4530SOL    HW125223   0.349   0.321  11.961  1.1030  0.4329 -1.4011
 4530SOL    HW225224   0.401   0.420  12.058  0.6734  0.1818  0.3584
 4531SOL     OW25225   0.517   2.401   5.084  0.2359 -0.6632  0.0198
 4531SOL    HW125226   0.533   2.354   5.002  1.6675 -0.5043  0.2042
 4531SOL    HW225227   0.599   2.450   5.081  0.9986 -1.7863  2.0867
 4532SOL     OW25228   4.484   0.674   5.788 -0.2408  0.0363 -0.1157
 4532SOL    HW125229   4.552   0.619   5.827  0.0548 -0.0938 -0.8058
 4532SOL    HW225230   4.449   0.613   5.723  0.4990 -0.3419 -0.1510
 4533SOL     OW25231   0.758   3.753  14.421  0.4784 -0.2076  0.3184
 4533SOL    HW125232   0.673   3.752  14.378  1.5240 -4.1115 -1.7001
 4533SOL    HW225233   0.753   3.834  14.472 -1.2283  0.2049 -0.5446
 4534SOL     OW25234   2.885   3.442   6.329 -0.2436  0.6073 -0.2019
 4534SOL    HW125235   2.927   3.436   6.415 -0.0002 -0.7924 -0.4162
 4534SOL    HW225236   2.955   3.468   6.270 -0.5123  1.1963 -0.2609
 4535SOL     OW25237   4.483   3.075   8.030  0.3772 -0.3323  0.0908
 4535SOL    HW125238   4.459   3.163   8.057  0.2381 -0.0741 -0.8935
 4535SOL    HW225239   4.428   3.025   8.090 -0.4639  0.2097 -0.2330
 4536SOL     OW25240   4.685   3.361   6.179 -0.0817 -0.8436  0.1151
 4536SOL    HW125241   0.028   3.309   6.170  1.3959  1.3091  0.7383
 4536SOL    HW225242   4.641   3.325   6.257  0.9254  1.1245  1.5972
 4537SOL     OW25243   2.534   1.576  15.157  0.2164  0.1233  0.1041
 4537SOL    HW125244   2.502   1.649  15.105 -1.4253 -0.7128 -0.0416
 4537SOL    HW225245   2.502   1.504  15.103  2.4624  0.0792 -1.1786
 4538SOL     OW25246   1.952   2.783   8.282  0.2084 -0.8121 -0.0922
 4538SOL    HW125247   2.037   2.741   8.291  2.6267  4.2502  0.6309
 4538SOL    HW225248   1.964   2.837   8.204 -2.8098  0.4106  0.2986
 4539SOL     OW25249   4.037   3.581   1.648 -0.3485  0.4880 -0.1672
 4539SOL    HW125250   4.015   3.668   1.615 -1.0527  0.1497 -0.5891
 4539SOL    HW225251   4.125   3.561   1.618 -0.3944  1.3008 -0.8588
 4540SOL     OW25252   0.785   1.219   5.721 -0.3786  0.6273  0.5403
 4540SOL    HW125253   0.816   1.293   5.773 -0.4405  0.1950  1.1797
 4540SOL    HW225254   0.751   1.158   5.786 -1.2929  0.4719 -0.0779
 4541SOL     OW25255   1.067   3.502   7.796  0.2294  0.4255  0.0087
 4541SOL    HW125256   1.065   3.459   7.711 -2.1700  0.5209  0.0222
 4541SOL    HW225257   1.078   3.594   7.774 -0.4172  0.3455 -0.6365
 4542SOL     OW25258   0.334   0.670   8.946  0.3058  0.3471 -0.3829
 4542SOL    HW125259   0.248   0.705   8.967 -0.2836 -1.2768 -0.0299
 4542SOL    HW225260   0.305   0.607   8.880  2.5648 -2.6520  1.4654
 4543SOL     OW25261   2.892   1.352   8.724  0.1057 -0.3394 -0.3720
 4543SOL    HW125262   2.986   1.368   8.711  0.1705  0.6312  1.2940
 4543SOL    HW225263   2.897   1.297   8.802  0.5171 -0.2049 -0.2997
 4544SOL     OW25264   1.564   3.896  10.030 -0.1630  0.0912  0.0132
 4544SOL    HW125265   1.568   3.849  10.113 -0.2844 -2.6573 -1.5473
 4544SOL    HW225266   1.481   3.941  10.048 -1.1139 -1.0450 -1.5754
 4545SOL     OW25267   3.105   2.440  10.820 -0.1367  0.4801  0.2258
 4545SOL    HW125268   3.020   2.417  10.783 -0.3571  1.6469  0.0043
 4545SOL    HW225269   3.146   2.442  10.734 -1.0536 -1.3454 -0.2457
 4546SOL     OW25270   4.497   0.608  15.768  0.0349 -0.0116  0.1102
 4546SOL    HW125271   4.495   0.667  15.843  0.6468  0.0471  0.0850
 4546SOL    HW225272   4.450   0.531  15.801  0.7793 -1.7720 -2.9571
 4547SOL     OW25273   4.298   3.424   6.500 -0.1352  0.1774  0.2977
 4547SOL    HW125274   4.286   3.369   6.423 -1.9271  2.4454 -1.0209
 4547SOL    HW225275   4.218   3.410   6.550 -0.2156 -0.8796 -0.1237
 4548SOL     OW25276   2.143   0.627   8.162  0.3684 -0.2921 -0.3850
 4548SOL    HW125277   2.050   0.641   8.143  0.4227  1.0376  0.3382
 4548SOL    HW225278   2.159   0.704   8.216  0.3265  1.6788 -3.2289
 4549SOL     OW25279   2.107   0.487  11.439 -0.4146 -1.0221 -0.5115
 4549SOL    HW125280   2.186   0.467  11.489  0.2558  1.1121 -0.7325
 4549SOL    HW225281   2.096   0.582  11.442  0.6594 -0.8955 -0.4757
 4550SOL     OW25282   3.756   1.280   3.800 -0.6292  0.4678 -0.0271
 4550SOL    HW125283   3.768   1.375   3.793  1.5869  0.4234  2.9714
 4550SOL    HW225284   3.844   1.250   3.821 -0.9902  1.0251  2.2959
 4551SOL     OW25285   1.698   0.610   7.480  0.2201 -0.7240  0.2071
 4551SOL    HW125286   1.715   0.590   7.572 -1.1552  0.0271  0.6124
 4551SOL    HW225287   1.644   0.537   7.451 -0.1403 -0.1143 -0.6784
 4552SOL     OW25288   4.330   4.557   7.428  0.6433  0.3413 -0.0957
 4552SOL    HW125289   4.332   4.592   7.517 -2.1486 -2.0959  0.9112
 4552SOL    HW225290   4.239   4.533   7.414  0.4919 -0.1124  1.7404
 4553SOL     OW25291   1.899   1.017   1.849 -0.0853  0.0167 -0.3346
 4553SOL    HW125292   1.861   1.053   1.929 -0.5507  1.1539 -1.0651
 4553SOL    HW225293   1.821   1.026   1.794 -1.0641  0.9647  1.2222
 4554SOL     OW25294   0.392   1.289   5.861  0.0982 -0.0617  0.0470
 4554SOL    HW125295   0.332   1.332   5.800 -2.2233 -1.9841  0.9799
 4554SOL    HW225296   0.334   1.275   5.935  0.5652 -1.8280  0.0926
 4555SOL     OW25297   4.648   2.399   9.518  0.1225  0.3753  0.5964
 4555SOL    HW125298   4.635   2.447   9.600  0.5895  0.4438  0.6307
 4555SOL    HW225299   4.621   2.312   9.546 -1.9038  0.9944  0.5234
 4556SOL     OW25300   0.151   4.079   6.534  0.0868 -0.1967  0.2401
 4556SOL    HW125301   0.061   4.069   6.565 -0.6510  1.0900 -1.4556
 4556SOL    HW225302   0.132   4.113   6.446  0.6928  3.5600  1.5752
 4557SOL     OW25303   2.558   4.207   2.094 -0.0638  0.3021  0.0392
 4557SOL    HW125304   2.526   4.218   2.004  0.9875 -0.9342 -0.4968
 4557SOL    HW225305   2.570   4.299   2.117 -1.2530 -0.0638  2.1197
 4558SOL     OW25306   3.017   3.578   7.922 -0.1871 -0.3822 -0.0753
 4558SOL    HW125307   3.103   3.588   7.881  0.4622 -1.4940  1.0413
 4558SOL    HW225308   2.961   3.570   7.844  0.7721 -2.5014 -0.5373
 4559SOL     OW25309   2.187   3.007   1.938 -0.3771  0.1266  0.3406
 4559SOL    HW125310   2.124   2.991   1.868 -1.6942  1.6315  1.1676
 4559SOL    HW225311   2.179   2.925   1.986 -1.4685 -1.9928 -3.4860
 4560SOL     OW25312   0.680   3.269   4.865  0.0669  0.7284 -0.1550
 4560SOL    HW125313   0.672   3.288   4.772 -1.0174 -1.3551 -0.4754
 4560SOL    HW225314   0.658   3.350   4.912  0.7021 -0.0582  1.5082
 4561SOL     OW25315   0.366   2.087   0.219 -0.1005  0.0408  0.2752
 4561SOL    HW125316   0.458   2.091   0.245 -0.0083  1.7594 -0.2566
 4561SOL    HW225317   0.367   1.998   0.184  2.7085  0.2581 -0.1889
 4562SOL     OW25318   0.678   3.846  15.296 -0.1256 -0.0594 -0.0856
 4562SOL    HW125319   0.588   3.829  15.266 -0.6923 -0.6018  1.8855
 4562SOL    HW225320   0.719   3.857  15.210 -1.8262 -0.3178 -0.9310
 4563SOL     OW25321   4.485   2.509   6.411  0.5594  0.1316  0.5757
 4563SOL    HW125322   4.407   2.565   6.419 -0.9213 -1.5569 -2.2071
 4563SOL    HW225323   4.534   2.519   6.493 -0.2190  1.0455  0.9236
 4564SOL     OW25324   4.544   0.093   6.129  0.2896 -0.1751  0.4994
 4564SOL    HW125325   4.639   0.080   6.121  0.5098  2.5264 -1.2588
 4564SOL    HW225326   4.523   0.004   6.158  1.5087 -0.8192 -0.6150
 4565SOL     OW25327   1.041   3.191  17.142 -0.1796  0.2973  0.7750
 4565SOL    HW125328   1.065   3.152  17.226 -1.2979  1.8806  1.8283
 4565SOL    HW225329   1.096   3.137  17.085  1.4997  2.4120  0.3869
 4566SOL     OW25330   2.097   4.602   6.555  0.5918  1.0828 -0.4650
 4566SOL    HW125331   2.050   4.521   6.534  0.3316  0.7202  1.4821
 4566SOL    HW225332   2.032   4.672   6.561  0.1554  0.5549  1.1029
 4567SOL     OW25333   3.509   2.446  13.596  0.3919 -0.6952  0.1039
 4567SOL    HW125334   3.531   2.524  13.544 -0.8213  1.6782  3.1706
 4567SOL    HW225335   3.477   2.386  13.529  0.1913  1.5608 -1.8409
 4568SOL     OW25336   4.473   1.442   2.499  0.6844 -0.5799 -0.1487
 4568SOL    HW125337   4.449   1.461   2.408 -1.8149 -1.6393  0.2867
 4568SOL    HW225338   4.568   1.447   2.505  0.6846 -0.0407 -0.5327
 4569SOL     OW25339   3.577   1.608   0.680 -0.7142  0.2787  0.1934
 4569SOL    HW125340   3.638   1.664   0.633  0.0243 -2.0627 -1.6014
 4569SOL    HW225341   3.518   1.570   0.615  0.2006 -0.5041 -0.1738
 4570SOL     OW25342   4.495   2.444  10.977 -0.5082 -0.6395 -0.4556
 4570SOL    HW125343   4.400   2.454  10.987 -0.4515 -0.7750  0.2004
 4570SOL    HW225344   4.508   2.504  10.903 -1.0563  1.3042  1.0231
 4571SOL     OW25345   1.155   0.579  11.864 -0.1248 -0.1113 -0.1333
 4571SOL    HW125346   1.168   0.551  11.955  0.8398 -0.3951 -0.3504
 4571SOL    HW225347   1.123   0.667  11.882  1.7885  0.0932  2.3337
 4572SOL     OW25348   1.454   3.622  11.339 -0.2081 -0.2069  0.4566
 4572SOL    HW125349   1.464   3.693  11.402  0.6543  0.8866 -0.9165
 4572SOL    HW225350   1.360   3.628  11.323 -0.1012  0.1067 -0.0362
 4573SOL     OW25351   3.685   3.108   7.548  0.0133  0.2598 -0.0602
 4573SOL    HW125352   3.592   3.131   7.551  0.5106  2.3480 -1.4030
 4573SOL    HW225353   3.682   3.013   7.565 -2.4230  0.3220 -0.1344
 4574SOL     OW25354   2.043   2.811   2.859 -0.2351 -0.0863  0.0079
 4574SOL    HW125355   1.999   2.737   2.818 -0.3319  0.3804 -0.7133
 4574SOL    HW225356   2.028   2.882   2.797  0.8131 -1.1746 -1.4951
 4575SOL     OW25357   2.591   4.469   6.123  0.0254  0.1579 -0.2466
 4575SOL    HW125358   2.529   4.428   6.063 -0.2441  1.5292 -0.8971
 4575SOL    HW225359   2.617   4.556   6.091  0.4284  0.5880  1.2625
 4576SOL     OW25360   0.775   0.949   5.629 -0.1018 -0.6264 -0.4082
 4576SOL    HW125361   0.789   1.044   5.634 -0.6172 -0.5173 -1.0660
 4576SOL    HW225362   0.854   0.921   5.582  1.3510  0.1482  1.5337
 4577SOL     OW25363   2.445   3.401   3.440  0.4193 -0.5907  0.2853
 4577SOL    HW125364   2.414   3.484   3.477 -1.9267 -1.2642 -0.1259
 4577SOL    HW225365   2.476   3.434   3.355  2.2874  0.2556  1.2993
 4578SOL     OW25366   0.093   2.284   6.303  0.3708  0.0412 -0.4654
 4578SOL    HW125367   0.063   2.193   6.305 -2.0362  0.8746  1.5335
 4578SOL    HW225368   0.118   2.290   6.211  1.1901  3.4913  0.0009
 4579SOL     OW25369   1.848   3.356   0.272  0.0419 -0.0604  0.0912
 4579SOL    HW125370   1.920   3.356   0.335  2.3887 -1.2320 -2.5605
 4579SOL    HW225371   1.827   3.447   0.288  1.3261  0.2815 -0.1686
 4580SOL     OW25372   0.810   2.092  15.258  0.9703  0.3127  0.1589
 4580SOL    HW125373   0.867   2.025  15.220 -1.3059 -1.2041 -0.5917
 4580SOL    HW225374   0.861   2.170  15.281  0.1637  0.6779  0.6730
 4581SOL     OW25375   2.707   3.894   6.153 -0.6684 -0.5774 -0.8250
 4581SOL    HW125376   2.675   3.827   6.214 -0.2699  1.7279  1.9204
 4581SOL    HW225377   2.686   3.968   6.210  4.1410 -0.0819  0.3145
 4582SOL     OW25378   1.995   3.748   3.688  0.4163  0.7347  0.8935
 4582SOL    HW125379   1.916   3.781   3.730  1.0239  1.1330  1.7175
 4582SOL    HW225380   2.002   3.808   3.614  1.2413 -1.7943 -1.0989
 4583SOL     OW25381   4.310   3.806   5.883 -0.2662 -0.3712  1.0091
 4583SOL    HW125382   4.249   3.875   5.858 -0.3680 -0.8276 -0.0036
 4583SOL    HW225383   4.390   3.846   5.848 -0.4840 -0.6851  0.1577
 4584SOL     OW25384   0.916   3.711   3.538  0.1790 -0.0531  0.1365
 4584SOL    HW125385   0.950   3.694   3.450 -1.4461  1.6758 -0.8069
 4584SOL    HW225386   0.908   3.806   3.534 -0.3560 -0.0033  2.2260
 4585SOL     OW25387   2.369   4.554   3.075  0.2321 -0.4117  0.0743
 4585SOL    HW125388   2.345   4.613   3.147  1.6767 -0.0386  0.2452
 4585SOL    HW225389   2.324   4.597   3.002  0.5732 -0.6446 -0.2758
 4586SOL     OW25390   2.448   4.153   8.320  0.0192  0.1193  0.1860
 4586SOL    HW125391   2.390   4.103   8.262  0.2690  0.2361 -0.1671
 4586SOL    HW225392   2.520   4.091   8.324 -0.7786 -0.8689 -0.7208
 4587SOL     OW25393   3.693   4.381   4.310 -0.4281 -0.1946  1.0393
 4587SOL    HW125394   3.730   4.456   4.356 -0.7743  0.6390 -0.0656
 4587SOL    HW225395   3.655   4.422   4.233 -0.6228  1.2226  1.8938
 4588SOL     OW25396   2.835   4.382   9.854  0.2777  0.4806  0.4965
 4588SOL    HW125397   2.915   4.343   9.889 -0.2004  0.2770  1.3570
 4588SOL    HW225398   2.828   4.468   9.897 -1.0017  0.7659 -0.2635
 4589SOL     OW25399   4.070   1.464   1.186  0.1465  0.3754 -0.9792
 4589SOL    HW125400   4.011   1.456   1.111 -0.8797 -0.8070 -0.0411
 4589SOL    HW225401   4.072   1.370   1.204  1.0294  0.7553  0.8959
 4590SOL     OW25402   0.596   0.580   4.302  0.2654  0.1504 -0.3413
 4590SOL    HW125403   0.552   0.533   4.373 -2.5746  0.3428 -1.9554
 4590SOL    HW225404   0.540   0.563   4.226  1.0130 -2.0850 -0.3767
 4591SOL     OW25405   3.312   3.563  11.867  0.6911  0.2116 -0.3536
 4591SOL    HW125406   3.392   3.616  11.870  1.7055 -1.4202  1.5761
 4591SOL    HW225407   3.304   3.549  11.773  0.2767 -0.6531 -0.1988
 4592SOL     OW25408   0.767   0.297   7.222 -0.5046 -0.3366  0.1692
 4592SOL    HW125409   0.785   0.391   7.216  1.8150 -0.6859  1.5860
 4592SOL    HW225410   0.805   0.264   7.303 -0.2546  0.7401  0.5013
 4593SOL     OW25411   2.102   1.215   8.916  0.8555  0.0792 -0.0476
 4593SOL    HW125412   2.144   1.155   8.978  0.4148 -1.7009 -1.5211
 4593SOL    HW225413   2.083   1.148   8.851  0.1967  0.7186 -0.5144
 4594SOL     OW25414   2.759   4.596   6.484 -0.2613 -0.2234 -0.0710
 4594SOL    HW125415   2.719   4.607   6.569  0.0549  1.8683 -0.1982
 4594SOL    HW225416   2.724   4.674   6.442  0.0546  0.5966  1.2286
 4595SOL     OW25417   4.192   2.222   7.021 -0.1177  0.2530 -0.1536
 4595SOL    HW125418   4.271   2.221   6.968 -0.2545 -0.7665 -0.3545
 4595SOL    HW225419   4.229   2.200   7.106 -0.7617  4.2725  1.1764
 4596SOL     OW25420   3.520   2.022   6.695 -0.0836 -0.1677 -0.1246
 4596SOL    HW125421   3.612   2.050   6.695  0.5221 -2.1948 -1.9126
 4596SOL    HW225422   3.494   2.034   6.786 -0.1947  1.3548 -0.3557
 4597SOL     OW25423   1.508   2.992   9.783  0.2436  0.5062 -0.0780
 4597SOL    HW125424   1.497   3.077   9.741  1.7714 -0.0045 -1.4914
 4597SOL    HW225425   1.600   2.999   9.808  1.0716 -0.8087 -2.8351
 4598SOL     OW25426   2.602   3.100  13.036 -0.3826 -0.2454 -0.7482
 4598SOL    HW125427   2.537   3.147  13.089 -1.4545 -0.7827 -1.5908
 4598SOL    HW225428   2.672   3.107  13.101  0.9276  1.0201 -2.2580
 4599SOL     OW25429   2.141   0.023   5.474  0.3061 -0.1269 -0.3273
 4599SOL    HW125430   2.217   0.076   5.500  0.8054 -0.6696 -0.6845
 4599SOL    HW225431   2.183   0.000   5.391 -0.8549 -1.5408 -0.5222
 4600SOL     OW25432   0.294   4.064   7.911  0.1844 -0.3294 -0.5128
 4600SOL    HW125433   0.206   4.098   7.898 -0.1229 -1.2423 -0.7864
 4600SOL    HW225434   0.338   4.137   7.954  0.7438  0.7893 -2.9955
 4601SOL     OW25435   1.538   1.981   8.423  0.0242  0.1244 -0.1661
 4601SOL    HW125436   1.604   2.050   8.413 -0.6996  1.2083  2.7451
 4601SOL    HW225437   1.530   1.983   8.518  0.7664  1.4945 -0.1271
 4602SOL     OW25438   3.459   0.002   1.938  0.0383  0.2223 -0.2876
 4602SOL    HW125439   3.547   4.704   1.926 -0.6576 -1.2365 -1.2100
 4602SOL    HW225440   3.437   0.049   1.857  1.9905 -1.6468 -1.9217
 4603SOL     OW25441   3.897   1.459   8.561 -0.1003 -0.2187  0.6461
 4603SOL    HW125442   3.975   1.499   8.522  1.1604 -1.2203  2.1605
 4603SOL    HW225443   3.890   1.519   8.635  0.1349  2.1664 -1.2517
 4604SOL     OW25444   2.588   3.725  15.199  0.1144 -0.1691  0.3206
 4604SOL    HW125445   2.668   3.675  15.186  0.4318  0.4307 -0.0364
 4604SOL    HW225446   2.624   3.811  15.178 -0.5883 -0.3556 -1.7313
 4605SOL     OW25447   2.771   4.183  17.704 -0.0319  0.0701 -0.2232
 4605SOL    HW125448   2.785   4.276  17.690  1.1355  0.1487  1.5383
 4605SOL    HW225449   2.761   4.179   0.053  0.6105 -1.2763 -0.2118
 4606SOL     OW25450   0.129   3.155   4.169 -0.5056 -0.3725  0.3705
 4606SOL    HW125451   0.094   3.229   4.218  2.5372  0.6524  0.9950
 4606SOL    HW225452   0.173   3.188   4.091  0.2772 -2.8894 -0.2474
 4607SOL     OW25453   0.484   1.282  14.625  0.5024 -0.4942  0.2653
 4607SOL    HW125454   0.468   1.300  14.718 -0.6256  1.4068 -0.3028
 4607SOL    HW225455   0.444   1.359  14.586 -0.3821 -0.2282  1.6902
 4608SOL     OW25456   1.626   1.800  15.838  0.4099 -0.1978  0.5382
 4608SOL    HW125457   1.608   1.714  15.800  1.9934  0.5862 -2.0088
 4608SOL    HW225458   1.571   1.851  15.779  0.6316 -0.6326 -0.0437
 4609SOL     OW25459   0.433   3.520   3.682 -0.3141  0.1481 -0.1457
 4609SOL    HW125460   0.516   3.555   3.715 -0.9569  2.3658 -0.9006
 4609SOL    HW225461   0.374   3.538   3.755  1.6211  1.8000  1.0309
 4610SOL     OW25462   1.541   3.051   2.408 -0.3040 -0.0594  0.6003
 4610SOL    HW125463   1.495   3.129   2.439 -2.1151 -0.4907 -1.0448
 4610SOL    HW225464   1.538   3.068   2.314  0.0184  2.4923  1.0380
 4611SOL     OW25465   0.194   3.333  12.732  0.0196 -0.4453  0.1955
 4611SOL    HW125466   0.152   3.285  12.803  2.4445 -2.1242  0.4879
 4611SOL    HW225467   0.184   3.424  12.762  1.6534 -0.9428  2.2922
 4612SOL     OW25468   1.694   3.794   3.592 -0.3611 -0.2238  0.0127
 4612SOL    HW125469   1.696   3.878   3.638 -4.1704 -0.5746  0.8298
 4612SOL    HW225470   1.635   3.740   3.643  1.5120 -2.3285 -0.0611
 4613SOL     OW25471   0.673   0.993   8.133 -0.7307 -0.7785 -0.1415
 4613SOL    HW125472   0.617   1.062   8.168 -0.4533 -0.2466 -0.7653
 4613SOL    HW225473   0.665   0.917   8.191  0.3331 -0.5432  0.3062
 4614SOL     OW25474   0.055   4.608  10.971 -0.4353 -0.1155  0.0757
 4614SOL    HW125475   0.146   4.597  10.942  0.0288  0.7829  1.2209
 4614SOL    HW225476   0.032   4.516  10.988 -1.2134 -0.0746 -0.7221
 4615SOL     OW25477   2.296   3.706   8.172  0.4397 -0.8766 -0.3068
 4615SOL    HW125478   2.310   3.736   8.262 -1.4489  0.8017 -0.5735
 4615SOL    HW225479   2.212   3.743   8.143 -0.5485 -1.4928  1.7978
 4616SOL     OW25480   4.419   2.904   3.802 -0.0414 -0.0131 -0.1332
 4616SOL    HW125481   4.476   2.867   3.735 -3.7314  0.5095 -3.5084
 4616SOL    HW225482   4.460   2.872   3.883 -0.2153 -2.2521 -0.9075
 4617SOL     OW25483   2.248   2.425   4.219  0.4072  0.4323 -0.2891
 4617SOL    HW125484   2.155   2.404   4.221 -0.0371  2.5091  1.1046
 4617SOL    HW225485   2.270   2.419   4.312 -0.4004 -0.8364 -0.1907
 4618SOL     OW25486   0.067   4.587  17.482  0.1998 -0.2811 -0.6130
 4618SOL    HW125487   0.161   4.579  17.497  0.5719  2.1421 -1.7257
 4618SOL    HW225488   0.033   4.608  17.569  0.7173  0.8777 -0.7027
 4619SOL     OW25489   0.232   2.481  12.096 -0.0022 -0.0997  0.5455
 4619SOL    HW125490   0.299   2.507  12.160 -0.2454  1.8706  0.0006
 4619SOL    HW225491   0.276   2.429  12.029  0.8129 -2.9535  3.3119
 4620SOL     OW25492   0.190   2.829   4.731 -0.1965  0.3700 -0.0897
 4620SOL    HW125493   0.131   2.900   4.706 -2.3791 -1.4024  0.0245
 4620SOL    HW225494   0.130   2.756   4.742 -0.0678  0.3935  0.7974
 4621SOL     OW25495   2.467   1.279  12.172 -0.4753 -0.0305  0.1672
 4621SOL    HW125496   2.509   1.304  12.255 -0.5853 -0.2656  0.2935
 4621SOL    HW225497   2.429   1.364  12.151  3.2136  1.2246 -1.4158
 4622SOL     OW25498   2.745   2.676  17.722  0.2728 -0.2622  0.1921
 4622SOL    HW125499   2.774   2.747   0.032  2.7167  0.7222 -2.3180
 4622SOL    HW225500   2.652   2.693  17.740  0.4476  2.1639 -1.1537
 4623SOL     OW25501   0.595   3.521  11.626 -0.2844 -0.6289  0.1213
 4623SOL    HW125502   0.572   3.486  11.712  1.7117 -0.4530  0.7113
 4623SOL    HW225503   0.632   3.441  11.588  0.6662  0.1180 -0.5149
 4624SOL     OW25504   3.811   1.450  14.563  0.8722 -0.1404  0.0428
 4624SOL    HW125505   3.889   1.409  14.600  2.3752  2.5147 -0.1493
 4624SOL    HW225506   3.747   1.400  14.613 -0.7923  1.7089 -0.2255
 4625SOL     OW25507   0.473   4.656   7.389 -0.3632  0.1486  0.2523
 4625SOL    HW125508   0.472   0.013   7.367 -0.4232  0.0534 -0.1570
 4625SOL    HW225509   0.427   4.624   7.312 -1.1033 -1.4382  1.3669
 4626SOL     OW25510   1.666   3.817  17.465 -0.4329  0.2924 -0.0605
 4626SOL    HW125511   1.740   3.790  17.521 -0.3820 -0.5246 -0.5282
 4626SOL    HW225512   1.647   3.738  17.414 -1.6338  2.1503 -2.4520
 4627SOL     OW25513   1.874   4.235   3.357 -0.0703  0.1556  0.3200
 4627SOL    HW125514   1.871   4.257   3.264 -0.5474  1.2320  0.5841
 4627SOL    HW225515   1.822   4.156   3.367 -1.3245  0.8905 -0.4253
 4628SOL     OW25516   1.870   0.065   9.313  0.2547 -0.0131  0.2595
 4628SOL    HW125517   1.881   4.721   9.263  0.4724 -0.0175  0.3143
 4628SOL    HW225518   1.907   0.128   9.251  0.1002  0.2104  0.3989
 4629SOL     OW25519   2.709   1.758   5.530  0.0019 -0.3387  0.4729
 4629SOL    HW125520   2.616   1.780   5.536  0.2354  0.5881  0.6874
 4629SOL    HW225521   2.726   1.688   5.594  0.6990  0.0514  0.7099
 4630SOL     OW25522   3.900   1.065  13.920 -0.7329 -0.5041  0.0067
 4630SOL    HW125523   3.820   1.115  13.935  0.1837  0.7077  0.8444
 4630SOL    HW225524   3.893   1.043  13.827  2.4552  0.8453 -0.5701
 4631SOL     OW25525   2.502   1.552   6.832 -0.2742 -0.3686  0.2102
 4631SOL    HW125526   2.597   1.539   6.839 -0.1147  1.1091  0.9417
 4631SOL    HW225527   2.487   1.637   6.874  0.2026  1.5707 -3.5925
 4632SOL     OW25528   3.479   1.320   5.862 -0.0800 -0.3506 -0.7584
 4632SOL    HW125529   3.466   1.307   5.768 -1.2034 -0.8438 -0.5331
 4632SOL    HW225530   3.395   1.292   5.897 -0.1045  1.4737  0.6347
 4633SOL     OW25531   4.100   1.463   4.834  0.6316 -0.0133  0.3937
 4633SOL    HW125532   4.085   1.433   4.744  0.7350 -0.5272  0.5508
 4633SOL    HW225533   4.115   1.556   4.817 -1.5083  0.1475 -0.6056
 4634SOL     OW25534   2.935   4.108  13.171 -0.0701 -0.5451  0.3895
 4634SOL    HW125535   2.980   4.107  13.087 -0.0453 -1.7315  0.4065
 4634SOL    HW225536   2.908   4.199  13.180 -1.0167 -0.8622  0.8858
 4635SOL     OW25537   3.505   1.728  16.135  0.0380  0.5287  0.2686
 4635SOL    HW125538   3.432   1.776  16.174 -0.0703  1.2228 -0.7831
 4635SOL    HW225539   3.551   1.811  16.127 -1.2892  1.1920 -0.5850
 4636SOL     OW25540   2.810   1.585   9.692 -0.2804  0.7258 -0.1928
 4636SOL    HW125541   2.843   1.509   9.741 -0.2226  0.1049 -1.2079
 4636SOL    HW225542   2.887   1.641   9.700 -0.9430  1.6750 -0.4753
 4637SOL     OW25543   0.099   4.248   3.633 -0.4542  0.0792  0.0587
 4637SOL    HW125544   0.051   4.300   3.697 -0.1385  0.8801 -0.3495
 4637SOL    HW225545   0.025   4.208   3.587  0.1039 -0.2337 -0.5695
 4638SOL     OW25546   1.312   4.446   4.380  0.5784 -0.1392  0.2968
 4638SOL    HW125547   1.346   4.398   4.304  0.8603 -0.1894  0.4518
 4638SOL    HW225548   1.293   4.366   4.430 -0.0935  0.1539  0.4992
 4639SOL     OW25549   1.632   2.645  15.244  0.4208  0.0863  0.0716
 4639SOL    HW125550   1.608   2.733  15.216  0.0125 -0.1886 -0.4257
 4639SOL    HW225551   1.545   2.616  15.271  0.6281  2.1377  3.0116
 4640SOL     OW25552   2.295   0.660   8.427 -0.0313 -0.5589  0.5729
 4640SOL    HW125553   2.327   0.676   8.516 -1.5846  0.5701  0.9180
 4640SOL    HW225554   2.367   0.605   8.394 -1.5564 -2.2209  0.0049
 4641SOL     OW25555   1.629   0.913   3.074  0.0097  0.3508 -0.4106
 4641SOL    HW125556   1.597   0.951   2.992 -0.4690 -1.3899 -1.0260
 4641SOL    HW225557   1.602   0.822   3.066 -0.0157  0.1185  2.1250
 4642SOL     OW25558   1.501   3.846   8.511  0.1446  0.2072 -0.0767
 4642SOL    HW125559   1.541   3.809   8.433 -0.2945  2.0010 -1.1411
 4642SOL    HW225560   1.565   3.913   8.532 -2.1110  1.5627  2.5417
 4643SOL     OW25561   3.258   0.519   6.617 -0.1404 -0.0679 -0.7213
 4643SOL    HW125562   3.315   0.462   6.566 -0.5776 -0.3311 -0.9141
 4643SOL    HW225563   3.212   0.565   6.547 -1.0982  1.1362  0.7088
 4644SOL     OW25564   4.248   0.086   0.333 -0.3929  0.4455 -0.8624
 4644SOL    HW125565   4.183   0.112   0.268  0.6616  0.7157 -1.8223
 4644SOL    HW225566   4.282   0.169   0.367 -2.7349 -0.0480  2.6056
 4645SOL     OW25567   3.624   2.027   9.993 -0.8057 -0.2605  0.3723
 4645SOL    HW125568   3.661   2.060  10.074 -1.2677 -0.2380  0.5725
 4645SOL    HW225569   3.533   2.021  10.023 -0.7210 -3.1168  0.0888
 4646SOL     OW25570   1.748   0.226   3.177  0.2597  0.2068  0.1715
 4646SOL    HW125571   1.774   0.235   3.268  2.4261 -0.0501 -0.4142
 4646SOL    HW225572   1.807   0.288   3.133 -0.6761  0.4872 -0.6938
 4647SOL     OW25573   0.561   0.217   8.117 -0.1086 -0.4768 -0.0438
 4647SOL    HW125574   0.551   0.252   8.205  1.9708  0.3685 -0.1397
 4647SOL    HW225575   0.480   0.254   8.080  1.6432  2.6722 -0.7916
 4648SOL     OW25576   3.106   1.871   4.454 -0.2890  0.0880  0.2522
 4648SOL    HW125577   3.194   1.837   4.434 -0.6637 -2.3258  2.6079
 4648SOL    HW225578   3.060   1.792   4.425 -0.3800  0.4702 -0.6117
 4649SOL     OW25579   1.710   3.891  12.283  0.2774  0.1890  0.7477
 4649SOL    HW125580   1.757   3.808  12.287  0.3061  0.1433 -0.5661
 4649SOL    HW225581   1.682   3.882  12.192  0.0564  0.7397  0.7579
 4650SOL     OW25582   1.219   0.527   5.742 -0.8192  0.1448 -0.5131
 4650SOL    HW125583   1.206   0.557   5.832  0.4255  1.6275 -0.8326
 4650SOL    HW225584   1.222   0.432   5.758  1.3521 -0.4855 -4.7165
 4651SOL     OW25585   0.165   0.817  11.449 -1.1677 -0.2448  0.1153
 4651SOL    HW125586   0.198   0.809  11.539  0.8271 -2.0372 -0.7779
 4651SOL    HW225587   0.152   0.912  11.452  1.0499  0.0520  0.3845
 4652SOL     OW25588   0.972   4.427   8.370  0.2520  0.4542 -0.1541
 4652SOL    HW125589   0.989   4.344   8.325 -2.6076  0.7246 -1.7206
 4652SOL    HW225590   0.880   4.413   8.395  0.3544 -2.1113 -1.1540
 4653SOL     OW25591   4.254   3.594   4.951 -0.2818  0.7040  0.1335
 4653SOL    HW125592   4.177   3.642   4.921 -0.4054 -0.5003 -1.4831
 4653SOL    HW225593   4.327   3.650   4.928  0.8036 -0.6488  0.3089
 4654SOL     OW25594   3.916   2.567  14.185  0.6120  0.3869  0.7792
 4654SOL    HW125595   3.888   2.493  14.131  2.2825 -0.1870  0.7006
 4654SOL    HW225596   3.968   2.519  14.248 -0.5530 -2.2781 -0.3078
 4655SOL     OW25597   1.142   1.618   3.305 -0.3385  0.3073  0.0964
 4655SOL    HW125598   1.056   1.659   3.297 -1.3046 -1.7033  0.1498
 4655SOL    HW225599   1.152   1.586   3.216  1.5233  1.2571 -0.0347
 4656SOL     OW25600   4.360   3.993   2.321  0.1407  0.1564  0.3720
 4656SOL    HW125601   4.338   3.998   2.414  0.2033  2.4452  0.2503
 4656SOL    HW225602   4.401   4.078   2.310  1.3401 -0.4621  0.0067
 4657SOL     OW25603   2.315   2.183   1.364 -0.1629  0.1123  0.5721
 4657SOL    HW125604   2.233   2.136   1.348  1.1830 -1.5758 -1.2782
 4657SOL    HW225605   2.310   2.165   1.458  0.1038 -2.1221  0.1553
 4658SOL     OW25606   0.822   3.003  11.753  0.0512 -0.1986  0.1921
 4658SOL    HW125607   0.912   3.034  11.746  0.3697 -1.0124  0.6873
 4658SOL    HW225608   0.792   3.047  11.833  0.0434  1.8271 -0.9403
 4659SOL     OW25609   3.342   0.597  11.009  0.3957 -0.1515 -0.2736
 4659SOL    HW125610   3.307   0.665  10.951 -1.8920 -0.3052  0.9663
 4659SOL    HW225611   3.315   0.512  10.974 -0.9383  0.4529 -0.6884
 4660SOL     OW25612   3.121   0.218   9.072 -0.3293  0.0494 -0.2785
 4660SOL    HW125613   3.028   0.237   9.060 -1.0695 -3.6297 -0.1865
 4660SOL    HW225614   3.136   0.172   8.989  1.2266 -0.1228  0.0924
 4661SOL     OW25615   3.541   0.662   7.783  0.0622  0.0213 -0.7242
 4661SOL    HW125616   3.495   0.581   7.764 -0.3922 -0.7308  3.6190
 4661SOL    HW225617   3.611   0.631   7.840 -1.8980 -1.0091  1.1030
 4662SOL     OW25618   0.870   3.574  14.891  0.2810 -0.4875 -0.1778
 4662SOL    HW125619   0.894   3.569  14.984 -2.1586 -2.1514  0.3439
 4662SOL    HW225620   0.921   3.502  14.854  0.3109 -1.6972  2.2381
 4663SOL     OW25621   2.381   3.800   4.771 -0.5942 -0.1972  0.0706
 4663SOL    HW125622   2.455   3.746   4.798 -1.4644 -1.6611 -0.4919
 4663SOL    HW225623   2.311   3.735   4.776 -1.2558  0.5320  0.3124
 4664SOL     OW25624   1.367   0.443   6.415 -0.0880  0.3633 -0.5838
 4664SOL    HW125625   1.348   0.356   6.378 -1.4164  0.4206 -0.0462
 4664SOL    HW225626   1.456   0.428   6.446 -0.2901 -0.2356 -0.2802
 4665SOL     OW25627   4.294   1.562   2.176  0.1689 -0.0853 -0.0410
 4665SOL    HW125628   4.332   1.483   2.138  0.7265  0.0024  0.3318
 4665SOL    HW225629   4.364   1.627   2.170 -1.9037  2.1378 -0.1691
 4666SOL     OW25630   1.236   3.698   0.210 -0.6462 -0.3129 -0.4314
 4666SOL    HW125631   1.229   3.629   0.276  0.9025 -1.4976 -1.5144
 4666SOL    HW225632   1.324   3.685   0.176 -0.1637  1.3267  0.1930
 4667SOL     OW25633   4.360   3.255   8.185 -0.3143  0.5268  0.2849
 4667SOL    HW125634   4.321   3.329   8.232 -1.0559 -0.4056  1.1306
 4667SOL    HW225635   4.437   3.236   8.238 -0.8501  2.3175  1.7173
 4668SOL     OW25636   0.815   3.238   6.389 -0.2865  0.6912  0.2231
 4668SOL    HW125637   0.785   3.329   6.389 -1.6737  0.2258  0.7658
 4668SOL    HW225638   0.892   3.258   6.443  0.6775 -0.6655 -0.6556
 4669SOL     OW25639   2.474   4.652   2.293 -0.0553  0.0460 -0.4043
 4669SOL    HW125640   2.411   4.721   2.273  0.6737  1.0832  0.8699
 4669SOL    HW225641   2.547   4.704   2.325  0.4489  1.1189 -3.3253
 4670SOL     OW25642   4.473   2.224   6.981 -0.1782 -0.3110  0.2836
 4670SOL    HW125643   4.534   2.200   7.050 -1.4718 -0.7532  1.2920
 4670SOL    HW225644   4.499   2.315   6.965 -1.0870 -0.0550  0.2501
 4671SOL     OW25645   1.547   3.324   4.938  0.0188  0.3559  0.2937
 4671SOL    HW125646   1.456   3.316   4.967  0.5053 -2.3390  1.0926
 4671SOL    HW225647   1.600   3.304   5.016  0.1091  0.3426  0.2295
 4672SOL     OW25648   4.286   3.873   5.574  0.3581 -0.5343  0.5292
 4672SOL    HW125649   4.365   3.925   5.587 -0.8305  1.2497  0.5820
 4672SOL    HW225650   4.277   3.879   5.479 -0.2374 -1.1503  0.5406
 4673SOL     OW25651   4.701   2.097   5.771  0.2360  0.4572  0.6997
 4673SOL    HW125652   0.049   2.067   5.804 -0.3628 -1.0925  0.8349
 4673SOL    HW225653   4.658   2.014   5.750  0.3770 -0.0886  2.5329
 4674SOL     OW25654   1.959   4.563   6.241 -0.0108  0.5261  0.3346
 4674SOL    HW125655   1.876   4.609   6.231  0.2990  0.7322 -1.2872
 4674SOL    HW225656   2.024   4.632   6.228 -0.6517  1.1154  0.2844
 4675SOL     OW25657   2.047   1.122  15.233  0.4758 -0.1937  0.0665
 4675SOL    HW125658   2.097   1.049  15.199 -0.0412  1.0562 -3.4392
 4675SOL    HW225659   1.962   1.107  15.190  1.4146  3.5570 -3.1422
 4676SOL     OW25660   0.228   0.181   4.832  0.0516  0.0992  0.1497
 4676SOL    HW125661   0.155   0.151   4.777 -1.5618  4.8090 -0.3566
 4676SOL    HW225662   0.230   0.277   4.826 -1.0592  0.0374 -1.3551
 4677SOL     OW25663   2.606   4.155   3.982  0.0486  0.4930 -0.0742
 4677SOL    HW125664   2.512   4.159   3.967 -0.0235 -0.7300  0.0281
 4677SOL    HW225665   2.621   4.204   4.062 -0.5570 -0.3327  0.5503
 4678SOL     OW25666   3.774   4.268   1.899 -0.2669  0.1111 -0.3724
 4678SOL    HW125667   3.693   4.318   1.886  0.6092  2.6057  3.7280
 4678SOL    HW225668   3.834   4.319   1.953  0.6189  0.3811 -1.6191
 4679SOL     OW25669   3.303   3.038  11.664 -0.2846  0.1808  0.4731
 4679SOL    HW125670   3.272   3.128  11.676 -0.0310  0.1105  1.7004
 4679SOL    HW225671   3.236   2.998  11.609  0.3012 -1.0032  0.6220
 4680SOL     OW25672   3.011   4.440   6.503  0.0698  0.1338 -0.1359
 4680SOL    HW125673   3.008   4.373   6.571  1.4401  0.8264  0.6172
 4680SOL    HW225674   2.923   4.477   6.510 -1.0361 -2.7798  1.0859
 4681SOL     OW25675   3.834   2.067   3.873  0.0748  0.0940 -0.3476
 4681SOL    HW125676   3.929   2.080   3.868  0.1301  0.0767  0.5662
 4681SOL    HW225677   3.809   2.117   3.951 -0.8254  0.9230 -1.1741
 4682SOL     OW25678   1.701   3.914   4.342  0.2707  0.3699  0.1079
 4682SOL    HW125679   1.621   3.955   4.374 -1.7913 -2.7408 -1.1787
 4682SOL    HW225680   1.772   3.971   4.373  0.3110  0.3136  0.1205
 4683SOL     OW25681   2.354   0.795  15.354  0.7943 -0.0098  0.5692
 4683SOL    HW125682   2.437   0.816  15.398  1.3710  1.6028 -1.3186
 4683SOL    HW225683   2.328   0.713  15.398 -1.3316  0.8900  1.0063
 4684SOL     OW25684   0.790   2.152   4.387 -0.0703 -0.0889  0.3362
 4684SOL    HW125685   0.880   2.148   4.355 -0.7954  1.0366 -1.8594
 4684SOL    HW225686   0.785   2.077   4.447 -1.4038 -0.0245  0.3086
 4685SOL     OW25687   1.591   3.447  11.483  0.0530 -0.2148 -0.0781
 4685SOL    HW125688   1.589   3.476  11.574  1.6148  1.7901 -0.6868
 4685SOL    HW225689   1.541   3.515  11.438 -0.4178 -0.4799  0.0417
 4686SOL     OW25690   3.960   4.122   9.075  0.3569  0.2591 -0.2196
 4686SOL    HW125691   3.900   4.125   9.149 -0.3538 -0.2495 -0.7784
 4686SOL    HW225692   4.031   4.078   9.122  1.7525  0.8504 -1.7353
 4687SOL     OW25693   4.360   1.313   4.107 -0.1411  0.6062  0.6014
 4687SOL    HW125694   4.339   1.401   4.075 -0.2919  0.1629 -0.5342
 4687SOL    HW225695   4.448   1.319   4.145  0.5061 -0.4318 -0.7180
 4688SOL     OW25696   2.968   3.798   1.013  0.1034 -0.0439 -0.2369
 4688SOL    HW125697   2.912   3.873   1.035  1.3706  0.6692  0.5494
 4688SOL    HW225698   2.915   3.726   1.049 -1.1633  0.4665 -1.0723
 4689SOL     OW25699   1.291   1.413   5.772 -0.3217 -0.2854  0.4919
 4689SOL    HW125700   1.325   1.329   5.741  2.5923  0.9410  0.3871
 4689SOL    HW225701   1.362   1.453   5.821  0.5482 -1.2377 -0.0003
 4690SOL     OW25702   3.953   0.648   6.787  0.0140 -0.3582 -0.0843
 4690SOL    HW125703   3.896   0.596   6.845  0.6786 -2.2271 -1.1150
 4690SOL    HW225704   3.894   0.701   6.733  1.1685  0.2243 -0.7591
 4691SOL     OW25705   2.007   0.943  10.293 -0.2234  0.3446 -0.3688
 4691SOL    HW125706   1.971   0.968  10.379 -1.0855  0.1631 -0.6794
 4691SOL    HW225707   2.026   0.850  10.299  3.7481  1.2023  0.7069
 4692SOL     OW25708   1.368   3.533   7.441 -0.5099  0.2204  0.8788
 4692SOL    HW125709   1.392   3.491   7.523 -0.4616  0.9027  1.2147
 4692SOL    HW225710   1.380   3.624   7.469  0.6578  0.5345 -0.6652
 4693SOL     OW25711   3.014   1.896   9.872  0.4124  0.1275 -0.2288
 4693SOL    HW125712   3.069   1.873   9.946 -0.6611 -1.1991  0.1583
 4693SOL    HW225713   2.963   1.967   9.912  0.0529 -0.3799  0.2191
 4694SOL     OW25714   0.171   3.642   3.836 -0.2015  0.3774 -0.0002
 4694SOL    HW125715   0.198   3.732   3.817 -1.0283  1.1827  2.6805
 4694SOL    HW225716   0.077   3.656   3.832 -0.4145 -1.2947 -1.1917
 4695SOL     OW25717   1.194   4.198  15.750  0.2194 -0.0995 -0.4466
 4695SOL    HW125718   1.287   4.210  15.768 -0.4765  2.1839  1.6322
 4695SOL    HW225719   1.156   4.276  15.789 -2.0346 -0.4590 -1.9016
 4696SOL     OW25720   2.683   4.405  16.228 -0.3223 -0.6486 -0.2993
 4696SOL    HW125721   2.693   4.343  16.155 -0.6359  1.4767 -2.1590
 4696SOL    HW225722   2.744   4.475  16.207  1.0606 -1.0940  2.2499
 4697SOL     OW25723   2.976   1.591   2.535 -0.3897 -0.6894 -0.1157
 4697SOL    HW125724   2.921   1.538   2.476  0.6633 -0.7619 -1.0413
 4697SOL    HW225725   2.913   1.599   2.607  0.8465  0.9190  0.7847
 4698SOL     OW25726   2.190   3.738   4.111 -0.0935 -0.2843  0.5358
 4698SOL    HW125727   2.195   3.677   4.037 -0.2143  2.3685 -1.6601
 4698SOL    HW225728   2.281   3.766   4.126 -0.5598  0.6557  1.6294
 4699SOL     OW25729   3.225   2.433  10.578 -0.0905 -0.4781  0.6151
 4699SOL    HW125730   3.214   2.373  10.505 -2.3830 -0.6338  1.0750
 4699SOL    HW225731   3.297   2.485  10.544  1.5181 -3.0380  0.1657
 4700SOL     OW25732   3.052   2.324   3.902 -0.0109 -0.2083  0.1757
 4700SOL    HW125733   2.979   2.358   3.851  0.4022  1.5268  0.7516
 4700SOL    HW225734   3.013   2.305   3.988 -1.0991 -1.0017 -0.4993
 4701SOL     OW25735   1.396   3.536   1.904  0.3780 -0.0172  0.3268
 4701SOL    HW125736   1.336   3.541   1.979  1.8574  1.4314  1.4328
 4701SOL    HW225737   1.431   3.625   1.900  0.1660  0.0071 -0.7456
 4702SOL     OW25738   2.127   2.635   5.947  0.3035  0.2204 -0.4043
 4702SOL    HW125739   2.088   2.565   6.000 -0.1339  0.5478 -0.2953
 4702SOL    HW225740   2.087   2.712   5.988  1.3097  0.9116 -0.7194
 4703SOL     OW25741   4.403   3.338   7.432  0.6123 -0.0812  0.4174
 4703SOL    HW125742   4.461   3.271   7.469 -0.3880 -0.9351  0.4344
 4703SOL    HW225743   4.466   3.402   7.399 -0.7420  1.2577  0.3847
 4704SOL     OW25744   4.313   4.540   6.673 -0.1300 -0.2326 -0.0228
 4704SOL    HW125745   4.286   4.632   6.681 -2.3828 -0.6065 -2.8184
 4704SOL    HW225746   4.230   4.492   6.671  0.1413 -0.7004 -0.0243
 4705SOL     OW25747   2.121   3.474  15.111 -0.0921  0.1807  0.6688
 4705SOL    HW125748   2.049   3.535  15.122  0.5883  1.0110  0.5225
 4705SOL    HW225749   2.156   3.510  15.030  2.2013 -1.9688  0.6747
 4706SOL     OW25750   1.021   4.195   7.861  0.3544 -0.0819  0.3275
 4706SOL    HW125751   0.985   4.280   7.837 -0.0616 -0.2940  0.1902
 4706SOL    HW225752   0.942   4.148   7.891 -0.3738 -0.2264 -1.7893
 4707SOL     OW25753   1.865   0.151  12.444 -0.0642  0.4422 -0.3908
 4707SOL    HW125754   1.923   0.209  12.495 -1.7016 -0.1394  2.1203
 4707SOL    HW225755   1.853   0.085  12.512  1.6955  0.7424  0.2271
 4708SOL     OW25756   2.790   3.634   3.816 -0.1040  0.1885 -0.2343
 4708SOL    HW125757   2.713   3.690   3.804 -0.1695 -0.0189 -0.7852
 4708SOL    HW225758   2.761   3.560   3.763 -0.7343 -0.8485  1.5478
 4709SOL     OW25759   3.045   4.346   3.165 -0.0902  0.2100  0.1744
 4709SOL    HW125760   3.018   4.293   3.090 -1.5525 -0.1830  0.9758
 4709SOL    HW225761   2.994   4.301   3.233  0.6774  0.1910  0.7361
 4710SOL     OW25762   2.139   2.450   5.339 -0.0951  0.3051 -0.0878
 4710SOL    HW125763   2.158   2.356   5.339  0.6776  0.4598  0.9741
 4710SOL    HW225764   2.094   2.456   5.423 -0.5721 -1.7156 -0.2063
 4711SOL     OW25765   2.717   2.554  16.118 -0.2813  0.2102 -0.4250
 4711SOL    HW125766   2.738   2.516  16.204 -0.3499  2.0743  0.4246
 4711SOL    HW225767   2.745   2.644  16.136 -2.0895  0.4709  1.2343
 4712SOL     OW25768   3.974   3.216  14.567  0.5483 -0.1485 -0.0547
 4712SOL    HW125769   3.995   3.294  14.618  1.4504  0.3818 -1.2275
 4712SOL    HW225770   3.893   3.237  14.520 -0.9757 -3.2166  1.2441
 4713SOL     OW25771   2.867   0.175   6.479  0.1322 -0.3288  0.1095
 4713SOL    HW125772   2.774   0.155   6.466 -0.1039  0.6861  0.2531
 4713SOL    HW225773   2.861   0.254   6.532  1.3799 -0.8606  1.0630
 4714SOL     OW25774   2.215   2.686   8.309 -0.6721 -0.3953  0.7449
 4714SOL    HW125775   2.278   2.756   8.327 -1.3520  0.5976 -0.7180
 4714SOL    HW225776   2.243   2.627   8.378 -1.5081 -2.6284 -0.8264
 4715SOL     OW25777   1.721   3.212   3.180 -0.2437  0.1278 -0.2351
 4715SOL    HW125778   1.763   3.244   3.259  1.6546  0.7481 -1.4967
 4715SOL    HW225779   1.721   3.117   3.184 -1.4039  0.1461  0.3870
 4716SOL     OW25780   1.957   1.306   4.495  0.0896  0.3731 -0.2970
 4716SOL    HW125781   1.959   1.216   4.463 -1.4515  0.1477  0.2387
 4716SOL    HW225782   1.926   1.278   4.581 -1.4691 -1.2342 -1.3988
 4717SOL     OW25783   3.939   2.952   7.662 -0.0429 -0.2711  0.1289
 4717SOL    HW125784   3.900   2.948   7.575  1.1738  0.0567 -0.4381
 4717SOL    HW225785   3.982   3.038   7.664 -0.5931  0.0204 -0.7652
 4718SOL     OW25786   1.873   4.251   8.365 -0.2597  0.5290  0.0696
 4718SOL    HW125787   1.845   4.299   8.442  1.6314  2.9271 -0.7653
 4718SOL    HW225788   1.967   4.256   8.383 -0.9224 -0.1933  3.7744
 4719SOL     OW25789   2.831   4.538   7.264 -0.4955  0.4979 -0.4382
 4719SOL    HW125790   2.848   4.460   7.210  1.5586 -0.8766  2.2220
 4719SOL    HW225791   2.909   4.587   7.238  0.2644 -1.1516 -1.3150
 4720SOL     OW25792   0.279   4.586  10.769  0.2038 -0.0206 -0.0885
 4720SOL    HW125793   0.188   4.585  10.738  0.3491 -0.7938 -0.5077
 4720SOL    HW225794   0.323   4.650  10.714  1.1751 -1.1351 -0.5961
 4721SOL     OW25795   2.846   3.601   4.288  0.6079  0.4929 -0.6824
 4721SOL    HW125796   2.927   3.652   4.290  0.4697  0.7624 -1.7054
 4721SOL    HW225797   2.883   3.513   4.275  1.1882  0.6543 -0.0994
 4722SOL     OW25798   2.490   0.289  16.718 -0.3456  0.3006 -0.4907
 4722SOL    HW125799   2.531   0.333  16.793 -0.8043 -1.1163  0.6015
 4722SOL    HW225800   2.448   0.212  16.757 -0.1383 -0.2189 -1.3054
 4723SOL     OW25801   0.982   1.043   7.231 -0.5230 -0.0789 -0.0769
 4723SOL    HW125802   0.933   1.012   7.307 -0.0145  1.7975  1.0306
 4723SOL    HW225803   0.932   1.011   7.156 -1.6371  1.7434 -0.1119
 4724SOL     OW25804   0.768   1.138   7.901  0.0672  0.2253 -0.0938
 4724SOL    HW125805   0.752   1.100   7.987  0.4348  0.7993  0.2287
 4724SOL    HW225806   0.698   1.090   7.858 -0.8559  0.9244  0.6156
 4725SOL     OW25807   1.016   3.326  15.167  0.4045 -0.0190 -0.2844
 4725SOL    HW125808   1.080   3.284  15.225  0.7849  1.6349  0.4879
 4725SOL    HW225809   0.961   3.251  15.147  0.2399  0.6532 -2.3681
 4726SOL     OW25810   2.575   2.977   7.537  0.1295  0.2459  0.0500
 4726SOL    HW125811   2.633   3.029   7.482 -1.8605 -0.5137 -2.7691
 4726SOL    HW225812   2.511   2.941   7.476  1.1705  0.4466 -1.1512
 4727SOL     OW25813   4.462   1.146   1.323 -0.5738 -0.3314  0.1808
 4727SOL    HW125814   4.525   1.177   1.259 -1.3515  3.0054  1.0353
 4727SOL    HW225815   4.518   1.118   1.396  0.2991  0.7964 -0.0649
 4728SOL     OW25816   4.662   1.020  11.598 -0.1593 -0.3030 -0.2208
 4728SOL    HW125817   4.595   0.989  11.537 -1.1828 -1.1514  1.3379
 4728SOL    HW225818   4.723   1.054  11.533 -0.6590  1.1443  0.0758
 4729SOL     OW25819   3.921   2.016   7.489 -0.5224 -0.1029 -0.0170
 4729SOL    HW125820   3.860   1.943   7.485 -3.1356  2.0470 -0.0403
 4729SOL    HW225821   3.962   2.002   7.404  0.6941 -2.9684  1.0523
 4730SOL     OW25822   2.744   1.408   6.838  0.0307 -0.4948  0.0515
 4730SOL    HW125823   2.718   1.357   6.915 -1.8376  2.8416  1.6463
 4730SOL    HW225824   2.804   1.354   6.787  0.1121 -1.3187  1.0164
 4731SOL     OW25825   2.188   0.005  12.630 -0.0830  0.0169  0.8293
 4731SOL    HW125826   2.231   0.090  12.639 -2.2771  1.2410 -0.3515
 4731SOL    HW225827   2.246   4.686  12.682 -0.1439 -0.0257  0.8511
 4732SOL     OW25828   0.290   0.392   5.091 -0.2652  0.3418 -0.1621
 4732SOL    HW125829   0.206   0.400   5.136  1.4922  1.1898  2.9146
 4732SOL    HW225830   0.265   0.404   4.999  0.2529  0.5502 -0.2752
 4733SOL     OW25831   3.342   0.878   0.041 -0.2784 -0.1673  0.3665
 4733SOL    HW125832   3.323   0.926  17.707 -0.1959 -0.1014  0.3870
 4733SOL    HW225833   3.436   0.871   0.060  0.0169 -0.7645 -1.2531
 4734SOL     OW25834   4.406   2.180   1.538  0.3646  0.0598  0.2924
 4734SOL    HW125835   4.486   2.132   1.560  0.0343 -1.5080 -1.9821
 4734SOL    HW225836   4.341   2.114   1.563  0.3752  0.0151  0.2029
 4735SOL     OW25837   3.338   3.452   6.805  0.2658 -0.5647 -0.3471
 4735SOL    HW125838   3.425   3.432   6.772  0.3500  2.5048 -1.9584
 4735SOL    HW225839   3.281   3.397   6.752  0.1296  1.9083 -2.7688
 4736SOL     OW25840   1.042   1.147   2.820 -0.1969  0.0736  0.3648
 4736SOL    HW125841   1.119   1.096   2.847  0.3005  1.8842  2.3818
 4736SOL    HW225842   1.086   1.222   2.780 -0.6734 -1.0854 -2.2762
 4737SOL     OW25843   1.968   3.268   9.842  0.2723  0.3004 -0.0679
 4737SOL    HW125844   1.873   3.257   9.834  0.2524  0.6910 -0.3691
 4737SOL    HW225845   1.987   3.313   9.760  1.2427 -0.8463 -0.4638
 4738SOL     OW25846   2.240   1.914  17.024  0.5621 -0.0422 -0.4420
 4738SOL    HW125847   2.257   1.949  17.112 -2.2089 -1.3032  0.6022
 4738SOL    HW225848   2.175   1.981  17.002  0.4071  0.2764  0.9835
 4739SOL     OW25849   3.911   3.566   6.713  0.4708 -0.5897  0.1373
 4739SOL    HW125850   3.992   3.521   6.687  1.0914  0.8268 -0.4053
 4739SOL    HW225851   3.886   3.519   6.792 -0.7111 -0.3004 -0.0599
 4740SOL     OW25852   0.278   1.400   3.301 -0.0273 -0.3174  0.0197
 4740SOL    HW125853   0.204   1.354   3.260  0.6876 -1.8625  0.4653
 4740SOL    HW225854   0.335   1.325   3.315  0.3989  0.2252  1.1897
 4741SOL     OW25855   0.449   4.171  14.642 -0.1409  0.4336  0.0980
 4741SOL    HW125856   0.444   4.157  14.547 -0.4054  0.9092  0.0384
 4741SOL    HW225857   0.510   4.245  14.647 -0.1690  0.4702 -0.0895
 4742SOL     OW25858   4.295   1.423   4.536 -0.3936  0.0954  0.1337
 4742SOL    HW125859   4.286   1.471   4.453  1.0084  1.8259  0.9762
 4742SOL    HW225860   4.306   1.494   4.599 -2.1620  0.3799  0.1388
 4743SOL     OW25861   1.979   2.136   4.689  0.0722  0.5249  0.6704
 4743SOL    HW125862   1.996   2.220   4.646 -1.1841 -0.4354 -1.6827
 4743SOL    HW225863   1.893   2.122   4.648  0.4920  0.5689 -0.2323
 4744SOL     OW25864   0.033   2.405   2.361  0.0662  0.7643  0.8302
 4744SOL    HW125865   0.056   2.316   2.335 -5.8646 -0.4652 -0.2306
 4744SOL    HW225866   0.076   2.458   2.295  2.2101 -0.3709  1.3286
 4745SOL     OW25867   3.772   1.594   4.348  1.0586 -0.1713  0.3602
 4745SOL    HW125868   3.769   1.572   4.254  2.2291  1.6717 -0.1141
 4745SOL    HW225869   3.768   1.509   4.391  1.4479 -1.0609 -1.3559
 4746SOL     OW25870   4.438   3.545   5.504  0.0163  0.0216 -0.4626
 4746SOL    HW125871   4.403   3.506   5.424  2.5939 -0.3695 -1.3914
 4746SOL    HW225872   4.460   3.630   5.464 -0.4774 -0.3881 -1.6083
 4747SOL     OW25873   3.462   2.095  17.661 -0.1961 -0.0552  0.5152
 4747SOL    HW125874   3.511   2.166  17.702 -0.7375  1.9897 -2.4412
 4747SOL    HW225875   3.372   2.117  17.686  0.3379  1.3085  1.2249
 4748SOL     OW25876   0.975   3.412  13.875 -0.1620 -0.4227  0.0766
 4748SOL    HW125877   0.925   3.482  13.833 -0.1526 -0.4719 -0.0176
 4748SOL    HW225878   0.920   3.334  13.865  0.8491 -1.4998  2.9040
 4749SOL     OW25879   4.527   0.732  16.002  0.2816 -0.8825  0.1922
 4749SOL    HW125880   4.570   0.702  16.082  0.8091  0.4892  0.4248
 4749SOL    HW225881   4.465   0.795  16.039  0.3863 -0.3807 -0.4861
 4750SOL     OW25882   4.483   2.638   8.294 -0.2513  0.2371 -0.0594
 4750SOL    HW125883   4.403   2.679   8.260  0.3448 -0.5564 -2.4398
 4750SOL    HW225884   4.463   2.551   8.260  0.0162 -0.1046  0.6511
 4751SOL     OW25885   1.362   1.872   7.222  0.3120 -0.4625  0.1837
 4751SOL    HW125886   1.303   1.838   7.288  0.4942 -2.8207 -0.8685
 4751SOL    HW225887   1.297   1.922   7.171 -0.7201  0.5874  2.5328
 4752SOL     OW25888   2.994   3.353  15.849  0.2952  0.0425  0.4402
 4752SOL    HW125889   3.073   3.386  15.806 -0.2177 -2.2506 -2.2616
 4752SOL    HW225890   2.978   3.280  15.789  3.7138  0.3338 -0.8416
 4753SOL     OW25891   4.096   1.259   8.488 -0.1793 -0.0170 -0.1623
 4753SOL    HW125892   4.030   1.325   8.509 -1.3468 -0.6513 -1.8280
 4753SOL    HW225893   4.153   1.302   8.425  0.3215  0.6892  0.7686
 4754SOL     OW25894   2.529   2.197  10.401  0.3195  0.1652  0.6701
 4754SOL    HW125895   2.517   2.102  10.399  1.5109  0.0439 -1.6789
 4754SOL    HW225896   2.523   2.215  10.494  2.3321  0.3471  0.7819
 4755SOL     OW25897   2.238   3.496  11.549 -0.5866  0.8279 -0.2568
 4755SOL    HW125898   2.169   3.509  11.483 -0.7974  0.5458 -0.0908
 4755SOL    HW225899   2.202   3.430  11.607  1.3587  0.6732  0.7720
 4756SOL     OW25900   0.391   2.481   2.596  0.8377 -0.7021 -0.0525
 4756SOL    HW125901   0.394   2.550   2.661  0.2244  1.0813 -1.9240
 4756SOL    HW225902   0.422   2.524   2.516  3.1728 -0.5149  0.9716
 4757SOL     OW25903   1.312   1.240  17.270 -0.2505 -0.2311  0.4616
 4757SOL    HW125904   1.277   1.316  17.223  1.2723 -0.2530 -0.6986
 4757SOL    HW225905   1.231   1.202  17.303 -0.2376  0.6639  1.5356
 4758SOL     OW25906   2.634   2.710  17.007 -0.1329  0.2182 -0.0472
 4758SOL    HW125907   2.692   2.756  17.067  1.4712  1.6652 -2.7255
 4758SOL    HW225908   2.586   2.650  17.065  2.1251 -1.4179  0.1301
 4759SOL     OW25909   4.272   2.821   8.283  0.3207 -0.1912  0.3753
 4759SOL    HW125910   4.209   2.889   8.305 -1.4162 -1.6497 -0.0959
 4759SOL    HW225911   4.222   2.782   8.211 -1.8658  2.1842  0.6416
 4760SOL     OW25912   0.782   4.258   6.217 -0.4203  0.1283  0.5404
 4760SOL    HW125913   0.689   4.237   6.232 -0.1600 -0.3646  1.4119
 4760SOL    HW225914   0.821   4.222   6.296 -0.4895  1.2743  1.0914
 4761SOL     OW25915   4.511   1.936   1.238  0.0716  0.0404 -0.2476
 4761SOL    HW125916   4.442   2.002   1.230  1.1919  1.1507 -0.8011
 4761SOL    HW225917   4.593   1.982   1.219  1.0492 -2.4840 -2.1158
 4762SOL     OW25918   1.565   1.402  10.624 -0.2485  0.0396  0.2397
 4762SOL    HW125919   1.488   1.345  10.616 -1.1079  1.1482  0.5971
 4762SOL    HW225920   1.538   1.487  10.589 -1.9526 -0.8992 -0.7625
 4763SOL     OW25921   0.152   1.992  17.658 -0.0745  0.6084  0.3324
 4763SOL    HW125922   0.107   1.909  17.644 -0.4810  0.1994  4.0923
 4763SOL    HW225923   0.244   1.969  17.651 -0.5911 -0.7975 -1.7394
 4764SOL     OW25924   2.351   2.092   2.470 -0.9773  0.4777 -0.6936
 4764SOL    HW125925   2.446   2.081   2.464 -1.1359 -1.2861  0.2138
 4764SOL    HW225926   2.332   2.059   2.558  2.7662 -0.2039 -0.1410
 4765SOL     OW25927   1.383   3.467   5.502 -0.1016 -0.9512  0.1359
 4765SOL    HW125928   1.422   3.401   5.444  0.5959 -0.6127  0.2251
 4765SOL    HW225929   1.430   3.455   5.584 -1.1608  0.5938  0.9607
 4766SOL     OW25930   2.625   2.226   6.392 -0.3114 -0.0514 -0.0405
 4766SOL    HW125931   2.625   2.321   6.392 -1.4117 -0.0504 -0.2935
 4766SOL    HW225932   2.694   2.198   6.333  0.8351  1.6167  0.5388
 4767SOL     OW25933   1.830   2.901   7.349 -0.0879 -0.1144  0.1850
 4767SOL    HW125934   1.836   2.807   7.364  0.2725 -0.3300 -1.3678
 4767SOL    HW225935   1.839   2.934   7.438  0.7436 -1.0312  0.4383
 4768SOL     OW25936   0.745   1.517   6.988 -0.4908  0.3350  0.4667
 4768SOL    HW125937   0.779   1.429   6.969  1.1859  0.7738  1.4621
 4768SOL    HW225938   0.763   1.518   7.082 -0.5768 -1.9114  0.5241
 4769SOL     OW25939   1.569   1.039   8.155 -0.5223  0.0443 -0.0836
 4769SOL    HW125940   1.617   1.091   8.091 -1.6817 -1.2374 -1.9829
 4769SOL    HW225941   1.605   1.076   8.237 -1.6178  1.6574 -0.3272
 4770SOL     OW25942   3.227   2.574   2.443 -0.3653  0.4501  0.0785
 4770SOL    HW125943   3.299   2.619   2.488 -0.7629  0.5231  0.6388
 4770SOL    HW225944   3.222   2.620   2.359  3.1865 -2.6494 -1.8696
 4771SOL     OW25945   2.243   4.100   3.012 -0.2431 -0.2850  0.0831
 4771SOL    HW125946   2.231   4.024   2.955 -1.2113 -0.3791  0.4125
 4771SOL    HW225947   2.339   4.105   3.013 -0.3126  1.3598 -2.1989
 4772SOL     OW25948   2.982   0.690   4.068 -0.2423  0.3668  0.2433
 4772SOL    HW125949   3.027   0.769   4.099  0.0240  0.3195 -0.0265
 4772SOL    HW225950   2.908   0.728   4.020  0.8961  1.6410 -0.4962
 4773SOL     OW25951   4.194   0.704   8.773  0.3932 -0.0757 -0.7582
 4773SOL    HW125952   4.167   0.617   8.804 -1.6876 -0.4068 -3.4713
 4773SOL    HW225953   4.278   0.721   8.817  0.5254 -2.2303 -0.1463
 4774SOL     OW25954   1.025   1.765   9.158  0.0309  0.1947 -0.3855
 4774SOL    HW125955   1.084   1.835   9.129  2.9659 -2.4654 -0.8805
 4774SOL    HW225956   0.986   1.736   9.076  0.8669 -1.6575 -0.1250
 4775SOL     OW25957   1.702   3.781   6.390 -0.4594  0.1691  0.0597
 4775SOL    HW125958   1.625   3.807   6.440 -1.5786  2.4586 -2.8870
 4775SOL    HW225959   1.734   3.712   6.448 -0.5377  1.7519  1.9963
 4776SOL     OW25960   0.821   0.660  12.608 -0.5231  0.8783  0.1742
 4776SOL    HW125961   0.848   0.596  12.673 -1.6667 -2.0511 -2.2688
 4776SOL    HW225962   0.781   0.598  12.548  1.7845 -0.6219  0.1700
 4777SOL     OW25963   2.089   1.395   9.416 -0.2285  0.4754  0.3843
 4777SOL    HW125964   2.112   1.366   9.504  2.0490  0.4218 -0.2058
 4777SOL    HW225965   2.061   1.307   9.390 -2.9662  1.3747  0.2876
 4778SOL     OW25966   1.306   0.783   8.272  0.2362  0.3502  0.3736
 4778SOL    HW125967   1.296   0.736   8.190 -0.2104  1.0117  0.0508
 4778SOL    HW225968   1.364   0.723   8.319 -0.3213 -0.2963  0.2237
 4779SOL     OW25969   2.367   2.903   7.388 -0.1922 -0.1588 -0.1466
 4779SOL    HW125970   2.301   2.966   7.414  1.4640  1.4728  0.0902
 4779SOL    HW225971   2.346   2.905   7.295  0.6509  0.8013 -0.3193
 4780SOL     OW25972   3.707   0.131   6.195 -0.2121  0.0994  0.0390
 4780SOL    HW125973   3.646   0.090   6.133  1.1700 -3.6734  1.1985
 4780SOL    HW225974   3.757   0.194   6.143 -0.9559  0.8812  0.2694
 4781SOL     OW25975   3.821   0.264   5.965  0.2017 -0.1858 -0.1978
 4781SOL    HW125976   3.820   0.344   5.912  3.5956 -0.1239 -0.1321
 4781SOL    HW225977   3.914   0.244   5.970  0.2771  0.8165  2.7374
 4782SOL     OW25978   4.289   3.323   1.089 -0.6182  0.2677 -0.3847
 4782SOL    HW125979   4.242   3.405   1.076 -1.6936  0.0915  2.4080
 4782SOL    HW225980   4.233   3.268   1.144  0.8968 -0.4674  0.4171
 4783SOL     OW25981   4.698   0.770   2.421 -0.3322 -0.3854 -0.0648
 4783SOL    HW125982   0.037   0.828   2.422 -0.2106 -0.5117 -1.3657
 4783SOL    HW225983   4.705   0.717   2.500 -0.3522 -2.4130 -1.4151
 4784SOL     OW25984   3.268   1.739  13.110  0.2446  0.2476  0.6114
 4784SOL    HW125985   3.197   1.786  13.153  0.6234  2.6419 -1.4215
 4784SOL    HW225986   3.345   1.789  13.137 -0.8650  1.5844  1.2790
 4785SOL     OW25987   0.594   2.590   3.000  0.4719 -0.1405 -0.6074
 4785SOL    HW125988   0.523   2.595   3.064  0.0891 -1.5009 -0.9268
 4785SOL    HW225989   0.670   2.630   3.041  1.3163  0.3412 -2.6389
 4786SOL     OW25990   0.724   3.436   2.089 -0.0679  0.4161 -0.6926
 4786SOL    HW125991   0.688   3.353   2.057  0.1081  0.6001 -1.3755
 4786SOL    HW225992   0.644   3.489   2.093 -1.3110 -1.3606 -1.7586
 4787SOL     OW25993   3.081   1.659   7.056  0.2933 -0.4921 -0.8712
 4787SOL    HW125994   3.157   1.705   7.092  0.2362 -0.9007 -0.2444
 4787SOL    HW225995   3.040   1.626   7.136 -0.8053 -2.4047 -2.2164
 4788SOL     OW25996   0.022   2.031   9.314  0.3836 -0.0816 -0.2000
 4788SOL    HW125997   0.056   1.943   9.332 -0.6639 -0.7503 -1.4689
 4788SOL    HW225998   4.708   2.021   9.234 -0.9953  2.0879  0.4140
 4789SOL     OW25999   4.063   0.094   2.127  0.2170  0.7134  0.2986
 4789SOL    HW126000   3.978   0.055   2.146  0.4261  0.5555  0.8918
 4789SOL    HW226001   4.118   0.054   2.194  0.1181  0.9834  0.5394
 4790SOL     OW26002   1.177   1.008   8.317  0.2610 -0.5468  0.3282
 4790SOL    HW126003   1.227   0.932   8.288  0.0490 -1.5019  2.4017
 4790SOL    HW226004   1.133   0.959   8.387  1.0432  1.3588  2.1493
 4791SOL     OW26005   0.032   3.994   4.042 -0.0348 -0.0340 -0.0909
 4791SOL    HW126006   4.716   4.010   4.120  0.6550  2.5915 -0.1549
 4791SOL    HW226007   0.095   3.929   4.073 -0.6485  0.0868  1.4105
 4792SOL     OW26008   1.794   0.143  10.690 -0.2965  0.3814  0.2048
 4792SOL    HW126009   1.857   0.215  10.685  1.6203 -1.4181 -1.3177
 4792SOL    HW226010   1.721   0.180  10.641  0.1134  0.5304 -0.2961
 4793SOL     OW26011   4.503   0.362  16.635 -0.9070 -0.7521  0.2808
 4793SOL    HW126012   4.563   0.336  16.704  1.5867  1.6166 -1.0353
 4793SOL    HW226013   4.460   0.444  16.657  1.5080  1.0487 -1.7279
 4794SOL     OW26014   0.937   0.701   8.989 -0.3333  0.1346 -0.3282
 4794SOL    HW126015   1.028   0.727   8.971  0.3869 -1.3727  1.1189
 4794SOL    HW226016   0.926   0.706   8.894 -1.5356 -1.4637 -0.2569
 4795SOL     OW26017   0.751   2.964   9.140 -0.0303  0.0777 -0.5920
 4795SOL    HW126018   0.846   2.952   9.138 -0.5003 -3.5128 -0.9120
 4795SOL    HW226019   0.728   2.958   9.233  2.6208 -0.4874  0.0347
 4796SOL     OW26020   4.198   2.985   4.024 -0.2063  0.4353 -0.9036
 4796SOL    HW126021   4.125   2.947   3.976 -0.6590 -0.8156  0.7839
 4796SOL    HW226022   4.224   3.055   3.964  0.7765  2.0339  1.3554
 4797SOL     OW26023   4.328   2.920   1.045 -0.4200  0.0531 -0.0444
 4797SOL    HW126024   4.422   2.909   1.056 -0.7590 -3.3045 -0.4865
 4797SOL    HW226025   4.292   2.882   1.125  0.3829  0.8980  0.7120
 4798SOL     OW26026   3.887   1.569  16.122 -0.2269 -0.8622 -0.4254
 4798SOL    HW126027   3.928   1.655  16.126 -1.6883 -0.1785 -0.1963
 4798SOL    HW226028   3.865   1.561  16.029 -0.1821 -0.5546 -0.4609
 4799SOL     OW26029   2.277   0.413  12.345  0.1395 -0.2408 -0.3514
 4799SOL    HW126030   2.258   0.319  12.343  0.5186 -0.3239 -0.1006
 4799SOL    HW226031   2.256   0.441  12.256 -0.1581 -0.0563 -0.2254
 4800SOL     OW26032   4.021   2.048   7.231 -0.2857 -0.0006  0.4818
 4800SOL    HW126033   3.990   2.130   7.192 -3.4467 -1.3842  0.0552
 4800SOL    HW226034   4.087   2.018   7.169 -0.5912  1.3199 -0.4893
 4801SOL     OW26035   3.909   1.858  15.658 -0.6348  0.5462  0.1565
 4801SOL    HW126036   3.966   1.934  15.666  0.9437 -0.7055  0.5274
 4801SOL    HW226037   3.829   1.884  15.704 -0.7941  2.9739 -1.4608
 4802SOL     OW26038   2.538   0.272   8.581  0.1797 -0.0484  0.1499
 4802SOL    HW126039   2.592   0.201   8.547 -2.9813 -1.6748 -1.4179
 4802SOL    HW226040   2.557   0.267   8.675  1.7643  1.7746 -0.0605
 4803SOL     OW26041   4.452   4.318   1.417 -0.0422  0.0216 -0.9315
 4803SOL    HW126042   4.371   4.267   1.412 -0.0951  0.1948 -1.9434
 4803SOL    HW226043   4.527   4.259   1.423  0.8986  1.2319 -0.7608
 4804SOL     OW26044   1.126   4.626   7.278  0.1624 -0.6856 -0.0799
 4804SOL    HW126045   1.049   4.670   7.313 -0.6960 -2.1559 -0.1342
 4804SOL    HW226046   1.162   4.585   7.357 -0.9666  0.4431  1.0156
 4805SOL     OW26047   0.467   3.281   5.317  0.4037  0.1945  0.4002
 4805SOL    HW126048   0.535   3.263   5.382  2.1975  2.1874 -0.9124
 4805SOL    HW226049   0.521   3.258   5.242 -1.4900 -2.4972 -0.1484
 4806SOL     OW26050   3.025   3.978   9.440  0.0329 -0.3443  0.2976
 4806SOL    HW126051   3.001   3.985   9.347  0.0966 -1.6820  0.1879
 4806SOL    HW226052   2.937   3.980   9.477  0.1329 -0.3616  0.5351
 4807SOL     OW26053   3.122   0.080  11.281  0.0722  0.1906  0.4447
 4807SOL    HW126054   3.214   0.069  11.305 -0.2650  1.1182  2.1594
 4807SOL    HW226055   3.088   4.728  11.279 -4.0749  1.8242 -0.6458
 4808SOL     OW26056   2.431   3.375   6.815 -0.4666 -0.5131  0.4012
 4808SOL    HW126057   2.375   3.310   6.773  0.4913  0.1092 -1.8295
 4808SOL    HW226058   2.373   3.432   6.866 -0.4605  0.0603 -0.2353
 4809SOL     OW26059   3.761   4.340  14.991 -0.2069 -0.2072  0.0952
 4809SOL    HW126060   3.734   4.432  14.997  0.0082 -0.1371  0.0085
 4809SOL    HW226061   3.692   4.308  14.933  0.4684  0.6838 -1.2005
 4810SOL     OW26062   4.498   1.038   4.965  0.0456 -0.0022  0.0943
 4810SOL    HW126063   4.453   1.111   4.924  1.8331  2.0480  1.8138
 4810SOL    HW226064   4.557   1.015   4.893  0.2087 -3.6260  1.3356
 4811SOL     OW26065   3.730   4.502   5.916 -0.0906  0.3895 -0.4042
 4811SOL    HW126066   3.702   4.585   5.876  0.7400  1.3150  0.9476
 4811SOL    HW226067   3.650   4.450   5.916  0.0927  0.1220  0.6536
 4812SOL     OW26068   1.931   1.820   9.043  0.3764  0.1822 -0.2823
 4812SOL    HW126069   1.966   1.731   9.035  1.6192  0.6003  0.4569
 4812SOL    HW226070   1.918   1.844   8.952 -2.0883  0.3596  0.1177
 4813SOL     OW26071   1.893   4.192   2.384 -0.2628 -0.3998 -0.0733
 4813SOL    HW126072   1.916   4.230   2.468  0.2655  1.7411 -1.1949
 4813SOL    HW226073   1.971   4.143   2.358  1.7301  2.7103  0.0469
 4814SOL     OW26074   3.119   2.808   9.027  0.1613  0.6754 -0.9773
 4814SOL    HW126075   3.143   2.900   9.037  0.0999  0.5456  0.3495
 4814SOL    HW226076   3.145   2.770   9.111 -1.3463  0.1947 -0.7208
 4815SOL     OW26077   4.559   2.362  17.662 -0.3808  0.8281 -0.0808
 4815SOL    HW126078   4.643   2.334  17.698 -0.2522  0.6905 -0.4891
 4815SOL    HW226079   4.581   2.451  17.633  3.1502  0.1506  0.4749
 4816SOL     OW26080   0.316   2.012   3.946 -0.4244 -0.2069 -0.1685
 4816SOL    HW126081   0.375   2.004   3.872  1.0218  0.8569  0.8787
 4816SOL    HW226082   0.383   1.979   4.006 -0.1028  0.9829  0.1073
 4817SOL     OW26083   4.094   3.526  14.406  0.0022  0.0779  0.3247
 4817SOL    HW126084   4.075   3.574  14.487  0.2373 -2.9118  2.1883
 4817SOL    HW226085   4.100   3.600  14.346 -0.2106 -0.7928 -0.7588
 4818SOL     OW26086   3.482   3.401   4.930 -0.2565  0.1503  0.3451
 4818SOL    HW126087   3.506   3.324   4.982 -0.6843  0.5855  1.1880
 4818SOL    HW226088   3.507   3.473   4.988  0.3312  1.6247 -1.7622
 4819SOL     OW26089   4.702   4.210   4.753 -0.3226  0.0606  0.1502
 4819SOL    HW126090   0.058   4.203   4.732 -0.2643 -0.7671  0.6502
 4819SOL    HW226091   4.691   4.304   4.767 -1.1560  0.4474 -3.2789
 4820SOL     OW26092   3.476   2.864   1.871 -0.0723 -0.1801 -0.2039
 4820SOL    HW126093   3.513   2.920   1.939  0.2027 -0.8667  0.2082
 4820SOL    HW226094   3.484   2.785   1.925 -0.4302  1.0058  1.5728
 4821SOL     OW26095   0.158   2.409   8.768 -0.2296  0.2026  0.0612
 4821SOL    HW126096   0.112   2.329   8.792 -0.2395  0.4215  0.7665
 4821SOL    HW226097   0.218   2.409   8.842  0.7651  0.4153 -0.7528
 4822SOL     OW26098   0.099   3.484   4.597 -0.5568  0.3742 -0.4449
 4822SOL    HW126099   0.098   3.572   4.634  0.6484  0.1699  0.0721
 4822SOL    HW226100   0.098   3.438   4.682 -0.0287  3.3634  1.1858
 4823SOL     OW26101   0.269   4.523   2.836  0.1595 -0.0429 -0.2417
 4823SOL    HW126102   0.232   4.451   2.784 -3.1044  0.7642  0.9305
 4823SOL    HW226103   0.189   4.569   2.862 -0.4871 -1.5229  0.4201
 4824SOL     OW26104   3.137   1.823  16.552 -0.7859 -0.2083  0.3591
 4824SOL    HW126105   3.165   1.732  16.541 -0.2547  0.3428 -2.7439
 4824SOL    HW226106   3.050   1.835  16.514 -0.7717  1.4450  0.8246
 4825SOL     OW26107   2.140   0.945  13.929 -0.0384 -0.5767  0.1467
 4825SOL    HW126108   2.196   0.939  14.006 -0.5730 -1.1219  0.4943
 4825SOL    HW226109   2.127   1.039  13.921  0.4134 -0.3459  2.2712
 4826SOL     OW26110   1.944   4.025   4.438  0.6646  0.5768 -0.4877
 4826SOL    HW126111   2.010   3.965   4.403  1.3915  0.1613  1.5813
 4826SOL    HW226112   1.986   4.108   4.415 -1.5412  1.5607 -0.9613
 4827SOL     OW26113   3.750   4.563  10.126  0.6981 -0.1647 -0.0161
 4827SOL    HW126114   3.657   4.578  10.113  0.9824  0.0801 -1.7721
 4827SOL    HW226115   3.762   4.538  10.034 -0.9938 -0.1137 -0.2407
 4828SOL     OW26116   0.215   2.797   4.206 -0.8100  0.6449  0.4180
 4828SOL    HW126117   0.148   2.753   4.153 -1.2299 -0.3201  1.7641
 4828SOL    HW226118   0.167   2.788   4.288 -0.9873 -1.0878  0.1311
 4829SOL     OW26119   0.846   1.124   2.613  0.1004  0.0348  0.1376
 4829SOL    HW126120   0.819   1.214   2.634 -0.3546 -0.4294  1.5392
 4829SOL    HW226121   0.917   1.119   2.677  1.3882  3.3585 -1.0097
 4830SOL     OW26122   4.170   3.899   5.335 -0.3692 -0.7279  0.1489
 4830SOL    HW126123   4.145   3.809   5.355  0.5371 -1.0227 -0.0257
 4830SOL    HW226124   4.119   3.910   5.255  1.1457 -1.8896 -0.9774
 4831SOL     OW26125   0.874   4.103   3.760  0.5099 -0.1284  0.3225
 4831SOL    HW126126   0.857   4.107   3.854 -0.1556 -1.7447  0.2782
 4831SOL    HW226127   0.959   4.146   3.765  0.8640 -0.7382 -0.3478
 4832SOL     OW26128   3.646   4.737   7.835 -0.0887  0.0906  0.4567
 4832SOL    HW126129   3.693   4.723   7.917  0.4578  0.2823  0.1705
 4832SOL    HW226130   3.637   4.647   7.802 -1.8427  1.9244 -4.0183
 4833SOL     OW26131   1.533   2.906   5.267 -0.2374 -0.5331 -0.5660
 4833SOL    HW126132   1.614   2.895   5.217  0.6010  0.3718  0.5661
 4833SOL    HW226133   1.472   2.881   5.198 -0.0813  0.8681 -1.2250
 4834SOL     OW26134   0.088   4.533  12.200 -0.0870  0.0179  0.2574
 4834SOL    HW126135   0.108   4.486  12.120  1.8581 -0.9609  1.3246
 4834SOL    HW226136   0.032   4.468  12.242  1.2328 -1.6524 -0.6018
 4835SOL     OW26137   2.689   3.769   6.407 -0.0179 -0.5032 -0.0962
 4835SOL    HW126138   2.704   3.677   6.427 -1.4617 -1.3072 -2.6516
 4835SOL    HW226139   2.643   3.790   6.488  2.8900  0.5226  1.2685
 4836SOL     OW26140   2.269   1.758  16.485 -0.2298  0.2343 -0.4972
 4836SOL    HW126141   2.274   1.805  16.402 -0.7239  0.0651 -0.6274
 4836SOL    HW226142   2.354   1.714  16.476 -0.8268 -1.3641  1.6142
 4837SOL     OW26143   2.102   4.135  17.139 -0.1331  0.2298  0.0930
 4837SOL    HW126144   2.038   4.078  17.182  2.3205 -2.1786  0.5253
 4837SOL    HW226145   2.056   4.145  17.055 -1.4337  0.9259  0.8895
 4838SOL     OW26146   3.242   0.608   0.017 -0.1796  0.7632  0.6514
 4838SOL    HW126147   3.278   0.696   0.028 -0.6061  1.0380 -0.1700
 4838SOL    HW226148   3.314   0.554  17.731  0.9521  3.6370 -1.5533
 4839SOL     OW26149   0.265   1.633   5.637 -0.1586  0.5371 -0.3526
 4839SOL    HW126150   0.212   1.613   5.561  0.6750  0.5368 -0.9331
 4839SOL    HW226151   0.221   1.712   5.671 -1.4541 -0.4454  0.2590
 4840SOL     OW26152   3.408   0.166   2.938  0.7371 -0.1983 -0.0198
 4840SOL    HW126153   3.441   0.253   2.961 -0.4375  0.3597 -0.4356
 4840SOL    HW226154   3.337   0.156   3.002  2.2587 -1.3935  1.4763
 4841SOL     OW26155   1.375   2.783   0.329 -0.7758 -0.0175  0.1474
 4841SOL    HW126156   1.407   2.715   0.270 -1.2119 -1.7926  1.9148
 4841SOL    HW226157   1.384   2.750   0.419  0.3083  0.8659  0.3523
 4842SOL     OW26158   3.284   4.043   2.318  0.1926  0.4432  0.8042
 4842SOL    HW126159   3.255   3.953   2.305  0.1928  0.4075  1.0467
 4842SOL    HW226160   3.240   4.099   2.255 -2.1305 -0.7591  1.3553
 4843SOL     OW26161   3.761   0.494   5.074  0.0937  0.3019 -0.0324
 4843SOL    HW126162   3.685   0.472   5.020  0.8296  1.0524 -1.3558
 4843SOL    HW226163   3.746   0.442   5.153 -0.3334  1.0131  0.3558
 4844SOL     OW26164   3.682   1.583  15.870  0.0686  0.2252 -0.0157
 4844SOL    HW126165   3.740   1.656  15.852 -2.0538  1.3758 -2.1991
 4844SOL    HW226166   3.594   1.621  15.877 -0.1836 -1.0263  3.5567
 4845SOL     OW26167   0.401   3.624  17.419 -0.7103 -0.5775  0.4718
 4845SOL    HW126168   0.393   3.580  17.504  0.7163  1.1437  1.4928
 4845SOL    HW226169   0.349   3.568  17.360  1.1095 -0.7479 -0.9654
 4846SOL     OW26170   2.504   0.787  11.895 -0.7316 -0.2616 -0.5216
 4846SOL    HW126171   2.525   0.747  11.810  0.8171 -1.5802  0.4963
 4846SOL    HW226172   2.531   0.876  11.871 -1.0982  0.3683  1.4747
 4847SOL     OW26173   3.004   0.245   8.060  0.4210 -0.2790  0.9094
 4847SOL    HW126174   2.955   0.169   8.090 -0.0871 -0.9361 -1.5131
 4847SOL    HW226175   2.940   0.316   8.048 -0.4853 -1.5712 -2.0365
 4848SOL     OW26176   4.369   4.022   5.215  0.0510 -0.2826  0.1803
 4848SOL    HW126177   4.318   3.949   5.251 -2.9872  1.4688 -0.6014
 4848SOL    HW226178   4.316   4.090   5.255  1.4633 -0.0631  1.6977
 4849SOL     OW26179   1.605   1.484   2.124  0.4765  0.0111 -0.1629
 4849SOL    HW126180   1.643   1.538   2.194 -1.9413 -0.5695  1.5660
 4849SOL    HW226181   1.681   1.478   2.066 -0.0024 -2.5599 -0.5184
 4850SOL     OW26182   2.288   2.407   6.712 -0.2235 -0.2980  0.4358
 4850SOL    HW126183   2.382   2.397   6.728  0.1392 -0.3480 -1.6970
 4850SOL    HW226184   2.250   2.347   6.776 -1.8837  2.6984  2.2726
 4851SOL     OW26185   0.032   3.273   7.322 -0.0071  0.3654 -0.1697
 4851SOL    HW126186   4.700   3.332   7.353  0.3385  1.7477 -2.0181
 4851SOL    HW226187   0.100   3.336   7.300  1.3577 -1.0551  0.0216
 4852SOL     OW26188   1.652   0.321  12.404 -0.0085 -0.6121  0.0312
 4852SOL    HW126189   1.583   0.305  12.468  0.4982 -2.6188  0.0648
 4852SOL    HW226190   1.735   0.278  12.427  1.2659  2.5364  1.3961
 4853SOL     OW26191   3.072   2.268   1.215 -0.6700 -0.5840  0.5066
 4853SOL    HW126192   3.131   2.335   1.250 -0.7177  0.2074 -0.8917
 4853SOL    HW226193   3.094   2.189   1.263 -3.1540 -1.5956 -0.0167
 4854SOL     OW26194   0.623   1.831  11.600  0.7345  0.4666  0.3005
 4854SOL    HW126195   0.658   1.777  11.671  1.1167 -0.4845 -0.6101
 4854SOL    HW226196   0.697   1.819  11.540 -0.0587  0.2450 -0.6423
 4855SOL     OW26197   0.581   0.449   7.550 -0.3590 -0.0338 -0.0434
 4855SOL    HW126198   0.604   0.478   7.638  0.9766 -2.6287  0.4734
 4855SOL    HW226199   0.656   0.494   7.511 -0.8964  0.2320 -0.7885
 4856SOL     OW26200   2.166   1.474   4.042 -0.4928  0.0505  0.7278
 4856SOL    HW126201   2.225   1.415   4.088 -0.3102 -0.6806 -0.4392
 4856SOL    HW226202   2.116   1.413   3.987 -0.6139  0.5346  0.3023
 4857SOL     OW26203   3.979   0.387  14.058  0.0083 -0.1520  0.0986
 4857SOL    HW126204   4.007   0.326  14.127  1.9331 -0.9076 -1.3421
 4857SOL    HW226205   3.953   0.325  13.990 -0.0406 -0.8747  0.7761
 4858SOL     OW26206   0.438   1.588   2.104  0.1642 -0.0779 -0.0537
 4858SOL    HW126207   0.385   1.646   2.049 -0.8841 -0.3953  0.6182
 4858SOL    HW226208   0.509   1.571   2.042  1.4876  0.2835  1.3652
 4859SOL     OW26209   2.168   2.644   1.268 -0.0958  0.0008 -0.0649
 4859SOL    HW126210   2.160   2.553   1.240 -2.2825 -0.5950  2.4839
 4859SOL    HW226211   2.154   2.636   1.363  1.7215 -1.6096  0.0740
 4860SOL     OW26212   2.289   1.035   8.509  0.2976  0.9011  0.0311
 4860SOL    HW126213   2.319   0.994   8.590  1.0977  4.7566  1.6608
 4860SOL    HW226214   2.226   1.101   8.537 -0.6527 -0.5290  1.2069
 4861SOL     OW26215   2.648   1.078  12.185 -0.3401  0.0405 -0.1201
 4861SOL    HW126216   2.677   1.066  12.094  0.4006 -0.3122  0.1595
 4861SOL    HW226217   2.572   1.136  12.179 -0.5609 -0.3935 -1.4889
 4862SOL     OW26218   3.290   3.006   8.088 -0.2894  0.0882  0.7955
 4862SOL    HW126219   3.203   3.044   8.073 -1.2567 -1.2493  2.8954
 4862SOL    HW226220   3.260   2.915   8.077  1.2994 -0.5854  2.0312
 4863SOL     OW26221   1.971   1.308  11.366 -0.4160  0.5653 -0.2583
 4863SOL    HW126222   1.961   1.256  11.287 -1.7408  2.7230 -1.4943
 4863SOL    HW226223   1.915   1.254  11.422  0.8733 -0.8948 -0.3663
 4864SOL     OW26224   1.679   1.573  10.849  0.3236  0.5937  0.3303
 4864SOL    HW126225   1.588   1.600  10.838 -0.8700 -3.2510  0.8858
 4864SOL    HW226226   1.704   1.553  10.759  2.3431  0.8201  0.8338
 4865SOL     OW26227   1.768   1.232  16.448 -0.3047  0.0874  0.3790
 4865SOL    HW126228   1.775   1.231  16.544  0.0681  1.3699  0.3688
 4865SOL    HW226229   1.815   1.153  16.423 -0.5598  0.2972 -0.7466
 4866SOL     OW26230   1.505   2.271  11.304 -0.0419 -0.0841  0.1465
 4866SOL    HW126231   1.415   2.254  11.276  0.5738 -1.5308 -0.9074
 4866SOL    HW226232   1.552   2.240  11.227 -0.4152 -0.1646 -0.0503
 4867SOL     OW26233   0.869   1.211   4.465  0.3986  0.0312 -0.1765
 4867SOL    HW126234   0.851   1.236   4.374  0.4610 -0.9853 -0.4705
 4867SOL    HW226235   0.826   1.125   4.471  0.6379 -0.1403 -0.9731
 4868SOL     OW26236   2.517   2.469   5.357  0.0853 -0.0180 -0.8470
 4868SOL    HW126237   2.460   2.427   5.421  3.9062 -1.1704  1.8201
 4868SOL    HW226238   2.469   2.451   5.277  0.9064  1.0432 -1.5789
 4869SOL     OW26239   2.871   0.339  16.007 -0.3742  0.3108  0.0303
 4869SOL    HW126240   2.894   0.414  16.062 -0.4412 -0.8755  1.6561
 4869SOL    HW226241   2.778   0.335  16.030  0.1499  2.5093  2.5720
 4870SOL     OW26242   3.965   1.529   5.848  0.2675  0.3625  0.2035
 4870SOL    HW126243   3.873   1.544   5.868  0.3530  1.7173 -0.4194
 4870SOL    HW226244   3.990   1.609   5.803  0.6170 -0.5047 -1.1703
 4871SOL     OW26245   3.675   1.266   3.200 -0.3055  0.8016  0.0712
 4871SOL    HW126246   3.680   1.311   3.284  1.2105 -0.7691  0.8436
 4871SOL    HW226247   3.584   1.282   3.175  0.0337  0.8633 -1.1163
 4872SOL     OW26248   4.283   3.249   2.657  0.1189 -0.0651  0.4784
 4872SOL    HW126249   4.237   3.183   2.708 -1.3915  0.1973 -0.5334
 4872SOL    HW226250   4.215   3.316   2.648  0.1555 -0.1578 -0.4553
 4873SOL     OW26251   3.689   3.789   8.721 -0.1477 -0.3966  0.3306
 4873SOL    HW126252   3.738   3.770   8.641 -1.3302 -0.7291 -0.3302
 4873SOL    HW226253   3.737   3.865   8.753  1.1443 -0.8936 -0.4313
 4874SOL     OW26254   0.297   2.285   7.828  0.0570  0.1857 -0.1472
 4874SOL    HW126255   0.309   2.352   7.760 -1.6455  1.4866  0.8495
 4874SOL    HW226256   0.224   2.322   7.878 -1.6219  0.0588 -2.4948
 4875SOL     OW26257   3.639   0.948  15.442  0.0342 -0.3177 -0.1231
 4875SOL    HW126258   3.573   1.009  15.411  0.2223 -1.3925 -2.6750
 4875SOL    HW226259   3.707   0.954  15.374 -0.9718 -0.2586 -1.1182
 4876SOL     OW26260   3.571   0.608   9.791 -0.7278  0.0173 -0.0565
 4876SOL    HW126261   3.528   0.527   9.761  1.3838 -1.4271  0.7829
 4876SOL    HW226262   3.496   0.662   9.815  0.9611  1.4290  2.0197
 4877SOL     OW26263   4.209   4.501   8.152  0.0293 -0.2101 -0.1380
 4877SOL    HW126264   4.210   4.591   8.182 -2.7578 -0.0263 -0.6052
 4877SOL    HW226265   4.114   4.488   8.146 -0.3336  1.3648  2.3877
 4878SOL     OW26266   4.309   4.079   4.777  0.1625 -0.1012 -0.2434
 4878SOL    HW126267   4.333   4.155   4.724  0.6129 -0.7147 -0.9144
 4878SOL    HW226268   4.260   4.120   4.848  0.7553  3.0892 -1.6935
 4879SOL     OW26269   0.863   2.950   3.543 -0.7387 -0.6497  0.1479
 4879SOL    HW126270   0.850   2.870   3.594  0.5390  0.7975  2.7290
 4879SOL    HW226271   0.796   2.918   3.483 -0.5859  0.0812 -0.4039
 4880SOL     OW26272   0.809   1.722  17.580 -0.0280 -0.0885  0.2548
 4880SOL    HW126273   0.779   1.733  17.490 -0.9686 -1.4323  0.4128
 4880SOL    HW226274   0.841   1.632  17.584 -1.2208 -0.6463 -3.2808
 4881SOL     OW26275   3.159   2.001   8.217  0.1728 -0.5046  0.5228
 4881SOL    HW126276   3.093   1.932   8.215 -1.5670  1.1589 -0.0053
 4881SOL    HW226277   3.114   2.075   8.258  2.0105  0.8074  0.1686
 4882SOL     OW26278   1.210   0.138   7.998 -0.0861 -0.0871 -0.0477
 4882SOL    HW126279   1.174   0.187   8.072 -0.1797 -0.8771  0.4315
 4882SOL    HW226280   1.132   0.092   7.967  0.5633 -0.9395 -0.4272
 4883SOL     OW26281   4.011   2.319  11.930 -0.4222  0.0724 -0.3559
 4883SOL    HW126282   4.084   2.335  11.870 -0.5775  0.7826 -0.3470
 4883SOL    HW226283   3.957   2.253  11.886  0.4086  0.0600 -1.3624
 4884SOL     OW26284   1.726   3.670   7.817 -0.1269  0.8343 -0.2930
 4884SOL    HW126285   1.819   3.670   7.794  1.0396 -1.1333  4.4483
 4884SOL    HW226286   1.691   3.736   7.758  0.2584  2.3197  1.1565
 4885SOL     OW26287   0.712   4.656   9.037  0.4330 -0.4808 -0.3528
 4885SOL    HW126288   0.783   4.712   9.068 -0.4607 -0.4656  1.6480
 4885SOL    HW226289   0.654   4.656   9.113  0.3634  2.9142 -0.4230
 4886SOL     OW26290   0.465   3.220   8.709  0.2136  0.4868  0.1618
 4886SOL    HW126291   0.441   3.130   8.687  0.4872  0.6507 -0.7786
 4886SOL    HW226292   0.490   3.261   8.627 -0.3252 -2.2559 -1.3621
 4887SOL     OW26293   4.113   4.394   7.901 -0.1529  0.2037 -0.1648
 4887SOL    HW126294   4.158   4.309   7.905 -0.3259  0.1989  1.5837
 4887SOL    HW226295   4.145   4.437   7.980  1.8653  0.4337 -1.1022
 4888SOL     OW26296   3.288   1.916  15.332 -0.2954 -0.3324  0.1397
 4888SOL    HW126297   3.250   1.858  15.398 -0.0315  0.5312  1.0446
 4888SOL    HW226298   3.214   1.956  15.287  1.5261  1.5922 -1.1123
 4889SOL     OW26299   1.155   0.140   6.725 -0.6338  0.3116  0.2261
 4889SOL    HW126300   1.102   0.134   6.646 -0.3417 -2.8857  0.2764
 4889SOL    HW226301   1.121   0.217   6.772 -0.0930  0.8147 -0.2027
 4890SOL     OW26302   4.607   0.885   4.170  0.4520 -0.0842 -0.0399
 4890SOL    HW126303   4.661   0.892   4.091 -1.0149  1.1519 -0.9349
 4890SOL    HW226304   4.679   0.884   4.233 -0.1815  0.1114  0.6796
 4891SOL     OW26305   2.063   3.531   7.925  0.0125  0.1944 -0.4235
 4891SOL    HW126306   2.155   3.512   7.947  0.0640 -1.1373 -1.7526
 4891SOL    HW226307   2.055   3.618   7.964 -2.2202 -0.0768 -0.2779
 4892SOL     OW26308   2.569   4.029   1.619  0.0808 -0.2656  0.0036
 4892SOL    HW126309   2.500   3.973   1.655 -1.4079  1.0236 -0.8123
 4892SOL    HW226310   2.635   4.001   1.682 -1.3634 -1.0012  1.1973
 4893SOL     OW26311   2.014   4.332   6.505 -0.0449  0.2447 -0.5142
 4893SOL    HW126312   2.015   4.323   6.410 -0.8357 -2.6134 -0.2650
 4893SOL    HW226313   2.069   4.256   6.526  1.2286  1.5525  0.9366
 4894SOL     OW26314   3.531   4.340   2.523  0.3397  0.4612  0.1064
 4894SOL    HW126315   3.576   4.390   2.591 -0.2917  0.9678  0.1434
 4894SOL    HW226316   3.526   4.258   2.572 -4.1385 -0.2032 -1.4987
 4895SOL     OW26317   4.565   1.226  17.155 -0.0335  0.0211 -0.7013
 4895SOL    HW126318   4.490   1.277  17.125  1.0529  0.0731 -3.3390
 4895SOL    HW226319   4.601   1.278  17.226 -0.8126 -2.2447  1.3678
 4896SOL     OW26320   3.043   4.521   8.096 -0.0725 -0.1130 -0.4099
 4896SOL    HW126321   3.054   4.565   8.181 -0.5911 -0.1872 -0.3031
 4896SOL    HW226322   2.951   4.495   8.097 -0.2375  0.4628 -1.7452
 4897SOL     OW26323   4.267   1.959   4.595  0.1453  0.3199  0.1436
 4897SOL    HW126324   4.173   1.952   4.609  0.4829  0.5449  2.5097
 4897SOL    HW226325   4.293   1.969   4.687 -0.5614  2.2577  0.1266
 4898SOL     OW26326   1.235   3.749   7.188  0.5519 -0.0412 -0.5125
 4898SOL    HW126327   1.319   3.776   7.151  0.2775  0.5990 -0.6670
 4898SOL    HW226328   1.192   3.832   7.206  1.8870  0.7055 -0.7406
 4899SOL     OW26329   0.901   2.086  14.888  0.7109  0.6754 -0.6273
 4899SOL    HW126330   0.893   2.072  14.794  0.5130 -0.1830 -0.4789
 4899SOL    HW226331   0.933   2.001  14.918 -0.5235 -0.0349 -1.3397
 4900SOL     OW26332   1.482   4.249  15.050  0.4519 -0.6133 -0.0605
 4900SOL    HW126333   1.484   4.335  15.092 -1.4088 -0.5066 -0.1634
 4900SOL    HW226334   1.520   4.264  14.964 -0.0493 -1.2138 -0.3885
 4901SOL     OW26335   4.388   4.477   1.612 -0.4486  0.7860  0.1559
 4901SOL    HW126336   4.427   4.426   1.541 -0.1154 -0.5319  1.3063
 4901SOL    HW226337   4.370   4.562   1.570  0.5892  0.9874  0.1315
 4902SOL     OW26338   4.141   2.970   3.108 -0.2557 -0.4715  0.1624
 4902SOL    HW126339   4.075   2.900   3.107  1.6168 -2.2254  0.3793
 4902SOL    HW226340   4.203   2.944   3.176  2.1368  3.2212 -0.6451
 4903SOL     OW26341   0.004   0.329   5.654  0.5102  0.2719 -0.4831
 4903SOL    HW126342   0.021   0.417   5.620 -1.2193  1.0858  0.7520
 4903SOL    HW226343   4.706   0.350   5.741  1.3845  0.2240 -0.1170
 4904SOL     OW26344   1.272   0.789   3.526 -0.4234  0.7753  0.3621
 4904SOL    HW126345   1.272   0.839   3.443  2.4398 -0.0413 -0.1156
 4904SOL    HW226346   1.247   0.703   3.493  0.1560  0.7870 -0.1210
 4905SOL     OW26347   0.699   3.082  15.776 -0.0390 -0.1443  0.3181
 4905SOL    HW126348   0.647   3.045  15.705 -1.4927  0.7312  0.9281
 4905SOL    HW226349   0.642   3.142  15.825 -1.5307  1.2219 -3.1030
 4906SOL     OW26350   2.870   0.710   7.412 -0.7825  0.2152  0.3337
 4906SOL    HW126351   2.851   0.793   7.369  0.1217  0.3163  0.1414
 4906SOL    HW226352   2.912   0.676   7.333  0.3527 -0.9650  1.4493
 4907SOL     OW26353   0.209   2.237   4.551 -0.0062 -0.6265 -0.6227
 4907SOL    HW126354   0.290   2.192   4.528  0.6582  0.1057  0.3077
 4907SOL    HW226355   0.235   2.306   4.612  3.2420  0.1387 -2.9020
 4908SOL     OW26356   4.008   3.412   5.458 -0.2573 -0.1016  0.0799
 4908SOL    HW126357   4.037   3.321   5.453 -0.6416 -0.2422  0.4290
 4908SOL    HW226358   3.978   3.417   5.549  0.1042  0.8244  0.1551
 4909SOL     OW26359   4.475   1.265  13.490  0.3867  0.1732 -0.9119
 4909SOL    HW126360   4.384   1.294  13.484  0.7464  0.9584 -2.6250
 4909SOL    HW226361   4.484   1.219  13.574 -3.2375 -2.9945 -2.2445
 4910SOL     OW26362   3.365   1.912   9.112  0.1541 -0.3389 -0.1845
 4910SOL    HW126363   3.458   1.932   9.096 -0.0904 -0.8294 -2.2992
 4910SOL    HW226364   3.349   1.996   9.153  0.2614 -0.7746  0.7504
 4911SOL     OW26365   4.431   4.630   0.879 -1.3740  0.1226  0.3817
 4911SOL    HW126366   4.459   4.579   0.803 -3.1049  1.7531 -1.3303
 4911SOL    HW226367   4.463   4.563   0.940  0.9625  2.4579  1.7527
 4912SOL     OW26368   1.959   1.178   5.005  0.4240 -0.5540  0.1333
 4912SOL    HW126369   2.015   1.128   5.065  0.1394  0.1606  0.9922
 4912SOL    HW226370   1.882   1.122   4.998  1.0003 -1.5501  1.7010
 4913SOL     OW26371   0.016   2.659   7.939 -0.2672 -0.3759 -0.3798
 4913SOL    HW126372   0.099   2.633   7.901  0.7166 -0.0085  1.5394
 4913SOL    HW226373   0.023   2.754   7.953 -2.8554 -0.0909 -0.9811
 4914SOL     OW26374   4.404   2.852   6.895  0.1101 -0.0237 -0.1952
 4914SOL    HW126375   4.483   2.893   6.861 -1.3718  1.3474 -1.9998
 4914SOL    HW226376   4.334   2.912   6.869 -3.1062 -2.9055  1.7740
 4915SOL     OW26377   2.305   2.081   1.925 -0.2303 -0.5857 -0.1181
 4915SOL    HW126378   2.335   2.077   1.835  0.7368  1.5132  0.1037
 4915SOL    HW226379   2.229   2.024   1.932 -0.7233  0.2722  1.6236
 4916SOL     OW26380   3.564   0.336  16.468  0.1374 -0.0493 -0.0026
 4916SOL    HW126381   3.623   0.262  16.451 -2.7209 -2.7331  1.6635
 4916SOL    HW226382   3.541   0.324  16.560  1.1189  1.5093  0.4340
 4917SOL     OW26383   3.630   2.782   2.279 -0.4620 -0.7069  0.1719
 4917SOL    HW126384   3.660   2.831   2.355 -1.5604 -0.7158  0.6151
 4917SOL    HW226385   3.672   2.698   2.296  0.0106 -0.7785 -1.3736
 4918SOL     OW26386   3.513   1.075   2.243  0.3123  0.6392 -0.3211
 4918SOL    HW126387   3.432   1.115   2.276 -1.0138 -3.8512  1.8201
 4918SOL    HW226388   3.554   1.033   2.318 -1.1934  1.1521  0.7836
 4919SOL     OW26389   1.201   1.195   6.466 -0.2769  0.1202  0.1906
 4919SOL    HW126390   1.240   1.200   6.553  1.8825 -1.5822 -0.6650
 4919SOL    HW226391   1.121   1.247   6.475  0.0797  0.6474  0.3132
 4920SOL     OW26392   3.513   1.842   4.157 -0.0913  0.2467 -1.0062
 4920SOL    HW126393   3.552   1.854   4.071 -1.8127 -0.1775 -1.8332
 4920SOL    HW226394   3.423   1.869   4.142 -0.0692  1.4406  0.9296
 4921SOL     OW26395   0.580   0.954   7.768 -0.3835 -0.1921 -0.0427
 4921SOL    HW126396   0.527   0.891   7.816  0.0630 -0.0350  0.6648
 4921SOL    HW226397   0.661   0.904   7.761  0.5792  1.0976  1.7375
 4922SOL     OW26398   4.268   0.356   2.918  0.3069 -0.2595  0.2119
 4922SOL    HW126399   4.208   0.366   2.844  0.0539  0.8570  0.5573
 4922SOL    HW226400   4.307   0.443   2.923  0.6646 -0.2779 -2.5183
 4923SOL     OW26401   4.070   1.087  11.071  0.2436 -0.0069 -0.2132
 4923SOL    HW126402   4.100   1.168  11.113 -0.4596  0.4692 -0.6325
 4923SOL    HW226403   4.079   1.017  11.136  0.1452 -1.3493 -1.6658
 4924SOL     OW26404   4.443   3.685   3.322  0.4614  0.1121 -0.1906
 4924SOL    HW126405   4.497   3.611   3.294 -0.6749 -2.0679  3.2803
 4924SOL    HW226406   4.500   3.743   3.373  0.1783 -0.0361  0.2955
 4925SOL     OW26407   1.168   0.044   4.388  0.0786 -0.5190 -0.1433
 4925SOL    HW126408   1.229   0.026   4.460 -0.0572  0.6928  0.2715
 4925SOL    HW226409   1.087   0.075   4.430 -0.2386 -0.1977 -1.0062
 4926SOL     OW26410   0.115   0.781   5.159 -0.2875  0.2126 -0.1309
 4926SOL    HW126411   0.095   0.870   5.130 -0.6606  1.4740  3.9583
 4926SOL    HW226412   0.036   0.735   5.130  0.7195  0.2227 -2.8805
 4927SOL     OW26413   0.247   3.495   6.464 -0.2940  0.7147  0.1364
 4927SOL    HW126414   0.281   3.558   6.401  0.3502 -0.7843 -1.0149
 4927SOL    HW226415   0.179   3.547   6.507 -2.5315 -4.0858  2.4938
 4928SOL     OW26416   2.429   2.007  12.749 -0.1054 -0.0238  0.4229
 4928SOL    HW126417   2.491   2.063  12.703  1.0768 -0.0611  1.9716
 4928SOL    HW226418   2.351   2.057  12.771 -2.0733 -1.6649 -2.8383
 4929SOL     OW26419   3.664   4.290   5.386  0.5349  0.8310 -0.6326
 4929SOL    HW126420   3.652   4.224   5.455  1.6519  2.0305  0.7096
 4929SOL    HW226421   3.664   4.363   5.449  0.7830  0.5169 -0.2699
 4930SOL     OW26422   0.753   2.495  12.277 -0.0025  0.4047  0.1548
 4930SOL    HW126423   0.726   2.548  12.201 -2.4001  0.1110  0.8221
 4930SOL    HW226424   0.805   2.428  12.232 -2.1609 -1.8339  1.0324
 4931SOL     OW26425   3.224   2.161   4.732 -0.3880  0.2458  0.1062
 4931SOL    HW126426   3.240   2.078   4.777  1.8901  2.2655  2.9745
 4931SOL    HW226427   3.182   2.199   4.810  0.2761 -2.2769  1.7146
 4932SOL     OW26428   2.658   4.690   5.555  0.1575 -0.3333  0.3983
 4932SOL    HW126429   2.676   4.720   5.644 -1.0278 -0.2223  0.5976
 4932SOL    HW226430   2.739   4.645   5.531  0.1854  0.4623 -0.9406
 4933SOL     OW26431   0.785   2.882   4.380 -0.0797  0.0422  0.3826
 4933SOL    HW126432   0.774   2.827   4.457  3.9495 -0.8125  0.3567
 4933SOL    HW226433   0.824   2.830   4.310 -0.2950  0.4367 -0.0323
 4934SOL     OW26434   1.484   4.374  10.962 -0.4190  0.1695 -0.4641
 4934SOL    HW126435   1.498   4.432  11.037 -3.7108  0.0102  0.2292
 4934SOL    HW226436   1.393   4.354  10.982  0.2230 -2.7262 -0.4471
 4935SOL     OW26437   0.877   0.391   7.982 -0.1453 -0.0126 -0.4021
 4935SOL    HW126438   0.841   0.422   8.066  1.5081  0.3234  0.1863
 4935SOL    HW226439   0.893   0.304   8.018 -1.8947 -0.7554 -1.4419
 4936SOL     OW26440   0.992   2.337   5.348 -0.4611 -0.3727 -0.4703
 4936SOL    HW126441   1.030   2.341   5.436 -1.3289  1.9372 -0.1956
 4936SOL    HW226442   1.045   2.406   5.307 -0.5481  0.6631  1.1506
 4937SOL     OW26443   1.726   1.651   9.521 -0.2039 -0.1820 -0.4764
 4937SOL    HW126444   1.642   1.687   9.547 -0.0225  0.2472 -0.4794
 4937SOL    HW226445   1.748   1.596   9.596 -1.7101 -2.9282 -2.0847
 4938SOL     OW26446   2.830   3.219   9.183 -0.2743 -0.5155 -0.1165
 4938SOL    HW126447   2.820   3.133   9.223  1.1160 -0.7540 -0.2537
 4938SOL    HW226448   2.898   3.262   9.236  0.7354 -2.5138  0.2127
 4939SOL     OW26449   1.059   0.196   2.105  0.2417 -0.1104  0.4064
 4939SOL    HW126450   1.077   0.101   2.106 -1.6501 -0.4225  2.4211
 4939SOL    HW226451   1.008   0.204   2.185  1.9486 -1.2345  1.6033
 4940SOL     OW26452   1.782   1.602   6.245 -0.0504  0.1922  0.1476
 4940SOL    HW126453   1.789   1.539   6.173  0.2220  0.2120  0.1558
 4940SOL    HW226454   1.836   1.676   6.215  0.5741 -0.6260 -0.7639
 4941SOL     OW26455   0.119   0.979   0.127 -0.4529 -0.3717  0.0068
 4941SOL    HW126456   0.182   0.910   0.147  1.3246  0.9194 -1.1041
 4941SOL    HW226457   0.150   1.013   0.043 -0.4292  1.0520  0.5789
 4942SOL     OW26458   3.253   0.080   0.607 -0.1378  0.0213 -0.0048
 4942SOL    HW126459   3.305   0.027   0.668 -0.7328  0.1632  0.6338
 4942SOL    HW226460   3.219   0.150   0.663  0.6415  0.3862  0.0116
 4943SOL     OW26461   2.115   1.965   4.441  0.2373 -0.3178  0.2921
 4943SOL    HW126462   2.100   2.020   4.518 -0.6741  0.2062 -0.2575
 4943SOL    HW226463   2.204   1.931   4.444  0.7044  0.7592 -1.2752
 4944SOL     OW26464   4.542   3.226   6.932  1.1494  0.2354  0.7541
 4944SOL    HW126465   4.584   3.164   6.992 -1.2429  1.2266  3.4266
 4944SOL    HW226466   4.616   3.277   6.898  0.6728 -0.3180 -1.1344
 4945SOL     OW26467   4.367   0.435   5.080  0.6514  0.1381  0.2904
 4945SOL    HW126468   4.363   0.480   4.996  0.6769  1.5946  1.0621
 4945SOL    HW226469   4.309   0.362   5.061  0.0312 -0.0742  3.0286
 4946SOL     OW26470   2.683   2.161   8.913 -0.7978  0.1490  0.5232
 4946SOL    HW126471   2.610   2.127   8.965 -1.2936  0.1328 -0.1791
 4946SOL    HW226472   2.641   2.227   8.858 -0.4088  1.1098  1.3837
 4947SOL     OW26473   0.355   4.496  13.036 -0.2635  0.6030  0.6999
 4947SOL    HW126474   0.386   4.438  13.105 -0.2696 -1.1496 -0.7424
 4947SOL    HW226475   0.265   4.514  13.064 -0.7429 -1.2420  0.4149
 4948SOL     OW26476   3.515   4.244   3.196  0.5751  0.2646 -0.3980
 4948SOL    HW126477   3.597   4.266   3.241  0.2538  0.0360  0.2897
 4948SOL    HW226478   3.467   4.323   3.220 -1.4583 -0.7530 -1.0950
 4949SOL     OW26479   0.469   1.898   2.472 -0.2343 -0.6889 -0.0094
 4949SOL    HW126480   0.496   1.838   2.403  0.3168 -0.4720  0.0167
 4949SOL    HW226481   0.539   1.963   2.460 -1.7027  0.9046  0.0966
 4950SOL     OW26482   3.173   2.067   3.236 -0.4371  0.3543 -0.2171
 4950SOL    HW126483   3.199   2.021   3.156  0.0792  0.1181  0.0842
 4950SOL    HW226484   3.095   2.114   3.207 -0.7529  2.2849  3.7665
 4951SOL     OW26485   4.569   3.266  16.742 -0.1591 -0.0240 -0.1822
 4951SOL    HW126486   4.529   3.352  16.734  1.7098  0.9617  0.9314
 4951SOL    HW226487   4.520   3.221  16.674 -1.5689 -0.4270  1.1064
 4952SOL     OW26488   1.469   3.100   2.122 -0.1031  0.1100  0.3529
 4952SOL    HW126489   1.497   3.059   2.040 -0.5470 -1.1765  0.8447
 4952SOL    HW226490   1.397   3.154   2.090 -0.6604 -0.5382  0.4927
 4953SOL     OW26491   3.495   0.835   2.119 -0.3601 -0.2506  0.0534
 4953SOL    HW126492   3.471   0.923   2.147 -1.5137 -0.3328 -0.6661
 4953SOL    HW226493   3.455   0.786   2.191 -1.9743 -1.2068 -1.4729
 4954SOL     OW26494   4.048   4.550   6.105  0.2532 -0.1630  0.5168
 4954SOL    HW126495   4.083   4.484   6.045 -0.2303  1.4043 -1.5051
 4954SOL    HW226496   3.965   4.508   6.125 -0.5629  1.0878 -0.2721
 4955SOL     OW26497   1.135   1.053   5.390 -0.0221 -0.1099 -0.1773
 4955SOL    HW126498   1.101   1.124   5.445 -0.9449 -0.7117  0.0184
 4955SOL    HW226499   1.178   1.109   5.325  1.4767  1.3117  2.0300
 4956SOL     OW26500   0.942   2.023   2.366 -0.4275  0.2239 -0.0355
 4956SOL    HW126501   0.919   2.077   2.290  1.8010 -0.6925 -1.3499
 4956SOL    HW226502   0.959   2.097   2.424 -1.6455  0.7250 -0.3021
 4957SOL     OW26503   3.465   1.979   1.883 -0.2284  0.3236 -0.0124
 4957SOL    HW126504   3.537   1.941   1.833  0.8671  0.3180  1.5897
 4957SOL    HW226505   3.508   2.027   1.954  1.9988 -1.0312 -0.4540
 4958SOL     OW26506   4.165   0.010   2.825 -0.5291 -0.0050  0.0733
 4958SOL    HW126507   4.099   0.073   2.794  2.4671  1.7262 -2.8604
 4958SOL    HW226508   4.196   0.055   2.904 -3.1082  0.0993  1.0138
 4959SOL     OW26509   2.391   4.291   6.471 -0.2787  0.1466 -0.2146
 4959SOL    HW126510   2.306   4.274   6.429  0.5681 -0.4964 -1.6810
 4959SOL    HW226511   2.409   4.373   6.425 -0.0597 -0.5272 -1.3429
 4960SOL     OW26512   2.057   2.978  10.521 -0.3760  0.1107  0.0893
 4960SOL    HW126513   2.067   2.883  10.529  0.4106  0.2491  0.8155
 4960SOL    HW226514   2.142   3.004  10.486 -0.5235 -0.3741 -0.6173
 4961SOL     OW26515   2.044   4.100  11.588  0.5389  0.5417  0.2924
 4961SOL    HW126516   2.072   4.114  11.498 -1.4509 -0.3139 -0.4545
 4961SOL    HW226517   2.026   4.190  11.616 -3.1355  0.3127 -1.4185
 4962SOL     OW26518   0.458   2.502   5.914 -0.7496 -0.5104  0.4988
 4962SOL    HW126519   0.374   2.487   5.871 -0.5824 -0.0218 -0.0023
 4962SOL    HW226520   0.483   2.437   5.980  0.7875  0.5362  0.9594
 4963SOL     OW26521   3.738   0.401   4.163  0.4228 -0.1724 -0.0016
 4963SOL    HW126522   3.826   0.429   4.137  0.2286  0.4989  0.0802
 4963SOL    HW226523   3.695   0.476   4.123 -0.8181 -0.7161  0.3135
 4964SOL     OW26524   0.612   3.064   4.457 -1.1107 -0.2999  0.8334
 4964SOL    HW126525   0.528   3.054   4.412 -0.9157 -1.4406  0.7258
 4964SOL    HW226526   0.657   2.995   4.409 -1.7767 -0.0824 -0.1199
 4965SOL     OW26527   2.193   2.204   8.374 -0.3632  0.1953 -0.7994
 4965SOL    HW126528   2.177   2.196   8.280 -1.6668 -1.5360 -0.4121
 4965SOL    HW226529   2.287   2.184   8.378 -0.3055  1.1525  2.6497
 4966SOL     OW26530   0.763   3.035   3.897 -0.3548 -0.2802  0.4200
 4966SOL    HW126531   0.833   2.973   3.878  0.5287  1.2441 -1.3649
 4966SOL    HW226532   0.689   3.000   3.846 -1.7002  0.7811  1.6262
 4967SOL     OW26533   3.727   3.339   7.683 -0.0348 -0.0617  0.4399
 4967SOL    HW126534   3.713   3.265   7.624  0.1298  0.3675 -0.1374
 4967SOL    HW226535   3.804   3.318   7.736  0.4853 -1.3833 -0.8323
 4968SOL     OW26536   0.422   1.173   8.550 -0.0199 -0.6876  0.0842
 4968SOL    HW126537   0.470   1.238   8.602  2.0087 -0.1657 -2.4302
 4968SOL    HW226538   0.344   1.156   8.602 -0.4459  1.7325  0.2733
 4969SOL     OW26539   0.347   3.644   5.687  0.8022 -0.3292 -0.0110
 4969SOL    HW126540   0.314   3.589   5.759 -0.0489  0.0281 -0.1283
 4969SOL    HW226541   0.438   3.664   5.709  0.7382 -1.6083  1.4625
 4970SOL     OW26542   3.567   2.519   1.014 -1.0910 -0.4940  0.5393
 4970SOL    HW126543   3.550   2.603   1.057 -2.0222 -0.3263 -0.1479
 4970SOL    HW226544   3.557   2.467   1.093 -2.1560  0.0582  0.7728
 4971SOL     OW26545   1.638   0.629  11.406  0.6415 -0.1465  0.1465
 4971SOL    HW126546   1.700   0.701  11.396 -0.0190  0.4807  0.6180
 4971SOL    HW226547   1.667   0.575  11.333 -0.7355 -0.0983 -0.4349
 4972SOL     OW26548   4.044   3.244   4.058  0.5915 -0.0466 -0.0317
 4972SOL    HW126549   4.071   3.189   3.984 -1.5017 -0.9744 -0.1156
 4972SOL    HW226550   4.118   3.213   4.109 -0.8109 -0.6961  1.5719
 4973SOL     OW26551   4.220   2.557   6.449  0.4765 -0.1897  0.0725
 4973SOL    HW126552   4.264   2.506   6.517 -0.5460 -1.3789 -0.1598
 4973SOL    HW226553   4.125   2.553   6.463  0.1674 -1.5403 -2.4897
 4974SOL     OW26554   4.480   2.156   5.132 -0.2695  0.3257  0.1617
 4974SOL    HW126555   4.560   2.130   5.087 -1.0103 -0.7604 -0.5295
 4974SOL    HW226556   4.504   2.246   5.155  0.8270  0.2426 -0.6756
 4975SOL     OW26557   3.991   2.718   3.044  0.2822 -0.2600 -0.2724
 4975SOL    HW126558   4.047   2.712   2.967 -1.3097 -0.1246 -1.4342
 4975SOL    HW226559   3.951   2.631   3.047 -0.5721  0.1740  1.4447
 4976SOL     OW26560   0.901   2.227   9.391  0.5967 -0.0266 -0.0394
 4976SOL    HW126561   0.935   2.138   9.397  1.4265  0.3702  1.0719
 4976SOL    HW226562   0.880   2.247   9.483  2.3763  1.3478  0.0687
 4977SOL     OW26563   0.718   4.052   7.913 -0.2874  0.0449 -0.3035
 4977SOL    HW126564   0.701   4.128   7.968  0.8704  0.5934 -0.7163
 4977SOL    HW226565   0.697   4.089   7.828 -1.9732 -0.6128 -0.1857
 4978SOL     OW26566   1.183   4.395   6.462  0.1266  0.1800  0.2696
 4978SOL    HW126567   1.115   4.447   6.419  1.3458  1.6876  0.1355
 4978SOL    HW226568   1.201   4.328   6.396  1.2934 -0.7177  1.5046
 4979SOL     OW26569   3.357   0.517   8.119 -0.1410 -0.2494 -0.1459
 4979SOL    HW126570   3.305   0.448   8.161  1.3286 -0.8207  0.7315
 4979SOL    HW226571   3.361   0.580   8.191 -0.1913  1.4763 -1.6612
 4980SOL     OW26572   2.190   0.289   9.276  0.2350  0.1699 -0.0892
 4980SOL    HW126573   2.246   0.215   9.297 -0.4367 -0.0227  1.0225
 4980SOL    HW226574   2.185   0.324   9.365 -0.0046 -1.7173  0.6340
 4981SOL     OW26575   2.966   0.702  13.914  0.8897  0.1595  0.2457
 4981SOL    HW126576   3.049   0.654  13.905 -0.4150 -1.4547 -2.8940
 4981SOL    HW226577   2.931   0.643  13.980  0.0125  1.9971  1.4187
 4982SOL     OW26578   0.902   1.562   2.050 -0.3409 -0.1093  0.2778
 4982SOL    HW126579   0.900   1.584   2.143 -2.1890 -0.1179  0.2307
 4982SOL    HW226580   0.810   1.564   2.024 -0.1624 -1.4013 -0.4865
 4983SOL     OW26581   0.975   4.604   4.182  0.0301 -0.4421 -0.3265
 4983SOL    HW126582   1.011   4.635   4.265  0.0593 -0.1324 -0.4565
 4983SOL    HW226583   0.898   4.661   4.175 -2.8049 -4.0354  1.7391
 4984SOL     OW26584   0.009   0.733  14.382  0.2621  0.3588  0.3141
 4984SOL    HW126585   4.679   0.791  14.345 -0.0883 -0.9317 -1.1105
 4984SOL    HW226586   0.090   0.778  14.359 -0.3016  0.8735 -0.6444
 4985SOL     OW26587   1.935   1.986   7.702 -1.2471 -0.1585  0.5321
 4985SOL    HW126588   1.959   2.072   7.736 -1.5579 -0.6340  1.9550
 4985SOL    HW226589   1.980   1.984   7.617  0.7021  2.4308  1.5403
 4986SOL     OW26590   4.388   2.733   8.550  0.3587 -0.2255 -0.5014
 4986SOL    HW126591   4.363   2.654   8.599 -1.4822 -0.4087 -1.7337
 4986SOL    HW226592   4.375   2.697   8.462  2.7429 -1.0911 -0.4995
 4987SOL     OW26593   3.306   4.620   5.961  0.4003  0.3556  0.3229
 4987SOL    HW126594   3.254   4.692   5.998  0.5583  1.6584 -2.0145
 4987SOL    HW226595   3.238   4.554   5.951 -0.1561  1.2619 -1.9499
 4988SOL     OW26596   3.505   3.367   4.351 -0.5197 -0.3073 -0.8076
 4988SOL    HW126597   3.428   3.335   4.305 -1.7189  1.0730  0.2456
 4988SOL    HW226598   3.460   3.426   4.411  1.9004  0.6687  0.0707
 4989SOL     OW26599   0.477   0.521   1.960 -0.3762  0.2722  0.3984
 4989SOL    HW126600   0.441   0.468   1.889  0.8782  0.4209 -0.3401
 4989SOL    HW226601   0.539   0.462   2.002  0.5605  1.3626  0.5272
 4990SOL     OW26602   0.575   0.344   8.377  0.3489  0.2912 -0.0594
 4990SOL    HW126603   0.492   0.308   8.411  0.0560  1.2460  0.2379
 4990SOL    HW226604   0.578   0.424   8.429 -0.4576 -1.0224  2.0508
 4991SOL     OW26605   1.104   1.835   0.615  0.4378  0.1680  0.1485
 4991SOL    HW126606   1.063   1.881   0.688  2.3292  0.5761  0.9414
 4991SOL    HW226607   1.140   1.757   0.656  2.7150  0.7671 -0.6926
 4992SOL     OW26608   2.267   3.078   9.365  0.2632 -0.1966 -0.2247
 4992SOL    HW126609   2.215   3.060   9.286 -0.6919  0.5101  0.2538
 4992SOL    HW226610   2.205   3.086   9.438 -0.3957 -0.8876 -0.7013
 4993SOL     OW26611   2.136   1.789   7.124  0.5927 -0.3808  0.3196
 4993SOL    HW126612   2.082   1.793   7.203 -0.2592  0.2021 -0.2873
 4993SOL    HW226613   2.107   1.868   7.078 -1.4597 -1.7762 -0.8137
 4994SOL     OW26614   3.555   4.294   4.522  0.6062 -0.1410  0.2077
 4994SOL    HW126615   3.594   4.309   4.435 -1.3255 -2.8543 -1.1182
 4994SOL    HW226616   3.511   4.376   4.543  0.3987 -0.7101  2.0071
 4995SOL     OW26617   0.856   0.602  10.829 -0.7160 -0.2216  0.3501
 4995SOL    HW126618   0.810   0.588  10.912  0.8849  0.8433  1.4193
 4995SOL    HW226619   0.806   0.555  10.762 -1.3203  0.1353  0.5486
 4996SOL     OW26620   2.312   4.017  15.918 -0.1544  0.7168  0.2065
 4996SOL    HW126621   2.235   3.992  15.867  1.9574 -1.5896 -1.8449
 4996SOL    HW226622   2.371   4.058  15.855  0.0652 -0.8284 -0.5932
 4997SOL     OW26623   1.912   3.111  14.630 -0.4317 -0.4624  0.0330
 4997SOL    HW126624   1.821   3.098  14.655 -0.4328  0.2125  0.3842
 4997SOL    HW226625   1.910   3.205  14.650  0.8439 -0.4248  0.0050
 4998SOL     OW26626   3.034   3.637  11.121 -0.2743  0.4824  0.0468
 4998SOL    HW126627   2.944   3.610  11.139 -0.0998 -0.9670 -1.3266
 4998SOL    HW226628   3.076   3.558  11.088 -1.6309 -0.4071  0.4854
 4999SOL     OW26629   4.130   3.576  13.137 -0.2684  0.0007  0.0787
 4999SOL    HW126630   4.052   3.607  13.090  0.7148  2.3686  0.0054
 4999SOL    HW226631   4.177   3.658  13.121  1.3746 -0.8080  0.8139
 5000SOL     OW26632   2.700   2.494   6.386 -0.3627 -0.4394 -0.4099
 5000SOL    HW126633   2.748   2.521   6.464 -1.6584  0.6216  0.0052
 5000SOL    HW226634   2.634   2.563   6.374 -0.6843 -0.8489 -0.9902
 5001SOL     OW26635   2.683   1.739   5.091  0.0303 -0.2626 -0.7363
 5001SOL    HW126636   2.763   1.694   5.063 -0.5448 -0.7503 -1.6196
 5001SOL    HW226637   2.698   1.818   5.039 -1.5043 -0.1211 -0.9930
 5002SOL     OW26638   3.552   0.543   7.000 -0.0258 -0.0473 -0.2033
 5002SOL    HW126639   3.523   0.592   6.923  2.0779  1.0649 -0.2947
 5002SOL    HW226640   3.511   0.458   6.984 -1.7684  0.6924  0.4581
 5003SOL     OW26641   1.292   3.215   0.303  0.0218  0.2529  0.0782
 5003SOL    HW126642   1.277   3.141   0.243  0.5383  1.0204 -1.0080
 5003SOL    HW226643   1.374   3.178   0.336 -0.7736 -1.7157 -0.1584
 5004SOL     OW26644   0.044   0.599   5.568 -0.0209  0.1065  0.1630
 5004SOL    HW126645   0.097   0.626   5.643 -2.7094  1.2747  1.6346
 5004SOL    HW226646   0.071   0.663   5.503 -3.1344 -0.4536 -1.6888
 5005SOL     OW26647   3.442   4.517   4.573 -0.1193  0.0518 -0.2572
 5005SOL    HW126648   3.348   4.521   4.587  0.0138  1.6535  0.2390
 5005SOL    HW226649   3.464   4.587   4.511 -1.2057 -0.5997 -1.3865
 5006SOL     OW26650   0.299   3.501   5.417 -0.1358 -0.3790 -0.3512
 5006SOL    HW126651   0.349   3.568   5.463 -0.1629 -1.6025  1.4693
 5006SOL    HW226652   0.351   3.483   5.338 -1.6076 -0.8099 -1.2306
 5007SOL     OW26653   0.879   1.564   3.775 -0.0160 -0.3558  0.1698
 5007SOL    HW126654   0.972   1.545   3.783 -0.2604 -1.8588 -0.5605
 5007SOL    HW226655   0.867   1.567   3.680  0.4406  2.7481  0.2097
 5008SOL     OW26656   3.513   0.567   2.022 -0.1916  0.0966  0.5100
 5008SOL    HW126657   3.531   0.657   2.047 -0.0972  0.2978 -0.2816
 5008SOL    HW226658   3.549   0.559   1.933 -0.7021 -0.5632  0.3577
 5009SOL     OW26659   1.465   1.513   3.491 -0.1247 -0.2687  0.1970
 5009SOL    HW126660   1.467   1.593   3.439 -1.8688 -1.1099 -1.1619
 5009SOL    HW226661   1.376   1.521   3.525  0.2261  0.5300  0.9213
 5010SOL     OW26662   2.177   0.755  17.590  0.3998 -0.7393  0.4675
 5010SOL    HW126663   2.232   0.820  17.633  0.2995  0.0465 -0.5970
 5010SOL    HW226664   2.210   0.676  17.633 -0.4080 -1.1407  0.3463
 5011SOL     OW26665   1.736   2.644  13.222 -0.0779  1.1627 -0.4287
 5011SOL    HW126666   1.667   2.688  13.271 -0.0928 -0.0462  0.6399
 5011SOL    HW226667   1.804   2.648  13.290 -0.4142  2.0855 -0.1419
 5012SOL     OW26668   2.872   3.096  15.951 -0.3536  0.2634  0.1331
 5012SOL    HW126669   2.856   3.090  15.857  2.6931  0.1277 -0.3721
 5012SOL    HW226670   2.826   3.016  15.978 -0.2184  0.1829  0.1236
 5013SOL     OW26671   0.410   4.030   3.322  0.1982 -0.0139 -0.2628
 5013SOL    HW126672   0.499   4.065   3.316  1.0615 -2.5597 -2.1866
 5013SOL    HW226673   0.390   4.050   3.414  0.0551  1.9614 -0.7233
 5014SOL     OW26674   0.012   3.700   4.754 -0.3132 -0.0695  0.2201
 5014SOL    HW126675   4.723   3.792   4.751 -0.8663 -0.2686 -0.8643
 5014SOL    HW226676   0.038   3.699   4.847  0.2762  0.4028  0.0611
 5015SOL     OW26677   2.019   2.320   2.846  0.1388  0.7456 -0.0354
 5015SOL    HW126678   1.992   2.383   2.914  0.7760  2.0386 -0.9830
 5015SOL    HW226679   2.113   2.323   2.864  0.0063  1.1642  0.6059
 5016SOL     OW26680   1.563   0.612   2.521 -0.9140  0.4134 -0.1795
 5016SOL    HW126681   1.504   0.668   2.471 -2.3385 -0.2010  0.8345
 5016SOL    HW226682   1.623   0.579   2.454 -0.9315  0.7571 -0.3660
 5017SOL     OW26683   4.112   4.497   7.095 -0.4102  0.5424  0.0722
 5017SOL    HW126684   4.158   4.559   7.038 -0.5099  1.1929  0.6933
 5017SOL    HW226685   4.020   4.502   7.070  0.0047 -0.1704 -1.5945
 5018SOL     OW26686   0.693   4.348   8.488  0.3782 -0.2668 -0.2975
 5018SOL    HW126687   0.608   4.334   8.447 -2.2458  4.1375  3.4876
 5018SOL    HW226688   0.675   4.341   8.582 -0.3292  1.4352 -0.2920
 5019SOL     OW26689   4.716   0.346   6.193  0.8032  0.2314  0.3878
 5019SOL    HW126690   4.717   0.274   6.256 -1.8183  0.9604  1.2701
 5019SOL    HW226691   4.705   0.421   6.251 -0.6854 -1.2160  1.9565
 5020SOL     OW26692   1.551   3.627  11.716 -0.1216  0.4363 -0.4087
 5020SOL    HW126693   1.470   3.606  11.669  0.6017 -0.5796 -1.1901
 5020SOL    HW226694   1.526   3.694  11.780 -3.4739  0.9147 -2.2091
 5021SOL     OW26695   4.078   1.990   9.808  0.3702 -0.1744 -0.5305
 5021SOL    HW126696   4.085   1.895   9.820  1.8286  0.1966  1.5945
 5021SOL    HW226697   3.984   2.005   9.801  0.4159  1.3626  2.2376
 5022SOL     OW26698   1.261   2.377  12.406  0.4768  0.5238 -0.9342
 5022SOL    HW126699   1.313   2.426  12.342 -2.5366  2.2277 -2.0697
 5022SOL    HW226700   1.193   2.438  12.435 -2.2000 -2.7094 -0.3398
 5023SOL     OW26701   1.798   2.510  13.680 -0.2230  0.2006 -0.2174
 5023SOL    HW126702   1.845   2.555  13.610  1.3448  0.3891  0.9411
 5023SOL    HW226703   1.866   2.456  13.719 -0.3220  0.8901  0.9135
 5024SOL     OW26704   3.426   4.735   6.470  0.5409 -0.3392  0.3983
 5024SOL    HW126705   3.492   4.700   6.530  1.0810 -0.7180 -0.4126
 5024SOL    HW226706   3.369   4.659   6.459 -1.1499  1.4255 -3.2395
 5025SOL     OW26707   0.460   2.124   4.531  0.0313 -0.2766 -0.4132
 5025SOL    HW126708   0.521   2.182   4.485  1.6831 -2.9656 -1.6380
 5025SOL    HW226709   0.519   2.064   4.576 -3.7249 -1.2514  3.2256
 5026SOL     OW26710   0.144   3.264  10.695 -0.4354 -0.4468 -0.3999
 5026SOL    HW126711   0.078   3.268  10.765 -1.8219  1.3822 -1.8108
 5026SOL    HW226712   0.208   3.323  10.737  0.6864 -0.9626 -1.3815
 5027SOL     OW26713   0.532   1.332   1.213  0.5650  0.3630 -0.7002
 5027SOL    HW126714   0.526   1.348   1.307  0.5113 -0.3179 -0.5847
 5027SOL    HW226715   0.599   1.263   1.207  0.9044  0.6735 -0.4434
 5028SOL     OW26716   2.753   4.486   5.860  0.4523  0.2199 -0.1770
 5028SOL    HW126717   2.697   4.455   5.931  1.8013  0.7212  1.1183
 5028SOL    HW226718   2.737   4.422   5.791  0.9556 -0.1135  0.0177
 5029SOL     OW26719   3.980   3.658  10.768  0.2353 -0.1781  0.7145
 5029SOL    HW126720   4.040   3.626  10.835  1.8153  0.6507 -0.3272
 5029SOL    HW226721   3.959   3.748  10.794 -0.0278 -0.2317  0.6917
 5030SOL     OW26722   1.120   0.430   4.622  0.0827  0.3352 -0.0743
 5030SOL    HW126723   1.038   0.392   4.654 -0.0245  0.5576 -0.0834
 5030SOL    HW226724   1.078   0.491   4.561 -2.2545  0.7510  1.9476
 5031SOL     OW26725   2.642   0.155   4.825 -0.1054 -0.5049  0.3343
 5031SOL    HW126726   2.585   0.231   4.826  1.7921  0.9248  0.4260
 5031SOL    HW226727   2.667   0.147   4.917  0.1049 -1.8594  0.1604
 5032SOL     OW26728   1.657   0.830   8.578 -0.0858 -0.3313  0.2592
 5032SOL    HW126729   1.570   0.869   8.567  0.6564  1.6271  1.4213
 5032SOL    HW226730   1.698   0.832   8.491 -0.0471 -1.5903  0.2558
 5033SOL     OW26731   0.225   3.220   6.798 -0.0101  0.1461 -0.6418
 5033SOL    HW126732   0.191   3.131   6.806  1.0215 -0.3715 -1.9429
 5033SOL    HW226733   0.246   3.237   6.890  1.9481  0.1050 -1.0650
 5034SOL     OW26734   0.895   4.206  13.256 -0.0377  0.3368  0.3998
 5034SOL    HW126735   0.964   4.145  13.283  0.3368  1.0704  1.0991
 5034SOL    HW226736   0.946   4.285  13.235  0.7882 -0.1964  0.3920
 5035SOL     OW26737   0.887   2.910   9.404  0.2350 -0.7048  0.0571
 5035SOL    HW126738   0.935   2.951   9.476 -0.3907  1.0109 -0.4899
 5035SOL    HW226739   0.939   2.831   9.391  3.1191  1.2926 -0.5857
 5036SOL     OW26740   2.111   0.058   6.211  0.2126 -0.4094  0.6220
 5036SOL    HW126741   2.125   0.124   6.144  1.9086 -2.2984 -0.9060
 5036SOL    HW226742   2.169   4.728   6.176 -1.6054 -1.1850 -0.8758
 5037SOL     OW26743   4.352   0.188   3.928 -0.3507  0.2778 -0.3001
 5037SOL    HW126744   4.392   0.259   3.876 -1.7173  1.3995  0.1904
 5037SOL    HW226745   4.403   0.194   4.009 -1.1120 -0.9762  0.2663
 5038SOL     OW26746   1.322   4.197   4.663 -0.5978  0.2203  0.3338
 5038SOL    HW126747   1.284   4.109   4.657  0.6824 -0.4795  2.5378
 5038SOL    HW226748   1.240   4.243   4.683  0.5385  2.5557 -0.3177
 5039SOL     OW26749   3.648   2.001   4.503  0.1987 -0.1703 -0.2097
 5039SOL    HW126750   3.637   2.016   4.597  0.9550 -1.0478  0.0235
 5039SOL    HW226751   3.658   1.906   4.509 -0.8787 -0.3574 -1.4113
 5040SOL     OW26752   4.444   0.060   4.215 -0.0084  0.1610 -0.4404
 5040SOL    HW126753   4.395   4.717   4.195  1.9241 -1.3961  1.0048
 5040SOL    HW226754   4.508   0.071   4.145  1.3841 -2.3032  0.4454
 5041SOL     OW26755   4.356   0.286  14.343 -0.4668  0.2325  0.1592
 5041SOL    HW126756   4.360   0.349  14.271  2.0410 -0.5608 -0.4133
 5041SOL    HW226757   4.261   0.285  14.355 -0.6902 -0.6075 -1.5670
 5042SOL     OW26758   4.281   1.882   5.970 -0.4084  0.4693  0.1593
 5042SOL    HW126759   4.194   1.891   6.008  0.0630 -0.2874  1.4272
 5042SOL    HW226760   4.277   1.787   5.961  0.8148  0.7209 -2.9804
 5043SOL     OW26761   2.382   2.358   7.481 -0.1773 -0.2211  0.0052
 5043SOL    HW126762   2.348   2.326   7.564  2.9941 -0.6287  1.1260
 5043SOL    HW226763   2.390   2.452   7.497  1.0116 -0.6106  1.6389
 5044SOL     OW26764   4.248   0.619  10.256 -0.1247  0.0550  0.2414
 5044SOL    HW126765   4.185   0.549  10.239 -0.6786 -0.1948  3.1837
 5044SOL    HW226766   4.221   0.684  10.192 -1.2220  0.6575  1.3101
 5045SOL     OW26767   4.639   2.010   3.066 -0.0200  0.3732 -0.1224
 5045SOL    HW126768   4.560   1.978   3.111 -0.9410  1.9489 -0.6088
 5045SOL    HW226769   4.596   2.069   3.004  0.7126 -0.2269 -1.1989
 5046SOL     OW26770   0.855   1.752   0.876 -0.2975  0.0834 -0.0983
 5046SOL    HW126771   0.805   1.769   0.956 -2.6410 -0.3057 -1.4826
 5046SOL    HW226772   0.859   1.839   0.838 -2.3531 -0.4635 -1.5532
 5047SOL     OW26773   1.404   0.872   7.051 -0.4913 -0.1810 -0.3963
 5047SOL    HW126774   1.482   0.912   7.014 -0.1759  0.8622  1.3767
 5047SOL    HW226775   1.388   0.805   6.985 -1.6198  1.1121 -1.4502
 5048SOL     OW26776   2.887   1.240  16.770  0.2895 -0.7968 -0.4614
 5048SOL    HW126777   2.920   1.303  16.834  1.1073  0.5369 -2.2060
 5048SOL    HW226778   2.936   1.162  16.796 -1.5032 -1.4782  0.8810
 5049SOL     OW26779   4.593   1.269   8.747 -0.2555 -0.2196  0.0781
 5049SOL    HW126780   4.516   1.233   8.790 -0.5534  0.0270 -0.2441
 5049SOL    HW226781   4.565   1.307   8.663  2.9418 -0.9945 -1.3540
 5050SOL     OW26782   2.651   0.591  16.829  0.3106 -0.4717 -0.5497
 5050SOL    HW126783   2.687   0.674  16.796  0.2843 -0.7169 -1.1960
 5050SOL    HW226784   2.732   0.545  16.850  0.2134  0.2560  1.3855
 5051SOL     OW26785   2.138   4.190  12.073 -0.1994  0.6140 -0.9059
 5051SOL    HW126786   2.157   4.185  11.979 -2.6335  2.9244 -1.5242
 5051SOL    HW226787   2.049   4.223  12.066 -0.4814  0.1558  0.5355
 5052SOL     OW26788   0.341   0.239  10.153  0.0662 -0.0809  0.4318
 5052SOL    HW126789   0.263   0.282  10.188 -0.6124  0.3028 -1.5252
 5052SOL    HW226790   0.382   0.213  10.235 -1.4205 -2.7582  0.3269
 5053SOL     OW26791   1.259   3.124  12.587  0.3019  0.4910  0.3510
 5053SOL    HW126792   1.300   3.210  12.580  0.4587  0.4907  1.3698
 5053SOL    HW226793   1.331   3.061  12.588 -1.9475 -2.0693  0.0823
 5054SOL     OW26794   1.294   4.532  13.153  0.4932 -0.6428 -0.0307
 5054SOL    HW126795   1.337   4.447  13.139  1.1683  0.1478 -2.6678
 5054SOL    HW226796   1.302   4.568  13.065  1.6255 -0.5205  0.1249
 5055SOL     OW26797   2.434   0.696   1.595 -0.0845 -0.1611 -0.1159
 5055SOL    HW126798   2.449   0.790   1.591 -0.5561 -0.0123  1.9136
 5055SOL    HW226799   2.512   0.680   1.648 -0.0188  0.5789  0.0032
 5056SOL     OW26800   2.535   2.453   3.871  0.0871 -0.1320 -0.1151
 5056SOL    HW126801   2.483   2.500   3.936 -2.1152  1.3520 -2.9743
 5056SOL    HW226802   2.487   2.478   3.792  0.4888  2.1060  0.3696
 5057SOL     OW26803   2.296   4.315  12.490 -0.3230  0.5584 -0.1538
 5057SOL    HW126804   2.304   4.292  12.397  0.6569  0.9064 -0.1630
 5057SOL    HW226805   2.389   4.310  12.511 -0.6153 -1.6190  0.6352
 5058SOL     OW26806   1.806   3.374   1.672  0.2765  0.1801  0.4709
 5058SOL    HW126807   1.826   3.446   1.613 -0.7599  0.7718  0.8466
 5058SOL    HW226808   1.736   3.328   1.625  0.1431  0.7441  0.1207
 5059SOL     OW26809   0.163   2.216   6.040  0.1821  0.0069 -0.5141
 5059SOL    HW126810   0.069   2.200   6.039  0.1695  0.1786 -1.8948
 5059SOL    HW226811   0.193   2.187   5.953 -0.5348  0.1961 -0.8267
 5060SOL     OW26812   1.184   3.169   2.279 -0.6554 -0.3655 -0.4958
 5060SOL    HW126813   1.231   3.086   2.282 -2.0190 -1.1263 -0.5379
 5060SOL    HW226814   1.188   3.192   2.372 -0.9029 -1.7260 -0.1528
 5061SOL     OW26815   2.207   0.396  10.772  0.0763 -0.0574 -0.7066
 5061SOL    HW126816   2.195   0.344  10.693  0.4033 -0.7835 -0.2796
 5061SOL    HW226817   2.263   0.469  10.745  0.7527 -1.1238 -2.1618
 5062SOL     OW26818   1.414   4.614   2.993  0.8659  0.1621 -0.4445
 5062SOL    HW126819   1.394   4.662   2.913 -0.0830 -2.8899 -2.0601
 5062SOL    HW226820   1.485   4.555   2.969  1.7357  1.1294 -0.2234
 5063SOL     OW26821   0.726   0.611   8.469  0.6900 -0.2665  0.1699
 5063SOL    HW126822   0.810   0.657   8.481  1.1171 -0.5524 -1.8148
 5063SOL    HW226823   0.668   0.671   8.421  0.8321 -0.6322 -0.4553
 5064SOL     OW26824   2.331   3.552   1.371 -0.2752 -0.3359  0.2178
 5064SOL    HW126825   2.383   3.543   1.452  1.0196  0.6154 -0.5166
 5064SOL    HW226826   2.385   3.498   1.313 -1.5178  0.0762 -1.3074
 5065SOL     OW26827   1.776   2.919   5.117  0.3030  0.0178 -0.1903
 5065SOL    HW126828   1.792   2.837   5.071  1.1528 -0.6483  1.2937
 5065SOL    HW226829   1.860   2.964   5.107  0.1221  0.1147 -1.3154
 5066SOL     OW26830   3.081   3.883   4.648 -0.4209  0.2460  0.1596
 5066SOL    HW126831   3.030   3.934   4.585 -2.7029 -1.2189  0.8392
 5066SOL    HW226832   3.011   3.852   4.704 -1.2163  0.6639 -0.6043
 5067SOL     OW26833   0.793   2.418   4.455  0.2666 -0.2980 -0.0535
 5067SOL    HW126834   0.774   2.331   4.421 -1.5708  1.3342 -3.2325
 5067SOL    HW226835   0.822   2.394   4.543  3.0639 -0.2514 -0.9535
 5068SOL     OW26836   1.389   2.650   4.352 -0.5458  0.1273 -0.1688
 5068SOL    HW126837   1.339   2.610   4.423  3.1922 -1.1032  1.7755
 5068SOL    HW226838   1.402   2.740   4.382 -1.1074  0.5603 -1.2512
 5069SOL     OW26839   2.423   2.048  13.910  0.3194  0.3019 -0.5219
 5069SOL    HW126840   2.481   2.010  13.977  1.4208  0.4227 -1.4132
 5069SOL    HW226841   2.335   2.034  13.946  0.8135 -3.8538 -0.9632
 5070SOL     OW26842   2.688   2.986  12.793  0.2566 -0.3742 -0.3112
 5070SOL    HW126843   2.621   3.020  12.735  1.3037 -0.4532 -1.5629
 5070SOL    HW226844   2.659   3.019  12.878  3.4610  1.5426  0.0671
 5071SOL     OW26845   4.182   0.006   0.773 -0.0943 -0.3467 -0.0823
 5071SOL    HW126846   4.268   4.717   0.805 -0.1956 -1.6101 -0.8529
 5071SOL    HW226847   4.138   4.722   0.855 -0.7102  1.1557 -0.0311
 5072SOL     OW26848   3.425   0.716   4.958  0.2046 -0.1550 -0.6306
 5072SOL    HW126849   3.439   0.778   5.030 -0.4712 -0.4127 -0.2744
 5072SOL    HW226850   3.390   0.638   5.001 -0.1811  1.9448  2.8907
 5073SOL     OW26851   2.636   3.235   6.566  0.7201  0.2255 -0.0952
 5073SOL    HW126852   2.650   3.172   6.637  0.4504 -1.8170 -1.8330
 5073SOL    HW226853   2.540   3.239   6.567  0.6770 -0.8801  1.3532
 5074SOL     OW26854   3.933   2.010   1.748 -0.2303  0.5301  0.5994
 5074SOL    HW126855   3.917   2.099   1.715  1.3881  0.2406 -0.9512
 5074SOL    HW226856   3.869   2.005   1.819 -2.1450  1.4052 -1.0818
 5075SOL     OW26857   2.452   1.826  14.694 -0.1138  0.6494  0.2961
 5075SOL    HW126858   2.541   1.851  14.722 -0.0218  1.9782 -1.1548
 5075SOL    HW226859   2.418   1.790  14.775  2.1404 -2.0498  0.0413
 5076SOL     OW26860   3.289   4.346   9.696 -0.1373 -0.3307  0.6058
 5076SOL    HW126861   3.197   4.335   9.721 -0.2599 -0.3217  0.1674
 5076SOL    HW226862   3.330   4.344   9.782  0.0871  0.0019  0.5077
 5077SOL     OW26863   2.031   1.694   2.238  0.2727 -0.2199  0.1231
 5077SOL    HW126864   2.093   1.677   2.168 -0.6539  2.6688 -1.3740
 5077SOL    HW226865   2.085   1.758   2.284 -1.8920  2.2811 -0.8274
 5078SOL     OW26866   0.458   3.032   3.814  0.2410  0.0708  0.2471
 5078SOL    HW126867   0.405   3.109   3.796 -2.1603 -1.5964  0.3135
 5078SOL    HW226868   0.422   2.978   3.884  0.2374 -1.5656 -0.9980
 5079SOL     OW26869   1.505   4.662  13.900  0.0826  0.1038 -0.0514
 5079SOL    HW126870   1.505   4.572  13.869 -1.0799 -0.1165  0.5748
 5079SOL    HW226871   1.415   4.656  13.933  0.1262  0.3094  0.1064
 5080SOL     OW26872   1.159   2.817   4.500 -0.1924 -0.8687  0.7807
 5080SOL    HW126873   1.126   2.836   4.413  0.7610  1.5793  0.9562
 5080SOL    HW226874   1.088   2.770   4.544 -0.2825 -1.0305  0.4613
 5081SOL     OW26875   3.536   0.420   4.392 -0.0241  0.0001 -0.0543
 5081SOL    HW126876   3.593   0.361   4.442 -0.1986  1.8674  2.3422
 5081SOL    HW226877   3.593   0.460   4.326 -0.7693  0.9570 -0.1191
 5082SOL     OW26878   2.364   3.684  13.370 -0.0185 -0.1663  0.0481
 5082SOL    HW126879   2.331   3.606  13.414 -0.2745 -0.7748 -1.2239
 5082SOL    HW226880   2.288   3.740  13.385 -0.6976 -1.2108  0.5014
 5083SOL     OW26881   0.866   2.865  10.328  0.0149 -0.0708 -0.2284
 5083SOL    HW126882   0.844   2.940  10.383 -0.3596 -0.4531  0.1373
 5083SOL    HW226883   0.925   2.808  10.378  0.5236  0.6253 -0.0363
 5084SOL     OW26884   4.654   3.652   3.762 -0.5868  0.1125 -0.2947
 5084SOL    HW126885   4.589   3.613   3.821 -0.0223 -1.7570 -0.9154
 5084SOL    HW226886   4.620   3.741   3.774 -1.8746 -0.3247 -0.7100
 5085SOL     OW26887   0.888   2.494   8.043  0.1932  0.0274  0.8878
 5085SOL    HW126888   0.949   2.528   8.109 -0.8453  2.4362  0.6236
 5085SOL    HW226889   0.878   2.402   8.068  1.5101 -0.9937 -2.4229
 5086SOL     OW26890   3.175   3.982   5.483  0.5296 -0.7785  0.2976
 5086SOL    HW126891   3.127   3.900   5.494 -1.4529  0.1759 -1.1528
 5086SOL    HW226892   3.248   3.950   5.431 -1.1134  1.8488 -3.6489
 5087SOL     OW26893   4.385   1.813   6.914  0.4651  0.2809  0.5390
 5087SOL    HW126894   4.376   1.722   6.885 -0.0815  1.6950 -3.7530
 5087SOL    HW226895   4.439   1.852   6.846  0.0357 -1.0431 -0.5566
 5088SOL     OW26896   1.119   2.531   4.718 -0.0319 -0.0761  0.3799
 5088SOL    HW126897   1.132   2.614   4.765 -0.4945 -1.8550  3.6896
 5088SOL    HW226898   1.025   2.513   4.719  0.5429 -3.1081 -2.2671
 5089SOL     OW26899   2.815   2.749   8.241  0.0437 -0.2353  0.4500
 5089SOL    HW126900   2.909   2.761   8.255  0.4460  0.3021 -2.5746
 5089SOL    HW226901   2.805   2.805   8.164 -1.1229 -0.1798  0.6535
 5090SOL     OW26902   1.083   4.733  13.372  0.2503  0.3792 -0.2358
 5090SOL    HW126903   1.145   0.069  13.381  0.5620 -0.1077  1.5668
 5090SOL    HW226904   1.044   0.009  13.285  0.4426  2.7375  0.0347
 5091SOL     OW26905   4.656   2.075   6.168 -0.0327 -0.4320  0.5270
 5091SOL    HW126906   4.651   2.078   6.264  0.0372 -2.3793  0.5841
 5091SOL    HW226907   4.593   2.140   6.137  0.1484 -0.8204 -0.6603
 5092SOL     OW26908   3.874   1.161   8.828 -0.6421 -0.7411  0.2176
 5092SOL    HW126909   3.838   1.106   8.759 -1.4771  1.6540 -1.2366
 5092SOL    HW226910   3.793   1.193   8.867 -0.9257 -3.4162  1.8329
 5093SOL     OW26911   4.011   1.777   5.744  0.4424  0.3825  0.2775
 5093SOL    HW126912   4.030   1.859   5.791 -0.5638  0.8209 -0.0708
 5093SOL    HW226913   3.917   1.792   5.731  0.6509  1.6076  0.1754
 5094SOL     OW26914   2.847   0.801   2.191 -0.2551  0.1882  1.0381
 5094SOL    HW126915   2.783   0.730   2.192  1.7870 -1.6776  0.7463
 5094SOL    HW226916   2.793   0.866   2.235 -1.9608 -0.3097 -0.3144
 5095SOL     OW26917   0.638   2.014   6.953 -0.3685  0.4936  0.2079
 5095SOL    HW126918   0.659   1.937   6.899  0.2916  0.3543  0.6656
 5095SOL    HW226919   0.701   2.078   6.920 -0.8164  1.7463  1.7705
 5096SOL     OW26920   0.259   0.401   6.276  0.0728 -0.1253 -0.3748
 5096SOL    HW126921   0.302   0.326   6.234  0.8683 -0.2680  0.7071
 5096SOL    HW226922   0.170   0.372   6.260  0.0292 -0.3621  0.3338
 5097SOL     OW26923   4.716   3.345   1.207  0.4565  0.1241 -0.7359
 5097SOL    HW126924   0.062   3.298   1.218 -1.6360 -3.0673  1.3441
 5097SOL    HW226925   4.655   3.273   1.200  0.4158  0.1275 -0.4445
 5098SOL     OW26926   3.684   0.544   8.636  0.5454  0.0665  0.0013
 5098SOL    HW126927   3.656   0.631   8.610  2.2584  0.2835 -1.1074
 5098SOL    HW226928   3.768   0.541   8.589  0.1521  0.0292 -0.7059
 5099SOL     OW26929   2.709   0.280  11.965  0.6702  0.5538 -0.1280
 5099SOL    HW126930   2.714   0.290  12.060  2.1556  0.4757 -0.1913
 5099SOL    HW226931   2.618   0.299  11.944  0.2628 -0.9878  0.2564
 5100SOL     OW26932   0.188   2.782   5.606  0.2524 -0.2542  0.0118
 5100SOL    HW126933   0.104   2.743   5.632 -0.3105  1.9446  1.4548
 5100SOL    HW226934   0.224   2.706   5.560  0.2659  0.5421 -1.2985
 5101SOL     OW26935   0.644   4.602   3.278  0.4279 -0.2517  0.9516
 5101SOL    HW126936   0.731   4.563   3.279  0.1625 -0.8791 -0.4902
 5101SOL    HW226937   0.653   4.697   3.274  0.2986 -0.2069  1.7393
 5102SOL     OW26938   3.753   1.054   4.704 -0.2216 -0.0243 -0.3333
 5102SOL    HW126939   3.837   1.026   4.668  0.3222 -0.6692  1.4142
 5102SOL    HW226940   3.697   0.980   4.681 -0.3085  0.0065 -0.2176
 5103SOL     OW26941   0.893   4.027  11.050  0.4818  0.7924 -1.1568
 5103SOL    HW126942   0.839   3.960  11.091  0.2514  0.5140 -1.9095
 5103SOL    HW226943   0.947   3.978  10.988 -0.7993 -0.7598 -1.0443
 5104SOL     OW26944   1.770   3.261   1.939  0.3304 -0.0714  0.5527
 5104SOL    HW126945   1.678   3.258   1.967 -0.0661  2.0655 -0.5218
 5104SOL    HW226946   1.775   3.290   1.848  0.7985 -0.9024  0.3143
 5105SOL     OW26947   0.172   4.455   8.132  0.0161 -0.1651  0.6795
 5105SOL    HW126948   0.161   4.547   8.157  1.6202  0.1100  0.3656
 5105SOL    HW226949   0.236   4.463   8.061  1.0950 -0.0232  1.6669
 5106SOL     OW26950   0.838   0.882  10.795  0.3988  0.2150  0.4243
 5106SOL    HW126951   0.744   0.871  10.787  0.5420 -3.2978  3.5975
 5106SOL    HW226952   0.868   0.791  10.801  0.2224  0.1356  0.0924
 5107SOL     OW26953   0.782   0.967   6.980 -0.1017 -0.4763 -0.0087
 5107SOL    HW126954   0.860   1.000   6.935 -2.0635  1.7378 -1.7435
 5107SOL    HW226955   0.719   1.007   6.921 -0.3765 -0.6482  0.1687
 5108SOL     OW26956   4.177   2.037   7.633  0.1843 -0.1430 -0.4768
 5108SOL    HW126957   4.231   2.115   7.640  1.7577 -1.2356 -0.4933
 5108SOL    HW226958   4.097   2.080   7.601 -0.9664 -0.4993  1.9388
 5109SOL     OW26959   4.425   3.957  11.766 -0.1287  0.1962  0.6026
 5109SOL    HW126960   4.344   3.956  11.715  1.2396  0.1485 -1.5756
 5109SOL    HW226961   4.440   3.864  11.786  1.0609  0.6512  1.8258
 5110SOL     OW26962   4.158   3.630  11.003 -0.0044 -0.8438  0.7921
 5110SOL    HW126963   4.184   3.558  11.059 -2.7007 -1.0529  1.7686
 5110SOL    HW226964   4.218   3.695  11.040  2.6313 -2.7884 -0.0874
 5111SOL     OW26965   0.394   3.562  15.415  0.0679  0.4397 -0.4247
 5111SOL    HW126966   0.336   3.638  15.429  1.2331  0.9273  1.6934
 5111SOL    HW226967   0.444   3.608  15.347 -0.5971  1.7665 -0.0229
 5112SOL     OW26968   2.093   1.723   3.005  0.0681  0.0057  0.5126
 5112SOL    HW126969   2.126   1.764   3.085 -1.5745 -1.5078  1.9783
 5112SOL    HW226970   2.123   1.633   3.013 -0.1860 -0.0578  0.7598
 5113SOL     OW26971   3.500   1.978  11.289 -0.2381  0.2786 -0.4593
 5113SOL    HW126972   3.460   2.042  11.348 -0.2443  2.1645 -2.5164
 5113SOL    HW226973   3.462   2.004  11.205  0.9321 -0.8815 -1.3475
 5114SOL     OW26974   0.223   2.637   2.957  0.4184 -0.2555  0.3578
 5114SOL    HW126975   0.270   2.610   3.037 -1.0717  1.0530  1.6796
 5114SOL    HW226976   0.135   2.642   2.994 -0.1001 -1.1249 -0.7836
 5115SOL     OW26977   2.001   0.198  11.832 -0.1331 -0.0595  0.1074
 5115SOL    HW126978   1.990   0.195  11.737  0.5849  0.6821  0.0084
 5115SOL    HW226979   2.064   0.127  11.844  0.5582  0.8520  1.8209
 5116SOL     OW26980   0.038   1.512   8.886  0.3275  0.0188 -0.4774
 5116SOL    HW126981   0.045   1.447   8.817 -1.7794  0.5910 -1.2134
 5116SOL    HW226982   4.680   1.522   8.878  0.3237  1.1117  0.8712
 5117SOL     OW26983   2.645   3.530   5.572  0.1261 -0.0168  0.4312
 5117SOL    HW126984   2.560   3.574   5.578 -0.5560 -0.9401 -2.3936
 5117SOL    HW226985   2.640   3.462   5.639 -0.4673  1.6926  2.1447
 5118SOL     OW26986   3.678   1.540   6.275  0.3926  0.5155  0.3624
 5118SOL    HW126987   3.667   1.634   6.289  0.9233  0.7066 -0.4601
 5118SOL    HW226988   3.684   1.540   6.179  1.0462 -2.6362  0.4206
 5119SOL     OW26989   0.683   2.847   1.832 -0.1100 -0.1732 -0.4186
 5119SOL    HW126990   0.642   2.858   1.746 -0.8368  0.1678 -0.0284
 5119SOL    HW226991   0.761   2.901   1.816 -0.9489  0.5446 -2.1810
 5120SOL     OW26992   4.674   0.916   7.369  0.0081 -0.1728  0.2640
 5120SOL    HW126993   4.655   1.006   7.343 -1.3832 -0.0533  1.7183
 5120SOL    HW226994   0.032   0.909   7.356 -0.2454 -1.2655 -1.0080
 5121SOL     OW26995   2.182   3.976   4.738 -0.1507 -0.2184  0.1410
 5121SOL    HW126996   2.267   3.935   4.721  0.1223 -0.5456  2.2831
 5121SOL    HW226997   2.190   3.969   4.833 -0.7099 -3.0059 -0.0077
 5122SOL     OW26998   3.377   2.048  11.774 -0.0357  0.5873  0.2730
 5122SOL    HW126999   3.441   2.074  11.840  0.5344 -0.9915  0.3573
 5122SOL    HW227000   3.340   1.971  11.817 -2.4631  1.8891  0.4768
 5123SOL     OW27001   2.624   1.069   3.554  0.3804  0.0309 -0.3967
 5123SOL    HW127002   2.707   1.086   3.511  1.2417  0.0633  1.2653
 5123SOL    HW227003   2.619   1.144   3.613  0.6082  0.4191 -0.8799
 5124SOL     OW27004   1.766   0.486  11.616 -0.1282  0.2224 -0.5125
 5124SOL    HW127005   1.803   0.531  11.691 -1.7899 -0.8123  0.9499
 5124SOL    HW227006   1.705   0.546  11.573 -1.8964 -0.3130  1.2429
 5125SOL     OW27007   4.686   1.789   0.179  0.2471 -0.2149 -0.9156
 5125SOL    HW127008   4.731   1.808   0.261 -1.2050  0.5945 -0.3088
 5125SOL    HW227009   4.639   1.871   0.166  0.1459  0.0825  1.2595
 5126SOL     OW27010   1.334   2.651   8.390  0.2195  0.4696  0.4400
 5126SOL    HW127011   1.387   2.695   8.456  0.5992  2.0293 -0.9284
 5126SOL    HW227012   1.301   2.721   8.335  1.2112 -0.4415 -1.3491
 5127SOL     OW27013   4.178   3.105   2.867 -0.4697  0.1436  0.0455
 5127SOL    HW127014   4.245   3.164   2.901 -0.3088 -0.1936  0.3267
 5127SOL    HW227015   4.176   3.034   2.932 -1.3643  0.3721  0.2551
 5128SOL     OW27016   2.785   1.855   1.104  0.3632  0.0955  0.0255
 5128SOL    HW127017   2.741   1.938   1.124  2.4238  0.8349  1.4740
 5128SOL    HW227018   2.711   1.794   1.100 -1.1003  1.7650  1.6672
 5129SOL     OW27019   4.545   3.722   5.286 -0.5589 -0.3770  0.0807
 5129SOL    HW127020   4.486   3.662   5.241 -0.7002  0.1693 -0.4769
 5129SOL    HW227021   4.552   3.797   5.226  1.3556 -0.4510  0.2143
 5130SOL     OW27022   2.920   2.057   1.510 -0.2816 -0.2474  0.3198
 5130SOL    HW127023   2.862   2.132   1.516 -2.2624 -1.8352  0.9546
 5130SOL    HW227024   2.998   2.089   1.465 -1.4898  0.4793 -1.2438
 5131SOL     OW27025   0.876   1.683   8.337 -0.4004 -0.0319 -0.2481
 5131SOL    HW127026   0.957   1.733   8.322 -0.9602  0.2754 -2.1409
 5131SOL    HW227027   0.856   1.709   8.427  3.0129  1.3767  0.1205
 5132SOL     OW27028   0.070   1.520  10.388  0.3584  0.1728 -0.0573
 5132SOL    HW127029   0.059   1.425  10.381  1.1634  0.1254 -0.6155
 5132SOL    HW227030   0.057   1.540  10.296 -1.1612  0.4237  0.2056
 5133SOL     OW27031   2.213   4.096  14.203 -0.0432  0.3835 -0.0124
 5133SOL    HW127032   2.285   4.119  14.144  0.4662 -0.0745  0.4342
 5133SOL    HW227033   2.272   4.093  14.278  1.2453  0.8870 -0.9837
 5134SOL     OW27034   1.255   1.760   7.458 -0.6026  0.1304 -0.0657
 5134SOL    HW127035   1.178   1.754   7.401  0.2919 -1.5874 -1.0735
 5134SOL    HW227036   1.221   1.817   7.527  0.1386  1.3649 -0.7099
 5135SOL     OW27037   1.917   3.960   6.396 -0.1487  0.4964  0.4843
 5135SOL    HW127038   1.845   4.013   6.430 -0.5112 -1.3183  2.5230
 5135SOL    HW227039   1.877   3.873   6.405 -0.2458  0.4502 -0.3544
 5136SOL     OW27040   0.458   1.915  12.709  0.0328 -0.4491  0.5133
 5136SOL    HW127041   0.487   1.846  12.769  1.9804  0.6431  0.8294
 5136SOL    HW227042   0.461   1.988  12.770 -0.9553 -1.3187  1.5956
 5137SOL     OW27043   0.602   2.118   4.145 -0.4762 -0.1910 -0.9596
 5137SOL    HW127044   0.665   2.110   4.216  0.5501  4.3717 -1.3780
 5137SOL    HW227045   0.604   2.027   4.115  0.7876 -0.8759  1.2246
 5138SOL     OW27046   3.750   4.688  13.938  0.1943 -0.0038  0.7765
 5138SOL    HW127047   3.753   4.671  13.844  1.5839  0.8564  0.6577
 5138SOL    HW227048   3.712   4.617  13.989  0.9912 -1.3577 -0.4884
 5139SOL     OW27049   2.514   1.449   1.276 -0.0653 -0.1647  0.5764
 5139SOL    HW127050   2.516   1.521   1.213  1.0267 -1.1288 -0.5092
 5139SOL    HW227051   2.608   1.432   1.287 -0.3111 -0.2984  2.4182
 5140SOL     OW27052   0.916   1.906  13.317  0.2175  0.5986  0.0739
 5140SOL    HW127053   0.864   1.925  13.239 -0.5880  0.8658  0.6733
 5140SOL    HW227054   0.850   1.867  13.374 -0.1609 -1.2757 -1.6524
 5141SOL     OW27055   2.699   2.148   6.650 -0.8420  0.5711  0.0669
 5141SOL    HW127056   2.685   2.155   6.555  0.8457  1.2513 -0.1475
 5141SOL    HW227057   2.774   2.088   6.654  0.5246  2.2828  0.1919
 5142SOL     OW27058   3.693   4.604   2.537  0.2415  0.3983  0.1676
 5142SOL    HW127059   3.650   4.667   2.594 -0.9826  1.6179 -2.0918
 5142SOL    HW227060   3.667   4.636   2.450  2.4676  0.4727 -0.4631
 5143SOL     OW27061   2.895   1.348   3.913 -0.1357 -0.3141 -0.2821
 5143SOL    HW127062   2.872   1.435   3.880  1.8317 -0.3822 -1.7993
 5143SOL    HW227063   2.837   1.343   3.989 -0.4926  0.4184 -0.5093
 5144SOL     OW27064   1.618   0.003   7.186 -0.5424  0.1173 -0.2455
 5144SOL    HW127065   1.530   0.004   7.149 -0.5263  1.2216 -0.2477
 5144SOL    HW227066   1.593   0.016   7.277 -1.9098 -0.5000 -0.5329
 5145SOL     OW27067   2.992   4.190   5.589  0.7319  0.6296  0.2660
 5145SOL    HW127068   2.969   4.103   5.619 -0.2920  0.1517 -1.8495
 5145SOL    HW227069   3.044   4.152   5.518 -0.9156 -0.1580 -0.5309
 5146SOL     OW27070   2.656   1.135  13.097  0.4098 -0.3619  0.1813
 5146SOL    HW127071   2.616   1.048  13.104 -0.8850  0.1397 -0.9764
 5146SOL    HW227072   2.661   1.141  13.192  0.3615 -0.4136  0.1869
 5147SOL     OW27073   2.966   4.535  16.459 -0.0219 -0.4159 -0.1110
 5147SOL    HW127074   3.005   4.561  16.543  0.6529  1.1586 -0.9187
 5147SOL    HW227075   3.006   4.451  16.438  0.0244 -0.9112  1.9174
 5148SOL     OW27076   0.750   1.204   9.493  0.1939  0.2966  0.2615
 5148SOL    HW127077   0.780   1.251   9.571  3.8377 -0.8821 -0.3949
 5148SOL    HW227078   0.705   1.272   9.444  0.6501  0.7143  0.4260
 5149SOL     OW27079   3.873   2.156   1.098  0.1780 -0.2972 -0.2149
 5149SOL    HW127080   3.795   2.120   1.055 -0.0067 -0.3070  0.1283
 5149SOL    HW227081   3.925   2.177   1.021 -0.4934 -0.1595 -0.6361
 5150SOL     OW27082   3.877   0.732   2.965 -0.0070  0.3394  0.7629
 5150SOL    HW127083   3.798   0.784   2.975  0.4379  1.0907  0.3496
 5150SOL    HW227084   3.871   0.656   3.023  0.0233 -0.1280  0.1503
 5151SOL     OW27085   1.413   0.173   7.832 -0.1904  0.0671 -0.1078
 5151SOL    HW127086   1.345   0.180   7.898 -0.1753  0.6108 -0.1500
 5151SOL    HW227087   1.445   0.085   7.851 -2.1648 -1.0230 -1.9387
 5152SOL     OW27088   0.650   4.569  11.985 -0.1791  0.3487  0.3606
 5152SOL    HW127089   0.714   4.512  12.028  2.7432  0.2143 -4.1188
 5152SOL    HW227090   0.695   4.653  11.978 -0.1040  0.0081 -3.3270
 5153SOL     OW27091   4.694   1.119   4.009 -0.3360  0.0168  0.1347
 5153SOL    HW127092   4.604   1.122   3.977  0.0521 -1.4103 -1.0654
 5153SOL    HW227093   4.728   1.183   3.945 -0.4168 -3.3279 -3.2266
 5154SOL     OW27094   0.068   3.406  11.175 -0.7829 -0.3855  0.0859
 5154SOL    HW127095   0.011   3.441  11.244  0.1128  0.2795  0.5027
 5154SOL    HW227096   0.064   3.471  11.105  1.9201  0.5752  0.7957
 5155SOL     OW27097   1.295   1.895   6.885 -0.1672 -0.2125  0.2952
 5155SOL    HW127098   1.360   1.947   6.839 -0.5227 -1.1260 -1.2190
 5155SOL    HW227099   1.258   1.958   6.948 -0.4398  0.9519 -1.0349
 5156SOL     OW27100   3.662   1.208   6.812  0.2594  0.4089 -0.0154
 5156SOL    HW127101   3.596   1.147   6.777 -0.2245  0.6606  0.4591
 5156SOL    HW227102   3.610   1.289   6.811  0.1674  0.3548  0.3199
 5157SOL     OW27103   0.931   0.761  10.388 -0.5573  0.2190  0.2113
 5157SOL    HW127104   0.918   0.684  10.333  0.5792 -0.5579  1.0414
 5157SOL    HW227105   0.977   0.723  10.462 -1.1515  0.5011  0.7293
 5158SOL     OW27106   0.729   3.878   5.281 -0.4482 -0.2750  0.3624
 5158SOL    HW127107   0.724   3.961   5.329 -2.0153 -0.3797  0.4019
 5158SOL    HW227108   0.717   3.901   5.189  0.6743  0.9006  0.5165
 5159SOL     OW27109   0.170   0.608   2.936  0.2005  0.3716 -0.4451
 5159SOL    HW127110   0.113   0.554   2.881  0.8448 -1.1439  0.3725
 5159SOL    HW227111   0.123   0.616   3.018  0.8870 -0.9034  0.0712
 5160SOL     OW27112   2.955   0.242   6.143  0.5530  0.4324 -0.0403
 5160SOL    HW127113   2.860   0.246   6.157  0.5630 -0.9379  0.4018
 5160SOL    HW227114   2.990   0.284   6.221 -2.2390  0.7931  1.0391
 5161SOL     OW27115   4.002   4.225   4.667 -0.0806 -0.0375 -0.2482
 5161SOL    HW127116   3.920   4.175   4.660  1.4092 -2.2384 -1.8825
 5161SOL    HW227117   4.042   4.199   4.584  0.1824 -0.0104 -0.1285
 5162SOL     OW27118   4.412   4.084   1.597 -0.1720  0.6347  0.0548
 5162SOL    HW127119   4.452   4.108   1.681 -0.2538 -0.0697  0.2999
 5162SOL    HW227120   4.488   4.082   1.539  1.3356 -0.6247  2.0702
 5163SOL     OW27121   3.816   2.565   5.594 -0.9095  0.6237 -0.1664
 5163SOL    HW127122   3.870   2.609   5.528 -0.0019 -0.9015 -0.4331
 5163SOL    HW227123   3.733   2.611   5.580 -0.7441  0.4651 -1.6544
 5164SOL     OW27124   0.434   2.596   8.577  0.3650 -0.2817  0.3455
 5164SOL    HW127125   0.352   2.613   8.625  0.4590 -1.2013  0.8294
 5164SOL    HW227126   0.472   2.683   8.589 -0.3325  0.0112  0.4680
 5165SOL     OW27127   4.545   0.617  16.264 -0.0072  0.0075 -0.5476
 5165SOL    HW127128   4.521   0.703  16.299  0.1346 -0.2682  0.2238
 5165SOL    HW227129   4.462   0.596  16.220  0.8762 -0.2282 -2.1112
 5166SOL     OW27130   3.164   0.987   7.238 -0.1598  0.3349  0.1913
 5166SOL    HW127131   3.217   0.908   7.234  0.3399  0.6578  0.4013
 5166SOL    HW227132   3.156   1.002   7.332 -0.7140  2.0324 -0.1280
 5167SOL     OW27133   3.884   0.605  17.307 -0.1557  0.0374  0.1147
 5167SOL    HW127134   3.935   0.611  17.225 -2.1991 -2.5474 -1.3281
 5167SOL    HW227135   3.799   0.592  17.266  0.2229 -1.1397 -0.2972
 5168SOL     OW27136   1.178   1.954   3.933 -0.3527  0.5612 -0.1720
 5168SOL    HW127137   1.209   1.908   3.855  0.1376 -0.5023  0.6426
 5168SOL    HW227138   1.088   1.966   3.904 -0.8843 -0.3691  1.0656
 5169SOL     OW27139   0.242   1.541   1.617 -0.2284 -0.1153 -0.3243
 5169SOL    HW127140   0.204   1.453   1.610  0.4739 -0.5452  1.5073
 5169SOL    HW227141   0.182   1.571   1.685  0.4621 -0.4099  0.4061
 5170SOL     OW27142   2.723   0.370   0.416  0.2506  0.5354 -0.2832
 5170SOL    HW127143   2.756   0.459   0.402  0.7387  0.1744 -1.4169
 5170SOL    HW227144   2.753   0.323   0.338  3.8500 -1.2692  2.2280
 5171SOL     OW27145   3.109   2.001  14.919 -0.2513 -0.0751  0.0482
 5171SOL    HW127146   3.157   2.083  14.926  0.8038 -0.6406 -0.4169
 5171SOL    HW227147   3.094   1.977  15.010 -0.1740  1.5485  0.4834
 5172SOL     OW27148   1.565   2.809   5.822  0.2666 -0.5027 -0.8474
 5172SOL    HW127149   1.601   2.737   5.770  1.0244 -0.1332 -0.8252
 5172SOL    HW227150   1.647   2.854   5.838  1.1197 -2.5957  0.7255
 5173SOL     OW27151   1.934   1.120  11.178 -0.3227  0.7802 -0.3481
 5173SOL    HW127152   1.867   1.076  11.125 -0.2664  0.1936  0.0635
 5173SOL    HW227153   1.954   1.053  11.243 -0.3696  1.8062  0.7291
 5174SOL     OW27154   3.605   1.826   5.760  0.3256  0.5929 -1.2566
 5174SOL    HW127155   3.602   1.905   5.813 -0.5292  0.3214 -0.9014
 5174SOL    HW227156   3.514   1.832   5.731 -0.5269  1.8332  1.6749
 5175SOL     OW27157   3.721   0.123   5.218 -0.3624  0.4992 -0.0732
 5175SOL    HW127158   3.653   0.069   5.259  0.8194  0.6140  2.0320
 5175SOL    HW227159   3.749   0.063   5.149 -0.0296 -0.3250  0.7812
 5176SOL     OW27160   3.513   1.690   9.355  0.3264 -0.4876 -0.6524
 5176SOL    HW127161   3.550   1.685   9.267  0.4048  0.8322 -0.6843
 5176SOL    HW227162   3.418   1.699   9.342  0.5423 -0.6036 -2.3186
 5177SOL     OW27163   0.954   0.103   2.839 -0.0643  0.0090  0.2364
 5177SOL    HW127164   0.995   0.021   2.811  1.4442  0.9442 -0.2874
 5177SOL    HW227165   0.939   0.161   2.764  0.4737 -1.9973 -1.4171
 5178SOL     OW27166   0.722   0.389   8.623 -0.1336 -0.4330  0.5629
 5178SOL    HW127167   0.730   0.465   8.564  0.4202  0.6383  2.0114
 5178SOL    HW227168   0.635   0.406   8.659 -0.5105  0.9630 -0.9944
 5179SOL     OW27169   1.100   4.509  10.187 -0.5715 -0.0127 -0.1190
 5179SOL    HW127170   1.044   4.462  10.125  1.1857 -0.9986 -0.9927
 5179SOL    HW227171   1.039   4.560  10.239 -0.5998 -1.4803  1.2762
 5180SOL     OW27172   0.602   0.838   3.566  0.1767 -0.1331 -0.2520
 5180SOL    HW127173   0.618   0.863   3.657 -2.1637  1.2387 -0.2276
 5180SOL    HW227174   0.661   0.882   3.505  2.1112 -0.6107  1.2757
 5181SOL     OW27175   0.244   2.647   1.163  0.2647  0.0802 -0.1739
 5181SOL    HW127176   0.231   2.557   1.194 -1.0763 -0.1276 -1.3255
 5181SOL    HW227177   0.225   2.683   1.249  0.1400  0.1213 -0.2189
 5182SOL     OW27178   1.287   2.002   4.834  0.2875  0.3886  0.1613
 5182SOL    HW127179   1.381   1.994   4.816  0.3603  1.2584  0.1481
 5182SOL    HW227180   1.289   2.055   4.914  0.9374 -0.1422  0.5015
 5183SOL     OW27181   0.234   2.909   4.995 -0.0347  0.2857  0.2002
 5183SOL    HW127182   0.252   3.003   4.989  2.3087 -0.2960 -1.8708
 5183SOL    HW227183   0.218   2.878   4.907  3.4968  0.9720 -0.7060
 5184SOL     OW27184   3.656   3.801   3.646 -0.5224  0.0543  0.1018
 5184SOL    HW127185   3.661   3.706   3.643  2.4504  0.2532 -1.1748
 5184SOL    HW227186   3.729   3.819   3.705  1.1162 -3.1573 -0.9874
 5185SOL     OW27187   4.056   0.892  11.256 -0.2583 -0.0300 -0.2835
 5185SOL    HW127188   4.031   0.807  11.218  0.2502  0.1251 -0.9655
 5185SOL    HW227189   4.134   0.879  11.310 -1.2040  2.0386  1.5827
 5186SOL     OW27190   4.103   3.390   6.680  0.2237  0.5136 -0.4167
 5186SOL    HW127191   4.146   3.388   6.766  1.0882 -0.3174 -0.8706
 5186SOL    HW227192   4.077   3.300   6.662  0.8633  1.0725 -4.0838
 5187SOL     OW27193   2.176   0.347   6.412  0.1056  0.0395  0.1645
 5187SOL    HW127194   2.136   0.357   6.499  0.1629  0.8895  0.0908
 5187SOL    HW227195   2.146   0.421   6.359  0.1445 -1.2251 -1.5982
 5188SOL     OW27196   1.693   4.123   5.541 -0.3823 -0.6082 -0.0731
 5188SOL    HW127197   1.788   4.115   5.544 -0.4341 -1.3222 -0.1976
 5188SOL    HW227198   1.682   4.039   5.495  1.5612 -0.1770 -1.3114
 5189SOL     OW27199   2.004   4.369  11.606 -0.4512  0.2689  0.0891
 5189SOL    HW127200   1.938   4.431  11.638 -1.4290  1.1726 -3.7099
 5189SOL    HW227201   2.050   4.423  11.542  1.7452 -2.0069 -0.2724
 5190SOL     OW27202   1.140   1.012   2.052  0.0194 -0.2532  0.1635
 5190SOL    HW127203   1.221   0.961   2.054 -0.0551 -0.3899 -0.2364
 5190SOL    HW227204   1.162   1.075   1.984  0.3261  0.8427  1.2759
 5191SOL     OW27205   1.063   0.595  13.926  0.4401  0.0454  0.1526
 5191SOL    HW127206   1.086   0.617  13.836  0.3781  1.3619  0.4685
 5191SOL    HW227207   0.976   0.563  13.904  1.2739 -2.3087  0.2625
 5192SOL     OW27208   0.697   0.011   0.392  0.2597 -0.6371 -0.4344
 5192SOL    HW127209   0.791   0.029   0.386  0.5839 -1.9185  0.7785
 5192SOL    HW227210   0.660   0.099   0.386  0.9644 -0.3093 -0.0962
 5193SOL     OW27211   2.594   4.281   8.750 -0.2686 -0.1075  0.2381
 5193SOL    HW127212   2.611   4.303   8.842 -1.0586 -0.1527  0.3930
 5193SOL    HW227213   2.657   4.211   8.730  1.1756  0.5438  2.4757
 5194SOL     OW27214   3.854   2.456   3.079  0.1322 -0.6574  0.5519
 5194SOL    HW127215   3.762   2.474   3.094  0.2745  0.3375  0.2425
 5194SOL    HW227216   3.848   2.375   3.029 -1.1340 -0.9598  1.2225
 5195SOL     OW27217   3.234   2.956  15.999  0.8000  0.2573  0.3973
 5195SOL    HW127218   3.203   3.001  16.077 -0.8130  0.1418 -0.1896
 5195SOL    HW227219   3.163   2.894  15.984  0.7904  0.8812 -2.0781
 5196SOL     OW27220   3.155   2.715   2.128 -0.2396  0.3398  0.3219
 5196SOL    HW127221   3.205   2.772   2.187  0.6976  0.6978 -0.8003
 5196SOL    HW227222   3.182   2.758   2.046 -0.4345  0.2437  0.2084
 5197SOL     OW27223   3.156   4.117   6.621  0.6415  0.1051 -0.2741
 5197SOL    HW127224   3.062   4.130   6.620  0.4667 -0.9675  1.8102
 5197SOL    HW227225   3.157   4.071   6.538 -0.7365  0.7062 -0.6179
 5198SOL     OW27226   1.802   4.328   3.897 -0.0830 -0.1920  0.4125
 5198SOL    HW127227   1.832   4.262   3.834 -1.5029 -2.1504  1.7665
 5198SOL    HW227228   1.806   4.405   3.840  3.0269 -0.0630  0.8015
 5199SOL     OW27229   4.663   0.318   3.567 -0.1613  0.4635  0.1638
 5199SOL    HW127230   4.672   0.406   3.603  0.0980  0.4710  0.0790
 5199SOL    HW227231   4.731   0.325   3.499  0.0711 -1.5153  0.1988
 5200SOL     OW27232   0.730   1.210   2.140  0.1227 -0.3257 -0.0250
 5200SOL    HW127233   0.671   1.239   2.210  1.0871  0.2008  0.5835
 5200SOL    HW227234   0.709   1.275   2.073  1.4884  0.6044  0.4449
 5201SOL     OW27235   3.694   0.564   5.420  0.0007  0.2594  0.0773
 5201SOL    HW127236   3.782   0.576   5.456  0.0380 -0.6179  0.2760
 5201SOL    HW227237   3.723   0.475   5.402 -0.4837  0.0582  0.3135
 5202SOL     OW27238   1.016   4.374   3.844 -0.0443  0.2872 -0.5625
 5202SOL    HW127239   1.107   4.398   3.826 -0.1258  2.1874  1.5301
 5202SOL    HW227240   1.023   4.339   3.933  0.0252  1.5198 -0.0706
 5203SOL     OW27241   4.021   2.882   2.534 -0.0962  0.3272  0.1403
 5203SOL    HW127242   3.996   2.960   2.485  0.4307 -0.7022 -1.7408
 5203SOL    HW227243   4.115   2.893   2.545  0.1029 -2.4213  1.0530
 5204SOL     OW27244   2.939   3.821   7.305 -0.8523 -0.1619 -0.1593
 5204SOL    HW127245   2.925   3.908   7.340  2.2314  0.4094 -0.3543
 5204SOL    HW227246   2.877   3.825   7.232 -1.4949 -2.3052  0.2630
 5205SOL     OW27247   2.699   2.764   3.306 -0.2913 -0.2225  0.3501
 5205SOL    HW127248   2.688   2.673   3.280 -2.6314  0.5910 -1.4754
 5205SOL    HW227249   2.626   2.813   3.268 -0.3404  1.4852  2.6778
 5206SOL     OW27250   0.314   0.920   5.670 -0.1847  0.3642  0.1333
 5206SOL    HW127251   0.366   0.930   5.590  0.7102  2.7261  1.0145
 5206SOL    HW227252   0.317   1.007   5.709 -0.8704  0.7491 -0.6602
 5207SOL     OW27253   3.389   2.832   4.161 -0.0336  0.0164  0.5210
 5207SOL    HW127254   3.464   2.865   4.211 -1.0788  0.1208  2.0377
 5207SOL    HW227255   3.427   2.750   4.131  0.8533 -0.0946  1.9476
 5208SOL     OW27256   1.898   0.242   2.725 -0.0696 -0.0398 -0.4541
 5208SOL    HW127257   1.852   0.176   2.673  0.6043  0.3354 -1.5192
 5208SOL    HW227258   1.900   0.319   2.668  1.2081 -0.3993 -0.8904
 5209SOL     OW27259   1.803   2.595   5.405  0.1021  0.4236  0.0290
 5209SOL    HW127260   1.739   2.665   5.418 -0.0647  0.4174 -0.7481
 5209SOL    HW227261   1.882   2.646   5.388 -1.4761  2.9499  0.2311
 5210SOL     OW27262   0.805   3.599   1.801  0.2598 -0.2705  0.2968
 5210SOL    HW127263   0.738   3.536   1.827 -0.7975 -0.2554 -2.3458
 5210SOL    HW227264   0.845   3.551   1.728 -0.6455 -1.2867  0.4555
 5211SOL     OW27265   0.439   1.592   3.244 -0.1462 -0.5888 -0.4517
 5211SOL    HW127266   0.378   1.523   3.268 -0.7472 -0.3895 -1.3942
 5211SOL    HW227267   0.505   1.531   3.211 -1.4564 -1.1231 -2.0317
 5212SOL     OW27268   2.306   4.313   4.310 -0.1495  0.3590 -0.5156
 5212SOL    HW127269   2.248   4.268   4.372  1.0232  0.2187  0.4980
 5212SOL    HW227270   2.339   4.390   4.357  1.3532  1.1417 -2.8225
 5213SOL     OW27271   2.759   2.108   0.194  0.1651 -0.2483 -0.1382
 5213SOL    HW127272   2.696   2.165   0.149  0.0021 -0.7912 -0.5984
 5213SOL    HW227273   2.724   2.119   0.282 -0.5205 -0.3888 -0.3937
 5214SOL     OW27274   2.661   3.022   2.748  0.6088  0.0323  0.0275
 5214SOL    HW127275   2.620   2.938   2.769 -2.2941  0.4196 -4.1223
 5214SOL    HW227276   2.593   3.065   2.698 -0.0708  1.1104  1.8812
 5215SOL     OW27277   2.367   0.565   4.711 -0.0271 -0.7925  0.0088
 5215SOL    HW127278   2.315   0.645   4.722  2.6553  0.8140  0.9165
 5215SOL    HW227279   2.441   0.580   4.769  0.6868  0.3658 -1.1995
 5216SOL     OW27280   0.994   0.556   3.953 -0.2409 -0.4192  0.0749
 5216SOL    HW127281   1.015   0.616   3.881  0.4814  1.2604  1.6773
 5216SOL    HW227282   1.080   0.527   3.984 -0.1888 -0.5141 -0.1562
 5217SOL     OW27283   1.214   3.164   9.576  0.8303 -0.3946 -0.3365
 5217SOL    HW127284   1.243   3.073   9.584 -1.1755 -1.0144 -0.2733
 5217SOL    HW227285   1.204   3.177   9.482 -1.5521 -0.3915 -0.0840
 5218SOL     OW27286   2.911   3.186   5.772 -0.0385 -0.2780  0.3379
 5218SOL    HW127287   2.899   3.158   5.862  1.5774 -1.0081  0.3287
 5218SOL    HW227288   2.829   3.153   5.735 -0.5739 -0.9471  2.1442
 5219SOL     OW27289   1.447   4.421   5.043  0.5040  0.4228  0.5367
 5219SOL    HW127290   1.389   4.491   5.012  0.1282 -1.5792 -3.2665
 5219SOL    HW227291   1.402   4.340   5.019  0.7367  0.0807  1.2568
 5220SOL     OW27292   0.931   4.493   5.715 -0.4090  0.0695  0.6564
 5220SOL    HW127293   0.926   4.403   5.748 -0.7340 -0.4999 -0.8942
 5220SOL    HW227294   0.856   4.538   5.751 -0.6901  0.0264  0.1324
 5221SOL     OW27295   3.368   2.812   2.258 -0.1812 -0.8747  0.3757
 5221SOL    HW127296   3.401   2.899   2.280 -1.8719  0.4266 -2.2137
 5221SOL    HW227297   3.450   2.772   2.286  0.8405  0.3213 -0.8791
 5222SOL     OW27298   3.446   0.278  11.028  0.1080  0.1278  0.6830
 5222SOL    HW127299   3.374   0.303  10.971  0.2596  0.2480  0.5438
 5222SOL    HW227300   3.494   0.217  10.971 -2.4891  0.6831 -2.0677
 5223SOL     OW27301   0.337   4.015   4.033  0.1835 -0.1614 -0.5072
 5223SOL    HW127302   0.362   4.014   4.125 -0.4873 -0.1012 -0.3253
 5223SOL    HW227303   0.414   4.056   3.993  0.6555 -1.5434 -1.0172
 5224SOL     OW27304   3.367   4.374   9.956 -0.1634  0.4917 -0.3504
 5224SOL    HW127305   3.392   4.454  10.003  1.7641  0.1221 -0.7388
 5224SOL    HW227306   3.440   4.316   9.974  0.2972  1.9391  2.4166
 5225SOL     OW27307   1.412   0.071   4.542  0.6137 -0.3276 -0.0031
 5225SOL    HW127308   1.402   0.081   4.636 -0.8022 -0.7745 -0.1014
 5225SOL    HW227309   1.479   0.002   4.538  1.2368  0.2266  0.9106
 5226SOL     OW27310   4.278   3.663   0.094 -0.2138  0.1570  0.1954
 5226SOL    HW127311   4.241   3.702   0.173  2.3293 -0.6992  1.8128
 5226SOL    HW227312   4.210   3.681   0.029  1.0832 -1.1386 -1.5277
 5227SOL     OW27313   1.912   1.525   6.670  0.6068 -0.2719 -0.6189
 5227SOL    HW127314   1.925   1.500   6.761 -0.5023  0.0197 -0.3884
 5227SOL    HW227315   1.911   1.620   6.684  0.1744 -0.5905  1.5489
 5228SOL     OW27316   2.817   3.184   2.192 -0.2787 -0.6703 -0.2742
 5228SOL    HW127317   2.854   3.109   2.238  1.8624 -1.2872 -2.9330
 5228SOL    HW227318   2.746   3.146   2.141 -0.2613 -1.5706  0.3773
 5229SOL     OW27319   3.902   2.644   4.526  0.2589  0.0852  0.0602
 5229SOL    HW127320   3.958   2.697   4.583 -0.7821  2.6238 -1.2523
 5229SOL    HW227321   3.823   2.640   4.580 -0.0746  2.8040 -0.2024
 5230SOL     OW27322   1.419   1.997   1.512  0.5501 -0.1359 -0.4490
 5230SOL    HW127323   1.503   1.959   1.489  0.3907 -2.3291  2.5956
 5230SOL    HW227324   1.373   1.924   1.553 -0.6457  1.7384  1.6077
 5231SOL     OW27325   4.206   3.619  17.538 -0.4128 -0.4799  0.1519
 5231SOL    HW127326   4.203   3.662  17.452 -0.8686 -0.8297 -0.0090
 5231SOL    HW227327   4.134   3.664  17.581 -1.8632  0.6400 -3.4139
 5232SOL     OW27328   1.491   2.561   1.969 -0.3248 -0.1664 -0.3036
 5232SOL    HW127329   1.540   2.488   1.931  0.8366  0.0772  0.7295
 5232SOL    HW227330   1.450   2.603   1.894  1.5889 -1.5668 -2.1314
 5233SOL     OW27331   3.592   1.977  16.135  0.1698  0.1984  0.2059
 5233SOL    HW127332   3.669   2.025  16.167  0.1799 -2.0409  3.5524
 5233SOL    HW227333   3.533   2.047  16.107  1.0816  0.3851 -1.2762
 5234SOL     OW27334   4.706   3.435   6.578 -0.2199  0.3017  0.3577
 5234SOL    HW127335   4.710   3.508   6.516 -0.2926  0.9536  1.1213
 5234SOL    HW227336   4.695   3.367   6.512 -0.1848 -0.1210  0.7879
 5235SOL     OW27337   2.529   4.660  17.277  0.5969 -0.6569 -0.4945
 5235SOL    HW127338   2.560   4.734  17.329 -1.1030  0.1732 -0.6810
 5235SOL    HW227339   2.613   4.637  17.238 -0.9352 -1.8159 -3.0770
 5236SOL     OW27340   2.720   4.529   9.647 -0.3001  0.4300  0.2474
 5236SOL    HW127341   2.754   4.467   9.711  1.1523 -1.8018 -2.6812
 5236SOL    HW227342   2.645   4.564   9.696  0.1432  0.2585  1.0317
 5237SOL     OW27343   0.804   1.433  13.599  0.1083  0.2528 -0.5284
 5237SOL    HW127344   0.795   1.489  13.676  2.6995 -0.1834  0.1147
 5237SOL    HW227345   0.775   1.504  13.542 -1.3837 -1.7121 -2.2075
 5238SOL     OW27346   4.019   4.367  12.818  0.0844  0.2312 -0.4425
 5238SOL    HW127347   3.930   4.391  12.845  0.0978  0.4808 -0.6156
 5238SOL    HW227348   3.999   4.337  12.730  2.3072 -0.6931 -0.6158
 5239SOL     OW27349   3.687   3.260  11.585 -0.3239 -0.2783 -0.2124
 5239SOL    HW127350   3.767   3.208  11.588  0.4064  0.8477 -0.0691
 5239SOL    HW227351   3.647   3.211  11.656 -1.0508 -3.1542 -2.6248
 5240SOL     OW27352   3.101   2.261   0.477 -0.4318  0.2237 -0.1456
 5240SOL    HW127353   3.144   2.346   0.466 -1.9728  0.7221 -2.2810
 5240SOL    HW227354   3.121   2.246   0.570  1.5973  1.0526 -0.4514
 5241SOL     OW27355   2.317   3.645  16.628  0.2406 -0.1335  0.1833
 5241SOL    HW127356   2.225   3.670  16.626  0.2077 -0.2378  0.3398
 5241SOL    HW227357   2.297   3.595  16.707 -0.0724 -0.2509  0.0274
 5242SOL     OW27358   3.225   1.498   5.566 -0.3604  0.0394 -0.6753
 5242SOL    HW127359   3.252   1.418   5.520  3.6616  2.0211 -1.7474
 5242SOL    HW227360   3.130   1.491   5.555 -0.0813 -3.2909 -0.8983
 5243SOL     OW27361   1.205   1.949  13.296  0.7589  0.6385 -0.4749
 5243SOL    HW127362   1.118   1.986  13.307  0.7810  0.7313 -0.6102
 5243SOL    HW227363   1.184   1.857  13.278 -0.8410  1.4921 -3.0746
 5244SOL     OW27364   0.343   1.538   8.148 -0.0969  0.0035  0.2423
 5244SOL    HW127365   0.421   1.533   8.204 -1.2426 -1.1861  1.7447
 5244SOL    HW227366   0.341   1.627   8.112  0.8960 -0.4673 -0.9610
 5245SOL     OW27367   4.173   3.048   6.282 -0.1052 -0.0482  0.1986
 5245SOL    HW127368   4.176   3.006   6.196  0.0421  2.2502 -0.9253
 5245SOL    HW227369   4.137   2.978   6.337 -0.2847  0.2373  0.4459
 5246SOL     OW27370   4.418   3.428  14.194 -0.2318  0.2199  0.2956
 5246SOL    HW127371   4.509   3.455  14.206  0.1991 -1.0299 -0.1595
 5246SOL    HW227372   4.377   3.503  14.151 -1.6858 -0.6549  0.1338
 5247SOL     OW27373   0.331   2.016  16.971  0.4157 -0.2053 -0.6834
 5247SOL    HW127374   0.255   2.003  17.027 -0.0712  0.1052 -1.2778
 5247SOL    HW227375   0.365   1.929  16.950 -0.2769 -0.2415 -1.6431
 5248SOL     OW27376   3.244   1.324   0.317  0.0068 -0.3556  0.2741
 5248SOL    HW127377   3.247   1.232   0.290  0.3866 -0.9880  2.4905
 5248SOL    HW227378   3.256   1.381   0.241 -0.3961  0.5515  0.9033
 5249SOL     OW27379   3.304   4.060   3.169 -0.1165 -0.0373  0.5543
 5249SOL    HW127380   3.387   4.021   3.142 -0.7838  1.3031 -3.4170
 5249SOL    HW227381   3.342   4.144   3.198 -1.1216  1.1153 -1.4871
 5250SOL     OW27382   3.465   0.246  11.989  0.1898 -0.1260  0.4235
 5250SOL    HW127383   3.468   0.268  12.082  2.1849  0.2795  0.2467
 5250SOL    HW227384   3.421   0.323  11.954 -2.1997 -0.7867  1.9695
 5251SOL     OW27385   3.580   1.569   1.134  0.7627 -0.0516  0.0864
 5251SOL    HW127386   3.529   1.542   1.057  0.8052  1.1663 -0.3768
 5251SOL    HW227387   3.646   1.624   1.092  0.1582  0.0981 -0.6734
 5252SOL     OW27388   4.259   1.631   3.701  0.3393 -0.3692  0.6104
 5252SOL    HW127389   4.297   1.591   3.623  0.9908  0.2611  0.6045
 5252SOL    HW227390   4.334   1.667   3.748  0.3353 -1.8581  1.7311
 5253SOL     OW27391   2.156   0.478   3.396  0.3098  0.0459 -0.4015
 5253SOL    HW127392   2.216   0.549   3.419  1.5899 -1.1911  0.0983
 5253SOL    HW227393   2.084   0.534   3.366 -0.6964 -0.2681  1.4092
 5254SOL     OW27394   0.819   1.244   8.463 -0.4287 -0.5473  0.3331
 5254SOL    HW127395   0.902   1.284   8.486 -0.2522  0.2578 -1.7506
 5254SOL    HW227396   0.783   1.224   8.549 -1.9097  1.0751  0.0827
 5255SOL     OW27397   3.990   2.379  11.265  0.0780  0.7052  0.7277
 5255SOL    HW127398   4.019   2.298  11.223  0.0936  0.8223  0.5113
 5255SOL    HW227399   3.968   2.345  11.351  0.7852 -0.2134  0.5460
 5256SOL     OW27400   0.816   1.901   4.529  0.1181  0.4630  0.6316
 5256SOL    HW127401   0.743   1.843   4.551  0.9699 -1.1856 -0.8839
 5256SOL    HW227402   0.857   1.903   4.615 -0.9372 -0.4369  1.1488
 5257SOL     OW27403   0.845   3.718   2.498  0.3956 -0.3790 -0.0814
 5257SOL    HW127404   0.819   3.795   2.447  0.1192 -1.7539 -2.0267
 5257SOL    HW227405   0.836   3.649   2.433  0.0416 -0.9031  0.5277
 5258SOL     OW27406   1.248   1.537   6.993  0.3925  0.1257 -0.0887
 5258SOL    HW127407   1.297   1.478   7.051  0.0718 -2.7058 -2.6979
 5258SOL    HW227408   1.221   1.602   7.058 -1.0262 -0.3053 -0.2496
 5259SOL     OW27409   1.241   2.444   4.140 -0.1721  0.1124  0.1043
 5259SOL    HW127410   1.286   2.389   4.204 -1.0891  0.5992  1.1514
 5259SOL    HW227411   1.150   2.424   4.161 -0.0261  1.5973  2.0421
 5260SOL     OW27412   2.004   4.464   3.177 -0.1045 -0.7667 -0.2500
 5260SOL    HW127413   1.993   4.403   3.105 -0.2598  0.3419 -1.1750
 5260SOL    HW227414   1.932   4.527   3.171  0.9692  0.6639  1.5538
 5261SOL     OW27415   3.408   2.634  13.006  1.1243  0.3651 -0.1953
 5261SOL    HW127416   3.447   2.589  12.931 -1.1894  0.3140 -1.3686
 5261SOL    HW227417   3.345   2.686  12.956  1.1612  0.8140  0.2294
 5262SOL     OW27418   2.108   1.068  15.663 -0.4236 -0.0505 -0.0021
 5262SOL    HW127419   2.116   1.134  15.595  1.4740 -0.3352 -0.0498
 5262SOL    HW227420   2.194   1.046  15.698 -0.5893  1.7955  1.5579
 5263SOL     OW27421   2.683   3.896  13.874  0.0440 -0.9149 -0.3699
 5263SOL    HW127422   2.752   3.959  13.895 -2.3964  2.0998 -1.3761
 5263SOL    HW227423   2.609   3.911  13.933 -0.5135 -0.5888 -1.1559
 5264SOL     OW27424   0.436   0.534   8.583 -0.6816  0.0215  0.0578
 5264SOL    HW127425   0.468   0.619   8.613  2.5841 -1.0536 -0.3228
 5264SOL    HW227426   0.359   0.518   8.636 -1.4604  3.1243 -0.1331
 5265SOL     OW27427   0.883   0.389  11.198 -1.0762 -0.5490  0.1681
 5265SOL    HW127428   0.805   0.339  11.176 -0.3056 -0.8930 -1.7238
 5265SOL    HW227429   0.853   0.421  11.283 -2.8742 -2.4923  0.2636
 5266SOL     OW27430   4.454   3.973   6.844 -0.1772  0.6806  0.0577
 5266SOL    HW127431   4.531   3.935   6.800  1.0487  3.1319  0.0132
 5266SOL    HW227432   4.496   4.059   6.850  0.2400  0.6173 -1.8159
 5267SOL     OW27433   2.099   0.767   6.114  0.0294 -0.4707  1.1073
 5267SOL    HW127434   2.015   0.792   6.152  1.4097  1.3739  2.9121
 5267SOL    HW227435   2.153   0.816   6.176  1.8129 -2.0578  0.8136
 5268SOL     OW27436   2.061   3.214  12.405  0.3129 -0.3444  0.2797
 5268SOL    HW127437   2.063   3.121  12.381  1.6204 -0.4592  0.8289
 5268SOL    HW227438   2.081   3.203  12.498  1.7300  2.4945  0.3006
 5269SOL     OW27439   3.235   3.046  12.885  0.1399 -0.0992 -0.4634
 5269SOL    HW127440   3.275   3.074  12.967 -1.3654 -3.5055  1.4333
 5269SOL    HW227441   3.313   3.032  12.830 -0.7590 -0.8125 -1.5503
 5270SOL     OW27442   3.446   4.074   9.331  0.4454  0.0986  0.1637
 5270SOL    HW127443   3.520   4.120   9.369  0.8386 -0.5069  0.1257
 5270SOL    HW227444   3.397   4.038   9.406  0.7308  1.5921  1.0636
 5271SOL     OW27445   3.564   1.959   9.408 -0.1731 -0.2997 -0.1477
 5271SOL    HW127446   3.541   1.878   9.362 -0.5358 -1.3894  1.9256
 5271SOL    HW227447   3.501   1.964   9.480  0.6631  1.7803  0.4399
 5272SOL     OW27448   4.728   1.744   8.260 -0.3843  0.2429  0.1639
 5272SOL    HW127449   4.731   1.837   8.240 -0.1057  0.6116  1.8974
 5272SOL    HW227450   0.024   1.700   8.182  0.6861  0.7042  0.3547
 5273SOL     OW27451   4.560   0.168  12.189  0.5722 -0.1410  0.6570
 5273SOL    HW127452   4.649   0.160  12.153  0.8828  3.6056  0.5810
 5273SOL    HW227453   4.552   0.095  12.250  1.3271 -0.4475  0.3947
 5274SOL     OW27454   1.065   1.216   1.843  0.5417  0.7245  0.2720
 5274SOL    HW127455   1.148   1.185   1.808 -0.2504 -0.1704 -0.8330
 5274SOL    HW227456   1.016   1.134   1.854 -0.2590  1.0501 -0.8322
 5275SOL     OW27457   4.390   3.033  10.294  0.4722  0.9006  0.2175
 5275SOL    HW127458   4.456   3.099  10.314  0.7798  0.9235 -0.8619
 5275SOL    HW227459   4.320   3.076  10.342  0.1501  2.3459 -1.5655
 5276SOL     OW27460   0.269   0.524  14.633  0.7992 -0.0256 -0.0003
 5276SOL    HW127461   0.248   0.515  14.540  0.3785 -0.7949  0.1620
 5276SOL    HW227462   0.269   0.433  14.663 -2.2110  0.1537  0.5778
 5277SOL     OW27463   3.455   0.769  12.784 -0.0845  0.4512 -0.1078
 5277SOL    HW127464   3.363   0.762  12.811 -0.1564 -0.6194 -0.6647
 5277SOL    HW227465   3.462   0.712  12.708 -0.3479  1.4457 -0.8800
 5278SOL     OW27466   0.301   2.305   1.819 -0.5606  0.6299  0.3869
 5278SOL    HW127467   0.239   2.376   1.804 -0.9715  0.0473 -0.6608
 5278SOL    HW227468   0.295   2.240   1.749  5.4884  0.8721 -0.3943
 5279SOL     OW27469   0.197   0.447   4.795 -0.2768 -0.0114 -0.1953
 5279SOL    HW127470   0.249   0.527   4.783 -0.4054  0.4962  2.7918
 5279SOL    HW227471   0.109   0.483   4.797 -0.5601 -0.7717  1.2455
 5280SOL     OW27472   0.531   0.790   0.588 -0.3504  0.6395 -0.1179
 5280SOL    HW127473   0.543   0.796   0.683 -1.8643  0.8980  0.0597
 5280SOL    HW227474   0.564   0.877   0.565  1.9387 -0.6170 -1.4952
 5281SOL     OW27475   1.134   2.901   6.647  0.5831  0.5001 -0.1816
 5281SOL    HW127476   1.104   2.925   6.559 -0.8092 -1.9346 -0.3840
 5281SOL    HW227477   1.209   2.960   6.649  0.0497  1.1284  1.3417
 5282SOL     OW27478   0.717   2.671   8.613 -0.3409  0.3570  0.4010
 5282SOL    HW127479   0.772   2.744   8.584  1.6905 -1.1062  0.5871
 5282SOL    HW227480   0.700   2.690   8.705  1.0201  0.1250  0.7024
 5283SOL     OW27481   1.250   1.719   6.684  0.3139  0.4219  0.0233
 5283SOL    HW127482   1.279   1.778   6.753  0.6982  0.2481  0.0124
 5283SOL    HW227483   1.307   1.752   6.615 -1.6690  4.3866  0.2960
 5284SOL     OW27484   0.440   0.514   6.463 -0.1925  0.1842  0.6195
 5284SOL    HW127485   0.370   0.494   6.400  2.6240 -3.4743 -1.3431
 5284SOL    HW227486   0.509   0.460   6.426 -1.4343  1.4380 -3.5934
 5285SOL     OW27487   4.312   4.290  17.077  0.5582  0.7070  0.3364
 5285SOL    HW127488   4.238   4.274  17.135  0.9008 -0.6419  0.3936
 5285SOL    HW227489   4.284   4.365  17.024  0.6259 -0.6498 -1.6052
 5286SOL     OW27490   0.884   2.065  14.143 -0.2919  0.9762 -0.5106
 5286SOL    HW127491   0.913   2.061  14.052  0.2276  1.7483 -0.3745
 5286SOL    HW227492   0.968   2.103  14.169  0.9580 -2.2276  0.2086
 5287SOL     OW27493   1.641   3.045   1.588 -0.7647  1.0762  0.7202
 5287SOL    HW127494   1.698   2.986   1.540 -1.0939 -0.2348  1.9285
 5287SOL    HW227495   1.623   3.000   1.671 -0.1756 -1.6158 -0.6235
 5288SOL     OW27496   2.925   2.921   5.115 -0.6092 -0.5526  0.6549
 5288SOL    HW127497   2.944   2.832   5.086 -2.0319 -0.4537 -0.5671
 5288SOL    HW227498   3.005   2.931   5.167 -0.0127 -1.7644 -0.0162
 5289SOL     OW27499   1.698   1.259   9.556  0.6218 -0.3071  0.3377
 5289SOL    HW127500   1.625   1.287   9.501 -0.2711 -0.4537  1.4607
 5289SOL    HW227501   1.706   1.342   9.603  2.6046 -0.8469  0.9319
 5290SOL     OW27502   0.344   3.991   7.045  0.0153 -0.6290  0.3577
 5290SOL    HW127503   0.369   3.969   7.135 -0.9315 -0.9364  0.5449
 5290SOL    HW227504   0.253   4.019   7.048  0.1670 -0.1850  0.9492
 5291SOL     OW27505   3.694   3.060   9.183  0.1633 -0.1329 -0.0192
 5291SOL    HW127506   3.712   3.104   9.266  0.9236  2.0785 -1.3588
 5291SOL    HW227507   3.625   2.995   9.199 -2.4191  2.2765 -1.2245
 5292SOL     OW27508   1.510   3.992  16.710  1.1034  0.0436  0.1002
 5292SOL    HW127509   1.454   4.019  16.637  0.7898  0.4114  0.4737
 5292SOL    HW227510   1.475   3.904  16.723  0.0026  0.1832 -1.9811
 5293SOL     OW27511   2.394   4.584   1.182  0.3312  0.3295  0.6852
 5293SOL    HW127512   2.440   4.565   1.100  2.2533  0.4255  1.7607
 5293SOL    HW227513   2.391   4.502   1.232 -1.4786 -0.3582 -0.5238
 5294SOL     OW27514   2.533   3.421   2.865  0.0653  0.0850 -0.1095
 5294SOL    HW127515   2.487   3.381   2.938  0.1191 -0.1029 -0.1762
 5294SOL    HW227516   2.623   3.388   2.857 -0.1450 -1.2423  3.1577
 5295SOL     OW27517   0.204   4.166   5.612  0.5026  0.5599 -0.4461
 5295SOL    HW127518   0.295   4.155   5.584 -0.0410 -1.7832 -1.2924
 5295SOL    HW227519   0.178   4.077   5.635  0.8824 -0.1928 -2.9015
 5296SOL     OW27520   4.132   1.836   8.630  0.1915 -1.0111 -0.2659
 5296SOL    HW127521   4.071   1.890   8.581  0.5125 -1.5849 -1.2834
 5296SOL    HW227522   4.187   1.792   8.566 -0.2147 -1.7465 -0.1063
 5297SOL     OW27523   2.351   3.743   5.363  0.1640  0.5412  0.1103
 5297SOL    HW127524   2.382   3.675   5.304  1.0348  2.1180 -1.2178
 5297SOL    HW227525   2.265   3.760   5.325 -0.2094 -0.2686  0.5940
 5298SOL     OW27526   2.225   3.437   6.046 -0.4416  0.4158  0.3619
 5298SOL    HW127527   2.275   3.428   5.964 -0.9106  1.8986 -0.0735
 5298SOL    HW227528   2.232   3.531   6.059 -2.4242  0.3511  1.8697
 5299SOL     OW27529   1.902   0.362   3.827 -0.1431 -0.1628 -0.6060
 5299SOL    HW127530   1.893   0.416   3.905 -0.8838  0.0964 -0.8695
 5299SOL    HW227531   1.826   0.383   3.774  0.6295  0.7128 -1.3734
 5300SOL     OW27532   2.437   4.376  15.913  0.2238  0.6095 -0.2518
 5300SOL    HW127533   2.486   4.416  15.841  0.4721  1.6092  0.4549
 5300SOL    HW227534   2.412   4.288  15.886  0.5802  0.4095  0.0635
 5301SOL     OW27535   0.073   4.679   2.313  0.4268 -0.0101 -0.0282
 5301SOL    HW127536   0.094   4.705   2.223  1.6247 -0.1439  0.2038
 5301SOL    HW227537   0.004   4.614   2.307  0.2504  0.2419 -0.7799
 5302SOL     OW27538   3.882   2.693   7.811  0.3699  0.3435 -0.1320
 5302SOL    HW127539   3.890   2.753   7.737 -0.4569 -0.0311 -0.5257
 5302SOL    HW227540   3.852   2.620   7.758 -0.0516 -0.3600  1.0635
 5303SOL     OW27541   0.350   0.553  14.133 -0.1402  0.1872 -0.1131
 5303SOL    HW127542   0.286   0.614  14.097 -0.2051  0.2808  0.1546
 5303SOL    HW227543   0.421   0.612  14.159 -0.2431  0.0724  0.4339
 5304SOL     OW27544   1.252   2.743   7.419  0.2674 -0.0032  0.0786
 5304SOL    HW127545   1.316   2.769   7.486  1.1124 -3.6806  0.6714
 5304SOL    HW227546   1.278   2.653   7.401 -0.7436 -0.7310  2.2970
 5305SOL     OW27547   1.511   4.675   6.736 -0.2563  0.0059 -0.6292
 5305SOL    HW127548   1.536   4.583   6.722  0.0980  0.1228 -0.7554
 5305SOL    HW227549   1.435   4.684   6.679 -0.4295 -3.1511 -0.9123
 5306SOL     OW27550   2.821   2.777   3.549 -0.9659 -0.3976  0.5429
 5306SOL    HW127551   2.773   2.760   3.468 -0.0660 -2.1836  0.3798
 5306SOL    HW227552   2.860   2.861   3.525  2.0933 -2.1490 -0.6102
 5307SOL     OW27553   1.163   2.238   1.733 -0.2275 -0.4040  0.0897
 5307SOL    HW127554   1.161   2.252   1.638 -0.4843  0.3588  0.2029
 5307SOL    HW227555   1.257   2.219   1.740 -0.3657 -0.5369  1.6184
 5308SOL     OW27556   3.682   4.485   7.561 -0.0763  0.0357  0.4567
 5308SOL    HW127557   3.639   4.456   7.642  1.4432  1.2130  1.6730
 5308SOL    HW227558   3.621   4.450   7.496 -1.7219  1.2429  1.3571
 5309SOL     OW27559   2.019   1.112   3.153  0.0607 -0.1597 -0.0246
 5309SOL    HW127560   1.995   1.204   3.150 -2.7100 -0.8879  0.3331
 5309SOL    HW227561   1.975   1.086   3.233 -1.3860 -0.3645 -0.8941
 5310SOL     OW27562   3.204   3.424  16.075 -0.3314 -0.6457  0.0640
 5310SOL    HW127563   3.132   3.403  16.134  0.3063  0.6068  1.2808
 5310SOL    HW227564   3.165   3.383  15.997 -1.4144  0.3715  0.0609
 5311SOL     OW27565   3.862   2.427   3.895  0.3598 -0.4072  0.1982
 5311SOL    HW127566   3.860   2.358   3.829  2.9415  2.5066 -2.9090
 5311SOL    HW227567   3.771   2.451   3.913  0.4992 -1.3803  2.3172
 5312SOL     OW27568   3.729   2.456   8.127  0.1159  0.2002 -0.1363
 5312SOL    HW127569   3.694   2.407   8.202  2.6055  0.6960  1.3499
 5312SOL    HW227570   3.747   2.387   8.064  1.6101  0.4831 -0.0121
 5313SOL     OW27571   3.210   1.534   5.217 -0.2170  0.3784 -0.6508
 5313SOL    HW127572   3.291   1.506   5.176  0.8636  0.6315  1.3050
 5313SOL    HW227573   3.156   1.543   5.139 -0.2335  0.7098 -0.6002
 5314SOL     OW27574   2.101   1.224  16.464 -0.2236 -0.3317  0.1637
 5314SOL    HW127575   2.107   1.185  16.552  0.3380  4.5322  2.2614
 5314SOL    HW227576   2.161   1.170  16.412 -1.8696 -1.6738 -0.3362
 5315SOL     OW27577   2.121   2.174   5.599 -0.1381 -0.4063 -0.6787
 5315SOL    HW127578   2.107   2.153   5.506  0.6107 -1.9729 -0.4375
 5315SOL    HW227579   2.157   2.095   5.639 -0.0451  0.7626  1.5512
 5316SOL     OW27580   3.995   0.749   4.483  0.1738 -0.0989 -0.4359
 5316SOL    HW127581   4.063   0.813   4.462  3.3135 -4.1448 -2.5637
 5316SOL    HW227582   3.921   0.775   4.429  0.2235 -1.1336 -1.0001
 5317SOL     OW27583   1.674   0.459   8.065  0.0427  0.5495 -0.0984
 5317SOL    HW127584   1.663   0.519   7.992 -3.3204 -2.2576 -1.8875
 5317SOL    HW227585   1.583   0.431   8.067 -0.4963  2.4306  1.9057
 5318SOL     OW27586   1.912   3.298  11.798 -0.0034 -0.0059 -0.0290
 5318SOL    HW127587   2.006   3.280  11.805 -0.0481 -0.9295 -1.8071
 5318SOL    HW227588   1.880   3.208  11.792 -1.1575  0.4384 -0.4523
 5319SOL     OW27589   4.398   3.493  16.813 -0.7418 -0.3487 -0.5654
 5319SOL    HW127590   4.324   3.517  16.868 -0.2790 -1.7191  0.6807
 5319SOL    HW227591   4.376   3.526  16.726  1.9251  3.2833  0.1381
 5320SOL     OW27592   4.059   0.670   9.849  0.0418 -0.0050  0.6811
 5320SOL    HW127593   3.970   0.642   9.829  0.8113 -1.1093 -1.2596
 5320SOL    HW227594   4.077   0.592   9.901 -2.1053 -0.3688  0.8802
 5321SOL     OW27595   1.115   3.770   4.026 -0.4299  0.0312  0.5338
 5321SOL    HW127596   1.146   3.679   4.023  2.5101  1.0893 -1.1548
 5321SOL    HW227597   1.024   3.751   4.051  0.0259 -2.7179  0.0792
 5322SOL     OW27598   0.523   0.906   2.094  0.0004 -0.1958 -0.2687
 5322SOL    HW127599   0.551   0.993   2.066  0.6961  0.0402  1.1425
 5322SOL    HW227600   0.428   0.918   2.094  0.0828  0.4336  0.5504
 5323SOL     OW27601   0.862   1.195   8.787 -0.4755 -0.3177  0.0412
 5323SOL    HW127602   0.946   1.148   8.787  0.3132  1.0762  0.8006
 5323SOL    HW227603   0.801   1.126   8.813  1.9221 -1.5914  2.3888
 5324SOL     OW27604   3.891   1.474  13.929  0.1526 -0.5470 -0.3468
 5324SOL    HW127605   3.877   1.383  13.956  1.0955 -0.1394  1.5467
 5324SOL    HW227606   3.834   1.524  13.987  0.0286 -1.8638  0.6808
 5325SOL     OW27607   0.922   3.074  10.781  0.0122 -0.6182 -0.2947
 5325SOL    HW127608   0.972   3.025  10.847  2.9386 -0.2385 -2.2225
 5325SOL    HW227609   0.849   3.013  10.775  0.4655 -1.3833  1.7748
 5326SOL     OW27610   2.316   3.383   8.472  0.0066  0.2628  0.6111
 5326SOL    HW127611   2.363   3.343   8.399  1.2897  1.0459  1.0029
 5326SOL    HW227612   2.386   3.441   8.503  1.2369 -0.5646 -0.6316
 5327SOL     OW27613   2.150   3.091   9.617 -0.5520 -0.0745  0.4424
 5327SOL    HW127614   2.089   3.164   9.629 -0.4810  0.1848 -0.8138
 5327SOL    HW227615   2.228   3.139   9.646  1.1812 -2.4174 -0.3454
 5328SOL     OW27616   2.408   0.574   6.632 -0.1842 -0.1568 -0.8388
 5328SOL    HW127617   2.442   0.638   6.569 -2.9713  2.5373  0.3540
 5328SOL    HW227618   2.390   0.502   6.572 -0.9461  0.7605 -1.7243
 5329SOL     OW27619   4.163   2.600   3.744  0.1887 -0.1236 -0.2719
 5329SOL    HW127620   4.180   2.688   3.710 -3.2838  0.9261  0.6762
 5329SOL    HW227621   4.069   2.580   3.734 -0.1381  0.3733  1.7526
 5330SOL     OW27622   3.086   2.513  15.966  0.5722  0.2266 -0.0545
 5330SOL    HW127623   3.127   2.505  16.053 -1.9344  1.0952  1.2120
 5330SOL    HW227624   3.036   2.595  15.970  2.8945  1.7972 -3.0426
 5331SOL     OW27625   3.412   3.708   6.882 -0.0492 -0.0723 -0.3218
 5331SOL    HW127626   3.361   3.627   6.883 -0.0898 -0.0551 -1.4254
 5331SOL    HW227627   3.496   3.680   6.844  0.0602 -1.7293  1.1372
 5332SOL     OW27628   4.280   2.610   5.387 -0.2108  0.1628  0.6339
 5332SOL    HW127629   4.346   2.659   5.436 -0.6428  0.7625  0.6068
 5332SOL    HW227630   4.270   2.661   5.306  1.6423  0.4229  0.5550
 5333SOL     OW27631   0.981   3.647   6.841 -0.1802 -0.0148 -0.2224
 5333SOL    HW127632   0.907   3.671   6.785  0.1880  0.9086 -0.3212
 5333SOL    HW227633   0.989   3.735   6.878 -0.2121 -0.5013  0.9336
 5334SOL     OW27634   0.961   4.499   6.328  0.2290  0.0832  0.0205
 5334SOL    HW127635   0.869   4.479   6.347  0.4722 -0.6456  0.4202
 5334SOL    HW227636   0.971   4.475   6.236 -2.0494 -3.7524  0.7930
 5335SOL     OW27637   1.179   2.945   0.219  0.1341  0.0858 -0.3725
 5335SOL    HW127638   1.222   2.900   0.291 -0.6860 -2.8298 -1.6793
 5335SOL    HW227639   1.214   2.898   0.143 -0.9207  0.5911 -1.1870
 5336SOL     OW27640   0.482   4.655   2.677  0.4567  0.3576 -0.2128
 5336SOL    HW127641   0.409   4.635   2.736  1.5159  0.3797  1.1065
 5336SOL    HW227642   0.442   4.630   2.594  1.9358 -2.1426 -0.1903
 5337SOL     OW27643   0.391   1.860   5.843  0.2212  0.4733 -0.5015
 5337SOL    HW127644   0.419   1.769   5.839  0.1751  0.3987  0.9230
 5337SOL    HW227645   0.477   1.894   5.865  0.0812  0.1784  0.4872
 5338SOL     OW27646   0.569   0.821  15.749 -0.2399 -0.2519  0.2167
 5338SOL    HW127647   0.506   0.750  15.737  2.3063 -2.4099 -0.1276
 5338SOL    HW227648   0.529   0.901  15.715 -2.1573 -0.7943  1.2003
 5339SOL     OW27649   1.831   2.301   3.582  0.2731  0.0650  0.0622
 5339SOL    HW127650   1.838   2.304   3.678 -0.2074 -1.4205  0.1519
 5339SOL    HW227651   1.760   2.361   3.564  1.4924  1.3009 -0.6314
 5340SOL     OW27652   0.941   1.424  15.408 -0.0780 -0.0394  0.6509
 5340SOL    HW127653   1.034   1.418  15.385 -0.1653  0.2744  0.1969
 5340SOL    HW227654   0.890   1.412  15.327 -0.8807  0.0597  1.1391
 5341SOL     OW27655   2.317   3.305   7.209 -0.3081 -0.0804  0.2112
 5341SOL    HW127656   2.373   3.228   7.217  1.1440  1.2521  2.7861
 5341SOL    HW227657   2.359   3.339   7.288  0.3977 -0.3538 -0.0556
 5342SOL     OW27658   1.640   2.730  13.614 -0.1403  0.4815 -0.6470
 5342SOL    HW127659   1.692   2.651  13.631 -0.3234  0.1600 -1.6051
 5342SOL    HW227660   1.706   2.798  13.603 -0.8806  1.1448 -0.9044
 5343SOL     OW27661   3.459   3.482   5.745  0.3977  0.4912  0.2131
 5343SOL    HW127662   3.398   3.550   5.775  0.2145 -0.1761  1.3499
 5343SOL    HW227663   3.535   3.508   5.797  1.0300 -0.6148 -0.1559
 5344SOL     OW27664   3.668   2.274  11.242 -0.5388 -0.2988  0.9854
 5344SOL    HW127665   3.587   2.323  11.225 -1.6206 -3.5668 -3.2495
 5344SOL    HW227666   3.685   2.279  11.336  1.2339  3.4091  0.4651
 5345SOL     OW27667   2.039   3.338   5.787  1.3410 -0.2289  0.1297
 5345SOL    HW127668   2.086   3.371   5.710  2.5748 -0.4072  0.8063
 5345SOL    HW227669   1.985   3.415   5.807  0.9573 -0.3997 -0.2482
 5346SOL     OW27670   1.823   0.794   2.065 -0.2173  0.2224  0.1412
 5346SOL    HW127671   1.886   0.817   1.996  0.8373  0.0456  1.0414
 5346SOL    HW227672   1.738   0.822   2.032  0.5379  0.3738 -1.6854
 5347SOL     OW27673   1.525   2.767   9.099  0.8968  0.1673 -0.3359
 5347SOL    HW127674   1.572   2.818   9.165  0.4047  2.3118 -1.6536
 5347SOL    HW227675   1.500   2.837   9.039  0.3766  0.9219  0.7524
 5348SOL     OW27676   3.712   3.701   1.643 -0.3816 -0.6997 -0.2760
 5348SOL    HW127677   3.742   3.769   1.583  2.2764 -0.1113  1.7051
 5348SOL    HW227678   3.755   3.719   1.727  1.5671 -3.4123 -0.7077
 5349SOL     OW27679   2.180   0.130   6.745  0.6802  0.1282  0.0337
 5349SOL    HW127680   2.140   0.217   6.737 -0.3870 -0.4420 -0.9711
 5349SOL    HW227681   2.098   0.087   6.769  0.4998  0.5567  0.1881
 5350SOL     OW27682   0.093   3.687   4.996  0.4010 -0.2605 -0.1763
 5350SOL    HW127683   0.067   3.647   5.079  0.7982  0.2500  0.1977
 5350SOL    HW227684   0.183   3.714   5.014  0.0127  0.9689 -0.0772
 5351SOL     OW27685   0.875   2.208   1.750  0.1987 -1.3965  0.1109
 5351SOL    HW127686   0.839   2.214   1.839 -1.1260  2.2784 -0.6783
 5351SOL    HW227687   0.968   2.209   1.773  0.0249 -0.7695  0.8031
 5352SOL     OW27688   0.957   0.311   8.995 -0.3595  0.1921 -0.6819
 5352SOL    HW127689   0.949   0.307   9.090 -2.2255 -2.6185 -0.9307
 5352SOL    HW227690   0.965   0.402   8.968 -1.3096  0.5171  0.1116
 5353SOL     OW27691   2.660   1.020   1.833  0.3984  0.6183 -0.6966
 5353SOL    HW127692   2.722   1.069   1.887  0.3579 -1.2559  1.0167
 5353SOL    HW227693   2.678   1.071   1.754 -1.0527  0.6959 -0.9862
 5354SOL     OW27694   2.067   3.175   7.734  0.1370 -0.1550 -0.1266
 5354SOL    HW127695   2.111   3.188   7.650  0.4305 -0.0376  0.0487
 5354SOL    HW227696   2.117   3.109   7.781 -0.3476 -1.3777 -1.3423
 5355SOL     OW27697   2.812   3.188   3.767 -0.2231  0.0643  0.2230
 5355SOL    HW127698   2.730   3.140   3.757 -0.7474  0.8768  0.7006
 5355SOL    HW227699   2.827   3.221   3.678 -0.2233 -0.8502 -0.1186
 5356SOL     OW27700   3.942   1.022   5.705 -0.3913 -0.3047 -0.4320
 5356SOL    HW127701   3.971   1.106   5.669 -0.1440 -0.4221 -0.5047
 5356SOL    HW227702   3.951   0.971   5.624  2.9825 -1.1185  0.4421
 5357SOL     OW27703   1.154   3.251   1.198 -0.0048 -0.4341  0.3929
 5357SOL    HW127704   1.103   3.238   1.278 -0.3239 -2.0208 -0.0706
 5357SOL    HW227705   1.085   3.251   1.132  0.5202 -3.3685 -0.1467
 5358SOL     OW27706   1.266   1.144   6.764 -0.2040  0.8685  0.3479
 5358SOL    HW127707   1.336   1.084   6.738  0.0918  1.3504  0.0089
 5358SOL    HW227708   1.315   1.216   6.806 -0.4706  1.0811  0.2945
 5359SOL     OW27709   0.903   1.667   5.451 -0.9719  0.3096  0.0347
 5359SOL    HW127710   0.980   1.721   5.437 -0.9999  0.9090  2.2589
 5359SOL    HW227711   0.838   1.735   5.467  0.8915  2.2967 -0.9364
 5360SOL     OW27712   3.444   3.240   5.269  0.5976  0.5310 -0.6175
 5360SOL    HW127713   3.461   3.333   5.282 -1.7377  1.0360 -1.1860
 5360SOL    HW227714   3.492   3.224   5.187 -1.3955 -1.7875 -1.3259
 5361SOL     OW27715   2.757   3.763   6.868 -0.4255  0.0751 -0.2497
 5361SOL    HW127716   2.829   3.732   6.813  0.0570  1.3371 -0.3206
 5361SOL    HW227717   2.681   3.725   6.824  0.3690  0.1252 -1.6463
 5362SOL     OW27718   2.523   2.638   4.493 -0.8165 -0.1321  0.5017
 5362SOL    HW127719   2.468   2.708   4.457 -1.4403 -0.8253  0.1023
 5362SOL    HW227720   2.606   2.684   4.487 -0.1528 -1.4378 -0.2484
 5363SOL     OW27721   1.927   3.736   2.936 -0.1196 -0.1314  0.1258
 5363SOL    HW127722   1.909   3.642   2.925 -0.7451  0.0937 -0.7046
 5363SOL    HW227723   1.941   3.748   3.030  1.2386 -0.3772 -0.0347
 5364SOL     OW27724   4.438   3.428   2.522 -0.6109  0.0287 -0.3057
 5364SOL    HW127725   4.402   3.350   2.563 -2.2714  1.7903  1.6245
 5364SOL    HW227726   4.434   3.497   2.589  0.0640 -0.8513  0.6361
 5365SOL     OW27727   0.981   4.192   0.495  0.7187  0.0980  0.4653
 5365SOL    HW127728   0.996   4.192   0.590 -2.6272 -1.4922  0.9752
 5365SOL    HW227729   0.931   4.113   0.478 -0.4452  0.5774  1.5973
 5366SOL     OW27730   3.187   2.725   4.767 -0.3100 -0.1823 -0.6069
 5366SOL    HW127731   3.150   2.637   4.766  0.5827 -0.5433 -1.1594
 5366SOL    HW227732   3.123   2.774   4.819 -0.0823 -0.5351  0.0019
 5367SOL     OW27733   0.331   1.815   9.139 -0.1807  0.1998 -0.0153
 5367SOL    HW127734   0.343   1.892   9.194 -0.7710 -0.1755  0.6525
 5367SOL    HW227735   0.354   1.850   9.053  0.0726 -2.5242 -1.0668
 5368SOL     OW27736   3.335   0.799   1.420 -0.5850 -0.5693 -0.1614
 5368SOL    HW127737   3.387   0.800   1.501  1.9589 -2.4247 -1.7636
 5368SOL    HW227738   3.410   0.812   1.362  0.2794 -0.1763  1.0225
 5369SOL     OW27739   4.091   1.308   1.703  0.5128 -0.6302 -0.4906
 5369SOL    HW127740   4.048   1.366   1.766 -0.3753 -0.6108 -1.1149
 5369SOL    HW227741   4.125   1.370   1.639 -0.1781 -0.3871 -0.6190
 5370SOL     OW27742   2.143   1.160  10.150  0.7298 -0.4992 -0.0215
 5370SOL    HW127743   2.059   1.187  10.113  0.8927  1.9848  1.4153
 5370SOL    HW227744   2.113   1.085  10.203  4.1523 -1.1182  1.0376
 5371SOL     OW27745   0.711   1.121  11.013 -0.2934  0.3375  0.7125
 5371SOL    HW127746   0.804   1.133  11.032 -0.0251  0.8882 -0.9192
 5371SOL    HW227747   0.713   1.168  10.930 -1.4300 -1.0412 -0.1032
 5372SOL     OW27748   2.754   0.106   3.727  0.4379 -0.2760  0.0064
 5372SOL    HW127749   2.663   0.085   3.708  0.6366 -0.1237 -1.1244
 5372SOL    HW227750   2.770   0.059   3.809  1.0831 -0.0261  0.0215
 5373SOL     OW27751   1.662   3.183   5.180 -0.1765  0.1165 -0.1513
 5373SOL    HW127752   1.668   3.088   5.183  0.1810  0.1484  0.1375
 5373SOL    HW227753   1.747   3.210   5.213 -1.7171  1.5884  2.5291
 5374SOL     OW27754   4.175   4.549   0.393 -0.2676  0.4167  0.5141
 5374SOL    HW127755   4.108   4.578   0.331  1.7804 -0.2159 -1.9598
 5374SOL    HW227756   4.230   4.627   0.395  0.4758 -0.0714 -1.4070
 5375SOL     OW27757   3.994   1.447   7.239  0.2967 -0.3704 -0.5009
 5375SOL    HW127758   4.075   1.432   7.287 -1.1189  1.0156  2.2998
 5375SOL    HW227759   4.004   1.392   7.162 -0.3599  1.0102 -1.5829
 5376SOL     OW27760   0.619   1.093   6.776  0.5525  0.0446  0.5472
 5376SOL    HW127761   0.525   1.108   6.789  0.6513  0.7766  0.3954
 5376SOL    HW227762   0.628   1.037   6.699 -1.9423  1.1963 -0.5673
 5377SOL     OW27763   2.606   1.857   1.834  0.3991  0.0600  0.3170
 5377SOL    HW127764   2.624   1.948   1.858  2.5991 -0.1139 -0.6936
 5377SOL    HW227765   2.691   1.824   1.863 -0.1363 -0.5575  1.1741
 5378SOL     OW27766   2.225   0.868  12.201  0.6769  0.4273 -0.1263
 5378SOL    HW127767   2.318   0.851  12.218  0.7918 -0.7712 -1.9279
 5378SOL    HW227768   2.215   0.963  12.192  0.3726  0.3891 -0.1836
 5379SOL     OW27769   4.258   3.009  15.070 -0.7540  0.0399  0.5417
 5379SOL    HW127770   4.338   3.036  15.116 -0.7295  0.5973  0.1820
 5379SOL    HW227771   4.248   3.059  14.988 -1.2698 -1.5162 -0.3340
 5380SOL     OW27772   0.462   1.045   9.380  0.8393 -0.0518  0.1454
 5380SOL    HW127773   0.473   0.962   9.332  0.9832 -0.9824  1.7978
 5380SOL    HW227774   0.440   1.017   9.469 -2.0849  1.5787 -0.0763
 5381SOL     OW27775   1.912   3.441   3.099  0.1244  0.2909 -0.4519
 5381SOL    HW127776   1.986   3.406   3.149  2.8524  3.5798 -2.1444
 5381SOL    HW227777   1.836   3.422   3.153  0.0607 -0.3597 -0.7733
 5382SOL     OW27778   1.470   4.151   5.725 -0.6322 -0.5767  0.2534
 5382SOL    HW127779   1.390   4.162   5.673 -1.3935  2.4182  2.0315
 5382SOL    HW227780   1.531   4.118   5.659  1.9061 -2.0131  3.3204
 5383SOL     OW27781   1.292   3.842   8.690 -0.9917  0.2916 -0.2744
 5383SOL    HW127782   1.262   3.753   8.674  2.6415 -0.9807 -0.1541
 5383SOL    HW227783   1.376   3.842   8.644 -0.4995 -0.5414  0.6190
 5384SOL     OW27784   4.709   0.794   3.947 -0.1191 -0.4472 -0.1148
 5384SOL    HW127785   4.731   0.836   3.864  1.5219  0.2482  0.6709
 5384SOL    HW227786   4.616   0.800   3.925  0.1156  3.6133 -0.0039
 5385SOL     OW27787   3.796   3.532   3.198 -0.1409 -0.0299  0.1230
 5385SOL    HW127788   3.783   3.545   3.292  0.7522 -0.2209  0.2686
 5385SOL    HW227789   3.864   3.595   3.174  1.8103 -1.0683  2.8134
 5386SOL     OW27790   2.404   3.826   3.017 -0.2567  0.1569 -0.0419
 5386SOL    HW127791   2.479   3.801   2.963  2.3971  0.5025  3.4558
 5386SOL    HW227792   2.329   3.825   2.957 -0.9737  0.7765  0.8485
 5387SOL     OW27793   4.419   4.357   2.614 -0.6278 -0.7825  0.3967
 5387SOL    HW127794   4.334   4.401   2.608  0.1159  0.5040 -0.7882
 5387SOL    HW227795   4.443   4.386   2.701 -0.2379 -0.3360  0.1401
 5388SOL     OW27796   3.256   1.694   9.269 -0.0825 -0.1924 -0.1142
 5388SOL    HW127797   3.250   1.770   9.211 -2.2093 -0.0347  0.3217
 5388SOL    HW227798   3.225   1.724   9.354 -2.2371  2.4421 -1.8393
 5389SOL     OW27799   2.415   3.484   4.235 -0.2052  0.5224 -0.1147
 5389SOL    HW127800   2.452   3.546   4.172 -0.4462 -0.4529 -1.1947
 5389SOL    HW227801   2.453   3.405   4.196 -0.6969 -0.3111  1.0972
 5390SOL     OW27802   2.957   4.358   8.453  0.8421 -0.7967  0.9422
 5390SOL    HW127803   3.051   4.371   8.439 -0.1170  1.5268 -3.4563
 5390SOL    HW227804   2.946   4.283   8.394 -1.1088 -1.0399  1.6147
 5391SOL     OW27805   4.108   1.555  12.722 -0.6512  0.3722  0.6064
 5391SOL    HW127806   4.189   1.555  12.670 -0.2673 -0.1811  1.2053
 5391SOL    HW227807   4.070   1.484  12.671 -0.4621  1.4487 -1.0063
 5392SOL     OW27808   3.744   1.395   5.702  0.2372  0.6810  0.1521
 5392SOL    HW127809   3.658   1.421   5.736  0.5100 -0.1187  1.4670
 5392SOL    HW227810   3.783   1.476   5.669 -0.1485 -0.6328 -3.4783
 5393SOL     OW27811   0.697   0.202   4.202  0.5533  0.0293 -0.4713
 5393SOL    HW127812   0.695   0.206   4.297  1.0715  0.3533 -0.4733
 5393SOL    HW227813   0.606   0.224   4.182  0.5152  0.1218 -0.1880
 5394SOL     OW27814   0.600   0.338  16.496 -0.0577  0.4728  0.1046
 5394SOL    HW127815   0.508   0.340  16.469  0.2049  3.5098 -0.5299
 5394SOL    HW227816   0.638   0.375  16.416  1.3267  0.3110  0.6742
 5395SOL     OW27817   1.699   0.508  10.789 -0.0043 -0.0460  0.6776
 5395SOL    HW127818   1.639   0.546  10.725 -1.0206 -1.2910  0.8947
 5395SOL    HW227819   1.657   0.543  10.868 -0.7010  1.1699 -0.2286
 5396SOL     OW27820   0.291   4.321   1.993 -0.0875 -0.1116  0.2352
 5396SOL    HW127821   0.354   4.320   1.922 -0.3589  0.2922 -0.0122
 5396SOL    HW227822   0.297   4.412   2.022  2.7431 -0.4530  0.7103
 5397SOL     OW27823   4.714   2.700   7.092 -0.3215 -0.4894 -0.6402
 5397SOL    HW127824   0.045   2.684   7.158 -0.5577  1.4203  0.0753
 5397SOL    HW227825   4.652   2.764   7.128  1.7965  0.7579  0.8185
 5398SOL     OW27826   0.805   3.704  13.368  0.3672  0.2833  0.8393
 5398SOL    HW127827   0.848   3.631  13.413  1.5821  0.3483 -0.2208
 5398SOL    HW227828   0.762   3.659  13.295  0.2766 -0.4810  1.3533
 5399SOL     OW27829   0.231   3.142   0.468  0.0757  0.0296  0.4703
 5399SOL    HW127830   0.198   3.222   0.425  0.0366  0.4123  1.2136
 5399SOL    HW227831   0.313   3.168   0.510 -0.1981  1.2788  0.2627
 5400SOL     OW27832   2.355   3.720  17.094 -0.1514 -0.0988 -0.0599
 5400SOL    HW127833   2.413   3.777  17.145 -0.7679 -0.3180  0.8786
 5400SOL    HW227834   2.404   3.642  17.066 -0.4944 -0.0654 -0.7594
 5401SOL     OW27835   3.978   4.498  16.023 -0.2010 -0.8549  0.4842
 5401SOL    HW127836   4.004   4.561  16.090  0.5492 -1.4834  0.7847
 5401SOL    HW227837   3.994   4.417  16.070  1.7248 -0.5598  0.3094
 5402SOL     OW27838   0.122   3.280  11.813 -0.0329 -1.1110 -0.1123
 5402SOL    HW127839   0.139   3.294  11.720 -1.8490  3.0200  0.1445
 5402SOL    HW227840   0.028   3.261  11.812 -0.2328 -0.0969 -1.2286
 5403SOL     OW27841   1.307   1.773   3.758  0.3782 -0.2887  0.5443
 5403SOL    HW127842   1.367   1.836   3.719  1.1095 -0.8125  0.8144
 5403SOL    HW227843   1.279   1.719   3.684  2.4850  0.9756 -1.1748
 5404SOL     OW27844   4.285   3.222   0.653  0.6887  1.4612  0.1870
 5404SOL    HW127845   4.229   3.201   0.729  0.5525 -0.1195 -0.3498
 5404SOL    HW227846   4.230   3.292   0.619  0.0554  0.8947  0.0297
 5405SOL     OW27847   2.558   0.875  13.701  0.5647  0.0768  0.2596
 5405SOL    HW127848   2.638   0.921  13.725  0.6746 -0.1346  0.2982
 5405SOL    HW227849   2.508   0.889  13.782 -0.7770 -1.6197 -0.2790
 5406SOL     OW27850   2.307   3.617   2.462 -0.2448  0.4053  0.2688
 5406SOL    HW127851   2.274   3.698   2.423  1.3582  0.2227 -1.4720
 5406SOL    HW227852   2.248   3.619   2.537  0.0199  3.0860  0.4018
 5407SOL     OW27853   1.235   4.255   8.863  0.3579 -0.0128  0.8151
 5407SOL    HW127854   1.321   4.293   8.879  0.8129 -0.9094  0.4846
 5407SOL    HW227855   1.197   4.298   8.940 -2.0265  2.7961 -1.9160
 5408SOL     OW27856   3.989   4.587  11.088  0.0810  0.0020 -0.2583
 5408SOL    HW127857   4.008   4.496  11.110  1.1529  0.1923 -0.3581
 5408SOL    HW227858   4.036   4.602  11.005 -0.4166  3.1769  0.0115
 5409SOL     OW27859   0.802   0.276   3.067 -0.2443 -0.2275  0.0389
 5409SOL    HW127860   0.812   0.310   3.155  1.1052  1.6953 -0.8449
 5409SOL    HW227861   0.866   0.331   3.022 -0.0403 -0.7642 -0.3253
 5410SOL     OW27862   4.128   3.954  10.110 -0.0093  0.9854 -0.0074
 5410SOL    HW127863   4.122   4.048  10.124 -2.7945  0.9581 -0.9489
 5410SOL    HW227864   4.188   3.920  10.176  0.2433 -0.6317 -1.0834
 5411SOL     OW27865   2.851   2.939   4.147 -0.3643  0.5411  0.2475
 5411SOL    HW127866   2.774   2.897   4.110 -0.4153 -1.0124  2.0674
 5411SOL    HW227867   2.889   2.974   4.067  0.8614  1.0550  1.0582
 5412SOL     OW27868   0.437   1.329  10.758  0.9555  0.4810  0.0282
 5412SOL    HW127869   0.486   1.391  10.704  1.3397  0.1949  0.0473
 5412SOL    HW227870   0.511   1.269  10.765 -0.1227 -0.9109 -0.3269
 5413SOL     OW27871   3.169   1.259   8.950 -0.2945 -0.4608  0.5647
 5413SOL    HW127872   3.217   1.319   8.891  1.4301 -1.5301  0.8666
 5413SOL    HW227873   3.199   1.295   9.033  1.9198 -1.3720  0.1756
 5414SOL     OW27874   0.621   2.103   8.566 -0.2168 -0.2534 -0.6667
 5414SOL    HW127875   0.555   2.167   8.591  0.0756 -0.0821 -0.3370
 5414SOL    HW227876   0.565   2.025   8.569  0.2309 -0.5429  0.4283
 5415SOL     OW27877   4.091   3.547   7.262  0.1812  0.0524 -0.7263
 5415SOL    HW127878   4.163   3.594   7.303  0.3494 -2.2488  1.5501
 5415SOL    HW227879   4.042   3.505   7.333  0.5458 -1.2426 -1.2356
 5416SOL     OW27880   1.374   3.791  12.411  0.3244  0.2449  0.2598
 5416SOL    HW127881   1.279   3.780  12.403  0.2470  1.2495 -0.1302
 5416SOL    HW227882   1.386   3.853  12.340 -0.6425  1.6256  1.3045
 5417SOL     OW27883   1.877   2.632   7.474  0.0683 -0.0150 -0.1711
 5417SOL    HW127884   1.870   2.620   7.569  1.2870 -2.3602 -0.3913
 5417SOL    HW227885   1.972   2.641   7.471  0.0573 -0.0993 -0.7466
 5418SOL     OW27886   4.189   0.575  10.534 -0.1157 -0.1481 -0.5001
 5418SOL    HW127887   4.154   0.658  10.501 -3.6089 -1.0415  0.9434
 5418SOL    HW227888   4.225   0.544  10.451 -1.1911 -0.9621 -0.6452
 5419SOL     OW27889   0.507   2.351   6.435 -0.0835 -0.1824  0.8140
 5419SOL    HW127890   0.497   2.279   6.373  0.1782  0.6897 -0.2314
 5419SOL    HW227891   0.452   2.416   6.391 -1.5376 -0.8861  1.5779
 5420SOL     OW27892   1.584   1.389   5.863 -0.4477  0.2824 -0.3366
 5420SOL    HW127893   1.667   1.343   5.854  0.1686  0.7109  3.1638
 5420SOL    HW227894   1.573   1.383   5.958  0.7397  1.5210 -0.1323
 5421SOL     OW27895   4.220   0.195   5.012  0.1377  0.0924 -0.0231
 5421SOL    HW127896   4.138   0.228   4.977  1.1796  0.4706 -2.0916
 5421SOL    HW227897   4.205   0.100   5.022  2.3212 -0.1230  1.1261
 5422SOL     OW27898   4.304   3.406   4.030 -0.5262 -0.2844 -0.0153
 5422SOL    HW127899   4.350   3.440   3.953  0.6103  1.2755  1.3481
 5422SOL    HW227900   4.336   3.316   4.040  0.3627  0.2492  1.9046
 5423SOL     OW27901   1.080   1.216   4.826  0.1169 -0.3384 -0.2911
 5423SOL    HW127902   1.088   1.123   4.847 -2.0219 -0.5422 -0.3282
 5423SOL    HW227903   1.122   1.251   4.905 -3.4341  3.2472  0.0133
 5424SOL     OW27904   3.309   3.363   6.504  0.5395  0.7242 -0.4981
 5424SOL    HW127905   3.388   3.417   6.504  0.3271  1.0236  1.3116
 5424SOL    HW227906   3.338   3.275   6.480 -1.5226 -0.0687 -0.1545
 5425SOL     OW27907   1.050   4.616  14.883  0.1041  0.5362  0.8032
 5425SOL    HW127908   1.128   4.659  14.847 -2.0736  1.2313 -3.0861
 5425SOL    HW227909   1.075   4.536  14.929 -2.9256 -0.3091  1.0042
 5426SOL     OW27910   3.804   3.384   8.379 -0.1409 -0.4705 -0.9751
 5426SOL    HW127911   3.734   3.342   8.329  0.6031 -1.0834 -1.4965
 5426SOL    HW227912   3.759   3.409   8.459  0.1440  0.6936 -1.1902
 5427SOL     OW27913   4.711   4.327   5.944 -0.1195 -0.7799  0.2312
 5427SOL    HW127914   0.055   4.377   5.936  0.4174 -2.0397 -2.3347
 5427SOL    HW227915   4.723   4.272   6.022  2.1107  2.0319  1.8433
 5428SOL     OW27916   3.521   0.689   2.579 -0.0314 -0.5811 -0.6639
 5428SOL    HW127917   3.489   0.631   2.648 -0.9587  1.9218  1.0261
 5428SOL    HW227918   3.577   0.743   2.635 -0.7535 -2.3572  1.7922
 5429SOL     OW27919   4.013   1.870  17.110 -0.7279  0.0602 -0.1498
 5429SOL    HW127920   4.108   1.884  17.115 -0.9393  0.7698  1.7506
 5429SOL    HW227921   3.980   1.916  17.032 -0.1546  0.3609 -0.2127
 5430SOL     OW27922   1.503   4.276   6.423 -0.3105 -0.4622 -0.1382
 5430SOL    HW127923   1.567   4.225   6.472 -1.0739 -0.4616  0.8647
 5430SOL    HW227924   1.442   4.206   6.403 -0.7681  0.7573 -3.0244
 5431SOL     OW27925   1.485   3.687   0.108  0.5582 -0.6911 -0.2740
 5431SOL    HW127926   1.500   3.622   0.176 -2.1349 -1.6014 -0.5451
 5431SOL    HW227927   1.576   3.701   0.082  1.0348 -0.4494  1.5211
 5432SOL     OW27928   2.068   2.137   3.119 -0.3156 -0.0381 -0.1875
 5432SOL    HW127929   1.993   2.079   3.110  1.9763 -2.6012 -2.9910
 5432SOL    HW227930   2.057   2.185   3.201 -1.5487 -0.2022 -0.2663
 5433SOL     OW27931   3.822   0.143   8.268  0.0631  0.6318  0.0297
 5433SOL    HW127932   3.780   0.067   8.308 -0.4706  0.5559 -0.6700
 5433SOL    HW227933   3.769   0.202   8.322 -1.5617  0.8461 -1.7740
 5434SOL     OW27934   3.165   1.899   9.425  0.7449  0.6256  0.2308
 5434SOL    HW127935   3.233   1.937   9.482  1.6805 -0.4447 -0.1608
 5434SOL    HW227936   3.147   1.968   9.362 -0.9341  0.6763  0.7756
 5435SOL     OW27937   2.208   2.630   7.218  0.2137  0.4782 -0.4157
 5435SOL    HW127938   2.246   2.716   7.232 -1.6834  1.0982  0.9842
 5435SOL    HW227939   2.119   2.650   7.187 -0.5332 -2.9221 -0.5367
 5436SOL     OW27940   1.273   1.240  11.556  0.3350 -0.5094 -0.3742
 5436SOL    HW127941   1.277   1.318  11.501  2.4897  0.9760  1.8851
 5436SOL    HW227942   1.365   1.219  11.543  0.5646  1.6373 -2.1211
 5437SOL     OW27943   4.294   0.607   3.955  0.7298  0.4438 -0.1696
 5437SOL    HW127944   4.216   0.567   3.916  1.0853 -1.5600  1.1299
 5437SOL    HW227945   4.359   0.540   3.976 -0.5535  0.0391  2.5346
 5438SOL     OW27946   1.125   4.145   3.133  0.1120  0.3535  0.0100
 5438SOL    HW127947   1.204   4.090   3.136 -1.2120 -1.4731  1.5954
 5438SOL    HW227948   1.070   4.080   3.177  1.6295 -0.0313  1.3528
 5439SOL     OW27949   1.740   3.122   8.736 -0.6187 -0.0117 -0.2228
 5439SOL    HW127950   1.791   3.182   8.790  1.4607  1.1162 -3.3927
 5439SOL    HW227951   1.650   3.151   8.751 -0.1771  0.9963  0.4642
 5440SOL     OW27952   3.423   3.318  14.276 -0.0360 -0.0388  0.3580
 5440SOL    HW127953   3.372   3.268  14.339  0.4546 -1.6949 -0.5436
 5440SOL    HW227954   3.506   3.271  14.277  0.8816  1.5477 -1.2564
 5441SOL     OW27955   0.850   4.340  10.809 -0.0971  0.0324 -0.0560
 5441SOL    HW127956   0.924   4.279  10.802  1.2487  1.2462  3.4710
 5441SOL    HW227957   0.824   4.324  10.900 -1.5923 -2.7260 -0.9767
 5442SOL     OW27958   3.328   3.141   5.953  0.0090  0.5090  0.1674
 5442SOL    HW127959   3.410   3.127   6.000  0.7184  1.2067 -0.8468
 5442SOL    HW227960   3.320   3.051   5.923 -0.4385  0.7190 -0.3465
 5443SOL     OW27961   2.342   2.822   9.396 -0.1148 -0.2456 -0.4751
 5443SOL    HW127962   2.308   2.912   9.405  0.3147 -0.0995 -0.3122
 5443SOL    HW227963   2.325   2.808   9.303 -0.0785  1.3267 -0.7147
 5444SOL     OW27964   0.888   4.075   4.645 -0.1846  0.5825  0.3838
 5444SOL    HW127965   0.925   4.127   4.574  0.7554  0.7930  1.0296
 5444SOL    HW227966   0.903   4.133   4.719 -0.6686 -0.8279  1.5743
 5445SOL     OW27967   3.192   0.310   7.287  0.1892  0.3910  0.5764
 5445SOL    HW127968   3.117   0.281   7.234  0.0682  0.6008  0.6315
 5445SOL    HW227969   3.258   0.318   7.218 -1.5724  1.1321 -1.0181
 5446SOL     OW27970   1.258   2.921   3.049  0.8996  0.1793  0.2296
 5446SOL    HW127971   1.251   3.016   3.051 -1.2912 -0.0162  1.5133
 5446SOL    HW227972   1.264   2.911   2.954 -0.3544 -2.0085  0.3752
 5447SOL     OW27973   3.062   0.363  14.075 -0.2180 -0.0551 -0.5058
 5447SOL    HW127974   2.985   0.399  14.119 -0.7601 -0.5585 -1.0439
 5447SOL    HW227975   3.082   0.437  14.017 -0.4466  1.6460  1.5569
 5448SOL     OW27976   4.295   4.463   5.457 -0.1624 -0.4792  0.2575
 5448SOL    HW127977   4.258   4.398   5.397 -0.4138  1.3554 -1.5673
 5448SOL    HW227978   4.259   4.538   5.410 -2.3208 -2.0812 -0.6319
 5449SOL     OW27979   3.030   3.000   4.368 -0.8951  0.2324  0.2167
 5449SOL    HW127980   2.986   2.933   4.315  0.7454 -0.4411 -0.2887
 5449SOL    HW227981   3.106   3.018   4.313  0.2084 -1.1859  1.3042
 5450SOL     OW27982   1.696   1.595  12.283  0.5466  0.0772  0.4709
 5450SOL    HW127983   1.696   1.678  12.235  0.2576 -0.2776 -0.1342
 5450SOL    HW227984   1.696   1.535  12.209  0.4044 -1.0181  1.3658
 5451SOL     OW27985   2.809   3.142   4.982  0.2793  0.3766 -0.2744
 5451SOL    HW127986   2.898   3.165   5.010 -0.0523 -1.0272  1.8893
 5451SOL    HW227987   2.801   3.060   5.032 -0.7278 -0.8333 -2.4144
 5452SOL     OW27988   3.808   1.308   7.595  0.0645  0.5486  0.0240
 5452SOL    HW127989   3.719   1.297   7.629  0.4083 -0.5473  0.5605
 5452SOL    HW227990   3.787   1.338   7.506  4.0837  2.9455 -0.1427
 5453SOL     OW27991   4.289   3.430   5.697 -0.4384  0.0426 -0.4019
 5453SOL    HW127992   4.343   3.476   5.633 -1.1504  0.4708 -0.6995
 5453SOL    HW227993   4.258   3.505   5.749  2.6282  1.7211 -0.9956
 5454SOL     OW27994   4.525   2.889   7.223 -0.4907  0.4317 -0.0548
 5454SOL    HW127995   4.456   2.941   7.181 -0.1984  1.3076  0.5245
 5454SOL    HW227996   4.603   2.939   7.197 -0.1899  0.0386  0.0962
 5455SOL     OW27997   4.622   3.248   6.423 -0.6739 -0.3589 -0.0002
 5455SOL    HW127998   4.682   3.190   6.471  0.7891 -0.0084 -1.4061
 5455SOL    HW227999   4.544   3.193   6.423 -0.3800 -0.7711  0.1989
 5456SOL     OW28000   3.850   3.706  10.134  0.3256 -0.2003 -0.2212
 5456SOL    HW128001   3.858   3.754  10.216 -2.2049  2.1012 -1.3161
 5456SOL    HW228002   3.788   3.641  10.168 -0.0381 -0.6746 -1.7743
 5457SOL     OW28003   1.071   3.690   3.313 -0.3437 -0.3179 -0.0155
 5457SOL    HW128004   1.085   3.751   3.241 -0.5466  0.0134  0.2267
 5457SOL    HW228005   1.108   3.604   3.292  1.2552  0.4110 -0.1188
 5458SOL     OW28006   4.444   2.416   5.432  0.5923  0.4832 -0.0666
 5458SOL    HW128007   4.385   2.491   5.427 -0.8995 -0.6070  1.2455
 5458SOL    HW228008   4.461   2.401   5.339 -2.5430 -0.3601 -0.4880
 5459SOL     OW28009   1.876   3.486   5.397  0.1357  0.8954 -0.1849
 5459SOL    HW128010   1.951   3.510   5.342 -0.3265 -0.2518 -1.3015
 5459SOL    HW228011   1.869   3.391   5.388 -1.8004  0.8482  1.8430
 5460SOL     OW28012   2.732   0.764   4.995  0.1251 -0.1747 -0.5579
 5460SOL    HW128013   2.692   0.787   5.079  0.1861  2.7667 -1.3316
 5460SOL    HW228014   2.819   0.731   5.018 -0.4308  0.0908  1.9495
 5461SOL     OW28015   0.038   3.373   4.303  0.4359 -0.2033 -0.1650
 5461SOL    HW128016   0.060   3.416   4.385 -2.2698 -2.7826  1.8976
 5461SOL    HW228017   4.711   3.435   4.268  0.8920 -0.4967 -1.5283
 5462SOL     OW28018   2.125   1.705   8.458  0.2185  0.2051 -0.1107
 5462SOL    HW128019   2.065   1.778   8.445  0.1429  0.1485 -0.0843
 5462SOL    HW228020   2.095   1.643   8.392  2.4861 -0.0169 -0.9407
 5463SOL     OW28021   4.267   4.231   7.090 -0.1060  0.1034  0.4223
 5463SOL    HW128022   4.235   4.207   7.003  3.2637  2.0664 -1.3795
 5463SOL    HW228023   4.235   4.320   7.100  0.5896  0.5626 -1.4621
 5464SOL     OW28024   2.712   1.145   5.240 -0.1576 -0.1884 -0.0073
 5464SOL    HW128025   2.716   1.168   5.333  0.3129  0.8584 -0.2904
 5464SOL    HW228026   2.767   1.212   5.199  0.4591  1.7898  3.9760
 5465SOL     OW28027   4.641   3.907   5.113  0.4073  0.4496 -0.4263
 5465SOL    HW128028   4.725   3.893   5.071  1.4805  1.3001  1.4293
 5465SOL    HW228029   4.580   3.877   5.046 -0.0390 -0.1965  0.2708
 5466SOL     OW28030   3.650   3.721   4.265 -0.0766  0.5442 -0.1103
 5466SOL    HW128031   3.588   3.671   4.212 -0.2873 -0.0715  0.7271
 5466SOL    HW228032   3.634   3.808   4.228  1.1524  0.6647 -0.3431
 5467SOL     OW28033   1.309   1.661  15.765  0.5091 -0.3997 -0.1850
 5467SOL    HW128034   1.395   1.626  15.741  1.0548  0.3472  0.6821
 5467SOL    HW228035   1.279   1.585  15.816  1.1396 -0.4927  0.0467
 5468SOL     OW28036   0.507   4.334  16.663  0.0194  0.0297 -0.3063
 5468SOL    HW128037   0.502   4.393  16.587 -1.3694  2.2673  1.5346
 5468SOL    HW228038   0.532   4.399  16.729 -1.3227  0.9244 -0.6934
 5469SOL     OW28039   3.628   0.682   4.135  0.3652 -0.5937  0.1212
 5469SOL    HW128040   3.648   0.727   4.217 -0.4384 -0.7919  0.4232
 5469SOL    HW228041   3.667   0.745   4.074 -1.2320  0.7839  0.5087
 5470SOL     OW28042   0.007   0.213   0.954 -0.3936 -0.5005 -0.3706
 5470SOL    HW128043   4.652   0.232   0.935 -0.4184 -0.2748 -0.0096
 5470SOL    HW228044   0.047   0.256   0.878  1.5152  1.2499  1.6314
 5471SOL     OW28045   3.600   2.841   5.901  0.3052 -0.4224 -0.6446
 5471SOL    HW128046   3.509   2.851   5.874 -0.2685  0.8374  1.8035
 5471SOL    HW228047   3.603   2.750   5.932  0.9414 -0.3182 -0.3944
 5472SOL     OW28048   0.496   4.320   2.812  0.3888 -0.2292  0.3990
 5472SOL    HW128049   0.439   4.391   2.841 -3.2285 -3.2351  0.6951
 5472SOL    HW228050   0.566   4.315   2.877 -1.0587 -0.1776  1.9670
 5473SOL     OW28051   0.470   4.365   7.195 -0.0309 -0.0807  0.1704
 5473SOL    HW128052   0.385   4.324   7.176 -0.1221 -0.8316  2.2713
 5473SOL    HW228053   0.450   4.458   7.188  1.1067  0.0803 -0.9867
 5474SOL     OW28054   0.998   2.421   6.545  0.6567  0.1999  0.2326
 5474SOL    HW128055   0.924   2.367   6.517  0.1877  1.8958 -1.7862
 5474SOL    HW228056   0.998   2.489   6.478  0.7772  0.3687  0.4044
 5475SOL     OW28057   0.329   3.524   7.632 -0.4207 -0.2189 -0.3121
 5475SOL    HW128058   0.381   3.480   7.564 -0.7119 -0.3036 -0.4843
 5475SOL    HW228059   0.280   3.583   7.575  2.5185  3.0689  0.5816
 5476SOL     OW28060   1.284   3.911   2.507  0.3500  0.4872  0.7053
 5476SOL    HW128061   1.304   3.989   2.558  1.8613 -0.3699  1.4189
 5476SOL    HW228062   1.271   3.941   2.417 -0.9103 -1.3476  0.2564
 5477SOL     OW28063   4.396   4.495  12.177  1.0119  0.0926 -0.6247
 5477SOL    HW128064   4.424   4.569  12.123 -0.3244  1.4401  0.5585
 5477SOL    HW228065   4.311   4.528  12.204  1.2143 -0.0956  0.2690
 5478SOL     OW28066   0.479   2.707   2.217  0.0601  0.2260 -0.4155
 5478SOL    HW128067   0.466   2.622   2.260  2.3968  0.6482  1.1450
 5478SOL    HW228068   0.574   2.709   2.203  0.6570 -2.9936  3.0702
 5479SOL     OW28069   3.505   0.466  11.710  0.3774  0.0908  0.2868
 5479SOL    HW128070   3.584   0.514  11.685  1.8845 -1.3223  2.3045
 5479SOL    HW228071   3.443   0.527  11.748  0.7883  1.1688 -0.7572
 5480SOL     OW28072   0.780   2.836   0.842 -0.1470  0.1864  0.7014
 5480SOL    HW128073   0.735   2.765   0.888 -0.9079 -0.6945 -1.4056
 5480SOL    HW228074   0.708   2.870   0.788  0.5138 -1.5312 -1.2728
 5481SOL     OW28075   2.060   3.773   9.833  0.0736  0.0571 -0.3497
 5481SOL    HW128076   2.108   3.693   9.852  1.4676  1.2878  1.4547
 5481SOL    HW228077   1.971   3.752   9.859 -0.2413  0.2887 -1.2690
 5482SOL     OW28078   0.747   3.864  16.934 -0.0118 -0.3272 -0.7676
 5482SOL    HW128079   0.744   3.835  16.843 -0.6894 -0.2646 -0.7624
 5482SOL    HW228080   0.806   3.793  16.960  1.9364  0.4633 -3.0076
 5483SOL     OW28081   1.024   4.678  16.375  0.0413 -0.0886 -0.1749
 5483SOL    HW128082   0.968   0.017  16.355 -0.2004 -0.1654  0.2204
 5483SOL    HW228083   1.087   4.684  16.303  1.1975 -0.3044  0.8320
 5484SOL     OW28084   1.298   0.288   3.963  0.0298  0.0334 -0.1646
 5484SOL    HW128085   1.265   0.253   4.045  2.1113  0.8127  1.0000
 5484SOL    HW228086   1.319   0.379   3.986 -0.6934 -0.0967  1.0195
 5485SOL     OW28087   2.403   1.751  16.034  0.2655 -0.4487  0.1727
 5485SOL    HW128088   2.352   1.726  15.957 -0.3927  2.6051 -0.3707
 5485SOL    HW228089   2.440   1.831  15.995  0.8416 -0.4084  0.7949
 5486SOL     OW28090   0.463   0.077   4.937  0.2137 -0.2446  0.2576
 5486SOL    HW128091   0.430   4.731   4.902  0.8589 -0.9894  1.3892
 5486SOL    HW228092   0.384   0.126   4.915  0.3318  0.5427  1.5410
 5487SOL     OW28093   2.181   0.373   9.548 -0.1869  0.5027  0.4698
 5487SOL    HW128094   2.134   0.292   9.568  1.8047 -0.5864  0.7599
 5487SOL    HW228095   2.211   0.395   9.637  1.7437 -2.6690  0.6085
 5488SOL     OW28096   1.756   1.189  16.713  0.1396 -0.2492 -0.6177
 5488SOL    HW128097   1.750   1.160  16.804  1.2962  1.4359  0.0015
 5488SOL    HW228098   1.761   1.285  16.716 -0.4909 -0.2821  1.3285
 5489SOL     OW28099   3.709   4.275   3.393  0.1036  0.0847  0.6936
 5489SOL    HW128100   3.742   4.348   3.445 -0.0883  0.4388  0.3177
 5489SOL    HW228101   3.666   4.234   3.468  2.2007  0.2947  2.0113
 5490SOL     OW28102   1.802   0.794  13.562  0.1260  0.2179  0.5875
 5490SOL    HW128103   1.804   0.705  13.528 -1.2936  0.1417  0.7388
 5490SOL    HW228104   1.893   0.789  13.594  0.3609  4.0115  0.4765
 5491SOL     OW28105   2.844   1.871   7.498 -0.8127  0.5402 -0.3749
 5491SOL    HW128106   2.912   1.816   7.537 -1.2187 -1.3902 -2.3676
 5491SOL    HW228107   2.802   1.809   7.438  0.0915  1.6845 -2.1890
 5492SOL     OW28108   2.134   3.941   7.009  0.0761 -0.2952  0.2240
 5492SOL    HW128109   2.136   3.944   7.104 -1.4624  0.4775  0.2312
 5492SOL    HW228110   2.041   3.946   6.985  0.2767 -2.3892 -1.0420
 5493SOL     OW28111   2.234   3.190  11.408  0.0265 -0.2316  0.0483
 5493SOL    HW128112   2.302   3.252  11.379  0.2038 -0.6834 -0.5039
 5493SOL    HW228113   2.191   3.162  11.327  0.6013 -4.5128  1.2195
 5494SOL     OW28114   4.615   1.419   4.194  0.0751  0.5046 -0.2126
 5494SOL    HW128115   4.550   1.487   4.177 -0.4036  0.9082  3.1842
 5494SOL    HW228116   4.693   1.470   4.173  1.4938 -1.1599  1.0817
 5495SOL     OW28117   2.373   3.068  11.632  0.0738  0.4477  0.1963
 5495SOL    HW128118   2.397   3.148  11.679  1.1973 -0.1403  0.6197
 5495SOL    HW228119   2.317   3.109  11.566  0.1482 -0.9840 -0.7505
 5496SOL     OW28120   0.532   2.832  12.463 -0.3464 -0.1118  0.3663
 5496SOL    HW128121   0.590   2.764  12.498 -0.5039  0.4123  1.6408
 5496SOL    HW228122   0.496   2.786  12.387  1.7287 -2.7618  1.0103
 5497SOL     OW28123   4.292   4.121  15.715 -0.2083  0.2233 -0.1922
 5497SOL    HW128124   4.274   4.047  15.773  2.1615 -1.3906 -1.5288
 5497SOL    HW228125   4.388   4.123  15.709 -0.1198 -1.4687  0.7111
 5498SOL     OW28126   1.939   3.789   4.642  0.3334  0.4842 -0.2117
 5498SOL    HW128127   1.860   3.836   4.668  1.3552  0.2166  3.3433
 5498SOL    HW228128   1.985   3.845   4.579 -0.7481 -0.6376 -1.9818
 5499SOL     OW28129   1.892   3.885   4.114  0.5204  0.1789 -0.2688
 5499SOL    HW128130   1.877   3.797   4.149 -0.3060  1.1379  1.7886
 5499SOL    HW228131   1.841   3.873   4.034  2.6362 -1.6674 -1.3361
 5500SOL     OW28132   2.390   4.114   9.792  0.2431 -0.5919 -0.0192
 5500SOL    HW128133   2.371   4.054   9.864 -1.1825 -0.2576 -0.1099
 5500SOL    HW228134   2.470   4.157   9.820  0.0483  0.1229 -0.5464
 5501SOL     OW28135   3.243   1.069   6.582 -0.2655  0.0750  0.1344
 5501SOL    HW128136   3.298   1.000   6.618 -1.7237 -0.8914  0.5136
 5501SOL    HW228137   3.181   1.077   6.654 -0.4894  2.2230 -0.2990
 5502SOL     OW28138   2.177   2.710   4.617 -1.0001  0.1206  0.4532
 5502SOL    HW128139   2.212   2.714   4.528 -2.4521  0.0024 -0.1348
 5502SOL    HW228140   2.186   2.616   4.630  1.2910  0.2659 -0.0697
 5503SOL     OW28141   3.206   0.968   8.296 -0.0714 -0.4609 -0.5907
 5503SOL    HW128142   3.114   0.958   8.272  0.1933 -1.4580 -1.1865
 5503SOL    HW228143   3.232   1.001   8.210 -0.6851 -1.5116 -1.1775
 5504SOL     OW28144   2.842   2.368   8.833 -0.1630  0.3140  0.2476
 5504SOL    HW128145   2.787   2.306   8.880 -0.7524 -0.8850 -1.9968
 5504SOL    HW228146   2.865   2.439   8.893 -0.8895 -0.9950  2.0742
 5505SOL     OW28147   0.956   2.424   4.204  0.2130  0.4817 -0.6454
 5505SOL    HW128148   0.878   2.401   4.152 -2.0536  2.1709  1.9843
 5505SOL    HW228149   0.940   2.391   4.292 -0.6906 -0.0180 -1.0016
 5506SOL     OW28150   2.871   2.765   4.689 -0.2684 -0.0682 -0.1349
 5506SOL    HW128151   2.788   2.813   4.698  0.2081  0.7686 -0.2037
 5506SOL    HW228152   2.860   2.697   4.756 -1.7605 -2.4625 -2.7875
 5507SOL     OW28153   2.280   2.284   6.231  0.1340 -0.1756  0.0699
 5507SOL    HW128154   2.262   2.237   6.312 -0.6231 -0.1793 -0.0973
 5507SOL    HW228155   2.320   2.364   6.264 -0.7288  1.5266 -3.0419
 5508SOL     OW28156   0.731   2.677   7.929 -0.0204  0.2340  0.5705
 5508SOL    HW128157   0.793   2.622   7.977 -0.8665 -1.3431 -0.1689
 5508SOL    HW228158   0.751   2.662   7.837  1.6553 -1.8701  1.2774
 5509SOL     OW28159   2.118   4.347  12.699  0.0282  0.0368 -0.2738
 5509SOL    HW128160   2.036   4.314  12.664  0.2036 -0.2483 -0.4179
 5509SOL    HW228161   2.179   4.322  12.629 -0.1987 -0.9619 -0.1045
 5510SOL     OW28162   2.221   2.115   3.519  0.5314  0.0489 -0.0096
 5510SOL    HW128163   2.225   2.088   3.611  3.4922  0.3707 -0.0348
 5510SOL    HW228164   2.286   2.185   3.516 -1.1161  1.6098  1.8681
 5511SOL     OW28165   1.502   2.236  11.769 -0.4456 -0.3916 -0.1773
 5511SOL    HW128166   1.583   2.187  11.773 -0.0429  0.1660 -1.4968
 5511SOL    HW228167   1.446   2.190  11.706 -0.2831 -2.3420  1.1042
 5512SOL     OW28168   2.088   0.310   4.102 -0.1603 -0.2211  0.1900
 5512SOL    HW128169   2.137   0.237   4.138 -0.8736 -0.4375  0.7182
 5512SOL    HW228170   2.001   0.276   4.082  0.7494 -1.2414 -2.0748
 5513SOL     OW28171   1.855   3.367  12.060 -0.6358  0.8106 -0.0592
 5513SOL    HW128172   1.868   3.342  11.969  0.0319 -0.5376  0.4009
 5513SOL    HW228173   1.799   3.444  12.056  1.9743  2.6181 -1.3360
 5514SOL     OW28174   2.128   2.214   8.730  0.4905 -0.2152  0.1386
 5514SOL    HW128175   2.127   2.118   8.726 -0.2799 -0.1820 -0.5526
 5514SOL    HW228176   2.092   2.233   8.643 -1.3074  0.9755  1.1418
 5515SOL     OW28177   0.983   1.067  15.711  0.3517  0.7416 -0.1768
 5515SOL    HW128178   1.006   0.997  15.650  0.5314  0.8080 -0.1840
 5515SOL    HW228179   0.895   1.085  15.678 -0.0156  2.9212  1.9893
 5516SOL     OW28180   2.176   2.487   8.508 -0.7184 -0.1355 -0.1065
 5516SOL    HW128181   2.143   2.550   8.572  2.9353  0.1941  1.4717
 5516SOL    HW228182   2.264   2.466   8.540 -0.1450  1.0076 -0.8982
 5517SOL     OW28183   1.650   0.859  12.602 -0.6728 -0.4271 -0.5949
 5517SOL    HW128184   1.740   0.827  12.594 -0.2102  0.6319  0.3954
 5517SOL    HW228185   1.660   0.931  12.665  1.1703 -0.1156 -1.2239
 5518SOL     OW28186   1.264   0.839   4.005 -0.0775  0.0985  0.2494
 5518SOL    HW128187   1.264   0.879   3.918  0.8917  0.7195  0.5435
 5518SOL    HW228188   1.180   0.866   4.042  0.0429 -0.0861  0.6581
 5519SOL     OW28189   1.686   2.856   9.310  0.2704 -0.6864  0.7452
 5519SOL    HW128190   1.693   2.891   9.399  2.5976  1.1409 -0.1427
 5519SOL    HW228191   1.766   2.803   9.309  0.7717  0.1209 -2.4344
 5520SOL     OW28192   2.610   3.242  11.435 -0.0649 -0.2716  0.5060
 5520SOL    HW128193   2.600   3.303  11.509 -3.5820  0.2666 -0.3694
 5520SOL    HW228194   2.533   3.264  11.382  0.7989 -2.5317 -1.6342
 5521SOL     OW28195   4.500   1.954   2.163 -0.3520  0.5570 -0.8096
 5521SOL    HW128196   4.483   1.908   2.245  1.7329 -3.0424 -2.3473
 5521SOL    HW228197   4.479   2.045   2.182 -1.6144 -0.0836  0.8556
 5522SOL     OW28198   1.719   3.873   0.569 -0.6455 -0.1646 -0.7162
 5522SOL    HW128199   1.700   3.780   0.572 -0.4479 -0.1754  0.0704
 5522SOL    HW228200   1.708   3.899   0.477 -1.4550 -0.7388 -0.7769
 5523SOL     OW28201   1.056   0.435  12.973  0.0379 -0.1258 -0.5520
 5523SOL    HW128202   1.118   0.369  12.944 -0.6156 -1.7458  1.7237
 5523SOL    HW228203   1.110   0.515  12.979 -0.8943  0.2964  2.4211
 5524SOL     OW28204   1.386   0.466   2.685  0.0659  0.1863  1.0993
 5524SOL    HW128205   1.470   0.508   2.666  0.1686  0.0941  1.3515
 5524SOL    HW228206   1.384   0.466   2.781 -2.2510 -0.2751  1.0498
 5525SOL     OW28207   0.436   3.826  12.849 -0.0346  0.2600  0.2193
 5525SOL    HW128208   0.464   3.740  12.817  0.5613  0.2396  0.8065
 5525SOL    HW228209   0.518   3.855  12.887  0.2314  1.3344 -1.1764
 5526SOL     OW28210   0.316   4.101   0.800  0.1180  0.1063 -0.1606
 5526SOL    HW128211   0.289   4.098   0.708 -2.7986 -1.7808  0.7576
 5526SOL    HW228212   0.389   4.039   0.796 -0.2643 -0.3383 -0.2589
 5527SOL     OW28213   3.473   0.274  16.720 -0.5349 -0.5911  0.4193
 5527SOL    HW128214   3.457   0.358  16.763 -0.5823 -1.2454  1.6668
 5527SOL    HW228215   3.413   0.211  16.761 -1.9409  0.3009 -0.2422
 5528SOL     OW28216   2.898   2.575   6.566 -0.0379  0.1998  0.2167
 5528SOL    HW128217   2.939   2.489   6.560  1.8466  1.0386  1.1110
 5528SOL    HW228218   2.953   2.631   6.511 -3.1173  2.4224 -0.6159
 5529SOL     OW28219   1.429   2.457   0.135  0.1860 -0.1223 -0.5252
 5529SOL    HW128220   1.501   2.466   0.198 -0.0267 -0.5917 -0.2179
 5529SOL    HW228221   1.471   2.477   0.052  1.8890 -2.0534 -0.1319
 5530SOL     OW28222   2.941   2.515   7.271  0.3230  0.8610 -0.5760
 5530SOL    HW128223   2.954   2.507   7.177 -3.8121 -0.2176 -1.0345
 5530SOL    HW228224   3.020   2.477   7.309  1.1148  0.7320 -2.3574
 5531SOL     OW28225   3.238   4.144   7.687  0.2442 -0.0301 -0.4637
 5531SOL    HW128226   3.262   4.081   7.619  1.9579 -0.3408  0.4237
 5531SOL    HW228227   3.164   4.088   7.711  2.5189 -2.8628 -0.1324
 5532SOL     OW28228   3.280   1.930   6.222  0.0700 -0.6857  0.1657
 5532SOL    HW128229   3.188   1.937   6.246 -0.0230 -0.7206 -0.1740
 5532SOL    HW228230   3.309   1.945   6.312 -0.9031  2.1721  0.0071
 5533SOL     OW28231   1.473   1.323   9.450  0.0300  0.0414  0.0793
 5533SOL    HW128232   1.451   1.362   9.366  0.7111  0.7379  0.2240
 5533SOL    HW228233   1.411   1.363   9.510  0.7623  1.9480 -0.4472
 5534SOL     OW28234   1.070   3.862  10.916  0.0096  0.1271  0.1056
 5534SOL    HW128235   1.135   3.816  10.969 -0.8116 -2.1079 -0.8542
 5534SOL    HW228236   1.030   3.799  10.857 -0.2639  2.0160 -1.7321
 5535SOL     OW28237   4.581   0.472   8.575 -0.1303 -0.6562  0.2414
 5535SOL    HW128238   4.610   0.486   8.484  0.8425 -1.9804  0.3376
 5535SOL    HW228239   4.491   0.501   8.565  0.5237  1.1497 -0.4359
 5536SOL     OW28240   1.929   2.625  13.445 -0.0251  0.2303 -0.2990
 5536SOL    HW128241   2.001   2.610  13.507  0.2472  0.1103 -0.6487
 5536SOL    HW228242   1.972   2.690  13.390  0.7134 -1.3795 -1.6092
 5537SOL     OW28243   0.402   1.428   0.992 -0.3484 -0.7036  0.0958
 5537SOL    HW128244   0.435   1.395   1.076  0.5467  1.9170  0.7787
 5537SOL    HW228245   0.472   1.400   0.933  0.0700  0.4090  0.0589
 5538SOL     OW28246   3.661   1.284   5.324 -0.2006  0.1395  0.0008
 5538SOL    HW128247   3.691   1.196   5.304 -0.0194  0.6912 -2.2297
 5538SOL    HW228248   3.692   1.323   5.242 -1.9961 -2.3181 -1.8315
 5539SOL     OW28249   3.089   3.042  12.145  0.1117 -0.2270 -0.1102
 5539SOL    HW128250   3.164   3.100  12.128  0.5851 -0.5186  0.9890
 5539SOL    HW228251   3.129   3.005  12.224  0.5689  2.6376  1.0319
 5540SOL     OW28252   3.938   0.682   3.606  0.7891 -0.4474 -0.6361
 5540SOL    HW128253   3.908   0.764   3.568  1.0180  0.2683  0.7232
 5540SOL    HW228254   3.934   0.630   3.526 -1.9710 -1.3208  0.0582
 5541SOL     OW28255   3.325   3.716   4.629 -0.0118  0.5120  0.0137
 5541SOL    HW128256   3.259   3.783   4.645  0.2171  1.0183 -1.1384
 5541SOL    HW228257   3.383   3.776   4.582  1.3320  0.6705  1.8829
 5542SOL     OW28258   4.523   2.226   4.524  0.2611  0.0864  0.9895
 5542SOL    HW128259   4.469   2.196   4.451  0.4603 -0.9773  1.2761
 5542SOL    HW228260   4.600   2.265   4.483 -1.8616  1.9266 -1.2416
 5543SOL     OW28261   0.227   4.383   5.862  0.0143 -0.0578  0.1765
 5543SOL    HW128262   0.244   4.331   5.783  2.4188 -1.2562  1.4517
 5543SOL    HW228263   0.295   4.354   5.923 -0.4935 -2.6611 -0.4942
 5544SOL     OW28264   1.618   1.306   2.708 -0.3038 -0.0574  0.4810
 5544SOL    HW128265   1.693   1.290   2.765 -1.1474 -1.5970  1.1419
 5544SOL    HW228266   1.623   1.401   2.717 -0.7011  0.0540 -0.3904
 5545SOL     OW28267   0.007   2.828   1.713  0.5631 -0.4617  0.1759
 5545SOL    HW128268   4.674   2.763   1.706 -1.0886  1.4294 -0.7219
 5545SOL    HW228269   0.012   2.831   1.809  1.3468  1.1206  0.0852
 5546SOL     OW28270   4.611   2.483   6.731  0.1499 -0.3324 -0.4654
 5546SOL    HW128271   4.646   2.571   6.740  2.1133 -0.7676 -4.0959
 5546SOL    HW228272   4.650   2.423   6.795  0.8171 -1.6694 -2.1344
 5547SOL     OW28273   1.216   0.223   4.208 -0.2665  0.2337 -0.4201
 5547SOL    HW128274   1.152   0.280   4.251  0.9523  0.7668  0.7062
 5547SOL    HW228275   1.203   0.149   4.267  2.6284 -0.1707 -0.3032
 5548SOL     OW28276   0.453   1.404   2.280  0.3276  0.4203 -0.3996
 5548SOL    HW128277   0.536   1.434   2.317  1.3080  0.5504 -2.7116
 5548SOL    HW228278   0.445   1.474   2.216  1.6471  0.8957 -0.0517
 5549SOL     OW28279   3.407   3.645   7.749  0.2223  0.1754  0.0314
 5549SOL    HW128280   3.454   3.572   7.790 -0.5589  0.1349  0.8506
 5549SOL    HW228281   3.443   3.716   7.802 -0.1987 -1.2239  2.1529
 5550SOL     OW28282   2.963   0.561  16.155 -0.4207  0.6824  0.7418
 5550SOL    HW128283   2.943   0.638  16.208  0.4593 -0.4653  2.7202
 5550SOL    HW228284   2.989   0.607  16.075  2.7718 -2.4798 -0.0580
 5551SOL     OW28285   0.601   3.222  15.264 -0.0624  1.0634 -0.1499
 5551SOL    HW128286   0.545   3.183  15.197  0.4395 -0.1128  0.1150
 5551SOL    HW228287   0.687   3.188  15.237  0.4627  1.7923  0.6024
 5552SOL     OW28288   3.117   2.715   7.063 -0.4767 -0.3618 -0.2901
 5552SOL    HW128289   3.134   2.623   7.083 -0.7358 -0.8262 -2.2064
 5552SOL    HW228290   3.161   2.732   6.980 -0.5464 -2.8679 -0.8559
 5553SOL     OW28291   0.026   2.293   1.499  0.2499 -0.7782  0.6980
 5553SOL    HW128292   0.046   2.266   1.588  0.8769 -0.5004  0.6354
 5553SOL    HW228293   0.052   2.214   1.452  1.2645  0.3625 -0.6720
 5554SOL     OW28294   2.575   3.249   4.169  0.1668  0.3434  0.6035
 5554SOL    HW128295   2.542   3.183   4.107  2.8767  1.1256 -1.6315
 5554SOL    HW228296   2.664   3.248   4.135 -0.0472 -0.7485  0.0775
 5555SOL     OW28297   0.649   2.418   5.641  0.0919 -0.3315  0.2938
 5555SOL    HW128298   0.656   2.434   5.735  0.3876  3.2411 -0.3244
 5555SOL    HW228299   0.582   2.350   5.647  0.6715 -0.7516  2.0340
 5556SOL     OW28300   4.370   3.439   3.528 -0.0002 -0.0300 -0.0807
 5556SOL    HW128301   4.313   3.363   3.540  0.4085 -0.3880 -0.3915
 5556SOL    HW228302   4.334   3.480   3.450  2.6729  0.3827 -1.0744
 5557SOL     OW28303   1.056   0.556  11.108  0.1100 -0.1300  0.1711
 5557SOL    HW128304   1.119   0.528  11.174  0.3324  3.1329  1.3371
 5557SOL    HW228305   0.988   0.494  11.131  0.1703 -0.3918 -0.3448
 5558SOL     OW28306   3.405   3.478  11.235  0.5060  0.7225  0.6712
 5558SOL    HW128307   3.481   3.490  11.291 -0.0131  0.4255  1.4366
 5558SOL    HW228308   3.448   3.528  11.166  3.1730 -2.2545  0.1868
 5559SOL     OW28309   2.228   0.799  11.913  0.3684 -0.3150 -0.2535
 5559SOL    HW128310   2.191   0.797  12.001  0.6523  0.3580 -0.1201
 5559SOL    HW228311   2.321   0.781  11.926  0.4055  0.0021 -0.0746
 5560SOL     OW28312   1.924   2.153  12.837  0.1173  0.8886  0.0968
 5560SOL    HW128313   2.008   2.144  12.791  0.8006  0.3542  1.4513
 5560SOL    HW228314   1.890   2.064  12.842  0.0853  0.9184  0.4194
 5561SOL     OW28315   4.168   0.098   8.493 -0.5395 -0.8254  0.4748
 5561SOL    HW128316   4.088   0.148   8.513  0.7280  1.6934 -0.8080
 5561SOL    HW228317   4.194   0.061   8.577 -1.3545  0.1369  1.1577
 5562SOL     OW28318   0.171   4.117   4.429  0.0283 -0.5387  0.5570
 5562SOL    HW128319   0.088   4.127   4.382  0.4744 -0.3784 -0.1957
 5562SOL    HW228320   0.159   4.171   4.508 -1.3557 -0.7385  0.4858
 5563SOL     OW28321   2.812   4.121   8.945  0.9382  0.0287 -0.8573
 5563SOL    HW128322   2.898   4.109   8.986 -0.0337  1.0082  1.4969
 5563SOL    HW228323   2.842   4.151   8.860  0.9170 -2.4690 -1.7461
 5564SOL     OW28324   3.077   2.213  14.532 -0.3203  0.3352  0.0430
 5564SOL    HW128325   3.136   2.283  14.504 -0.6586  0.3833 -0.5517
 5564SOL    HW228326   3.127   2.144  14.576  1.6056  0.7517 -1.4632
 5565SOL     OW28327   4.419   3.290   2.909 -0.2765  0.1356 -0.2930
 5565SOL    HW128328   4.481   3.263   2.977  2.0438  1.8877 -1.7053
 5565SOL    HW228329   4.453   3.240   2.836 -1.7025 -0.2964 -0.6729
 5566SOL     OW28330   3.133   2.634   7.542  0.2146  0.0322 -0.3075
 5566SOL    HW128331   3.079   2.686   7.483  0.2129  1.6325  1.1306
 5566SOL    HW228332   3.060   2.596   7.591  0.0088  0.7861 -0.0356
 5567SOL     OW28333   4.253   2.329  10.786  0.4517 -0.5699  0.3197
 5567SOL    HW128334   4.214   2.245  10.811  3.0342 -1.4978  1.1961
 5567SOL    HW228335   4.250   2.366  10.875 -1.4181 -0.9744  0.4383
 5568SOL     OW28336   0.355   0.695   4.042  0.9416  0.0638 -0.3711
 5568SOL    HW128337   0.353   0.636   3.966  1.5128  0.3536 -0.6184
 5568SOL    HW228338   0.330   0.634   4.111  1.3165  0.7454  0.3605
 5569SOL     OW28339   2.399   0.163  14.626 -0.4384 -0.4470  0.0025
 5569SOL    HW128340   2.460   0.159  14.699  0.8985  1.8121 -0.9962
 5569SOL    HW228341   2.448   0.110  14.564 -1.3938 -1.9996  0.5655
 5570SOL     OW28342   2.752   2.757  11.079  0.0366 -0.1621  0.2978
 5570SOL    HW128343   2.679   2.757  11.017  0.1972 -0.7584  0.1090
 5570SOL    HW228344   2.803   2.836  11.063 -0.8579  0.1230 -1.2211
 5571SOL     OW28345   4.197   2.034   0.309 -0.4729 -0.1950  0.2856
 5571SOL    HW128346   4.135   2.107   0.318 -0.3762  0.0617 -1.2074
 5571SOL    HW228347   4.221   2.045   0.217 -1.8678 -0.1155 -0.0679
 5572SOL     OW28348   1.216   4.605  10.933 -0.6630  0.0229 -0.4108
 5572SOL    HW128349   1.239   4.512  10.941 -1.0846  0.1841  2.4595
 5572SOL    HW228350   1.253   4.628  10.848  0.3574  1.8985  0.5617
 5573SOL     OW28351   1.711   4.188   4.470  0.2732  0.9071 -0.2449
 5573SOL    HW128352   1.791   4.135   4.468  1.2353  2.3595 -0.1392
 5573SOL    HW228353   1.711   4.240   4.390  1.2630 -0.6494 -1.2585
 5574SOL     OW28354   0.957   2.825   3.871 -0.2160 -0.0285 -0.5632
 5574SOL    HW128355   0.953   2.753   3.808  0.2971 -2.5066  2.2605
 5574SOL    HW228356   1.029   2.803   3.930  2.6791  1.6472 -3.4724
 5575SOL     OW28357   2.547   2.883   8.209 -0.3339 -0.2833 -0.0793
 5575SOL    HW128358   2.523   2.799   8.171 -1.3412  0.6740 -1.5600
 5575SOL    HW228359   2.501   2.877   8.294  2.2451  0.5391  1.3557
 5576SOL     OW28360   2.267   4.729  17.386  0.1943 -0.0682  0.4977
 5576SOL    HW128361   2.343   4.679  17.355  0.1269 -0.7963  1.4846
 5576SOL    HW228362   2.200   4.699  17.324  2.5010 -0.4101 -1.8313
 5577SOL     OW28363   3.801   4.140   6.057 -0.0370  0.4086 -0.8868
 5577SOL    HW128364   3.821   4.133   5.963 -0.1332  0.4305 -0.9093
 5577SOL    HW228365   3.709   4.114   6.063  0.0099  0.7271  1.1812
 5578SOL     OW28366   4.057   2.870   7.934 -0.1322 -0.3378  0.0834
 5578SOL    HW128367   4.121   2.809   7.971 -0.3097 -0.7719 -0.3202
 5578SOL    HW228368   3.976   2.820   7.923 -0.1864 -0.5874  1.6167
 5579SOL     OW28369   0.849   3.981   3.499 -0.0129  0.1801  0.3042
 5579SOL    HW128370   0.893   4.049   3.447  0.8784 -0.4962  0.1692
 5579SOL    HW228371   0.850   4.040   3.575 -0.3281  0.3730  0.1588
 5580SOL     OW28372   3.667   2.389   5.281  0.4775  0.2232 -0.0474
 5580SOL    HW128373   3.623   2.323   5.335  2.3213 -1.9480 -1.2097
 5580SOL    HW228374   3.589   2.424   5.238  0.6850  1.3695  0.5306
 5581SOL     OW28375   0.019   3.147   3.109  0.6763  0.5889  0.5395
 5581SOL    HW128376   0.033   3.223   3.164  2.3820 -0.2770  1.2883
 5581SOL    HW228377   0.057   3.187   3.030  0.0229  0.3970  0.1257
 5582SOL     OW28378   0.829   3.373  17.243 -0.2646  0.7638 -0.0531
 5582SOL    HW128379   0.895   3.442  17.253  0.8160 -0.3730  0.6102
 5582SOL    HW228380   0.883   3.296  17.223 -1.1408  0.9475 -3.0855
 5583SOL     OW28381   4.269   4.698   3.512  0.1714  0.2747  0.3206
 5583SOL    HW128382   4.203   0.003   3.568 -1.4012  0.2892 -1.5688
 5583SOL    HW228383   4.351   4.736   3.545 -0.1628  1.9686 -0.8473
 5584SOL     OW28384   1.407   3.965   3.301 -0.2305  0.6717  0.0646
 5584SOL    HW128385   1.478   3.923   3.251 -0.7477  0.3365 -0.3947
 5584SOL    HW228386   1.447   3.974   3.388 -0.9767 -0.5954  0.5309
 5585SOL     OW28387   4.418   3.546   9.662  0.3173 -0.3591 -0.4116
 5585SOL    HW128388   4.403   3.576   9.572  0.9784 -0.0255 -0.4160
 5585SOL    HW228389   4.367   3.608   9.714 -0.1564  0.4927 -1.8725
 5586SOL     OW28390   2.655   2.905   4.724  0.4175  0.1597  0.0731
 5586SOL    HW128391   2.626   2.982   4.773  0.3613 -0.1340  0.4966
 5586SOL    HW228392   2.649   2.937   4.633  0.4805  2.2261  0.7848
 5587SOL     OW28393   1.972   4.299   5.798  0.1728  0.1898 -0.7813
 5587SOL    HW128394   1.992   4.391   5.785  1.1257  0.0696 -0.2234
 5587SOL    HW228395   1.893   4.317   5.849  0.5600 -0.5600  0.0872
 5588SOL     OW28396   0.742   2.872  11.501 -0.1633  0.4152 -0.1269
 5588SOL    HW128397   0.834   2.854  11.482  0.1117  1.4654  0.2191
 5588SOL    HW228398   0.757   2.919  11.583 -0.2441 -2.0111  1.2676
 5589SOL     OW28399   4.342   4.454   2.234 -0.0196 -0.1238  0.0304
 5589SOL    HW128400   4.322   4.543   2.260  0.9424  0.4779 -1.3199
 5589SOL    HW228401   4.257   4.430   2.197  0.3275  1.0009 -1.4828
 5590SOL     OW28402   4.723   2.572   0.783  0.4681  0.3342 -0.0368
 5590SOL    HW128403   4.722   2.610   0.695 -3.7779 -0.6940 -0.4663
 5590SOL    HW228404   0.074   2.536   0.778 -0.7772 -2.5923 -1.4315
 5591SOL     OW28405   4.680   3.961  11.993 -0.4213 -0.2570  0.1835
 5591SOL    HW128406   4.632   4.043  11.987  0.2860  0.1211 -0.2804
 5591SOL    HW228407   0.025   3.982  12.039 -1.9447  2.3425  1.6834
 5592SOL     OW28408   3.226   0.678   3.720  0.5723  0.3777  0.6483
 5592SOL    HW128409   3.226   0.741   3.793 -0.5240 -0.0558  1.0315
 5592SOL    HW228410   3.187   0.736   3.654  2.0381  0.0213 -0.5059
 5593SOL     OW28411   3.105   0.920   7.805  0.5789 -0.1288 -0.0649
 5593SOL    HW128412   3.183   0.870   7.783  1.0212 -0.9203  3.3244
 5593SOL    HW228413   3.100   0.979   7.729  2.5578 -1.7998 -1.4971
 5594SOL     OW28414   2.955   3.846  16.749 -0.2916  0.0880  0.8025
 5594SOL    HW128415   3.037   3.877  16.711 -0.9956  0.8932 -0.0520
 5594SOL    HW228416   2.888   3.897  16.703  2.0638  2.7005  0.3445
 5595SOL     OW28417   1.436   2.068   6.383  0.2901  0.2374 -0.1976
 5595SOL    HW128418   1.372   2.094   6.316  0.5888  0.9054 -0.2154
 5595SOL    HW228419   1.408   1.982   6.416  0.0277 -0.2688 -1.7115
 5596SOL     OW28420   0.085   0.042  13.788  0.2885  0.4527  0.4183
 5596SOL    HW128421   0.059   0.092  13.711 -0.1562  2.3140  1.7624
 5596SOL    HW228422   0.025   4.705  13.795 -1.2801  1.7153  0.1683
 5597SOL     OW28423   3.805   4.002   8.884 -0.9236  0.1503  0.0177
 5597SOL    HW128424   3.862   4.060   8.935  0.2125 -0.5132 -0.5095
 5597SOL    HW228425   3.746   4.074   8.860 -0.8353  0.3620  0.4346
 5598SOL     OW28426   0.364   0.336   7.930  0.4227 -0.0747  0.5851
 5598SOL    HW128427   0.315   0.304   8.006 -0.8931  2.1040  0.6416
 5598SOL    HW228428   0.298   0.340   7.861 -1.0555  2.7886  2.2087
 5599SOL     OW28429   0.585   2.120  16.285 -0.2021 -0.0062 -0.0290
 5599SOL    HW128430   0.496   2.124  16.322 -0.8384 -0.9038 -1.4984
 5599SOL    HW228431   0.600   2.214  16.286  4.3024 -0.7329 -0.4309
 5600SOL     OW28432   0.797   2.675  13.923 -0.3257 -1.0071 -0.0960
 5600SOL    HW128433   0.812   2.598  13.868  2.2181  1.3207 -2.7032
 5600SOL    HW228434   0.706   2.694  13.902 -0.4370 -1.9517 -0.4617
 5601SOL     OW28435   3.834   0.203   4.595 -0.0443  0.6073 -0.2827
 5601SOL    HW128436   3.803   0.279   4.645  1.5770  0.0101  1.6320
 5601SOL    HW228437   3.919   0.227   4.559  0.5837  0.9586  1.4295
 5602SOL     OW28438   2.179   3.875   7.782  0.1537  0.0779  0.7542
 5602SOL    HW128439   2.174   3.962   7.821 -0.1124 -0.4920  2.0044
 5602SOL    HW228440   2.151   3.824   7.858  2.8591 -1.3934  0.7616
 5603SOL     OW28441   1.348   2.208   1.060  0.2054 -0.0344  0.0596
 5603SOL    HW128442   1.310   2.124   1.037  0.9888 -0.4437  0.2431
 5603SOL    HW228443   1.340   2.196   1.155  0.0624 -1.8966 -0.1955
 5604SOL     OW28444   2.648   2.848   0.481  0.2867 -0.1803  0.3418
 5604SOL    HW128445   2.644   2.924   0.540 -0.4927  0.7050 -0.8546
 5604SOL    HW228446   2.738   2.824   0.504  0.1406 -1.2261 -0.2067
 5605SOL     OW28447   4.094   2.353   5.864 -0.2103  0.4707 -0.0898
 5605SOL    HW128448   4.098   2.342   5.769 -1.6515 -1.7462  0.0919
 5605SOL    HW228449   4.000   2.369   5.855 -0.5562 -1.0562  0.6982
 5606SOL     OW28450   1.486   2.722  12.441  0.0761  0.0299 -0.0594
 5606SOL    HW128451   1.448   2.724  12.529  0.2820 -0.4534  0.0414
 5606SOL    HW228452   1.422   2.772  12.391  0.4441  1.7234  1.1339
 5607SOL     OW28453   0.484   3.892  16.098  0.4230 -0.1007 -0.7367
 5607SOL    HW128454   0.540   3.969  16.104  0.6448 -0.2332 -1.0840
 5607SOL    HW228455   0.451   3.894  16.008  0.1740  0.0682 -0.6416
 5608SOL     OW28456   4.662   3.128  11.881 -0.2598  0.1066  0.0663
 5608SOL    HW128457   4.605   3.116  11.957  0.9068  2.4419  1.3015
 5608SOL    HW228458   4.626   3.074  11.810 -0.3954  1.0153 -0.5546
 5609SOL     OW28459   0.611   2.142   8.172  0.3907 -0.2671 -0.8868
 5609SOL    HW128460   0.520   2.167   8.189  0.4487 -0.8647  0.2622
 5609SOL    HW228461   0.603   2.104   8.084 -0.9483 -0.7706 -0.5464
 5610SOL     OW28462   2.230   1.007   5.710 -0.2989 -0.6834  0.0182
 5610SOL    HW128463   2.153   1.021   5.765 -0.2126  1.7509 -0.5138
 5610SOL    HW228464   2.283   0.960   5.774 -0.7950 -1.1072  0.1291
 5611SOL     OW28465   0.545   2.654   4.667  0.2757  0.0848 -0.0587
 5611SOL    HW128466   0.616   2.634   4.728 -0.0632 -2.2809 -0.4471
 5611SOL    HW228467   0.517   2.740   4.699 -0.4367  0.2328 -1.0789
 5612SOL     OW28468   1.355   3.020  10.599  0.3005 -0.5764 -0.2732
 5612SOL    HW128469   1.279   3.079  10.597  0.1137 -0.9579 -4.0469
 5612SOL    HW228470   1.323   2.959  10.666 -0.9671  0.3946  0.0108
 5613SOL     OW28471   3.808   0.436   4.718 -0.0110 -0.1456  0.1345
 5613SOL    HW128472   3.872   0.507   4.720  1.4612 -1.4292 -1.1078
 5613SOL    HW228473   3.729   0.489   4.719 -1.1153 -1.7984 -0.0614
 5614SOL     OW28474   1.745   4.474  13.083  0.3849  0.2626  0.0461
 5614SOL    HW128475   1.820   4.439  13.130  0.1651 -0.7549 -0.3710
 5614SOL    HW228476   1.698   4.512  13.158  1.0993  2.0025 -0.3791
 5615SOL     OW28477   3.513   1.353   7.650 -0.2322  1.2122  0.4570
 5615SOL    HW128478   3.493   1.289   7.582  1.7612 -0.5876  1.5350
 5615SOL    HW228479   3.510   1.434   7.599  4.6725  2.0146  1.4244
 5616SOL     OW28480   2.907   1.318   6.486 -0.1425 -0.3339  0.0844
 5616SOL    HW128481   2.816   1.343   6.502  0.2281  0.6853  0.6457
 5616SOL    HW228482   2.935   1.340   6.575  0.9645  0.6474 -0.4983
 5617SOL     OW28483   3.044   1.799   3.892 -0.4018 -0.2273 -0.1348
 5617SOL    HW128484   3.065   1.889   3.868 -3.1529  0.2905 -0.5442
 5617SOL    HW228485   2.949   1.810   3.891 -0.2728  0.4936 -3.0575
 5618SOL     OW28486   1.201   3.449   3.241  0.1449  0.0623 -0.0730
 5618SOL    HW128487   1.295   3.437   3.233  0.1565 -0.2044  0.4917
 5618SOL    HW228488   1.174   3.421   3.154 -2.1943 -0.0008  0.6549
 5619SOL     OW28489   2.161   4.635   9.599  0.0159  0.5239  0.2566
 5619SOL    HW128490   2.074   4.595   9.604 -0.6788  1.6413 -2.7795
 5619SOL    HW228491   2.183   4.622   9.507 -0.9196 -1.2140  0.2928
 5620SOL     OW28492   3.931   0.782  10.747  0.4572 -0.2798 -0.2548
 5620SOL    HW128493   4.014   0.818  10.715  0.7439 -0.9043 -0.2224
 5620SOL    HW228494   3.903   0.857  10.798  0.4942 -2.1563  2.5613
 5621SOL     OW28495   4.250   4.324   6.220 -0.7688  0.2883 -0.0037
 5621SOL    HW128496   4.195   4.363   6.288  0.1058 -0.5578  1.1824
 5621SOL    HW228497   4.192   4.250   6.205  4.2982 -3.5173 -0.5815
 5622SOL     OW28498   3.264   0.633   7.108 -0.1718  0.2369  0.0484
 5622SOL    HW128499   3.254   0.659   7.016 -0.4498  0.1026  0.0398
 5622SOL    HW228500   3.175   0.600   7.119  0.0555 -0.9299 -1.6409
 5623SOL     OW28501   2.256   3.508   9.886  0.0631  0.1833 -0.5137
 5623SOL    HW128502   2.344   3.546   9.877  0.8926 -1.7469 -0.5694
 5623SOL    HW228503   2.272   3.416   9.866 -1.0585  0.2914 -1.9142
 5624SOL     OW28504   3.246   4.299   4.247 -0.1953 -0.2776 -0.4123
 5624SOL    HW128505   3.194   4.373   4.279 -0.0193 -0.3898  0.1203
 5624SOL    HW228506   3.267   4.332   4.160 -1.6501  1.1532 -0.2270
 5625SOL     OW28507   3.055   1.761   1.052 -0.1975  0.0240  0.0997
 5625SOL    HW128508   2.975   1.799   1.087 -0.4118  0.5031 -0.9207
 5625SOL    HW228509   3.068   1.703   1.127 -2.2284 -1.7622 -0.9105
 5626SOL     OW28510   1.952   1.873   1.434 -0.6317  0.3533  0.1533
 5626SOL    HW128511   1.896   1.800   1.461  0.0345 -0.0062  0.5777
 5626SOL    HW228512   2.010   1.827   1.373  0.3352  0.2398  1.1593
 5627SOL     OW28513   4.453   4.696  16.494  0.1330  0.5455  0.2897
 5627SOL    HW128514   4.505   4.683  16.573  1.8792  1.0517 -0.7868
 5627SOL    HW228515   4.521   4.700  16.427  0.9547 -0.5939  1.0579
 5628SOL     OW28516   1.765   1.640   2.324 -0.3423  0.4410  0.3455
 5628SOL    HW128517   1.857   1.654   2.299 -0.4101  2.3427  1.1058
 5628SOL    HW228518   1.733   1.731   2.327 -0.6431  0.2736  2.1138
 5629SOL     OW28519   3.856   1.218  14.341 -0.5888  0.6297  0.0571
 5629SOL    HW128520   3.816   1.302  14.364 -2.5534 -0.2240 -0.2253
 5629SOL    HW228521   3.791   1.166  14.294 -0.4586  0.2004  0.3507
 5630SOL     OW28522   2.818   3.344  11.139  0.5617  0.0328 -0.3760
 5630SOL    HW128523   2.803   3.429  11.181  1.4626  0.8125 -1.6351
 5630SOL    HW228524   2.732   3.303  11.140  0.4923  0.1949  0.1991
 5631SOL     OW28525   0.173   4.241   7.544  0.3294  0.5704  0.0594
 5631SOL    HW128526   0.200   4.332   7.558 -1.0877  0.7522  1.6059
 5631SOL    HW228527   0.158   4.230   7.450  1.2888  0.0346 -0.0266
 5632SOL     OW28528   0.614   0.579  12.087  0.1611 -0.7541 -0.4575
 5632SOL    HW128529   0.568   0.660  12.110  1.3153  0.3163 -1.8589
 5632SOL    HW228530   0.587   0.520  12.156  2.0708 -0.8408  0.2191
 5633SOL     OW28531   3.456   1.004  16.731 -0.1500  0.2732  0.3273
 5633SOL    HW128532   3.472   1.098  16.721 -0.5651  0.4283  1.1362
 5633SOL    HW228533   3.511   0.967  16.662 -0.7409 -0.4404  0.2397
 5634SOL     OW28534   3.205   2.062   3.520 -0.1117 -0.4556  0.1948
 5634SOL    HW128535   3.208   2.156   3.503 -0.2907 -0.6745 -1.1089
 5634SOL    HW228536   3.204   2.027   3.430 -2.7975  0.6545 -0.1888
 5635SOL     OW28537   2.648   0.176   7.153 -0.3205  0.1741 -0.1627
 5635SOL    HW128538   2.595   0.233   7.208  1.6039  0.7250  1.1385
 5635SOL    HW228539   2.621   0.214   7.070  1.6841 -1.1037 -1.4077
 5636SOL     OW28540   2.391   0.882   2.217  0.5872 -0.1429 -0.0782
 5636SOL    HW128541   2.421   0.925   2.297 -1.7320 -0.3145  0.9053
 5636SOL    HW228542   2.458   0.817   2.195 -0.9428 -1.9944  0.7565
 5637SOL     OW28543   4.671   3.673   0.053 -0.1510 -0.1812 -0.7259
 5637SOL    HW128544   4.684   3.768   0.053 -0.5747 -0.1165  0.0979
 5637SOL    HW228545   4.654   3.651   0.145  0.6707  2.5328  0.1093
 5638SOL     OW28546   2.700   2.731   7.906 -0.1367 -0.6071 -0.5461
 5638SOL    HW128547   2.713   2.823   7.931 -1.2473  0.0605 -2.4779
 5638SOL    HW228548   2.721   2.736   7.813 -1.8049 -0.1041 -0.8822
 5639SOL     OW28549   2.888   4.224   3.389  0.6132  0.2741  0.6112
 5639SOL    HW128550   2.973   4.189   3.414  1.4665  2.0832  0.2964
 5639SOL    HW228551   2.829   4.170   3.443 -0.5405  0.0129 -0.9171
 5640SOL     OW28552   4.638   0.074   1.213 -0.3862  0.2613 -0.6868
 5640SOL    HW128553   4.674   0.009   1.153 -1.1234 -1.5536  0.8198
 5640SOL    HW228554   4.555   0.088   1.168 -0.1254  1.1940 -0.8650
 5641SOL     OW28555   0.343   0.244   5.526 -0.0961  0.1047  0.5680
 5641SOL    HW128556   0.289   0.183   5.575  0.3768 -1.6083 -1.0430
 5641SOL    HW228557   0.331   0.226   5.433  0.2852 -0.0923  0.5548
 5642SOL     OW28558   1.991   1.966   1.999  0.3048  0.1368  0.3918
 5642SOL    HW128559   2.012   1.876   1.976  3.0884  1.3430 -1.7183
 5642SOL    HW228560   1.902   1.963   2.037 -0.1911  2.9793 -0.5765
 5643SOL     OW28561   3.470   4.090   8.424  0.3201 -0.3306 -0.7961
 5643SOL    HW128562   3.457   4.031   8.499 -1.5695 -0.5019 -1.2545
 5643SOL    HW228563   3.506   4.160   8.478 -0.7782 -1.2179  1.0963
 5644SOL     OW28564   3.588   0.732  16.739 -0.1381 -0.2298 -0.0510
 5644SOL    HW128565   3.616   0.699  16.654 -0.2747  1.9063 -0.9027
 5644SOL    HW228566   3.494   0.750  16.736 -0.0047  0.5361  0.3170
 5645SOL     OW28567   1.526   1.949   3.969  0.2530 -0.2555 -0.5231
 5645SOL    HW128568   1.590   1.988   4.030 -1.0578 -0.4771  0.9765
 5645SOL    HW228569   1.452   1.944   4.029 -1.3055  0.7633 -2.3384
 5646SOL     OW28570   1.055   4.672  16.743 -0.2590  0.0841  0.1745
 5646SOL    HW128571   1.014   0.019  16.724 -1.3179 -0.7274 -1.1685
 5646SOL    HW228572   1.010   4.615  16.680  2.2708 -0.0015 -1.5760
 5647SOL     OW28573   4.057   2.623   3.325  0.1987 -0.4089 -0.1136
 5647SOL    HW128574   4.081   2.622   3.232  2.2854 -0.6132  0.4107
 5647SOL    HW228575   4.112   2.552   3.358 -0.5300 -0.5508  0.7819
 5648SOL     OW28576   4.090   1.782  10.847  0.1746 -0.4851  0.6551
 5648SOL    HW128577   4.030   1.823  10.909  0.1662 -1.9036  1.6005
 5648SOL    HW228578   4.035   1.787  10.770  0.2026 -1.1000  0.5911
 5649SOL     OW28579   4.065   1.296  14.644  0.2998 -0.6300 -0.0924
 5649SOL    HW128580   4.102   1.219  14.601  0.3133 -0.2653 -0.7367
 5649SOL    HW228581   4.061   1.279  14.738  0.5605  1.2271  0.2637
 5650SOL     OW28582   1.441   1.602   4.144 -0.0939  0.2503 -0.1653
 5650SOL    HW128583   1.357   1.622   4.104 -0.3877 -0.9608 -0.1303
 5650SOL    HW228584   1.460   1.518   4.102  0.5685  0.7620 -0.9189
 5651SOL     OW28585   0.733   1.907   8.999 -0.3889 -0.3555 -0.2038
 5651SOL    HW128586   0.748   1.904   9.093 -0.7828  1.2136 -0.0980
 5651SOL    HW228587   0.660   1.969   8.991  0.9132  1.1357 -0.5146
 5652SOL     OW28588   3.725   3.901  10.982  0.2076 -0.1627 -0.0496
 5652SOL    HW128589   3.630   3.896  10.993  0.0087  1.8349 -0.9771
 5652SOL    HW228590   3.741   3.993  10.963 -0.3350 -0.1907 -0.6328
 5653SOL     OW28591   3.973   3.275   7.802  0.7757 -0.4141  0.1656
 5653SOL    HW128592   3.974   3.214   7.875  0.3877  0.1736  0.6657
 5653SOL    HW228593   4.066   3.283   7.783  0.5468  1.5228 -0.1492
 5654SOL     OW28594   2.003   0.293  16.044 -0.0236  0.1404  0.3276
 5654SOL    HW128595   2.013   0.310  15.950 -0.8123  0.8283  0.3591
 5654SOL    HW228596   2.069   0.351  16.082  1.2236 -0.5948 -0.7199
 5655SOL     OW28597   3.796   2.386  15.747 -0.0793  0.2919  0.4140
 5655SOL    HW128598   3.741   2.418  15.819 -0.5481  0.7723 -0.1617
 5655SOL    HW228599   3.853   2.321  15.787 -1.1403 -1.4797 -0.9572
 5656SOL     OW28600   2.568   2.409  15.950  0.0375  0.3190  0.6573
 5656SOL    HW128601   2.622   2.371  15.881 -0.1813  1.3047 -0.0539
 5656SOL    HW228602   2.623   2.467  16.002 -1.4002  0.9397  1.5035
 5657SOL     OW28603   1.545   3.072   4.030 -0.6709 -0.4280  0.0931
 5657SOL    HW128604   1.476   3.136   4.045  0.9620  1.6827 -1.4767
 5657SOL    HW228605   1.600   3.138   3.988  0.1300  0.2342  2.1862
 5658SOL     OW28606   1.384   2.794  14.258 -0.4824  0.6551 -0.0209
 5658SOL    HW128607   1.438   2.746  14.320  2.7497  3.0921 -0.9252
 5658SOL    HW228608   1.310   2.819  14.313 -1.1149 -1.2030 -0.0265
 5659SOL     OW28609   1.407   2.301  16.935 -0.2963 -0.5063  0.5404
 5659SOL    HW128610   1.328   2.319  16.985 -0.5682  1.1469 -0.5024
 5659SOL    HW228611   1.450   2.384  16.956 -1.5888  0.0123  1.0898
 5660SOL     OW28612   1.258   0.638   2.006  0.0151  0.0490 -0.1572
 5660SOL    HW128613   1.171   0.629   1.966 -0.1213 -1.6505  0.5329
 5660SOL    HW228614   1.283   0.546   2.004 -1.3795 -0.2788 -3.1376
 5661SOL     OW28615   3.168   0.374   7.699 -0.0412 -0.1534 -0.1196
 5661SOL    HW128616   3.088   0.419   7.727 -0.7200 -2.6557  1.8839
 5661SOL    HW228617   3.166   0.398   7.606  0.0814  1.4588  0.2943
 5662SOL     OW28618   2.245   3.854   2.363 -0.0802 -0.2527 -0.3191
 5662SOL    HW128619   2.282   3.940   2.343  0.9691 -0.7147 -0.3821
 5662SOL    HW228620   2.179   3.884   2.425 -0.6283 -0.7690 -0.6568
 5663SOL     OW28621   4.333   0.559   3.612 -0.1873 -0.1441  0.7561
 5663SOL    HW128622   4.337   0.652   3.593  2.1730 -0.5140 -0.4510
 5663SOL    HW228623   4.325   0.517   3.526  0.8960 -2.2280  1.6749
 5664SOL     OW28624   3.975   1.856   6.148 -0.4912  0.5352 -0.5437
 5664SOL    HW128625   3.948   1.881   6.236 -0.0241 -0.1675 -0.2040
 5664SOL    HW228626   3.954   1.941   6.110  1.6051  1.2296 -0.1482
 5665SOL     OW28627   0.711   2.767   6.364 -0.1243  0.4364  0.3673
 5665SOL    HW128628   0.702   2.782   6.458 -1.0761  1.0621  0.1690
 5665SOL    HW228629   0.704   2.672   6.357 -0.6076  0.3886  1.4812
 5666SOL     OW28630   1.088   0.808  16.621  0.0328 -0.3815 -0.3462
 5666SOL    HW128631   1.063   0.717  16.606 -0.6042 -0.2421 -0.1142
 5666SOL    HW228632   1.174   0.798  16.662 -0.1765  4.4649  1.2412
 5667SOL     OW28633   4.471   1.366   5.398  0.1113  0.6266 -0.3479
 5667SOL    HW128634   4.515   1.435   5.447  2.1219 -0.2397 -0.9208
 5667SOL    HW228635   4.434   1.315   5.470 -2.1050  0.6215 -1.4875
 5668SOL     OW28636   0.026   3.398   4.899  0.5413 -0.3558 -0.4889
 5668SOL    HW128637   0.091   3.393   4.969 -0.4765 -1.8991  0.3520
 5668SOL    HW228638   0.006   3.492   4.900  0.4156 -0.3893 -0.0277
 5669SOL     OW28639   3.677   3.202   6.320  0.6495 -0.2291  0.9113
 5669SOL    HW128640   3.688   3.290   6.355 -0.7688  0.5824 -0.6688
 5669SOL    HW228641   3.652   3.215   6.228  0.2931  0.8655  1.1637
 5670SOL     OW28642   3.778   1.172   2.189 -0.1612  0.2238 -0.1538
 5670SOL    HW128643   3.714   1.241   2.176  0.4111  1.0606  1.4806
 5670SOL    HW228644   3.718   1.098   2.197 -0.6999  0.5651 -1.1728
 5671SOL     OW28645   0.541   3.042   5.523  0.2971  0.5037 -0.7492
 5671SOL    HW128646   0.515   3.002   5.440 -1.3468 -0.1576  0.0780
 5671SOL    HW228647   0.484   3.118   5.516  0.6211  0.7861 -0.2883
 5672SOL     OW28648   1.619   1.875   5.861  0.0885  0.4320  0.2484
 5672SOL    HW128649   1.549   1.901   5.800  0.7045  1.0688 -0.1840
 5672SOL    HW228650   1.572   1.856   5.942  0.0134 -0.7089 -0.0672
 5673SOL     OW28651   4.701   2.173   8.765 -0.3157  0.0892 -0.2592
 5673SOL    HW128652   4.662   2.206   8.846  1.4116 -0.4246  0.7829
 5673SOL    HW228653   4.660   2.087   8.765 -0.2951  0.0778  1.2970
 5674SOL     OW28654   0.889   2.066   8.665 -0.0225 -0.5185 -0.0348
 5674SOL    HW128655   0.805   2.082   8.621  0.0736 -0.3245 -0.1488
 5674SOL    HW228656   0.923   1.996   8.609  0.0221 -1.3750  1.0835
 5675SOL     OW28657   4.552   0.240   5.222 -0.4066  1.3150  0.4399
 5675SOL    HW128658   4.607   0.283   5.288 -0.7739  0.4834  1.2823
 5675SOL    HW228659   4.538   0.312   5.160 -0.5092  1.3516  0.5059
 5676SOL     OW28660   3.046   2.063   7.335  0.2521  0.2422 -0.2145
 5676SOL    HW128661   2.991   1.995   7.295 -1.2039  0.5245  1.3541
 5676SOL    HW228662   3.000   2.142   7.309 -0.2561 -0.2671 -0.8707
 5677SOL     OW28663   1.947   3.065   9.292 -0.2752  0.0857  0.2773
 5677SOL    HW128664   2.021   3.084   9.234 -0.6693 -1.0709 -0.6171
 5677SOL    HW228665   1.927   2.973   9.279 -0.0804  0.0205  0.4390
 5678SOL     OW28666   3.798   3.971   4.583  0.5233  0.4173 -0.5589
 5678SOL    HW128667   3.737   3.989   4.655  0.6415 -2.9571  0.3804
 5678SOL    HW228668   3.785   3.879   4.562 -0.6720  0.9406 -2.0706
 5679SOL     OW28669   0.342   2.230   5.408  0.5613  0.0297 -0.6247
 5679SOL    HW128670   0.289   2.235   5.328  2.1232  0.5426 -1.6216
 5679SOL    HW228671   0.321   2.142   5.438  0.0089  0.7060  0.9379
 5680SOL     OW28672   3.222   1.207   7.726  0.1237  0.3174 -0.1406
 5680SOL    HW128673   3.315   1.191   7.741  0.2242  1.6746  0.6459
 5680SOL    HW228674   3.185   1.188   7.812  1.7545  0.2121  0.5220
 5681SOL     OW28675   3.580   4.434   7.811  0.0645  0.1091 -0.1379
 5681SOL    HW128676   3.499   4.389   7.836  0.8757 -0.9968  0.5072
 5681SOL    HW228677   3.637   4.391   7.875  1.3426  1.6574 -0.2603
 5682SOL     OW28678   2.903   4.106  13.941  0.0676 -0.4193 -0.2794
 5682SOL    HW128679   2.979   4.132  13.993 -2.3924  1.8817  2.1849
 5682SOL    HW228680   2.831   4.158  13.978  0.6576 -0.3787  0.8254
 5683SOL     OW28681   3.757   1.176  16.880 -0.5244 -0.2478 -0.0499
 5683SOL    HW128682   3.783   1.087  16.854  0.1196  0.5480 -2.0676
 5683SOL    HW228683   3.707   1.210  16.807  0.2859  1.9389  0.3973
 5684SOL     OW28684   1.819   0.220   4.484 -0.6674  0.0374 -0.0282
 5684SOL    HW128685   1.751   0.275   4.446  0.7551  2.7009  1.2587
 5684SOL    HW228686   1.851   0.280   4.552  0.6842  0.9459 -1.4467
 5685SOL     OW28687   1.149   1.526   9.125  0.1320  0.0625  0.3082
 5685SOL    HW128688   1.089   1.598   9.143  1.2599  0.8039  1.0491
 5685SOL    HW228689   1.085   1.455   9.113  0.6499 -0.6553  1.7423
 5686SOL     OW28690   0.200   0.085   8.927  0.0528  0.0133 -0.2847
 5686SOL    HW128691   0.212   0.107   9.019  0.0040  2.1453 -0.7897
 5686SOL    HW228692   0.252   0.154   8.885  0.1940 -0.5386 -1.0224
 5687SOL     OW28693   0.574   3.658   6.232 -0.3918  0.0532 -0.1755
 5687SOL    HW128694   0.621   3.580   6.259 -1.5272 -0.2876  0.8185
 5687SOL    HW228695   0.484   3.626   6.233 -0.7573  1.0321 -1.1023
 5688SOL     OW28696   3.076   1.897  13.242 -0.1880 -0.3706  0.3385
 5688SOL    HW128697   3.021   1.819  13.251 -1.7474  1.0300  3.2116
 5688SOL    HW228698   3.028   1.967  13.286  1.3035 -0.8057  2.6603
 5689SOL     OW28699   2.943   0.169   8.560 -0.1291 -0.0816 -0.2173
 5689SOL    HW128700   2.990   0.248   8.536  0.2188 -0.0518  0.5672
 5689SOL    HW228701   2.865   0.184   8.507 -0.1232  0.7673  0.0170
 5690SOL     OW28702   2.775   2.022   5.184  0.6857 -0.4978 -0.3148
 5690SOL    HW128703   2.767   1.977   5.100 -1.6776  0.1335 -0.4298
 5690SOL    HW228704   2.869   2.021   5.204  0.6559  1.1789 -0.0547
 5691SOL     OW28705   2.768   4.200  12.816 -0.4903 -0.0821  0.2286
 5691SOL    HW128706   2.748   4.247  12.897  1.4188  1.7705 -0.3603
 5691SOL    HW228707   2.746   4.109  12.835 -1.0379  0.1422  0.6678
 5692SOL     OW28708   3.061   2.808  12.004  0.4359  0.4495  0.2022
 5692SOL    HW128709   3.028   2.836  11.918 -1.0403 -1.6687  0.0963
 5692SOL    HW228710   3.096   2.892  12.034  1.0489  0.9770 -1.9755
 5693SOL     OW28711   4.707   0.591  10.784  0.3228 -0.1991 -0.0770
 5693SOL    HW128712   4.677   0.505  10.815  0.1440 -0.6487 -1.4964
 5693SOL    HW228713   0.025   0.628  10.853 -1.1965  0.1807  0.9197
 5694SOL     OW28714   0.100   1.005   2.361  0.7044 -0.0129  0.0925
 5694SOL    HW128715   0.141   1.028   2.444 -0.4631 -2.0111  1.2051
 5694SOL    HW228716   0.156   1.046   2.294  0.1554  0.1414 -0.2663
 5695SOL     OW28717   0.860   0.361   3.299  0.2941 -0.0991 -0.4118
 5695SOL    HW128718   0.928   0.302   3.330 -0.5130 -0.3799  0.8195
 5695SOL    HW228719   0.912   0.440   3.281  1.1713 -0.4014  0.8298
 5696SOL     OW28720   0.114   3.840   8.003  0.1854 -0.3112 -0.2809
 5696SOL    HW128721   0.192   3.895   8.001 -1.1856  1.6514  0.4453
 5696SOL    HW228722   0.105   3.819   8.096 -1.6803 -3.8963 -1.2334
 5697SOL     OW28723   1.132   0.208   5.763  0.5235  0.3705 -0.5575
 5697SOL    HW128724   1.123   0.180   5.672 -0.1376  0.1279 -0.4131
 5697SOL    HW228725   1.224   0.189   5.784  0.4346  0.4899 -0.0682
 5698SOL     OW28726   3.239   2.296  10.106 -0.0847 -0.1385  0.3617
 5698SOL    HW128727   3.206   2.289  10.195 -1.2615 -1.4851 -0.1888
 5698SOL    HW228728   3.261   2.207  10.079  0.5176  0.3545 -0.8002
 5699SOL     OW28729   4.189   3.176  14.865 -0.2339  0.5427  0.5717
 5699SOL    HW128730   4.217   3.197  14.776 -1.2197 -2.7537 -0.5376
 5699SOL    HW228731   4.201   3.266  14.895 -0.3328  1.1686 -1.2535
 5700SOL     OW28732   0.657   2.369   2.397  0.0282  0.4309 -0.1190
 5700SOL    HW128733   0.633   2.394   2.308 -0.9046 -0.1711 -0.0248
 5700SOL    HW228734   0.641   2.451   2.445 -3.4060  1.4733 -3.0604
 5701SOL     OW28735   1.231   2.392   6.642 -0.3657 -0.1161 -0.4991
 5701SOL    HW128736   1.149   2.415   6.599  0.3754  1.3396 -1.1514
 5701SOL    HW228737   1.288   2.442   6.583  1.5399 -3.1575 -1.2317
 5702SOL     OW28738   0.027   3.460   3.574 -0.2485 -0.1862  0.0054
 5702SOL    HW128739   4.725   3.509   3.646 -2.8722  0.4095 -1.8340
 5702SOL    HW228740   0.095   3.524   3.552 -0.4495 -0.5714 -1.7407
 5703SOL     OW28741   1.500   2.320  15.777 -0.3493 -0.1422  0.3723
 5703SOL    HW128742   1.477   2.393  15.835  0.8412  0.2538  0.3517
 5703SOL    HW228743   1.513   2.375  15.699  2.7340  0.4770  1.3114
 5704SOL     OW28744   3.168   2.408   5.834 -0.2130  1.0183 -0.0249
 5704SOL    HW128745   3.215   2.367   5.906  0.0502  0.0475 -0.7390
 5704SOL    HW228746   3.088   2.356   5.832  0.3581  0.1236  0.9084
 5705SOL     OW28747   2.650   2.932   2.386  0.1106  0.2170 -0.2666
 5705SOL    HW128748   2.741   2.915   2.364  0.3334 -1.6817  2.1739
 5705SOL    HW228749   2.620   2.848   2.421 -1.7344  1.4797  1.2421
 5706SOL     OW28750   2.002   0.264  10.958 -0.0222  0.4717 -0.3986
 5706SOL    HW128751   1.911   0.237  10.944 -0.0418 -0.0321  0.7424
 5706SOL    HW228752   2.034   0.306  10.878 -1.9425 -1.9386 -2.4155
 5707SOL     OW28753   2.654   1.748   4.392  0.2371 -0.4647 -0.4903
 5707SOL    HW128754   2.714   1.675   4.402  2.0027  0.8776 -1.2460
 5707SOL    HW228755   2.604   1.745   4.474 -0.9007  1.0430 -1.1263
 5708SOL     OW28756   0.643   3.874   6.102 -0.5121 -0.2149  0.2600
 5708SOL    HW128757   0.727   3.875   6.148  0.2026  1.4157 -1.0730
 5708SOL    HW228758   0.593   3.801   6.139 -2.3001  0.4305 -0.8766
 5709SOL     OW28759   0.323   4.012  17.136 -0.3141  0.1304 -0.2041
 5709SOL    HW128760   0.286   4.049  17.216 -3.2438 -1.7915 -0.6533
 5709SOL    HW228761   0.250   3.968  17.091  0.9139 -1.1283 -0.9686
 5710SOL     OW28762   3.778   1.343   4.498 -0.2740  0.1962  0.1098
 5710SOL    HW128763   3.864   1.307   4.477  0.1465  0.6233  1.1137
 5710SOL    HW228764   3.779   1.324   4.591 -2.9651 -1.5807 -0.2365
 5711SOL     OW28765   1.629   2.349   0.379 -0.4918 -0.5996 -0.4388
 5711SOL    HW128766   1.651   2.433   0.339 -1.3504 -0.3934 -0.4752
 5711SOL    HW228767   1.618   2.380   0.469  0.4452  0.8185 -0.8046
 5712SOL     OW28768   1.721   0.814  14.473  0.4822 -0.4003 -0.0069
 5712SOL    HW128769   1.768   0.735  14.445  1.3057  1.0675 -2.8611
 5712SOL    HW228770   1.647   0.769  14.512  2.1061 -1.8481  1.4188
 5713SOL     OW28771   2.300   0.204   8.896  0.4645 -0.4538  0.1346
 5713SOL    HW128772   2.385   0.190   8.938  1.8024  1.2543 -1.9866
 5713SOL    HW228773   2.280   0.294   8.924 -0.9050 -1.7639  3.3840
 5714SOL     OW28774   0.428   3.174  16.524 -0.5100  0.1636  0.2921
 5714SOL    HW128775   0.343   3.198  16.559 -0.5981  0.6383 -0.2469
 5714SOL    HW228776   0.401   3.117  16.451 -1.8516 -0.1567  1.0464
 5715SOL     OW28777   1.381   4.545   2.063  0.0871 -0.4227  0.0392
 5715SOL    HW128778   1.464   4.571   2.023  0.1435 -1.0864 -0.2752
 5715SOL    HW228779   1.351   4.465   2.020  0.3554 -0.1654 -0.6409
 5716SOL     OW28780   2.836   0.025   8.135 -0.3622 -0.1026  0.0758
 5716SOL    HW128781   2.796   4.685   8.097 -0.0737  0.1345 -0.7108
 5716SOL    HW228782   2.856   0.004   8.226  0.9886  0.8943  0.0158
 5717SOL     OW28783   1.253   2.946   8.351 -0.4212 -0.2857 -0.0948
 5717SOL    HW128784   1.211   3.001   8.418  0.3289  1.3710 -0.9777
 5717SOL    HW228785   1.221   2.986   8.270  0.3341 -1.8557 -1.1477
 5718SOL     OW28786   3.384   2.146   8.529  0.5559 -0.3527  0.5680
 5718SOL    HW128787   3.429   2.128   8.612  3.1981 -0.4273 -0.8995
 5718SOL    HW228788   3.304   2.193   8.555  0.5922  0.3627 -0.6138
 5719SOL     OW28789   4.412   3.058   5.565 -0.0631  0.3447  0.3378
 5719SOL    HW128790   4.448   3.049   5.477 -0.3828  0.9017  0.1500
 5719SOL    HW228791   4.462   2.989   5.609  2.6706  2.0755 -0.0719
 5720SOL     OW28792   2.958   3.448   0.275  0.3884  0.5067  0.4599
 5720SOL    HW128793   2.947   3.502   0.197 -0.0251  0.2051  0.3054
 5720SOL    HW228794   3.002   3.510   0.332 -0.5602  0.8645  0.8124
 5721SOL     OW28795   2.162   1.871   8.071 -0.4883  0.1075  0.2977
 5721SOL    HW128796   2.110   1.827   8.004 -1.5743  2.9973 -0.7739
 5721SOL    HW228797   2.208   1.796   8.109 -2.8036 -0.7644  1.4089
 5722SOL     OW28798   3.254   1.792   7.250  0.0704 -0.5964 -0.3407
 5722SOL    HW128799   3.203   1.873   7.245  2.2122  1.0338  4.1399
 5722SOL    HW228800   3.345   1.821   7.253 -0.8068  2.0039  0.6815
 5723SOL     OW28801   1.542   3.175  11.513  0.2489 -0.2355  0.4973
 5723SOL    HW128802   1.550   3.270  11.508 -1.5130 -0.3107 -3.1355
 5723SOL    HW228803   1.552   3.160  11.419  2.7874  0.6541  0.6247
 5724SOL     OW28804   0.443   0.174   8.691  0.1178 -0.3803 -0.0034
 5724SOL    HW128805   0.403   0.177   8.604 -4.4093 -1.5939  2.0376
 5724SOL    HW228806   0.438   0.079   8.700 -0.8845 -0.2758  0.5210
 5725SOL     OW28807   0.467   0.076   9.491  0.3803 -0.0512  0.2544
 5725SOL    HW128808   0.460   0.128   9.571 -0.0392  1.3371 -0.6923
 5725SOL    HW228809   0.379   0.084   9.455  0.7283 -0.8984 -0.8077
 5726SOL     OW28810   1.740   2.171   4.574 -0.3968  0.2154  0.5423
 5726SOL    HW128811   1.711   2.091   4.530 -0.1785 -0.3933  1.5087
 5726SOL    HW228812   1.714   2.242   4.516 -0.1417 -1.2684 -1.3957
 5727SOL     OW28813   2.579   2.451   2.738 -0.8176 -0.3120 -0.2612
 5727SOL    HW128814   2.650   2.415   2.683 -0.4623 -0.1604  0.0986
 5727SOL    HW228815   2.504   2.421   2.687 -2.1267  0.5249  1.1759
 5728SOL     OW28816   0.532   2.226  16.973 -0.3863  0.0907  0.1324
 5728SOL    HW128817   0.581   2.150  16.941 -3.0936 -1.3019 -0.6379
 5728SOL    HW228818   0.447   2.185  16.986  0.4079 -2.8531 -3.8034
 5729SOL     OW28819   2.624   1.627   6.256 -0.5928  0.2640 -0.7515
 5729SOL    HW128820   2.658   1.636   6.168 -0.8476 -1.1794 -1.0030
 5729SOL    HW228821   2.530   1.644   6.243 -0.4620  2.0446  0.6913
 5730SOL     OW28822   2.672   3.203   2.428 -0.2754  0.2853 -0.2088
 5730SOL    HW128823   2.628   3.122   2.400 -1.0220  0.1118  1.4720
 5730SOL    HW228824   2.721   3.214   2.346  2.3076 -0.9661  1.1920
 5731SOL     OW28825   4.391   1.623  14.672  0.1300 -0.2782  0.8619
 5731SOL    HW128826   4.334   1.551  14.646 -0.4519 -0.1877  1.8803
 5731SOL    HW228827   4.347   1.695  14.627 -2.6368 -1.1884  2.1225
 5732SOL     OW28828   3.556   0.438  15.697  0.0230  0.3421  0.5118
 5732SOL    HW128829   3.488   0.450  15.631  0.8538 -0.9480 -0.5576
 5732SOL    HW228830   3.633   0.483  15.661 -1.4511  0.4405 -2.5222
 5733SOL     OW28831   2.778   0.251   4.137  0.0726  0.3305 -0.1803
 5733SOL    HW128832   2.792   0.340   4.103  0.1648  0.7199  0.8628
 5733SOL    HW228833   2.802   0.203   4.058  0.5311 -0.9168  0.7161
 5734SOL     OW28834   2.668   3.047   4.488 -0.0730  0.5447 -0.7335
 5734SOL    HW128835   2.608   3.083   4.422 -2.1203  0.0634  0.8483
 5734SOL    HW228836   2.717   2.989   4.430  1.1917  1.6611 -0.7727
 5735SOL     OW28837   1.898   0.384   3.025 -0.4134  0.2525 -0.0057
 5735SOL    HW128838   1.984   0.427   3.018  0.4970 -1.7445 -1.2892
 5735SOL    HW228839   1.899   0.347   2.937  0.5375  0.7650 -0.2097
 5736SOL     OW28840   2.652   2.412  11.862 -0.3784 -0.7556 -0.6138
 5736SOL    HW128841   2.662   2.353  11.787 -0.8066 -2.9016  1.0124
 5736SOL    HW228842   2.598   2.482  11.825 -1.5905 -1.1322  0.4606
 5737SOL     OW28843   2.789   2.363  12.083 -0.1124  0.5197  0.3821
 5737SOL    HW128844   2.871   2.342  12.038 -0.3885  0.3252 -0.0266
 5737SOL    HW228845   2.735   2.396  12.012  0.5664  1.5877  0.3678
 5738SOL     OW28846   0.541   3.394   7.510  0.1572 -0.3897 -0.1451
 5738SOL    HW128847   0.590   3.417   7.431  0.3830 -0.2850  0.0276
 5738SOL    HW228848   0.511   3.307   7.484 -1.8423  0.5289 -0.9670
 5739SOL     OW28849   0.513   0.207   7.268  0.5679 -0.3641 -0.5183
 5739SOL    HW128850   0.606   0.221   7.253  0.4312  1.7513  0.6512
 5739SOL    HW228851   0.469   0.237   7.189 -0.0800 -0.6771 -0.2808
 5740SOL     OW28852   1.953   0.901   9.317 -0.4644  0.1289  0.1242
 5740SOL    HW128853   1.949   0.819   9.268  0.6596  0.7014 -0.9108
 5740SOL    HW228854   1.863   0.914   9.346 -1.3392 -2.0959 -1.5762
 5741SOL     OW28855   1.482   4.070   1.242 -0.3971 -0.1783 -0.1426
 5741SOL    HW128856   1.441   4.006   1.299 -0.0226  1.0904  1.5731
 5741SOL    HW228857   1.553   4.030   1.190  0.3180 -2.4018  2.5610
 5742SOL     OW28858   3.645   1.154  14.179 -0.8107 -0.1652  0.0721
 5742SOL    HW128859   3.567   1.101  14.162 -1.7222  0.3012  2.8266
 5742SOL    HW228860   3.685   1.162  14.092  0.7292 -0.1185  0.7851
 5743SOL     OW28861   4.193   0.001   8.776  0.2599  0.3206 -0.4723
 5743SOL    HW128862   4.102   4.732   8.804  1.1498 -3.8634  1.4640
 5743SOL    HW228863   4.221   0.084   8.816  0.2752 -0.1738  0.5312
 5744SOL     OW28864   1.805   1.081  14.119  0.0410 -0.9002 -0.0707
 5744SOL    HW128865   1.796   1.014  14.051  0.1196 -0.2458 -0.7373
 5744SOL    HW228866   1.876   1.042  14.170  0.3642  2.0341  1.6997
 5745SOL     OW28867   0.495   2.747   0.684  0.2742 -0.2124 -0.0376
 5745SOL    HW128868   0.516   2.840   0.683 -0.1519 -0.1138 -0.1716
 5745SOL    HW228869   0.438   2.752   0.761  1.1077  1.3818  0.4753
 5746SOL     OW28870   2.506   2.010   3.410 -0.8085 -0.0036  0.8917
 5746SOL    HW128871   2.544   1.952   3.344 -0.6619  2.6949 -1.4149
 5746SOL    HW228872   2.423   1.964   3.421 -0.7909 -0.1207  0.5465
 5747SOL     OW28873   3.499   4.695   8.121 -0.1148 -0.4700 -0.0003
 5747SOL    HW128874   3.568   4.717   8.058 -0.0332 -1.5775 -0.3036
 5747SOL    HW228875   3.422   4.699   8.064  0.4803  1.0783 -0.6847
 5748SOL     OW28876   1.172   0.529   8.850  0.1969 -0.2266 -0.4927
 5748SOL    HW128877   1.115   0.506   8.777 -0.2856 -2.8361  0.7182
 5748SOL    HW228878   1.261   0.506   8.820  1.4542  1.6635  1.8307
 5749SOL     OW28879   3.653   2.386   4.255  0.2760 -0.3361  0.6544
 5749SOL    HW128880   3.663   2.406   4.348 -0.8922  0.7517  0.5551
 5749SOL    HW228881   3.559   2.379   4.242  0.3445  0.5291 -0.3430
 5750SOL     OW28882   1.274   3.494   5.811 -0.2870  0.0989 -0.0462
 5750SOL    HW128883   1.209   3.564   5.803 -1.7726 -1.4162 -1.1920
 5750SOL    HW228884   1.222   3.418   5.838 -2.4120  1.5643 -0.0426
 5751SOL     OW28885   3.393   2.654   6.421 -0.3995 -0.0289 -0.6890
 5751SOL    HW128886   3.475   2.608   6.437 -0.1342 -0.1141 -2.3542
 5751SOL    HW228887   3.395   2.718   6.493 -5.4089  1.2064 -1.6073
 5752SOL     OW28888   1.637   2.499   3.525 -0.0709 -0.4851  0.1638
 5752SOL    HW128889   1.592   2.486   3.441  0.8873 -1.4268 -0.2012
 5752SOL    HW228890   1.666   2.591   3.517  0.0256 -0.4121  1.3802
 5753SOL     OW28891   2.374   3.538   4.637  0.0970  0.2229  0.3181
 5753SOL    HW128892   2.454   3.509   4.682 -0.3206 -0.7966  0.4036
 5753SOL    HW228893   2.408   3.601   4.573 -2.2082  2.1758  1.0355
 5754SOL     OW28894   4.327   1.117   7.440  0.4425  0.3210 -0.2720
 5754SOL    HW128895   4.395   1.077   7.494  0.4220 -1.0711 -1.2794
 5754SOL    HW228896   4.263   1.047   7.426  1.6565 -0.4562 -1.8434
 5755SOL     OW28897   2.913   3.736  14.717  0.3468 -0.0936  0.2229
 5755SOL    HW128898   2.971   3.716  14.644  1.0375 -2.2941  1.3610
 5755SOL    HW228899   2.968   3.694  14.784  1.7323 -0.6846 -1.2699
 5756SOL     OW28900   1.405   1.403   7.163 -0.4763 -0.5351  0.3422
 5756SOL    HW128901   1.363   1.322   7.134  1.6493 -0.3606 -3.1760
 5756SOL    HW228902   1.477   1.377   7.220 -1.0173 -0.5725  1.0252
 5757SOL     OW28903   0.235   4.360   9.976 -0.3062 -0.4362  0.1891
 5757SOL    HW128904   0.228   4.325  10.065  0.5075  1.5361  1.0311
 5757SOL    HW228905   0.232   4.454   9.992 -1.3622 -0.1841 -1.4428
 5758SOL     OW28906   4.264   1.583   0.540 -0.1403  0.0835  0.3637
 5758SOL    HW128907   4.326   1.654   0.524  1.3984 -1.0960  1.1791
 5758SOL    HW228908   4.330   1.517   0.561  0.4680  1.1973  1.9671
 5759SOL     OW28909   1.204   0.160   0.150  0.4358  0.0763  0.1311
 5759SOL    HW128910   1.274   0.209   0.108 -1.2673  1.0685 -1.5994
 5759SOL    HW228911   1.247   0.077   0.171  1.0441  0.4211  0.2162
 5760SOL     OW28912   0.074   1.405  16.311  0.5033 -0.1867  0.1524
 5760SOL    HW128913   0.163   1.383  16.338  0.3977  1.2877  1.6943
 5760SOL    HW228914   0.066   1.498  16.334 -0.0650 -0.4408  0.9965
 5761SOL     OW28915   0.642   1.290   5.270 -0.0125 -0.5058  0.1880
 5761SOL    HW128916   0.581   1.267   5.340 -0.6143  0.0628 -0.1470
 5761SOL    HW228917   0.715   1.329   5.318 -0.3664  0.1606  0.1783
 5762SOL     OW28918   2.091   3.925   2.602  0.2498 -0.7009  0.3018
 5762SOL    HW128919   2.133   4.010   2.592  0.1173 -0.8665 -1.7412
 5762SOL    HW228920   2.007   3.956   2.635  0.7621  1.2358 -0.2360
 5763SOL     OW28921   1.122   3.198  13.376 -0.1676  0.7935  0.0854
 5763SOL    HW128922   1.186   3.197  13.447  1.4441  0.8173 -1.3525
 5763SOL    HW228923   1.174   3.148  13.313  1.8922  3.4073 -0.2893
 5764SOL     OW28924   0.060   3.406   2.617 -0.4174 -0.9957  0.1771
 5764SOL    HW128925   0.149   3.438   2.606  0.1314 -1.7762  2.3445
 5764SOL    HW228926   0.023   3.480   2.665  1.5180 -0.7108  1.2137
 5765SOL     OW28927   4.400   3.712   1.188 -0.9708  0.2301  0.2482
 5765SOL    HW128928   4.425   3.633   1.237  1.4712  0.7500 -0.1199
 5765SOL    HW228929   4.464   3.701   1.117 -0.2703  0.8314  0.7868
 5766SOL     OW28930   2.221   1.218   1.992 -0.5321  0.0260  0.0046
 5766SOL    HW128931   2.135   1.234   2.031 -0.5680 -1.0098  0.3484
 5766SOL    HW228932   2.244   1.302   1.952 -0.8049  0.9932  1.8898
 5767SOL     OW28933   3.719   1.044   5.262  0.6422 -0.0008  0.2452
 5767SOL    HW128934   3.690   0.968   5.212  1.6555 -0.8581  0.9615
 5767SOL    HW228935   3.660   1.026   5.336  0.8722 -1.7072  0.0156
 5768SOL     OW28936   0.817   3.038  16.280  0.0913  0.2005  0.7083
 5768SOL    HW128937   0.765   3.109  16.243 -0.0431 -0.6078 -0.6387
 5768SOL    HW228938   0.793   3.043  16.373  1.9486  0.9105  1.1446
 5769SOL     OW28939   2.384   2.224  16.329  0.3178 -0.0026  0.2090
 5769SOL    HW128940   2.307   2.171  16.349  0.9259 -0.5314  1.1654
 5769SOL    HW228941   2.399   2.203  16.237 -0.0377  1.9357 -0.2759
 5770SOL     OW28942   0.588   1.786   1.764 -0.0054  0.0948 -0.0456
 5770SOL    HW128943   0.523   1.763   1.697 -1.6904 -0.2386  1.6784
 5770SOL    HW228944   0.623   1.868   1.730  0.4615  0.2705  0.8717
 5771SOL     OW28945   2.223   0.363   7.018  0.0608 -0.1268 -0.2000
 5771SOL    HW128946   2.131   0.382   7.000  0.0367 -0.4437 -0.4157
 5771SOL    HW228947   2.230   0.364   7.113  0.1069  0.8963 -0.2094
 5772SOL     OW28948   2.207   2.931   7.876  0.0722 -0.3422  0.2054
 5772SOL    HW128949   2.130   2.876   7.859  0.4008 -1.0932  1.1286
 5772SOL    HW228950   2.255   2.879   7.940 -0.1847  1.9493  2.2535
 5773SOL     OW28951   1.549   2.088   3.241  0.1870 -0.1887  0.0729
 5773SOL    HW128952   1.631   2.137   3.253  0.4333 -0.3565 -0.9459
 5773SOL    HW228953   1.543   2.094   3.146  1.3274 -3.3842 -0.2082
 5774SOL     OW28954   3.430   1.665   1.614 -0.1922 -0.1819 -0.7004
 5774SOL    HW128955   3.352   1.650   1.668 -0.2415 -1.6286 -1.1701
 5774SOL    HW228956   3.452   1.575   1.590  0.3144 -0.7439  1.9220
 5775SOL     OW28957   2.710   4.428  14.662  0.1159  0.5777  0.3438
 5775SOL    HW128958   2.727   4.420  14.568 -1.3744  0.4252  0.0918
 5775SOL    HW228959   2.705   4.339  14.696  1.2750  0.9933  1.6128
 5776SOL     OW28960   4.458   1.320   4.874 -0.0754  0.7546 -0.3729
 5776SOL    HW128961   4.438   1.405   4.835  1.0359  1.9443  1.5885
 5776SOL    HW228962   4.432   1.330   4.966  0.5272 -0.2001 -0.0972
 5777SOL     OW28963   2.836   2.029  15.586  0.1550  0.0431 -0.3799
 5777SOL    HW128964   2.746   2.022  15.617  0.2869  1.5477  0.3596
 5777SOL    HW228965   2.834   2.122  15.565  1.9264  0.5862  1.7613
 5778SOL     OW28966   1.403   3.268   2.510 -0.5645 -0.6481 -0.1717
 5778SOL    HW128967   1.315   3.298   2.534  0.4794  2.1506  0.1768
 5778SOL    HW228968   1.425   3.330   2.440  1.6041 -0.4325  0.6956
 5779SOL     OW28969   4.566   3.662  12.239 -0.4819  0.2070  0.4461
 5779SOL    HW128970   4.653   3.625  12.224 -1.6779 -1.3189 -2.7932
 5779SOL    HW228971   4.512   3.583  12.243  1.8385 -1.3573  0.3200
 5780SOL     OW28972   3.851   1.414  13.093  0.1459 -0.6227 -0.3429
 5780SOL    HW128973   3.912   1.340  13.088 -0.1385 -0.8056 -1.1368
 5780SOL    HW228974   3.771   1.367  13.117  0.8537 -0.2712  2.7168
 5781SOL     OW28975   2.378   1.414   2.703  0.5990 -1.1295 -0.3944
 5781SOL    HW128976   2.315   1.486   2.701  0.1517 -1.5102  0.1543
 5781SOL    HW228977   2.347   1.370   2.781 -0.1935  1.1640  0.5858
 5782SOL     OW28978   0.902   3.565  14.304  0.6506  0.0037  0.3658
 5782SOL    HW128979   0.845   3.641  14.313 -0.6547 -1.0157  0.8064
 5782SOL    HW228980   0.839   3.498  14.277  1.6178 -0.3694 -0.9622
 5783SOL     OW28981   3.508   3.088   4.515 -0.0419  0.2115 -0.2892
 5783SOL    HW128982   3.484   3.001   4.548 -1.2096  0.6925  0.1359
 5783SOL    HW228983   3.517   3.074   4.421  0.0098  2.7178 -0.6690
 5784SOL     OW28984   1.161   0.075  17.511 -0.3257 -0.1716 -0.0205
 5784SOL    HW128985   1.235   0.113  17.463  1.5945 -0.2692  2.8270
 5784SOL    HW228986   1.186   4.721  17.526 -0.5184  0.3672  3.4798
 5785SOL     OW28987   0.733   4.307  16.271 -0.5960  0.0455  0.1530
 5785SOL    HW128988   0.677   4.382  16.250  2.3235  1.3012 -3.0052
 5785SOL    HW228989   0.803   4.361  16.306  0.8556 -1.3895 -0.5294
 5786SOL     OW28990   2.776   1.818   1.394 -0.6367  0.2445 -0.0551
 5786SOL    HW128991   2.794   1.905   1.358 -1.5863  0.4051 -0.1589
 5786SOL    HW228992   2.794   1.762   1.318 -2.5073  0.4457 -0.6413
 5787SOL     OW28993   1.557   0.589  12.630 -0.7565  0.7058  0.1601
 5787SOL    HW128994   1.571   0.680  12.603 -1.6303  0.8502  0.1944
 5787SOL    HW228995   1.489   0.557  12.570  0.1745  2.3511 -1.7605
 5788SOL     OW28996   2.731   2.929   0.234 -0.1941  0.3564 -0.1669
 5788SOL    HW128997   2.696   2.881   0.309  2.4153 -1.3158 -0.0039
 5788SOL    HW228998   2.703   3.018   0.257  0.9672  0.7761 -0.3437
 5789SOL     OW28999   2.624   0.586   4.286 -0.0739 -0.6897 -0.0238
 5789SOL    HW129000   2.568   0.581   4.363  0.7543  0.1591  0.6322
 5789SOL    HW229001   2.704   0.538   4.308 -0.3275 -0.7195  0.8370
 5790SOL     OW29002   2.189   1.131  14.187  0.2553  0.4891  0.1594
 5790SOL    HW129003   2.178   1.205  14.247 -3.0354 -0.1577  0.3523
 5790SOL    HW229004   2.152   1.176  14.111  0.9859  0.4667 -0.2126
 5791SOL     OW29005   3.836   1.051   1.813  0.4945 -0.3371  0.6869
 5791SOL    HW129006   3.812   0.981   1.874  0.4055 -1.8986 -1.1214
 5791SOL    HW229007   3.907   1.091   1.864 -0.6539  1.2099  1.0375
 5792SOL     OW29008   4.405   3.879   2.688 -0.3827 -0.3817  0.0207
 5792SOL    HW129009   4.333   3.895   2.748 -0.5372 -3.1993  0.5745
 5792SOL    HW229010   4.388   3.958   2.636  0.6724 -0.7857 -0.9466
 5793SOL     OW29011   0.813   1.291   4.828 -0.0086 -0.1800 -0.4119
 5793SOL    HW129012   0.899   1.250   4.835 -0.9472 -1.9526  0.8142
 5793SOL    HW229013   0.823   1.352   4.901  1.0917 -0.4833 -0.3228
 5794SOL     OW29014   0.382   2.288   8.202 -0.1074 -0.1525  0.4907
 5794SOL    HW129015   0.357   2.314   8.291  0.7054  2.4652 -0.0322
 5794SOL    HW229016   0.427   2.368   8.175  0.0446  0.1486  1.6403
 5795SOL     OW29017   0.893   4.083   5.119 -0.2071 -0.4093 -0.3203
 5795SOL    HW129018   0.924   4.095   5.209  2.5611  0.0280 -1.3367
 5795SOL    HW229019   0.969   4.039   5.083  0.9597  2.3191 -1.2311
 5796SOL     OW29020   2.405   2.467  14.782  0.3860  0.6077  0.2441
 5796SOL    HW129021   2.322   2.438  14.820 -0.2801  1.2355 -0.7369
 5796SOL    HW229022   2.382   2.492  14.692  0.5328  0.7312  0.2404
 5797SOL     OW29023   4.480   2.863   6.224  0.0194  0.3999  0.1358
 5797SOL    HW129024   4.527   2.784   6.195  0.0495  1.0723 -1.6310
 5797SOL    HW229025   4.418   2.872   6.152  0.1782 -0.4127 -0.1138
 5798SOL     OW29026   4.460   0.934   0.914  0.0087 -0.2941 -0.0728
 5798SOL    HW129027   4.393   0.871   0.885  0.6687 -0.3723 -1.4273
 5798SOL    HW229028   4.401   0.959   0.985  1.7801 -1.6782  1.8770
 5799SOL     OW29029   3.912   2.138   4.488 -0.0302  0.2407 -0.3461
 5799SOL    HW129030   3.828   2.109   4.452  0.3400 -2.8639  1.3131
 5799SOL    HW229031   3.885   2.192   4.563 -0.6164  0.1602 -0.4999
 5800SOL     OW29032   0.431   4.041   2.341 -0.0954  0.1134 -0.5498
 5800SOL    HW129033   0.363   3.974   2.341  2.2161 -2.2038  1.4129
 5800SOL    HW229034   0.485   4.023   2.418 -1.1477  0.4331  0.2592
 5801SOL     OW29035   4.033   1.519   3.160  0.8036 -0.2932 -0.2217
 5801SOL    HW129036   3.995   1.453   3.104  1.2510 -0.7711  0.0369
 5801SOL    HW229037   4.095   1.555   3.096 -0.4420  0.7419 -0.8575
 5802SOL     OW29038   1.841   1.430   0.281  0.1196 -0.0273  0.5500
 5802SOL    HW129039   1.896   1.508   0.279  1.8640 -1.2283  1.7003
 5802SOL    HW229040   1.760   1.478   0.300 -0.0763  0.1901 -0.8265
 5803SOL     OW29041   2.313   1.210   6.001 -0.1466  0.1211  0.6276
 5803SOL    HW129042   2.332   1.122   5.969 -0.0270  0.6233 -0.6760
 5803SOL    HW229043   2.264   1.184   6.079  0.8175 -0.7219  0.9514
 5804SOL     OW29044   0.772   2.265   7.807 -0.0861  0.1547 -0.3852
 5804SOL    HW129045   0.762   2.353   7.842 -0.6496 -0.7473  1.7472
 5804SOL    HW229046   0.733   2.274   7.720 -1.2714  2.2466  0.3469
 5805SOL     OW29047   1.705   2.930   2.849  0.2509 -0.4070 -0.2836
 5805SOL    HW129048   1.661   2.894   2.926 -1.7560  2.6865  0.0049
 5805SOL    HW229049   1.654   2.902   2.773  1.8675 -2.1325 -0.7191
 5806SOL     OW29050   3.499   3.292  12.613  0.0683 -0.2618  0.0007
 5806SOL    HW129051   3.497   3.302  12.708 -0.3789  1.8496 -0.2261
 5806SOL    HW229052   3.436   3.362  12.593  0.0135 -0.8549 -1.8938
 5807SOL     OW29053   1.002   2.076   5.221  0.3535  0.2388  0.0801
 5807SOL    HW129054   0.994   2.153   5.276 -0.3759  2.0694 -2.6073
 5807SOL    HW229055   1.056   2.109   5.149 -1.1186  1.1179 -0.6225
 5808SOL     OW29056   3.584   0.239   9.028 -0.4233  0.5078 -0.1494
 5808SOL    HW129057   3.589   0.286   8.945  1.9680 -0.6212 -0.6542
 5808SOL    HW229058   3.552   0.155   8.994 -1.0828  1.1220 -1.0432
 5809SOL     OW29059   2.870   3.015   2.929 -0.7783  0.3273  0.0832
 5809SOL    HW129060   2.805   3.000   2.861 -0.9998 -0.8485  0.5588
 5809SOL    HW229061   2.817   3.014   3.009 -0.3600 -1.1119  0.3407
 5810SOL     OW29062   0.158   1.061   1.789 -0.3981  0.1069  0.3460
 5810SOL    HW129063   0.168   0.967   1.772 -2.0874 -0.2691  1.3880
 5810SOL    HW229064   0.118   1.067   1.876 -1.1848 -0.8429  0.0546
 5811SOL     OW29065   3.931   0.323   3.014  0.1864 -0.2976  0.3380
 5811SOL    HW129066   3.842   0.339   2.981 -0.7152 -1.2921  2.3227
 5811SOL    HW229067   3.954   0.396   3.070 -1.5742  0.2705  0.3150
 5812SOL     OW29068   1.827   2.371   3.851 -0.4014  0.1826  0.8271
 5812SOL    HW129069   1.786   2.396   3.933 -2.0922  1.7539 -0.4840
 5812SOL    HW229070   1.906   2.425   3.853 -0.6408  0.6086 -0.6520
 5813SOL     OW29071   0.606   1.431   4.009  0.0566  0.3752  0.6240
 5813SOL    HW129072   0.597   1.380   3.929 -1.1905  0.3050  0.8170
 5813SOL    HW229073   0.605   1.360   4.074  1.3650 -0.5189 -0.3195
 5814SOL     OW29074   2.600   3.138   9.055 -0.0316  0.0942 -0.4931
 5814SOL    HW129075   2.647   3.184   9.125 -0.2003  0.7178 -0.7940
 5814SOL    HW229076   2.661   3.141   8.981  2.5315 -0.6340  1.5667
 5815SOL     OW29077   1.019   3.580  11.045  0.5178 -0.4211  0.6783
 5815SOL    HW129078   1.074   3.635  11.101  0.7054  1.9242 -1.7779
 5815SOL    HW229079   0.929   3.611  11.059 -0.2285 -1.7912 -1.0091
 5816SOL     OW29080   1.419   1.122   3.368  0.4119  0.1570 -0.7644
 5816SOL    HW129081   1.505   1.164   3.363  0.8331 -0.7417 -1.2222
 5816SOL    HW229082   1.387   1.147   3.455  0.6265 -0.3215 -0.5480
 5817SOL     OW29083   0.643   4.228   9.161 -0.1540 -0.2496 -0.0436
 5817SOL    HW129084   0.644   4.170   9.085 -0.6286  0.0088 -0.2392
 5817SOL    HW229085   0.586   4.295   9.124  0.0765  0.4784  0.9227
 5818SOL     OW29086   3.150   4.670   6.584 -0.6175 -0.2745  0.6016
 5818SOL    HW129087   3.088   4.597   6.584  0.3382 -1.0779  0.4468
 5818SOL    HW229088   3.227   4.623   6.616 -1.2710 -0.9395  1.2157
 5819SOL     OW29089   2.235   1.863  17.591 -0.1914 -0.1196 -0.5191
 5819SOL    HW129090   2.173   1.842  17.662  0.4957 -0.1657  0.0754
 5819SOL    HW229091   2.318   1.841  17.634  0.5822  1.0557 -1.4296
 5820SOL     OW29092   0.968   0.690   8.394  0.8805  0.4821 -0.0133
 5820SOL    HW129093   0.964   0.745   8.316  1.8182  1.6942  0.7809
 5820SOL    HW229094   1.036   0.729   8.449 -0.7468 -0.7161  2.8276
 5821SOL     OW29095   0.073   1.698   8.011 -0.4564  0.1953  1.1221
 5821SOL    HW129096   0.074   1.738   7.924 -1.4739 -1.5514  0.3179
 5821SOL    HW229097   0.082   1.607   7.984 -2.5294  0.4945 -0.6163
 5822SOL     OW29098   1.528   0.462   1.770  0.0793 -0.3141 -0.1416
 5822SOL    HW129099   1.542   0.546   1.814 -0.0936 -1.4250  2.0207
 5822SOL    HW229100   1.448   0.482   1.720  0.4066 -0.5347 -0.7537
 5823SOL     OW29101   0.192   3.826   8.928 -0.3293  0.1128 -0.0338
 5823SOL    HW129102   0.270   3.849   8.878 -0.3478  1.4048  0.5374
 5823SOL    HW229103   0.168   3.743   8.887  3.7629 -0.8267 -0.4970
 5824SOL     OW29104   4.578   2.496  12.166  0.4345 -0.8065 -0.4747
 5824SOL    HW129105   4.488   2.515  12.142 -0.7196 -2.4839  2.5606
 5824SOL    HW229106   4.574   2.402  12.182  1.5199 -0.8674 -0.5162
 5825SOL     OW29107   2.106   0.704  16.819 -0.1201 -0.0512  0.7394
 5825SOL    HW129108   2.175   0.656  16.863 -0.8098 -0.7088  1.1035
 5825SOL    HW229109   2.080   0.735  16.906 -0.7431 -0.0798  0.5636
 5826SOL     OW29110   2.751   0.698   3.919 -0.3568  0.3470 -0.0119
 5826SOL    HW129111   2.762   0.611   3.883  3.5542  0.0156  2.0541
 5826SOL    HW229112   2.728   0.746   3.839 -1.5877 -1.9410 -1.0398
 5827SOL     OW29113   1.272   2.502   9.201  0.2965 -0.0397  0.5936
 5827SOL    HW129114   1.278   2.542   9.114  0.7765 -1.1745  0.0989
 5827SOL    HW229115   1.213   2.429   9.180 -0.0623  0.7715 -1.2544
 5828SOL     OW29116   1.359   1.677   2.423 -0.5671  0.5462 -0.0917
 5828SOL    HW129117   1.317   1.611   2.478 -1.7615 -0.1328 -1.8173
 5828SOL    HW229118   1.375   1.626   2.344 -1.1493 -0.4456  0.4360
 5829SOL     OW29119   2.347   0.854   6.920 -0.2181 -1.1520 -0.1723
 5829SOL    HW129120   2.348   0.933   6.865 -1.9978 -0.7387  0.3665
 5829SOL    HW229121   2.252   0.850   6.932 -0.5151 -0.5527 -2.2292
 5830SOL     OW29122   0.178   1.213   5.115 -0.4575  0.2420 -0.1455
 5830SOL    HW129123   0.184   1.213   5.211 -1.1520 -1.8594 -0.0955
 5830SOL    HW229124   0.201   1.299   5.079 -0.2600 -0.2544 -1.1919
 5831SOL     OW29125   1.630   1.702   5.123 -0.1649  0.0438 -0.3479
 5831SOL    HW129126   1.606   1.734   5.209  0.6471  1.1935 -0.5453
 5831SOL    HW229127   1.570   1.753   5.069 -0.8838 -1.7026 -1.2346
 5832SOL     OW29128   1.604   3.475  12.752  0.2507 -0.1651 -0.6966
 5832SOL    HW129129   1.550   3.544  12.714  1.2400 -0.0488 -1.9019
 5832SOL    HW229130   1.671   3.531  12.789  0.7572 -0.7993 -0.6630
 5833SOL     OW29131   0.370   1.225   1.734  0.0093  0.6811  0.2011
 5833SOL    HW129132   0.302   1.157   1.742 -0.0089  0.5355 -1.2942
 5833SOL    HW229133   0.333   1.296   1.787  0.6310  0.0341  1.5150
 5834SOL     OW29134   3.238   0.066   3.160  0.2518 -0.1182  0.1100
 5834SOL    HW129135   3.253   0.082   3.253 -2.7802 -1.6325  0.8414
 5834SOL    HW229136   3.147   0.097   3.157  0.2576 -0.1096  0.0165
 5835SOL     OW29137   4.577   0.071   1.479 -0.0332 -0.1268  0.5240
 5835SOL    HW129138   4.586   0.071   1.384  0.6151  0.5639  0.5920
 5835SOL    HW229139   4.497   0.019   1.471  0.9713 -1.5289 -0.3523
 5836SOL     OW29140   0.110   1.755   1.418 -0.3146 -0.2388  0.0804
 5836SOL    HW129141   0.139   1.681   1.470 -0.5079  0.0630  0.6239
 5836SOL    HW229142   0.191   1.764   1.369 -0.0857  0.4114  0.5845
 5837SOL     OW29143   3.746   3.513   5.433 -0.2995  0.4060  0.1372
 5837SOL    HW129144   3.831   3.478   5.403 -1.2623 -1.0978 -0.8414
 5837SOL    HW229145   3.759   3.507   5.527  0.7327 -0.4172 -0.0516
 5838SOL     OW29146   3.402   2.083   1.080 -0.6643  0.5013 -0.1963
 5838SOL    HW129147   3.399   1.998   1.125 -0.1691 -1.0400 -3.0586
 5838SOL    HW229148   3.308   2.097   1.069 -0.7496 -0.3252 -0.5187
 5839SOL     OW29149   3.792   2.941  17.578 -0.0671 -0.5734 -0.0030
 5839SOL    HW129150   3.741   2.967  17.655 -1.1389 -1.1324 -0.5314
 5839SOL    HW229151   3.727   2.934  17.508  1.6388 -2.9840 -1.3134
 5840SOL     OW29152   0.221   4.234   4.711 -0.1054  0.5764  0.1782
 5840SOL    HW129153   0.285   4.305   4.703  0.5564 -0.2239 -1.4225
 5840SOL    HW229154   0.276   4.168   4.753 -0.3872 -0.4262 -1.0441
 5841SOL     OW29155   1.672   3.506   3.311 -0.0191  0.1977 -0.4848
 5841SOL    HW129156   1.617   3.463   3.376  0.7171 -1.0977 -0.7087
 5841SOL    HW229157   1.754   3.530   3.355  1.3295  1.0457 -3.3905
 5842SOL     OW29158   2.816   0.771   5.479  0.3272  0.2213  0.7492
 5842SOL    HW129159   2.890   0.821   5.446 -0.2781  0.5246 -0.1566
 5842SOL    HW229160   2.849   0.737   5.562  0.7609 -0.4890  0.2908
 5843SOL     OW29161   4.088   3.135   8.716  0.2803 -0.5446  0.1827
 5843SOL    HW129162   4.145   3.062   8.692  0.3055 -0.1155 -1.0526
 5843SOL    HW229163   4.109   3.175   8.800  1.8598  0.8013 -0.8572
 5844SOL     OW29164   2.639   0.608  10.252  0.1092 -0.4185 -0.7929
 5844SOL    HW129165   2.689   0.629  10.331 -0.6742 -1.1197 -0.1228
 5844SOL    HW229166   2.653   0.515  10.239  2.8293 -0.3052  1.2883
 5845SOL     OW29167   3.379   2.834   1.623  0.8804  0.0194  0.0659
 5845SOL    HW129168   3.421   2.836   1.709  0.9222  1.3773  0.0162
 5845SOL    HW229169   3.434   2.904   1.587 -1.3441  1.4194 -0.6463
 5846SOL     OW29170   3.574   3.597  11.783 -0.1694  1.1630  0.0892
 5846SOL    HW129171   3.591   3.506  11.758  2.4168  2.0628 -1.5464
 5846SOL    HW229172   3.651   3.604  11.839  0.4556  0.9072 -0.7283
 5847SOL     OW29173   2.767   3.045  14.731 -0.4109  0.4747  0.2913
 5847SOL    HW129174   2.728   3.065  14.646 -1.9260 -3.9894 -0.0638
 5847SOL    HW229175   2.833   2.982  14.702 -2.6855 -1.1575 -1.2828
 5848SOL     OW29176   3.080   1.089   5.099 -0.1516 -0.2011 -0.5514
 5848SOL    HW129177   3.017   1.153   5.130  1.3273  0.4186  1.2177
 5848SOL    HW229178   3.049   1.065   5.012 -2.0093 -0.5557  0.2263
 5849SOL     OW29179   1.912   3.229   5.305 -0.5383  0.4765 -0.1461
 5849SOL    HW129180   1.951   3.145   5.330  1.0831  1.9889  2.3783
 5849SOL    HW229181   1.974   3.261   5.239  1.2575 -0.0036  1.3166
 5850SOL     OW29182   1.943   3.543  17.378  0.0331 -0.1353  0.1328
 5850SOL    HW129183   1.968   3.453  17.358 -2.2050 -0.0792 -2.9624
 5850SOL    HW229184   1.975   3.581  17.296 -0.5934  0.8163  0.3347
 5851SOL     OW29185   4.292   3.778   7.320  0.7205 -0.1725  0.5925
 5851SOL    HW129186   4.322   3.848   7.262  2.7242  0.5526  2.5137
 5851SOL    HW229187   4.205   3.815   7.334 -0.3210 -1.5294 -2.3617
 5852SOL     OW29188   3.849   2.628   9.843  0.1246 -0.2488 -0.3503
 5852SOL    HW129189   3.934   2.672   9.848 -0.1354  0.0942  1.0824
 5852SOL    HW229190   3.821   2.646   9.933  0.3628 -0.4203 -0.2393
 5853SOL     OW29191   3.332   0.989   3.324  0.3136  0.4267  0.4717
 5853SOL    HW129192   3.308   1.079   3.346  0.8280  0.7555 -0.3019
 5853SOL    HW229193   3.245   0.949   3.312  1.5229 -2.6723  2.1214
 5854SOL     OW29194   2.174   2.419   8.191 -0.3151 -0.5087  0.6124
 5854SOL    HW129195   2.161   2.476   8.267 -0.1758 -1.0645  1.0542
 5854SOL    HW229196   2.265   2.393   8.198  0.5095  2.2122 -0.0557
 5855SOL     OW29197   3.226   0.924   5.740  0.2408 -0.4386  0.3868
 5855SOL    HW129198   3.315   0.953   5.758  0.0547 -0.5869  1.5613
 5855SOL    HW229199   3.211   0.841   5.786  0.9495 -0.1935  1.0436
 5856SOL     OW29200   0.073   3.714   3.110  0.1678 -0.0134  0.2189
 5856SOL    HW129201   0.103   3.800   3.140  3.4061 -1.1370  0.2067
 5856SOL    HW229202   0.145   3.677   3.060 -0.1660 -1.9421  1.1933
 5857SOL     OW29203   2.793   0.194   3.480 -0.3527  0.2553 -0.6109
 5857SOL    HW129204   2.733   0.266   3.502 -0.8664 -0.9822  2.0197
 5857SOL    HW229205   2.812   0.174   3.571 -1.6019 -1.5082 -0.7385
 5858SOL     OW29206   4.415   2.056   3.880  0.1560 -0.1478 -0.0115
 5858SOL    HW129207   4.497   2.043   3.928  1.2904 -0.0810 -1.9398
 5858SOL    HW229208   4.348   2.017   3.936  0.7695 -0.2541  0.6433
 5859SOL     OW29209   0.483   3.785   2.497  0.5553  0.2592 -0.1005
 5859SOL    HW129210   0.509   3.747   2.414 -1.6511  0.6048 -0.9521
 5859SOL    HW229211   0.562   3.773   2.550  1.8216  0.4617 -1.9741
 5860SOL     OW29212   2.068   2.067  15.877  0.0397  0.6982  0.8203
 5860SOL    HW129213   2.134   1.998  15.874 -0.3706  0.3800 -0.6646
 5860SOL    HW229214   2.130   2.140  15.883  1.1091 -0.1100 -0.5089
 5861SOL     OW29215   2.351   0.008   8.656  0.1885  0.6326 -0.1854
 5861SOL    HW129216   2.419   0.072   8.678 -0.8142  1.9739 -1.0163
 5861SOL    HW229217   2.293   0.072   8.615 -0.2878  0.8198  0.7710
 5862SOL     OW29218   0.865   0.961   3.395  0.5913  0.0759 -0.3205
 5862SOL    HW129219   0.927   0.976   3.466 -0.6353  0.3848  0.6877
 5862SOL    HW229220   0.888   0.877   3.354  1.7775 -0.6029  1.7498
 5863SOL     OW29221   2.948   2.288   5.812 -0.4272 -0.3733  0.2447
 5863SOL    HW129222   2.893   2.303   5.889 -0.9463 -0.9406 -0.0056
 5863SOL    HW229223   2.930   2.197   5.789  0.9429 -0.8726  1.1814
 5864SOL     OW29224   3.220   3.744   7.176 -0.1811 -0.4518  0.5120
 5864SOL    HW129225   3.165   3.815   7.208 -0.5934 -0.9204  0.8466
 5864SOL    HW229226   3.304   3.775   7.208  0.2265  0.1087 -1.1038
 5865SOL     OW29227   3.903   0.941   4.920 -0.6021  0.0401 -0.0622
 5865SOL    HW129228   3.952   0.967   4.842 -2.8769 -0.2875 -1.5997
 5865SOL    HW229229   3.859   1.025   4.935 -2.3433 -0.7554 -0.7560
 5866SOL     OW29230   4.299   4.508   8.638  0.6358  1.3003 -0.3691
 5866SOL    HW129231   4.227   4.449   8.615  1.0902  1.4103 -2.0948
 5866SOL    HW229232   4.260   4.581   8.684  1.9533  2.0804 -0.4812
 5867SOL     OW29233   3.909   1.880   3.418 -0.1005 -0.3257  0.1997
 5867SOL    HW129234   3.879   1.843   3.502  0.0023 -0.9132 -0.0185
 5867SOL    HW229235   3.991   1.914   3.453 -0.1426  2.2558 -2.2485
 5868SOL     OW29236   4.007   4.341   6.394 -0.3853 -0.0154 -0.1955
 5868SOL    HW129237   3.935   4.403   6.393 -1.9811 -1.8589 -1.0097
 5868SOL    HW229238   3.984   4.270   6.333 -0.0646 -2.3149  2.3473
 5869SOL     OW29239   3.685   1.187   6.137 -0.9774 -0.6166  0.2682
 5869SOL    HW129240   3.770   1.215   6.104 -2.1924  1.0627 -1.4892
 5869SOL    HW229241   3.647   1.148   6.058 -0.1206  0.1653 -0.5239
 5870SOL     OW29242   4.189   1.362   6.484  0.1912  0.0329  0.6011
 5870SOL    HW129243   4.147   1.324   6.561 -2.6073  0.6444 -0.6234
 5870SOL    HW229244   4.120   1.421   6.454 -0.6052 -1.2229 -0.0492
 5871SOL     OW29245   1.494   3.279   1.893  0.0724  0.5600  0.3185
 5871SOL    HW129246   1.482   3.242   1.805  0.3749  0.5035  0.2999
 5871SOL    HW229247   1.464   3.369   1.881  0.1278  0.4312 -0.7773
 5872SOL     OW29248   0.824   3.174  16.949  0.3049  0.1940  1.1525
 5872SOL    HW129249   0.873   3.154  17.029  1.3447 -0.6571  0.2986
 5872SOL    HW229250   0.735   3.187  16.983 -0.7761  0.6197 -1.8938
 5873SOL     OW29251   0.026   1.647   7.247  0.4929 -0.2834 -0.0614
 5873SOL    HW129252   0.069   1.662   7.163  0.5224  0.0975  0.0225
 5873SOL    HW229253   4.696   1.582   7.228  1.3242 -1.1514 -0.0190
 5874SOL     OW29254   0.931   3.642  12.214  0.2279 -0.5436  0.4917
 5874SOL    HW129255   0.984   3.676  12.142 -0.1363 -0.6600  0.1722
 5874SOL    HW229256   0.887   3.572  12.165  0.8914 -0.1716 -0.6249
 5875SOL     OW29257   3.954   2.087  15.469 -0.1184 -0.2085  0.0436
 5875SOL    HW129258   3.864   2.067  15.498 -1.2973  0.6444 -3.0727
 5875SOL    HW229259   3.970   2.175  15.502  2.1551 -0.7647  0.3857
 5876SOL     OW29260   0.534   0.542   7.812 -0.0302  0.3059  0.3079
 5876SOL    HW129261   0.511   0.459   7.853 -1.6980  1.9188  2.6098
 5876SOL    HW229262   0.528   0.593   7.893 -0.3083 -0.1734  0.5881
 5877SOL     OW29263   0.082   2.306   2.843 -0.0241  0.0728  0.1036
 5877SOL    HW129264   0.006   2.356   2.872 -1.8808 -1.3553 -2.2890
 5877SOL    HW229265   0.128   2.358   2.777 -0.4282 -0.5399 -0.6724
 5878SOL     OW29266   0.049   2.152  15.296 -0.1877  0.2450  0.4771
 5878SOL    HW129267   0.068   2.188  15.383 -1.2894 -1.0199  1.2289
 5878SOL    HW229268   0.131   2.103  15.291  0.6081  1.7470 -0.9970
 5879SOL     OW29269   4.114   1.794   4.045 -0.0069 -0.5257 -0.2842
 5879SOL    HW129270   4.064   1.775   4.125 -0.1141 -1.5492 -0.6004
 5879SOL    HW229271   4.146   1.884   4.051 -2.0259  0.1616  0.2585
 5880SOL     OW29272   1.175   1.928  12.590 -0.1635 -0.2360 -0.4761
 5880SOL    HW129273   1.220   1.991  12.534 -0.9157 -1.1785 -2.1365
 5880SOL    HW229274   1.244   1.862  12.590  0.9908  0.9527  0.4249
 5881SOL     OW29275   3.990   0.338   1.600 -0.0736  0.6090  0.4419
 5881SOL    HW129276   3.969   0.308   1.512  1.3065 -0.8414  0.6055
 5881SOL    HW229277   3.950   0.423   1.587 -0.2723 -0.1644 -4.1354
 5882SOL     OW29278   4.443   1.511  15.113 -0.2286 -0.0747  0.3609
 5882SOL    HW129279   4.491   1.509  15.031  0.6456  1.3283  0.8382
 5882SOL    HW229280   4.370   1.571  15.101 -0.9785 -1.1738 -0.5700
 5883SOL     OW29281   0.138   2.607   8.205  0.3395  0.3839 -0.1180
 5883SOL    HW129282   0.104   2.549   8.273  0.6814  0.6597  0.2952
 5883SOL    HW229283   0.055   2.634   8.167  0.9255  1.0907 -0.9040
 5884SOL     OW29284   1.026   0.377   4.312 -0.0623 -0.3270  0.1891
 5884SOL    HW129285   0.973   0.375   4.392 -0.7527 -0.3378 -0.2689
 5884SOL    HW229286   0.990   0.459   4.280  0.2371  1.0424  3.3362
 5885SOL     OW29287   0.046   4.500   0.024  0.1503 -0.6158 -0.1274
 5885SOL    HW129288   0.005   4.515   0.109 -1.0252 -3.9973 -0.0818
 5885SOL    HW229289   0.119   4.559   0.043 -1.0147  0.9140 -0.4179
 5886SOL     OW29290   1.437   1.908   1.817  0.1296 -0.8337 -0.1952
 5886SOL    HW129291   1.406   1.888   1.729  3.6375  1.0158 -1.8635
 5886SOL    HW229292   1.397   1.834   1.862 -1.5621  0.0769 -0.1979
 5887SOL     OW29293   4.686   3.768   5.871 -0.1233 -0.1356 -0.3617
 5887SOL    HW129294   4.630   3.836   5.833  1.2542  0.2978 -1.6407
 5887SOL    HW229295   0.011   3.741   5.803 -0.7072 -1.7781 -0.2480
 5888SOL     OW29296   3.550   1.197  17.107 -0.2109  0.5749  0.0567
 5888SOL    HW129297   3.623   1.180  17.048 -0.9021  1.6757 -1.1340
 5888SOL    HW229298   3.527   1.285  17.075  2.5462  0.0565 -3.3888
 5889SOL     OW29299   2.613   2.813   4.057 -0.1702  0.0066  0.1772
 5889SOL    HW129300   2.578   2.725   4.043  2.2659 -0.8397 -0.6206
 5889SOL    HW229301   2.643   2.832   3.968  0.1264 -1.0306  0.0579
 5890SOL     OW29302   2.957   0.651   6.253  0.2440 -0.0525 -0.3109
 5890SOL    HW129303   2.960   0.595   6.175 -0.0116 -0.7754  0.2042
 5890SOL    HW229304   3.043   0.636   6.292  0.4217  0.6107 -0.4365
 5891SOL     OW29305   1.381   2.565   4.655 -0.4732  0.1789  0.6847
 5891SOL    HW129306   1.296   2.526   4.676 -1.2911  0.8906 -1.3142
 5891SOL    HW229307   1.368   2.658   4.673 -0.4593  0.7291 -2.1245
 5892SOL     OW29308   1.939   4.165   5.047  0.7513  0.1974 -0.0722
 5892SOL    HW129309   1.935   4.188   4.954 -0.5091 -0.0733 -0.0821
 5892SOL    HW229310   2.005   4.230   5.072  0.4005  0.4655  0.1736
 5893SOL     OW29311   3.345   3.197  15.877 -0.2583  0.1243 -0.0503
 5893SOL    HW129312   3.283   3.141  15.922  0.6733 -0.0915  0.9522
 5893SOL    HW229313   3.325   3.162  15.790  0.9992  0.1964 -0.3687
 5894SOL     OW29314   1.767   0.953   1.056  0.4820 -0.0896 -0.2271
 5894SOL    HW129315   1.811   1.013   0.995  2.4922 -1.9619 -0.6241
 5894SOL    HW229316   1.675   0.970   1.073 -0.0100 -1.8956 -1.1117
 5895SOL     OW29317   2.787   4.196   0.727  0.1353  0.0135 -0.4748
 5895SOL    HW129318   2.824   4.107   0.726 -1.9123 -0.8468 -1.1855
 5895SOL    HW229319   2.810   4.222   0.816  3.4442  0.3704 -1.4588
 5896SOL     OW29320   2.343   4.205   3.397  0.0738 -0.1530 -0.6641
 5896SOL    HW129321   2.265   4.203   3.453  1.0567  1.1124  0.7721
 5896SOL    HW229322   2.296   4.213   3.315 -0.3548 -0.0857 -0.4134
 5897SOL     OW29323   0.264   3.573   3.471  0.2543  0.1651  0.4195
 5897SOL    HW129324   0.310   3.640   3.420  3.2234 -1.4508  0.9877
 5897SOL    HW229325   0.335   3.545   3.530 -0.2155 -1.2579  0.3062
 5898SOL     OW29326   0.390   4.099   7.669 -0.0877 -0.3300  0.6490
 5898SOL    HW129327   0.319   4.151   7.632 -0.1651  0.0243  1.2947
 5898SOL    HW229328   0.351   4.081   7.755  0.5779 -0.5652  0.8995
 5899SOL     OW29329   3.170   4.041   6.345  0.6214 -0.2712  0.2104
 5899SOL    HW129330   3.103   4.109   6.342  1.2403  0.3049 -0.5984
 5899SOL    HW229331   3.114   3.977   6.299 -1.3064  1.8641 -0.4101
 5900SOL     OW29332   0.969   1.499   4.493 -0.1990  0.2636  0.3840
 5900SOL    HW129333   0.938   1.409   4.491 -2.6521  1.1178  0.0206
 5900SOL    HW229334   1.024   1.509   4.571 -1.5114 -0.2632  1.3731
 5901SOL     OW29335   2.374   1.570  17.478  0.2059 -0.2143  0.7870
 5901SOL    HW129336   2.321   1.525  17.411 -0.0505  0.0008  0.8447
 5901SOL    HW229337   2.413   1.634  17.418  1.7381 -1.7799  0.0864
 5902SOL     OW29338   0.123   3.164  12.098 -0.5477 -0.0004 -0.4205
 5902SOL    HW129339   0.085   3.076  12.103 -1.0296  0.2791  0.8056
 5902SOL    HW229340   0.089   3.202  12.018  0.5853 -0.5953 -1.1794
 5903SOL     OW29341   3.495   4.154  10.613  0.1582 -0.1023  0.0153
 5903SOL    HW129342   3.534   4.129  10.697 -2.1309 -1.9440  0.5435
 5903SOL    HW229343   3.419   4.207  10.636 -1.3128 -1.9193 -0.5933
 5904SOL     OW29344   1.946   0.294  11.553 -0.2412 -0.6758  0.3234
 5904SOL    HW129345   1.873   0.354  11.567 -1.7616 -2.2110 -0.9526
 5904SOL    HW229346   1.988   0.345  11.483 -0.6501  0.5238  0.9550
 5905SOL     OW29347   0.522   2.799   8.337  0.3224 -0.2985  0.3435
 5905SOL    HW129348   0.585   2.742   8.379 -0.5399  0.3185  2.4940
 5905SOL    HW229349   0.466   2.740   8.287  0.2313  0.4162 -0.4090
 5906SOL     OW29350   3.474   4.552   3.853 -0.3042  0.2150  0.3120
 5906SOL    HW129351   3.402   4.520   3.799  0.8548 -0.3328 -0.9358
 5906SOL    HW229352   3.456   4.646   3.847  0.0529  0.1677 -1.5491
 5907SOL     OW29353   1.066   2.514   2.276  0.0797  0.6957  0.6080
 5907SOL    HW129354   1.122   2.551   2.344  2.1849  0.6425 -1.0917
 5907SOL    HW229355   1.056   2.598   2.232  2.8228  0.9787  0.5219
 5908SOL     OW29356   3.821   4.401   6.138 -0.1453 -0.5507  0.4790
 5908SOL    HW129357   3.802   4.440   6.053 -1.0864 -0.0407  0.9200
 5908SOL    HW229358   3.836   4.308   6.120  0.0318 -0.6781  1.2734
 5909SOL     OW29359   3.761   3.600   7.189  0.2947  0.1632 -0.1369
 5909SOL    HW129360   3.835   3.643   7.231  0.2397  0.5357 -0.4216
 5909SOL    HW229361   3.719   3.683   7.165 -3.1267 -1.2849  0.7770
 5910SOL     OW29362   2.030   3.549   7.186 -1.0578 -0.7092  0.4856
 5910SOL    HW129363   2.003   3.639   7.206  0.0186 -1.1016  3.5370
 5910SOL    HW229364   2.068   3.529   7.271  2.8633  1.3329 -0.8215
 5911SOL     OW29365   2.924   1.773   6.455 -0.4505 -0.1500  0.3611
 5911SOL    HW129366   2.966   1.792   6.539 -1.3182  1.0365  0.5303
 5911SOL    HW229367   2.845   1.729   6.486 -2.0298  1.3474 -1.5517
 5912SOL     OW29368   2.497   2.680  13.859 -0.4075  0.5650  0.5204
 5912SOL    HW129369   2.542   2.683  13.774 -1.9169  0.5838 -0.2766
 5912SOL    HW229370   2.429   2.615  13.841  0.2630 -0.0382  0.1507
 5913SOL     OW29371   2.403   2.000  16.836 -0.6566  0.5954 -0.2984
 5913SOL    HW129372   2.339   2.016  16.766 -0.1673 -0.1701 -0.9085
 5913SOL    HW229373   2.347   1.955  16.899  0.7380  0.9378  1.1648
 5914SOL     OW29374   1.919   0.679   4.246  0.2357 -0.1804  0.1297
 5914SOL    HW129375   1.839   0.732   4.242  1.0109  0.9299 -0.7304
 5914SOL    HW229376   1.927   0.659   4.340  0.1419 -0.5370  0.0611
 5915SOL     OW29377   3.480   3.696   4.883  0.4282  0.6370  0.2179
 5915SOL    HW129378   3.414   3.676   4.816  0.6816 -0.8294  0.4042
 5915SOL    HW229379   3.559   3.648   4.857  0.5739  0.5214  0.8812
 5916SOL     OW29380   0.010   0.610   7.946 -0.0606  0.0051  0.4017
 5916SOL    HW129381   0.022   0.617   8.040 -1.9287  0.6507  0.5889
 5916SOL    HW229382   0.094   0.650   7.924 -0.1662  1.1772  2.1577
 5917SOL     OW29383   0.217   3.718  16.625  0.2900 -0.3599  1.0899
 5917SOL    HW129384   0.239   3.805  16.658 -3.7083  0.3357  1.9505
 5917SOL    HW229385   0.301   3.682  16.595 -0.0871 -1.8445  1.8299
 5918SOL     OW29386   1.033   2.609   0.357 -0.0369 -0.1379  0.2296
 5918SOL    HW129387   1.007   2.699   0.376 -0.5459 -0.4382  0.9575
 5918SOL    HW229388   1.105   2.623   0.296 -0.6504  1.9482 -0.0039
 5919SOL     OW29389   2.247   4.560   6.768  0.2611 -0.2924 -0.3554
 5919SOL    HW129390   2.183   4.588   6.703 -1.0635 -1.8686  0.2301
 5919SOL    HW229391   2.250   4.623   6.840 -0.1520 -0.8713  0.1838
 5920SOL     OW29392   3.201   1.696   1.786 -1.0616  0.2927  0.2487
 5920SOL    HW129393   3.149   1.620   1.812 -0.6065 -1.2115 -3.1701
 5920SOL    HW229394   3.128   1.754   1.762 -3.0821 -1.6465  1.7477
 5921SOL     OW29395   4.617   2.610   6.200 -0.2939 -0.1151  0.1160
 5921SOL    HW129396   4.697   2.558   6.204 -0.4698 -0.3335  0.9249
 5921SOL    HW229397   4.555   2.564   6.257 -0.0579 -1.0116 -0.3548
 5922SOL     OW29398   0.750   3.233   2.796  0.1667  0.4022  0.2861
 5922SOL    HW129399   0.735   3.143   2.769 -0.2263  1.2534 -2.3733
 5922SOL    HW229400   0.842   3.245   2.774 -0.5624  0.9138 -2.5902
 5923SOL     OW29401   4.459   2.299   0.407  0.0298 -0.4889 -0.2318
 5923SOL    HW129402   4.392   2.296   0.339 -1.0597  0.0218  0.8273
 5923SOL    HW229403   4.465   2.392   0.429 -1.2429 -0.3324 -0.5778
 5924SOL     OW29404   1.423   4.617   9.376 -0.1082 -0.5462 -0.0538
 5924SOL    HW129405   1.339   4.655   9.354  0.8069  2.2584  1.2693
 5924SOL    HW229406   1.480   4.678   9.329 -0.4100  0.0266  0.3173
 5925SOL     OW29407   0.270   2.110   5.828  0.5316 -0.5784  0.0622
 5925SOL    HW129408   0.333   2.157   5.774  0.3989  1.8946  2.0417
 5925SOL    HW229409   0.317   2.028   5.838  2.0295  0.3730  0.8095
 5926SOL     OW29410   0.278   1.929  12.915  0.4769 -0.2418  0.3195
 5926SOL    HW129411   0.359   1.881  12.930  0.2953 -0.6438  0.0237
 5926SOL    HW229412   0.216   1.880  12.861  0.3113  0.7903 -0.4413
 5927SOL     OW29413   0.403   4.450   4.686 -0.1353 -0.0707  0.5089
 5927SOL    HW129414   0.493   4.428   4.663 -0.4538 -1.2006  0.3405
 5927SOL    HW229415   0.414   4.464   4.780 -0.9849 -0.2603  0.6375
 5928SOL     OW29416   2.647   1.695   2.475 -0.1368  0.7657  0.7866
 5928SOL    HW129417   2.571   1.689   2.533  2.1353  1.3395  3.8882
 5928SOL    HW229418   2.661   1.607   2.440  1.3997  1.8129 -1.2605
 5929SOL     OW29419   3.986   3.489   1.904  0.6488  0.6316  0.2394
 5929SOL    HW129420   3.991   3.544   1.826 -3.3912  0.2449 -0.3261
 5929SOL    HW229421   4.062   3.515   1.955 -0.6719  0.0074  2.5254
 5930SOL     OW29422   3.364   0.746   2.327 -0.1174  0.2390  0.1992
 5930SOL    HW129423   3.390   0.734   2.418  0.5495  1.9705  0.2461
 5930SOL    HW229424   3.269   0.753   2.333 -0.2632  0.3386 -2.0177
 5931SOL     OW29425   0.949   0.447  13.620 -0.0753 -1.0216  0.0693
 5931SOL    HW129426   0.980   0.504  13.550  1.0791 -2.2550 -0.4289
 5931SOL    HW229427   0.859   0.422  13.599 -0.5205  0.4775  0.2168
 5932SOL     OW29428   3.749   3.017  13.364  0.1582  0.2277 -0.1712
 5932SOL    HW129429   3.752   2.936  13.416  3.5614  1.0468  0.8903
 5932SOL    HW229430   3.754   3.079  13.437 -0.0576  2.7366 -2.3397
 5933SOL     OW29431   3.220   3.207   2.625 -0.1988  0.3537 -0.0440
 5933SOL    HW129432   3.243   3.123   2.664  1.2465 -0.1413 -1.9568
 5933SOL    HW229433   3.150   3.236   2.683 -0.1917  0.1436  0.0708
 5934SOL     OW29434   1.363   2.897  13.794 -0.3013  0.1225 -0.2404
 5934SOL    HW129435   1.414   2.873  13.872 -0.4430  0.5271 -0.0245
 5934SOL    HW229436   1.364   2.812  13.750  1.1064 -1.1297  2.1717
 5935SOL     OW29437   0.031   2.609  16.301 -0.2331  0.0580  0.3161
 5935SOL    HW129438   4.699   2.646  16.355 -0.0193 -0.7878  1.1650
 5935SOL    HW229439   0.023   2.658  16.219  0.1485  0.4253  0.4986
 5936SOL     OW29440   0.912   4.710   8.659 -0.2098 -0.3020 -0.5979
 5936SOL    HW129441   0.955   4.699   8.744 -0.6710  0.7396 -0.2314
 5936SOL    HW229442   0.822   4.683   8.676 -0.8317  1.9663 -0.3240
 5937SOL     OW29443   4.429   2.126   5.924  0.0406  0.9569  0.2160
 5937SOL    HW129444   4.500   2.126   5.860 -1.6065  1.3563 -1.5845
 5937SOL    HW229445   4.383   2.045   5.899  0.5985  1.3282 -2.0030
 5938SOL     OW29446   0.732   0.817  11.139 -0.3760 -0.0600  0.3984
 5938SOL    HW129447   0.781   0.889  11.100 -1.1947 -0.1026 -0.7024
 5938SOL    HW229448   0.673   0.869  11.194 -0.5098  2.0828 -1.7955
 5939SOL     OW29449   1.010   2.770  15.480  0.1535 -0.1222 -0.0460
 5939SOL    HW129450   1.051   2.802  15.400 -1.0011 -0.8519 -0.9247
 5939SOL    HW229451   0.929   2.821  15.476  0.4074  0.3264  0.5037
 5940SOL     OW29452   4.408   3.114   6.399 -0.0769  0.6935  0.3516
 5940SOL    HW129453   4.443   3.025   6.403  0.8163  0.9623 -1.3619
 5940SOL    HW229454   4.316   3.096   6.381 -0.2853  2.0771  0.0249
 5941SOL     OW29455   0.448   3.515   2.745 -0.2313 -0.1215 -0.4118
 5941SOL    HW129456   0.484   3.573   2.812 -2.0589  1.0886 -0.4964
 5941SOL    HW229457   0.425   3.444   2.804  1.6629  0.3930  0.9605
 5942SOL     OW29458   0.911   2.943  17.392 -0.1868  0.2603  0.0381
 5942SOL    HW129459   0.860   2.877  17.344  1.4398 -1.0420  0.1197
 5942SOL    HW229460   0.841   2.988  17.439  0.9533  1.0144  0.9921
 5943SOL     OW29461   3.781   1.037   8.615  0.0374  0.2490  0.0139
 5943SOL    HW129462   3.815   0.962   8.568  0.3514 -0.1590  0.8979
 5943SOL    HW229463   3.716   1.074   8.555  1.1939 -0.0401 -1.3986
 5944SOL     OW29464   1.304   2.173   3.831  0.4207  0.0766  0.2675
 5944SOL    HW129465   1.240   2.146   3.898  0.9679  0.1175  0.8038
 5944SOL    HW229466   1.326   2.263   3.855  0.5326  0.3098 -0.7134
 5945SOL     OW29467   3.543   1.280   5.565  0.3027  0.2661 -0.5563
 5945SOL    HW129468   3.544   1.311   5.474  0.2819  1.1980 -0.2385
 5945SOL    HW229469   3.624   1.319   5.596  1.4578 -1.1403 -1.7939
 5946SOL     OW29470   2.580   0.135   8.991  0.3530 -0.6978 -0.1700
 5946SOL    HW129471   2.649   0.083   8.949  1.6051 -0.2682  1.3718
 5946SOL    HW229472   2.566   0.099   9.078  2.6491  0.6194  0.7183
 5947SOL     OW29473   4.705   4.165  10.303  0.0514 -0.3831  0.1336
 5947SOL    HW129474   4.652   4.231  10.349  2.0506 -0.0245  1.9236
 5947SOL    HW229475   4.660   4.088  10.337 -0.4675  0.1649  0.6926
 5948SOL     OW29476   3.950   2.958   7.375 -0.3500 -0.8792  0.1316
 5948SOL    HW129477   3.914   2.921   7.294 -1.0707 -0.0181  0.0517
 5948SOL    HW229478   3.950   3.047   7.339 -0.4713 -0.2912  1.5929
 5949SOL     OW29479   4.110   4.052  11.358 -0.7405 -0.6400  0.0386
 5949SOL    HW129480   4.104   4.029  11.266 -0.4257  1.4660 -0.5107
 5949SOL    HW229481   4.056   4.130  11.357  0.1846  0.0541  2.3725
 5950SOL     OW29482   0.878   2.668   3.355 -0.0306 -0.0359 -0.2882
 5950SOL    HW129483   0.801   2.722   3.368  0.0248  0.0541 -0.3369
 5950SOL    HW229484   0.893   2.632   3.443 -1.1257 -1.0813 -0.5311
 5951SOL     OW29485   4.307   2.257   3.128 -0.0446 -0.6487  0.2078
 5951SOL    HW129486   4.307   2.337   3.075  1.2041  0.1424  1.3925
 5951SOL    HW229487   4.372   2.213   3.074  0.9625  1.3546 -0.2086
 5952SOL     OW29488   2.949   0.743  16.420  0.3102  0.1049 -0.3131
 5952SOL    HW129489   3.011   0.672  16.433 -0.4532 -0.8364 -1.8281
 5952SOL    HW229490   2.869   0.691  16.417  1.5224 -1.8418  1.3864
 5953SOL     OW29491   0.141   0.585  11.866 -0.0846 -0.4023  0.2361
 5953SOL    HW129492   0.224   0.539  11.879 -0.5575 -1.5672 -0.8756
 5953SOL    HW229493   0.091   0.509  11.836  2.0625 -2.1634  1.1041
 5954SOL     OW29494   1.904   2.750  17.654 -0.8346  0.5309  0.1472
 5954SOL    HW129495   1.911   2.813  17.582 -0.3602 -0.6791 -0.8589
 5954SOL    HW229496   1.930   2.804  17.729 -2.1878  0.4195  0.7036
 5955SOL     OW29497   3.580   3.512  12.255 -0.5347  0.2028  0.3752
 5955SOL    HW129498   3.496   3.505  12.209 -0.3563 -0.3022  0.1229
 5955SOL    HW229499   3.635   3.455  12.201 -0.1655  0.8619  0.0542
 5956SOL     OW29500   1.391   4.311   6.102  0.2700  0.5318 -0.9116
 5956SOL    HW129501   1.421   4.343   6.017 -0.8964  2.9764 -0.4187
 5956SOL    HW229502   1.477   4.320   6.144  0.9199 -2.5691 -1.6027
 5957SOL     OW29503   4.645   0.398   4.885  0.9854  0.2442 -0.3837
 5957SOL    HW129504   4.629   0.305   4.905  1.5441  0.1822 -0.2089
 5957SOL    HW229505   4.590   0.412   4.808 -1.0830  0.3824  1.1367
 5958SOL     OW29506   1.715   4.220   2.767 -0.2424  0.3858  0.1481
 5958SOL    HW129507   1.763   4.146   2.805 -1.2254  0.3586  1.3183
 5958SOL    HW229508   1.769   4.237   2.690  0.2875 -0.7531  0.2681
 5959SOL     OW29509   0.680   1.488   6.580 -0.2587 -0.5142 -0.0566
 5959SOL    HW129510   0.770   1.516   6.600  0.2013  0.0083 -2.8308
 5959SOL    HW229511   0.652   1.435   6.655  0.7103  0.9248  1.3299
 5960SOL     OW29512   1.966   1.293   5.306  0.3567  0.0196 -0.2643
 5960SOL    HW129513   2.035   1.318   5.366 -0.1590 -1.1520  0.8213
 5960SOL    HW229514   1.961   1.368   5.246 -1.1387 -0.4564 -0.7378
 5961SOL     OW29515   0.305   3.663   6.278  0.2078 -0.5156  0.2251
 5961SOL    HW129516   0.226   3.652   6.225  0.0163 -4.2896  1.2951
 5961SOL    HW229517   0.325   3.750   6.244 -2.6925 -0.0038 -0.1783
 5962SOL     OW29518   2.907   1.587   4.112  0.1181 -0.2262  1.0888
 5962SOL    HW129519   2.875   1.667   4.070 -2.1342 -3.3321 -3.1457
 5962SOL    HW229520   2.822   1.553   4.140 -0.4885 -0.6158 -1.2168
 5963SOL     OW29521   4.736   2.355   7.693 -0.2999 -0.1452 -0.4860
 5963SOL    HW129522   4.734   2.269   7.650 -0.8596 -0.2657 -0.2224
 5963SOL    HW229523   4.682   2.328   7.767 -0.9297 -0.3984 -1.0246
 5964SOL     OW29524   1.045   2.736   4.892 -0.1663  0.4911  0.2468
 5964SOL    HW129525   1.008   2.815   4.931  2.4822  1.5232  0.6645
 5964SOL    HW229526   1.032   2.674   4.963  2.5773 -0.5325 -0.1569
 5965SOL     OW29527   2.184   0.867  15.142  0.3750 -0.4106 -0.7081
 5965SOL    HW129528   2.248   0.834  15.078  1.0259 -1.0625  0.2908
 5965SOL    HW229529   2.235   0.853  15.221  0.2846 -0.1104 -0.5977
 5966SOL     OW29530   2.304   3.132  12.685  0.1736  0.5547  0.3826
 5966SOL    HW129531   2.318   3.224  12.665  0.9196  0.3354 -0.0990
 5966SOL    HW229532   2.379   3.082  12.653  0.1275  1.0785 -0.5384
 5967SOL     OW29533   1.936   3.647   5.933 -0.0802  0.0189 -0.0074
 5967SOL    HW129534   1.872   3.683   5.995 -1.0784 -1.1077 -0.3975
 5967SOL    HW229535   1.886   3.622   5.856 -1.0154  0.7743  0.3504
 5968SOL     OW29536   1.152   4.686   2.101  0.7078 -0.1728 -0.3853
 5968SOL    HW129537   1.236   4.646   2.079 -0.3758 -1.3771 -2.3928
 5968SOL    HW229538   1.095   4.609   2.092 -0.3948  0.5460  0.4144
 5969SOL     OW29539   4.527   0.285   4.341  0.2148 -0.3356  0.0316
 5969SOL    HW129540   4.473   0.364   4.339 -2.0593 -1.9974 -3.5767
 5969SOL    HW229541   4.474   0.225   4.288  2.1309 -0.9878 -1.1519
 5970SOL     OW29542   3.436   2.805  15.887  0.3279 -0.0834 -0.4028
 5970SOL    HW129543   3.483   2.853  15.819 -0.5431  0.6027 -0.5103
 5970SOL    HW229544   3.361   2.863  15.899  0.7569  0.4313 -0.2182
 5971SOL     OW29545   0.628   2.844   1.262  0.0378 -1.2692 -0.8395
 5971SOL    HW129546   0.613   2.767   1.316 -1.4529 -0.2242  0.2131
 5971SOL    HW229547   0.712   2.886   1.282 -0.5107 -0.1283 -0.9520
 5972SOL     OW29548   2.631   0.814   8.511  0.4699 -0.0050  0.2937
 5972SOL    HW129549   2.563   0.826   8.578 -0.1986 -2.4895  0.0606
 5972SOL    HW229550   2.661   0.905   8.504  0.1148 -0.0391 -1.8785
 5973SOL     OW29551   3.158   4.517   4.370  0.0136  0.5854  0.2047
 5973SOL    HW129552   3.106   4.585   4.326 -0.8396  0.7407  1.4553
 5973SOL    HW229553   3.141   4.551   4.457  1.1460  2.1178 -0.1700
 5974SOL     OW29554   2.151   1.642   5.032  0.2666 -0.6618  0.6257
 5974SOL    HW129555   2.083   1.583   5.001  0.6266  0.6506 -2.6731
 5974SOL    HW229556   2.146   1.617   5.124  1.0421  0.3490  0.9448
 5975SOL     OW29557   3.492   4.477  10.748  0.4891  0.7069 -0.4296
 5975SOL    HW129558   3.587   4.485  10.743  0.3324  1.3423 -2.1161
 5975SOL    HW229559   3.492   4.434  10.834 -1.6006 -3.9875 -2.7663
 5976SOL     OW29560   2.123   1.889   2.565  0.4052 -0.1303  0.5923
 5976SOL    HW129561   2.165   1.806   2.542  0.6036  0.0253  0.4003
 5976SOL    HW229562   2.195   1.938   2.606  0.4062  0.7261 -0.4297
 5977SOL     OW29563   4.312   0.082   7.293  0.4635  0.2401  0.1675
 5977SOL    HW129564   4.366   0.090   7.214 -1.0470 -0.0084 -0.8689
 5977SOL    HW229565   4.291   4.727   7.305  0.9136  0.2788  1.2815
 5978SOL     OW29566   1.878   3.620   8.354 -0.4134 -0.5053 -0.0790
 5978SOL    HW129567   1.833   3.701   8.333  0.6512 -0.6546 -2.9122
 5978SOL    HW229568   1.801   3.562   8.356 -0.5272 -0.2860  2.1167
 5979SOL     OW29569   3.183   0.523  14.764  0.0833 -0.1515  0.4098
 5979SOL    HW129570   3.147   0.471  14.692  0.6443 -0.1469  0.1285
 5979SOL    HW229571   3.232   0.595  14.724 -0.8011 -0.9269 -2.0709
 5980SOL     OW29572   4.550   0.515  17.076 -0.3296  0.2620  0.7348
 5980SOL    HW129573   4.517   0.466  17.151  0.9662 -0.7971  0.6245
 5980SOL    HW229574   4.637   0.546  17.104  0.1119 -0.6258  0.3334
 5981SOL     OW29575   3.040   1.047   6.759  0.2310  0.6234 -0.1278
 5981SOL    HW129576   3.032   1.026   6.851 -1.3940 -2.1740 -0.9186
 5981SOL    HW229577   3.033   0.966   6.708  0.5316 -0.3205  1.3474
 5982SOL     OW29578   1.043   2.706   7.671  0.2640 -0.0591 -0.0130
 5982SOL    HW129579   1.089   2.722   7.588  2.9131  1.3824  1.7476
 5982SOL    HW229580   1.100   2.647   7.720  0.8732  0.6815  0.1718
 5983SOL     OW29581   0.948   0.861   5.449 -0.2053  0.1939 -0.0489
 5983SOL    HW129582   1.017   0.911   5.406 -1.3210 -2.0111 -4.3539
 5983SOL    HW229583   0.988   0.780   5.480  0.7162 -0.1198 -2.1013
 5984SOL     OW29584   0.587   1.753   2.283 -0.2288  0.6806  0.1581
 5984SOL    HW129585   0.682   1.743   2.271 -0.3466 -0.2375  0.0198
 5984SOL    HW229586   0.554   1.705   2.207 -1.3389 -0.2660  1.2335
 5985SOL     OW29587   2.680   0.456   3.758 -0.5337  0.3730 -0.0110
 5985SOL    HW129588   2.598   0.416   3.788 -1.2726  0.6356 -1.6732
 5985SOL    HW229589   2.748   0.406   3.802  0.2346  0.8392 -0.6688
 5986SOL     OW29590   2.606   3.284   5.112 -0.0139  0.2844 -0.0321
 5986SOL    HW129591   2.674   3.244   5.166 -0.3544  2.2886  1.9261
 5986SOL    HW229592   2.627   3.247   5.026 -1.1799  0.2997 -0.3259
 5987SOL     OW29593   1.445   3.997   3.557 -0.2272  0.4913  0.2928
 5987SOL    HW129594   1.384   3.925   3.575  0.7032  0.3697  2.9313
 5987SOL    HW229595   1.448   4.048   3.638 -0.4488 -0.3242  0.8230
 5988SOL     OW29596   3.138   3.825   8.374 -0.3143 -0.3150 -0.1163
 5988SOL    HW129597   3.142   3.781   8.289  1.4826 -0.9000  0.2750
 5988SOL    HW229598   3.146   3.756   8.439  2.0586 -0.1486 -0.2590
 5989SOL     OW29599   1.122   3.836   6.395  0.5499  0.1895 -0.0350
 5989SOL    HW129600   1.158   3.871   6.476  0.1251  1.7512 -0.5183
 5989SOL    HW229601   1.193   3.851   6.333  0.2936  1.1805 -0.0827
 5990SOL     OW29602   1.341   4.720   7.158 -0.3155 -0.1892  0.0373
 5990SOL    HW129603   1.263   4.684   7.200  0.1807 -1.9234 -0.5208
 5990SOL    HW229604   1.341   0.071   7.194 -0.5598  0.1457 -0.7835
 5991SOL     OW29605   4.626   0.893  15.300  0.3159  0.3323  0.4176
 5991SOL    HW129606   4.589   0.930  15.220 -0.8861 -5.4444 -1.6472
 5991SOL    HW229607   4.545   0.867  15.343  0.1354 -1.9555 -1.3213
 5992SOL     OW29608   0.574   2.347  12.711 -0.0002  0.1436  0.4351
 5992SOL    HW129609   0.544   2.401  12.638 -1.4135 -1.1410  0.0645
 5992SOL    HW229610   0.651   2.384  12.755 -0.6825  0.0046  1.7559
 5993SOL     OW29611   2.730   2.639  15.377  0.7342 -0.2238 -0.2155
 5993SOL    HW129612   2.792   2.612  15.308 -0.2236  0.4608 -1.3524
 5993SOL    HW229613   2.781   2.626  15.456  0.8299 -1.4604 -0.4653
 5994SOL     OW29614   0.667   4.247  17.301 -0.0761 -0.2896 -0.2648
 5994SOL    HW129615   0.696   4.338  17.298  1.4088 -0.7137  1.1462
 5994SOL    HW229616   0.711   4.205  17.227 -0.1400 -0.0799 -0.4198
 5995SOL     OW29617   1.579   2.151   2.151 -0.2554  0.4654 -0.0532
 5995SOL    HW129618   1.584   2.212   2.224 -0.3349  1.1716 -0.6347
 5995SOL    HW229619   1.485   2.135   2.153 -0.4505  1.1526 -2.9242
 5996SOL     OW29620   4.650   3.688   4.067 -0.5423 -0.1811  0.0363
 5996SOL    HW129621   0.004   3.708   4.089 -0.8644  0.6753  0.5754
 5996SOL    HW229622   4.613   3.767   4.028  1.1279  0.2932 -0.5725
 5997SOL     OW29623   4.731   1.794   7.777 -0.5821  0.0992 -0.5411
 5997SOL    HW129624   4.710   1.740   7.700  1.2806  0.9495 -1.6508
 5997SOL    HW229625   4.653   1.847   7.789  0.4096  1.5154 -0.3048
 5998SOL     OW29626   3.311   3.980   7.493 -0.6408 -0.0705  0.4063
 5998SOL    HW129627   3.253   3.905   7.510  0.0599 -0.6406  0.2916
 5998SOL    HW229628   3.395   3.935   7.502  0.3904  1.5820 -1.0655
 5999SOL     OW29629   2.382   0.127   9.398 -0.2879  0.4192  0.1724
 5999SOL    HW129630   2.334   0.048   9.423 -1.9967  1.9587  1.8238
 5999SOL    HW229631   2.467   0.092   9.423 -1.4830 -1.1674  1.9633
 6000SOL     OW29632   2.733   4.165   8.231 -0.1204  0.0018 -0.4535
 6000SOL    HW129633   2.737   4.099   8.300 -0.1800  0.3325 -0.1364
 6000SOL    HW229634   2.825   4.191   8.222 -0.5179  1.2573 -0.8562
 6001SOL     OW29635   3.271   3.972   9.545  0.1201  0.5533  0.5217
 6001SOL    HW129636   3.179   3.974   9.517 -0.3659  1.2924  2.1441
 6001SOL    HW229637   3.282   4.014   9.630 -3.1597  1.5821  0.4297
 6002SOL     OW29638   1.557   4.333   4.638 -0.0420 -0.0029 -0.2246
 6002SOL    HW129639   1.471   4.298   4.659 -1.8780  2.9166 -2.8443
 6002SOL    HW229640   1.594   4.267   4.579  1.1380 -0.4088  0.9690
 6003SOL     OW29641   0.478   3.397   4.075  0.4471 -0.3433 -0.2184
 6003SOL    HW129642   0.457   3.304   4.083  1.6247 -0.6669 -0.9960
 6003SOL    HW229643   0.559   3.383   4.027 -1.6064  1.9380 -4.3294
 6004SOL     OW29644   1.514   3.093   7.614 -0.5040 -0.4528 -0.4784
 6004SOL    HW129645   1.513   3.044   7.532  4.0795 -0.8415 -0.2963
 6004SOL    HW229646   1.557   3.171   7.579 -2.1256  1.3458  1.5115
 6005SOL     OW29647   1.720   2.032   4.267 -0.2577  1.1313  0.0849
 6005SOL    HW129648   1.664   1.956   4.282  1.7707  0.3099  3.4731
 6005SOL    HW229649   1.803   1.986   4.256 -0.3924  1.2298 -1.3752
 6006SOL     OW29650   2.546   3.805   6.637  0.5313  0.0650 -0.0354
 6006SOL    HW129651   2.463   3.841   6.606  0.4622  0.1889  0.2879
 6006SOL    HW229652   2.523   3.712   6.630  0.9666 -0.1243  0.9402
 6007SOL     OW29653   0.493   0.376   2.269  0.0809 -0.9107 -0.0453
 6007SOL    HW129654   0.496   0.465   2.305 -3.2681 -0.7987 -0.1065
 6007SOL    HW229655   0.398   0.371   2.258 -0.2394  1.9833  1.3916
 6008SOL     OW29656   0.523   3.080  16.061  0.3076  0.4247  0.4739
 6008SOL    HW129657   0.457   3.048  16.000  0.5830  0.2940  0.2469
 6008SOL    HW229658   0.568   2.997  16.077  1.0519  0.6279 -0.5723
 6009SOL     OW29659   3.368   1.800   1.163  0.0082  0.4484  0.2468
 6009SOL    HW129660   3.373   1.704   1.173 -0.6599  0.5297  1.4114
 6009SOL    HW229661   3.336   1.806   1.073 -2.8437  0.6106  1.2557
 6010SOL     OW29662   0.937   4.523  12.113  0.3743  0.7645 -0.1440
 6010SOL    HW129663   1.014   4.473  12.138 -0.2741 -1.3827 -2.3370
 6010SOL    HW229664   0.970   4.554  12.029  1.0240  0.1090 -0.1290
 6011SOL     OW29665   2.209   2.384   1.209  0.3998  0.4675  0.3768
 6011SOL    HW129666   2.258   2.329   1.270  1.1424  1.3238  0.5481
 6011SOL    HW229667   2.143   2.320   1.182  1.9309 -0.8357 -0.2900
 6012SOL     OW29668   4.399   0.869   7.099  0.1141 -0.3481  0.9421
 6012SOL    HW129669   4.316   0.847   7.056  0.7096 -0.2060 -0.2649
 6012SOL    HW229670   4.458   0.891   7.027  0.6661 -1.0854  1.1750
 6013SOL     OW29671   2.851   4.647   7.794  0.0008 -0.4839  0.1581
 6013SOL    HW129672   2.938   4.659   7.757  0.2690 -0.5920  0.7419
 6013SOL    HW229673   2.817   4.735   7.811 -0.1416 -0.5028 -0.0266
 6014SOL     OW29674   0.465   2.961  15.109 -0.2667  0.5550  0.3534
 6014SOL    HW129675   0.531   2.977  15.043 -0.2176  2.1378  0.7920
 6014SOL    HW229676   0.454   2.867  15.122 -1.5028  0.4783 -1.2538
 6015SOL     OW29677   4.310   0.996   2.874  0.0843 -0.1420  0.8617
 6015SOL    HW129678   4.252   1.062   2.913 -0.3439 -0.6035  1.0119
 6015SOL    HW229679   4.252   0.920   2.872  1.9191 -1.4180 -3.3743
 6016SOL     OW29680   3.726   2.009   2.724  0.6285  0.5425  0.0619
 6016SOL    HW129681   3.741   1.929   2.774 -1.0038  1.1086  1.4340
 6016SOL    HW229682   3.716   2.070   2.797  5.1179  1.6750 -0.2164
 6017SOL     OW29683   0.209   1.462   4.107  0.3062 -0.6072  0.5146
 6017SOL    HW129684   0.272   1.418   4.050 -1.2364 -1.6134 -0.4387
 6017SOL    HW229685   0.202   1.542   4.054  1.1665 -0.8318  0.0567
 6018SOL     OW29686   0.071   1.329   9.553  0.0628  0.8889  0.5649
 6018SOL    HW129687   0.134   1.350   9.484  0.8194  3.8112  2.1452
 6018SOL    HW229688   0.108   1.246   9.583 -0.4959 -0.3342 -2.1780
 6019SOL     OW29689   0.648   2.114   2.455  0.4076 -0.4660 -0.3552
 6019SOL    HW129690   0.707   2.097   2.528 -0.8440  2.6175  1.3937
 6019SOL    HW229691   0.645   2.210   2.451  2.5614 -0.3125  1.6970
 6020SOL     OW29692   2.397   2.981   8.980  0.1809 -0.2642 -0.4449
 6020SOL    HW129693   2.396   3.052   8.916 -0.3191 -2.2315 -2.5990
 6020SOL    HW229694   2.477   3.009   9.024  1.1360 -1.4943 -1.4080
 6021SOL     OW29695   2.916   2.443   2.057  0.4102 -0.0290  0.1005
 6021SOL    HW129696   2.836   2.392   2.071  2.3879 -2.8987  0.9628
 6021SOL    HW229697   2.952   2.387   1.989  0.9847  1.5997 -0.9482
 6022SOL     OW29698   0.125   3.892   3.519  0.5534  0.3090  0.6444
 6022SOL    HW129699   0.202   3.836   3.514  0.6378  0.4234  0.6710
 6022SOL    HW229700   0.137   3.948   3.596 -0.3267 -1.2510  1.9263
 6023SOL     OW29701   1.439   0.816   2.298 -0.3141 -0.1610  0.5268
 6023SOL    HW129702   1.369   0.866   2.341 -0.9960  0.9361 -1.8399
 6023SOL    HW229703   1.441   0.872   2.221 -1.7596 -1.4173 -0.4358
 6024SOL     OW29704   2.344   3.267   9.678 -0.8863 -0.1204  0.0727
 6024SOL    HW129705   2.307   3.342   9.632  3.6158  0.0268 -3.2895
 6024SOL    HW229706   2.424   3.248   9.629 -0.3238 -0.9418  1.3135
 6025SOL     OW29707   3.888   2.695  17.652  0.4507  0.6755  0.1917
 6025SOL    HW129708   3.982   2.701  17.637  0.6550 -2.4109  0.3850
 6025SOL    HW229709   3.857   2.777  17.612  0.5207  0.9763  0.7531
 6026SOL     OW29710   2.649   0.087   6.865 -0.1998  0.3151  0.0277
 6026SOL    HW129711   2.658   0.002   6.821  0.6403 -0.1079  1.0150
 6026SOL    HW229712   2.571   0.065   6.917 -0.3212 -2.8833 -1.4616
 6027SOL     OW29713   2.636   3.366   5.780 -0.0043 -0.8121 -0.0092
 6027SOL    HW129714   2.635   3.274   5.807 -0.1119 -1.2013 -1.3389
 6027SOL    HW229715   2.666   3.402   5.864  0.2593  1.2599 -0.9881
 6028SOL     OW29716   0.030   3.787   4.430  0.4123  0.3649 -0.5665
 6028SOL    HW129717   4.684   3.834   4.425 -0.5740 -1.1215  2.4236
 6028SOL    HW229718   0.027   3.757   4.521  1.0651 -1.4416 -1.1453
 6029SOL     OW29719   2.962   3.265   4.243  0.3772 -0.0201  0.4704
 6029SOL    HW129720   2.925   3.241   4.158  0.5155 -1.4735  0.8173
 6029SOL    HW229721   2.965   3.181   4.288 -0.2855 -0.8623 -1.0384
 6030SOL     OW29722   3.529   4.165  10.909  0.2339  0.3534  0.5972
 6030SOL    HW129723   3.511   4.072  10.902  0.0152  0.6947 -3.1098
 6030SOL    HW229724   3.621   4.166  10.937 -0.1381 -1.1984  1.8635
 6031SOL     OW29725   0.967   3.558   8.497 -0.3302  0.4459  0.7857
 6031SOL    HW129726   0.909   3.533   8.569 -0.5755  0.8579  0.7342
 6031SOL    HW229727   0.905   3.604   8.440  0.4162  0.5462  0.0555
 6032SOL     OW29728   1.256   2.443   8.165 -0.5059 -0.4377 -0.0987
 6032SOL    HW129729   1.312   2.458   8.241 -0.6909  0.8674 -0.2197
 6032SOL    HW229730   1.214   2.529   8.159 -1.5853 -1.0314 -1.0708
 6033SOL     OW29731   4.270   0.303   2.447 -0.3168 -0.0349  0.2530
 6033SOL    HW129732   4.212   0.229   2.425  1.2913 -0.6769 -1.8057
 6033SOL    HW229733   4.271   0.354   2.366 -0.9457  0.2694  0.4395
 6034SOL     OW29734   0.052   3.573   8.417 -0.2094  0.6864  0.1145
 6034SOL    HW129735   0.043   3.579   8.512  0.3713  1.7063  0.1030
 6034SOL    HW229736   0.006   3.491   8.402 -0.5333  1.1016 -1.2215
 6035SOL     OW29737   3.413   1.314  10.430 -0.3257 -0.3030  0.4524
 6035SOL    HW129738   3.371   1.230  10.412 -0.3668 -0.1036 -0.3579
 6035SOL    HW229739   3.499   1.284  10.462 -0.7485  0.4963  2.3238
 6036SOL     OW29740   1.530   0.547   7.081  0.2472 -0.3204  0.5505
 6036SOL    HW129741   1.441   0.527   7.113  0.3311 -0.3847  0.7433
 6036SOL    HW229742   1.558   0.460   7.055  0.2369 -0.3994  0.8070
 6037SOL     OW29743   0.812   1.886  15.946 -0.3113  0.4760 -0.7541
 6037SOL    HW129744   0.754   1.875  16.021  1.0040  3.6661  0.6998
 6037SOL    HW229745   0.749   1.852  15.881 -0.5928  2.1938 -1.3872
 6038SOL     OW29746   0.780   2.322   7.183  0.3907 -0.7383 -0.4075
 6038SOL    HW129747   0.845   2.262   7.146  1.3257 -1.0988  1.8167
 6038SOL    HW229748   0.709   2.269   7.219  0.0160 -0.1525 -0.2855
 6039SOL     OW29749   4.512   1.852   6.166 -0.0130 -0.2050  0.2997
 6039SOL    HW129750   4.442   1.882   6.108 -0.2209 -3.2550 -1.0135
 6039SOL    HW229751   4.577   1.922   6.161  0.1002 -0.1759  2.2046
 6040SOL     OW29752   2.486   1.850  12.023 -0.2024  0.4319  0.1324
 6040SOL    HW129753   2.432   1.825  11.948  0.9418  0.8485 -0.8176
 6040SOL    HW229754   2.537   1.922  11.987 -0.7766 -0.2305 -2.0258
 6041SOL     OW29755   3.377   3.169   0.910 -0.4298 -0.4110  0.2525
 6041SOL    HW129756   3.413   3.174   0.821  0.9509  1.7193  0.9249
 6041SOL    HW229757   3.392   3.256   0.945 -0.2100 -0.4519  0.2635
 6042SOL     OW29758   2.554   0.540  12.886  0.4449 -0.1074 -0.4476
 6042SOL    HW129759   2.545   0.457  12.839 -1.1466 -1.6707  2.5869
 6042SOL    HW229760   2.648   0.541  12.905  0.1829  0.8285  0.8261
 6043SOL     OW29761   2.080   0.656  10.415 -0.3977  0.4765 -0.5898
 6043SOL    HW129762   2.015   0.587  10.425 -0.5506  0.8785  1.2619
 6043SOL    HW229763   2.058   0.696  10.500 -2.3094 -0.5067 -0.6298
 6044SOL     OW29764   2.652   3.946   9.238 -0.0527  0.5815 -0.2029
 6044SOL    HW129765   2.594   3.892   9.292  0.8796 -1.1760 -0.9551
 6044SOL    HW229766   2.592   3.995   9.182  1.9588  1.3571 -1.6774
 6045SOL     OW29767   0.930   2.104   8.936  0.5361 -0.4031  0.2636
 6045SOL    HW129768   0.934   2.101   8.840 -1.8255 -0.1457  0.1683
 6045SOL    HW229769   0.863   2.039   8.957 -0.2298  0.1642 -0.4135
 6046SOL     OW29770   4.430   2.829   4.853  0.0031  0.9458 -0.2650
 6046SOL    HW129771   4.427   2.908   4.907 -0.9643  1.1697 -0.6414
 6046SOL    HW229772   4.475   2.875   4.782 -1.9337  2.5462 -0.4552
 6047SOL     OW29773   2.196   1.476   8.895  0.0807 -0.3514  0.2408
 6047SOL    HW129774   2.178   1.384   8.914 -0.8192 -0.5447 -1.5440
 6047SOL    HW229775   2.233   1.496   8.981  0.4958 -0.6419  0.1308
 6048SOL     OW29776   0.192   3.928   4.717 -0.3231 -0.4612  0.2370
 6048SOL    HW129777   0.261   3.863   4.700 -1.1868 -0.8179 -1.9198
 6048SOL    HW229778   0.163   3.955   4.630 -1.8566  0.6815  1.1203
 6049SOL     OW29779   0.855   0.372  10.037  0.2610 -0.4200 -0.1046
 6049SOL    HW129780   0.897   0.286  10.044  1.7923  0.4202  1.2746
 6049SOL    HW229781   0.776   0.358   9.986 -0.4125  0.0006  0.8255
 6050SOL     OW29782   2.607   0.139   6.472 -0.4024 -0.2983  0.2958
 6050SOL    HW129783   2.571   0.192   6.401 -0.6386 -1.7201 -0.6623
 6050SOL    HW229784   2.530   0.104   6.517 -1.2023  1.3663  0.1942
 6051SOL     OW29785   0.196   0.569   6.614  0.5231 -0.0827 -0.1920
 6051SOL    HW129786   0.211   0.547   6.706 -0.5619  0.8213  0.1980
 6051SOL    HW229787   0.287   0.570   6.583  0.3205  1.2021 -0.7365
 6052SOL     OW29788   2.964   1.859   4.754  0.5025  0.0688  0.6399
 6052SOL    HW129789   2.931   1.771   4.772 -0.4089  0.3661  0.4363
 6052SOL    HW229790   2.997   1.845   4.665  0.0720  0.8566  0.3589
 6053SOL     OW29791   2.229   1.323   2.910  0.4586  0.1725  0.3391
 6053SOL    HW129792   2.185   1.333   2.994  0.3709 -0.3130  0.3489
 6053SOL    HW229793   2.150   1.318   2.856 -0.2244 -2.0779  1.5696
 6054SOL     OW29794   4.604   2.460  15.314 -0.1629  0.4014  0.3193
 6054SOL    HW129795   4.552   2.382  15.296  0.4138 -0.0459  0.6010
 6054SOL    HW229796   4.588   2.490  15.403  0.0293  0.7810  0.2271
 6055SOL     OW29797   3.715   2.207   9.787 -0.3257  0.5251 -0.4144
 6055SOL    HW129798   3.678   2.124   9.817  1.7242 -0.4860 -0.6579
 6055SOL    HW229799   3.731   2.260   9.865 -1.2925  0.1522  0.0390
 6056SOL     OW29800   4.272   0.456   8.105  0.2770 -0.0195 -0.1262
 6056SOL    HW129801   4.229   0.446   8.020 -0.9429 -0.2533  0.5143
 6056SOL    HW229802   4.293   0.549   8.098  0.3511 -0.0042  0.2982
 6057SOL     OW29803   0.427   4.398  12.783 -0.0572  0.6323 -0.1063
 6057SOL    HW129804   0.462   4.319  12.825 -1.2631 -0.1960 -0.6530
 6057SOL    HW229805   0.383   4.442  12.855 -1.0665 -0.3470 -0.1185
 6058SOL     OW29806   4.563   0.923   6.193 -0.0474 -0.4189  0.2695
 6058SOL    HW129807   4.508   0.926   6.271 -0.0564 -2.0434  0.3216
 6058SOL    HW229808   4.502   0.892   6.126  0.5175 -1.6993  0.3415
 6059SOL     OW29809   4.657   3.857  15.821  0.7435 -0.0349 -0.1170
 6059SOL    HW129810   4.701   3.891  15.899  2.9384 -0.5409 -1.1395
 6059SOL    HW229811   4.605   3.783  15.854 -1.4934  1.0055 -1.2859
 6060SOL     OW29812   2.989   2.896   9.462 -0.0179  0.0121 -0.3535
 6060SOL    HW129813   3.061   2.895   9.526 -0.2455 -1.2087 -0.1347
 6060SOL    HW229814   2.951   2.983   9.478 -2.2376 -0.3266 -3.7350
 6061SOL     OW29815   2.194   0.080  17.102  0.2398  0.0188 -0.3178
 6061SOL    HW129816   2.151   0.009  17.149  0.0516  0.4914  0.2216
 6061SOL    HW229817   2.123   0.132  17.065  0.5485  0.8593  0.2644
 6062SOL     OW29818   1.888   1.708   0.999 -0.6829  0.2836 -0.0252
 6062SOL    HW129819   1.915   1.702   0.907  0.8492  1.5349  0.3573
 6062SOL    HW229820   1.916   1.797   1.019 -2.8784  1.0088 -0.2177
 6063SOL     OW29821   3.456   0.815   6.250 -0.2482 -0.2167  0.3824
 6063SOL    HW129822   3.513   0.819   6.173  0.7708  0.0998  1.1542
 6063SOL    HW229823   3.402   0.893   6.233  0.1160  0.0947  0.6721
 6064SOL     OW29824   1.005   2.215   2.553  0.1329 -0.2995 -0.3404
 6064SOL    HW129825   0.922   2.249   2.585  0.2166 -0.0790 -0.3617
 6064SOL    HW229826   1.043   2.176   2.632  0.3901  1.2759  0.3098
 6065SOL     OW29827   4.426   2.437   5.730 -0.5242 -0.3627 -0.2503
 6065SOL    HW129828   4.437   2.421   5.636  2.6031 -0.2656  0.0864
 6065SOL    HW229829   4.357   2.504   5.727 -1.4559 -1.3112  0.2731
 6066SOL     OW29830   0.245   2.899   2.518 -0.0792  0.3199 -0.5456
 6066SOL    HW129831   0.185   2.841   2.566 -1.6067  0.3929 -2.3789
 6066SOL    HW229832   0.192   2.953   2.460  1.0797  0.2703 -1.6356
 6067SOL     OW29833   4.338   0.489   6.157 -0.1584  0.3203 -0.2851
 6067SOL    HW129834   4.376   0.459   6.239 -1.2473 -0.6106 -0.1214
 6067SOL    HW229835   4.371   0.420   6.099 -0.4073 -0.3483  0.3771
 6068SOL     OW29836   1.673   2.056   5.353  0.2564 -0.4111 -0.0604
 6068SOL    HW129837   1.767   2.052   5.334  0.0869 -0.8264 -0.7903
 6068SOL    HW229838   1.689   2.127   5.415  1.4239 -0.3197 -0.4637
 6069SOL     OW29839   2.455   2.158   8.370  0.3178  0.0499  0.0836
 6069SOL    HW129840   2.459   2.094   8.299  0.0319 -0.7348  0.7729
 6069SOL    HW229841   2.433   2.091   8.435  1.0189  0.6435  0.9249
 6070SOL     OW29842   2.475   2.951   1.757 -0.4098 -0.3111  0.8181
 6070SOL    HW129843   2.449   2.999   1.836 -1.0304 -0.5571  0.7660
 6070SOL    HW229844   2.554   2.911   1.794 -0.6262 -0.8765  0.6721
 6071SOL     OW29845   0.015   3.679   5.468 -0.4674  0.1017 -0.5420
 6071SOL    HW129846   4.672   3.693   5.416 -2.3131  0.2891  2.3350
 6071SOL    HW229847   0.005   3.595   5.512  1.0326  0.2873  0.1117
 6072SOL     OW29848   1.739   1.297   7.573 -0.2550  0.3596  0.0791
 6072SOL    HW129849   1.776   1.301   7.661 -2.2260  0.0720  0.9184
 6072SOL    HW229850   1.654   1.256   7.582  0.6015 -1.3494  0.3566
 6073SOL     OW29851   0.836   0.531   1.639  0.2566  0.9170  0.6944
 6073SOL    HW129852   0.787   0.464   1.687  0.8243 -0.8915 -1.1946
 6073SOL    HW229853   0.769   0.550   1.574  0.3517 -1.3532 -0.0862
 6074SOL     OW29854   3.105   0.841   5.218 -0.2503  0.1772 -0.3422
 6074SOL    HW129855   3.079   0.807   5.132  0.1259 -1.3578  0.1463
 6074SOL    HW229856   3.089   0.932   5.194  2.3895  1.6187  3.4518
 6075SOL     OW29857   3.813   0.864  13.489 -0.2670 -0.2214  0.4876
 6075SOL    HW129858   3.829   0.781  13.535 -0.8729 -0.7797 -0.3277
 6075SOL    HW229859   3.764   0.837  13.412 -0.4566  1.1360  0.1471
 6076SOL     OW29860   3.283   2.541   3.946  0.4724 -1.2194 -0.6841
 6076SOL    HW129861   3.201   2.531   3.994  0.4188  3.5763  0.2912
 6076SOL    HW229862   3.286   2.632   3.914  2.4296 -1.6071 -1.6060
 6077SOL     OW29863   1.199   3.494   3.716  0.5502 -0.2914 -0.0546
 6077SOL    HW129864   1.194   3.427   3.647  3.4400 -0.6349  0.0693
 6077SOL    HW229865   1.107   3.520   3.723  0.6369 -0.3002  1.1693
 6078SOL     OW29866   1.623   2.648   0.715  0.0193  0.3752 -0.3490
 6078SOL    HW129867   1.554   2.675   0.654  1.0497  1.2944 -1.0944
 6078SOL    HW229868   1.644   2.562   0.679  0.2709 -0.0767  0.8871
 6079SOL     OW29869   2.608   2.559   5.095 -0.3640 -0.2288  0.1186
 6079SOL    HW129870   2.634   2.565   5.186 -1.5244  1.8352  0.3156
 6079SOL    HW229871   2.512   2.551   5.094 -0.6091  2.7418 -1.3864
 6080SOL     OW29872   4.368   2.660   2.666  0.4132 -0.1237  0.4452
 6080SOL    HW129873   4.368   2.565   2.662  0.2297 -0.0720 -0.7471
 6080SOL    HW229874   4.434   2.685   2.602  0.0521 -1.4230 -0.4148
 6081SOL     OW29875   4.091   2.069   0.660  0.3789 -0.1888  0.7268
 6081SOL    HW129876   4.050   2.058   0.574  4.6234 -2.1269 -1.0405
 6081SOL    HW229877   4.019   2.115   0.703 -0.2590  0.1822 -0.7387
 6082SOL     OW29878   0.776   3.504  12.029  0.2256 -0.0100 -0.1372
 6082SOL    HW129879   0.812   3.468  11.948 -0.3294 -3.0614  0.9370
 6082SOL    HW229880   0.686   3.523  12.003  0.8109 -0.5006 -2.5036
 6083SOL     OW29881   3.249   2.939  14.179  0.4311  0.3940 -0.6278
 6083SOL    HW129882   3.252   3.000  14.104 -1.4916  0.5453 -0.5735
 6083SOL    HW229883   3.293   2.862  14.143 -2.9567 -2.1194  0.6230
 6084SOL     OW29884   1.141   3.885   5.135 -0.1725  0.8159  0.0554
 6084SOL    HW129885   1.168   3.828   5.207 -1.8607  0.2456  0.2241
 6084SOL    HW229886   1.225   3.926   5.114  0.8870 -1.5432 -0.3476
 6085SOL     OW29887   0.313   0.909   3.852 -0.3784 -0.0719  0.0129
 6085SOL    HW129888   0.236   0.897   3.797  0.4397 -0.5409 -1.0192
 6085SOL    HW229889   0.291   0.852   3.925  0.8866 -1.8051 -0.9645
 6086SOL     OW29890   2.578   2.316   7.302 -0.0933 -0.3283  0.8126
 6086SOL    HW129891   2.509   2.333   7.365 -2.6038  0.4403 -2.1667
 6086SOL    HW229892   2.595   2.405   7.271 -0.3072 -0.5352  0.0891
 6087SOL     OW29893   2.268   2.295   2.309 -0.3562 -0.0403  0.5867
 6087SOL    HW129894   2.292   2.219   2.362  0.6972 -1.5883 -2.1061
 6087SOL    HW229895   2.190   2.259   2.265  0.6825 -0.8844 -0.5626
 6088SOL     OW29896   4.370   1.166   7.169 -0.0108  0.1332  0.4848
 6088SOL    HW129897   4.392   1.077   7.141  3.4284  0.4732  2.1234
 6088SOL    HW229898   4.341   1.148   7.258 -0.4584 -1.4429  0.0167
 6089SOL     OW29899   4.582   1.581   6.089 -0.2949 -0.1890  0.2486
 6089SOL    HW129900   4.647   1.555   6.153  0.9966 -3.0364 -2.1992
 6089SOL    HW229901   4.552   1.668   6.117  0.8810  1.1505 -2.6608
 6090SOL     OW29902   4.262   2.588   1.830 -0.2810  0.4089 -0.1078
 6090SOL    HW129903   4.281   2.557   1.742 -1.8960  1.9562 -0.9785
 6090SOL    HW229904   4.220   2.509   1.866 -0.1067  0.7487  0.8414
 6091SOL     OW29905   3.947   4.065  16.035  0.5082 -0.2674 -0.1832
 6091SOL    HW129906   3.906   3.989  16.077  0.3227 -0.5495 -0.8742
 6091SOL    HW229907   4.013   4.017  15.985  0.9784 -1.3516  1.4695
 6092SOL     OW29908   2.912   2.667  17.100  0.0722 -0.0175 -0.3469
 6092SOL    HW129909   2.933   2.586  17.146 -0.4200 -1.6656 -2.9537
 6092SOL    HW229910   2.884   2.728  17.168  1.0869  0.7891 -0.6569
 6093SOL     OW29911   3.268   2.586   5.416  0.6492 -0.7115 -0.5254
 6093SOL    HW129912   3.311   2.544   5.341 -0.6046  0.2623 -1.7714
 6093SOL    HW229913   3.175   2.571   5.399 -0.2353  3.1801  0.8607
 6094SOL     OW29914   0.366   1.019  17.149 -0.5372 -0.4201 -0.7518
 6094SOL    HW129915   0.339   0.928  17.152 -0.4309 -0.3626  1.7207
 6094SOL    HW229916   0.460   1.003  17.141 -0.7295 -1.9534  0.0557
 6095SOL     OW29917   0.368   3.859  15.382  0.2761  0.2081 -0.1020
 6095SOL    HW129918   0.303   3.817  15.324  0.7206  0.7201 -0.9657
 6095SOL    HW229919   0.384   3.940  15.335 -3.6423  1.3229  0.4997
 6096SOL     OW29920   4.337   3.400  13.235 -0.3103 -0.0628  0.3186
 6096SOL    HW129921   4.312   3.387  13.326  0.5223  0.2665  0.5943
 6096SOL    HW229922   4.269   3.453  13.192 -0.5032 -0.0860  0.5943
 6097SOL     OW29923   0.420   2.434  13.312  0.5017  0.4159  0.7346
 6097SOL    HW129924   0.435   2.517  13.358 -0.0209  0.9712 -0.0907
 6097SOL    HW229925   0.508   2.398  13.300  0.3785  0.5547 -0.6433
 6098SOL     OW29926   3.036   2.426   5.127 -0.0390  0.0601 -0.1484
 6098SOL    HW129927   3.022   2.456   5.217 -0.8774  2.1480 -0.9898
 6098SOL    HW229928   2.945   2.416   5.102 -0.4734 -0.0796  1.4863
 6099SOL     OW29929   1.632   3.190   6.844 -0.0935  0.1346 -0.4608
 6099SOL    HW129930   1.542   3.220   6.854  0.6181  2.7091 -1.7846
 6099SOL    HW229931   1.682   3.271   6.846  0.4518 -0.2162  0.2859
 6100SOL     OW29932   2.700   1.615   8.231  0.0667  0.3845  0.4649
 6100SOL    HW129933   2.645   1.618   8.309 -1.1595  3.3285 -0.4829
 6100SOL    HW229934   2.682   1.531   8.190  1.1481 -0.4655  1.7439
 6101SOL     OW29935   2.470   0.987  13.954  0.1030 -0.3240  0.1447
 6101SOL    HW129936   2.535   1.026  14.013  0.2407  0.7833 -0.7455
 6101SOL    HW229937   2.458   1.065  13.899 -0.7732  0.3809  1.3417
 6102SOL     OW29938   0.934   0.154  10.700  0.1213 -0.0175 -0.0404
 6102SOL    HW129939   0.934   0.094  10.775 -0.4260  4.0176  3.2124
 6102SOL    HW229940   0.861   0.213  10.718  1.9548  2.4482 -0.6373
 6103SOL     OW29941   0.608   2.971   9.461 -0.0799  0.3968 -0.3586
 6103SOL    HW129942   0.587   2.890   9.415  1.5971 -0.4753  0.3943
 6103SOL    HW229943   0.703   2.970   9.449  0.1685  1.2961  1.4020
 6104SOL     OW29944   1.387   3.202  13.786  0.5833  0.3035 -0.0922
 6104SOL    HW129945   1.453   3.183  13.719  1.0607  1.1732  0.1312
 6104SOL    HW229946   1.351   3.116  13.806  1.1530  0.1629  0.3306
 6105SOL     OW29947   4.652   1.773   5.146  0.1537  0.1241 -0.4992
 6105SOL    HW129948   4.685   1.687   5.119  0.9445  0.5660 -0.9518
 6105SOL    HW229949   4.736   1.817   5.135  0.1533  0.0202 -0.9520
 6106SOL     OW29950   1.518   2.413   8.331  0.2324 -0.2516 -0.6978
 6106SOL    HW129951   1.594   2.471   8.338 -2.1738  3.0324 -1.3538
 6106SOL    HW229952   1.503   2.399   8.425  0.5819  0.1238 -0.5827
 6107SOL     OW29953   1.407   4.279   2.243  0.0040 -0.1706  0.2927
 6107SOL    HW129954   1.493   4.240   2.252 -0.2780 -0.9906 -0.5832
 6107SOL    HW229955   1.432   4.363   2.204  1.9006 -0.4335  0.9772
 6108SOL     OW29956   4.581   0.651   0.697 -0.0552 -0.1541  0.0151
 6108SOL    HW129957   4.643   0.646   0.770  2.3853  2.8362 -1.8500
 6108SOL    HW229958   4.566   0.745   0.683 -2.4567 -0.3355  1.4498
 6109SOL     OW29959   3.090   3.575   0.506  0.1392 -1.1605 -0.4947
 6109SOL    HW129960   3.138   3.657   0.509  1.0231 -1.6818 -0.3934
 6109SOL    HW229961   3.161   3.512   0.495 -0.3444 -1.1538 -3.8653
 6110SOL     OW29962   1.155   3.197   8.071 -0.1540  0.1529 -0.1645
 6110SOL    HW129963   1.215   3.272   8.069 -0.6122  0.5142 -0.2958
 6110SOL    HW229964   1.073   3.227   8.031 -1.1681 -1.6223  0.6337
 6111SOL     OW29965   0.026   1.730   0.917 -1.0573 -0.5384  0.2234
 6111SOL    HW129966   0.117   1.733   0.947 -0.2668  1.1982 -2.2840
 6111SOL    HW229967   0.053   1.718   0.826 -2.7977 -1.8858 -0.1140
 6112SOL     OW29968   2.400   2.803   3.208 -0.2710  0.1867  0.4327
 6112SOL    HW129969   2.371   2.867   3.143 -0.0436 -0.1117  0.0292
 6112SOL    HW229970   2.427   2.738   3.143 -1.5279 -0.5494  0.6515
 6113SOL     OW29971   2.632   1.736   9.501  0.2628 -0.5035 -0.3442
 6113SOL    HW129972   2.698   1.699   9.560  2.3729  2.1906 -0.9969
 6113SOL    HW229973   2.630   1.824   9.538 -0.4458 -0.0255 -1.5253
 6114SOL     OW29974   2.415   1.449   5.352  0.0593 -0.2959 -0.3044
 6114SOL    HW129975   2.441   1.410   5.268  0.4792  1.0327 -0.8004
 6114SOL    HW229976   2.465   1.409   5.424 -0.2435  1.4590  0.8710
 6115SOL     OW29977   1.101   1.481   4.742 -0.5848 -0.2055  0.3727
 6115SOL    HW129978   1.102   1.527   4.826  0.3345 -2.0219  1.3596
 6115SOL    HW229979   1.065   1.396   4.768  0.2460 -0.8167 -0.4572
 6116SOL     OW29980   2.622   1.350   8.812  0.1375 -0.7313 -0.0483
 6116SOL    HW129981   2.574   1.329   8.731  0.4098  0.7476 -0.5917
 6116SOL    HW229982   2.713   1.352   8.782  0.0992 -0.4655 -0.1520
 6117SOL     OW29983   0.159   4.634  14.019 -0.3187 -0.2070  0.2840
 6117SOL    HW129984   0.083   4.675  14.059 -0.4945  0.8168 -1.0993
 6117SOL    HW229985   0.167   4.687  13.940 -0.9149 -2.5621 -1.3579
 6118SOL     OW29986   0.907   3.808   8.349  0.3426  0.5365 -0.2412
 6118SOL    HW129987   0.999   3.785   8.341  0.4903  1.2172 -0.5575
 6118SOL    HW229988   0.911   3.857   8.432  0.2824 -0.3093  0.2544
 6119SOL     OW29989   4.351   2.718  11.784 -0.0924 -0.1853 -0.1981
 6119SOL    HW129990   4.280   2.710  11.848  0.6634  3.3617  1.0290
 6119SOL    HW229991   4.382   2.629  11.765  1.5984  0.3738 -0.0754
 6120SOL     OW29992   1.517   2.972   7.895  0.0777 -0.1683  0.0689
 6120SOL    HW129993   1.425   2.955   7.916 -0.5467  1.5860 -1.2159
 6120SOL    HW229994   1.528   3.006   7.806 -1.6857  0.5352  0.1299
 6121SOL     OW29995   4.585   4.584   2.193 -0.5822  1.0937 -0.1737
 6121SOL    HW129996   4.505   4.626   2.225 -1.8427 -0.7369 -0.9670
 6121SOL    HW229997   4.564   4.492   2.203 -1.0933  1.0071 -2.1763
 6122SOL     OW29998   3.258   1.115  14.191  0.3808 -0.5704  0.4197
 6122SOL    HW129999   3.239   1.126  14.284  1.6967  2.3380  0.3458
 6122SOL    HW230000   3.341   1.066  14.192  0.9479  0.3778 -0.5716
 6123SOL     OW30001   2.148   0.891   3.885 -0.1642 -0.7111 -0.2269
 6123SOL    HW130002   2.192   0.841   3.954  2.2972 -0.3893 -1.5632
 6123SOL    HW230003   2.056   0.874   3.906 -0.9753  0.6533 -2.6562
 6124SOL     OW30004   1.619   0.366   3.471  0.8760 -0.2010  0.2046
 6124SOL    HW130005   1.712   0.365   3.450  0.8369  2.7117 -0.0709
 6124SOL    HW230006   1.626   0.292   3.532 -0.3301 -0.4394  0.0618
 6125SOL     OW30007   0.174   3.151   7.862  0.2674 -0.6872  0.3197
 6125SOL    HW130008   0.254   3.180   7.906 -0.8156  1.4050  0.9324
 6125SOL    HW230009   0.155   3.229   7.810 -2.2609 -2.0680 -0.7898
 6126SOL     OW30010   3.833   1.568   4.863  0.8891  0.8057 -0.3340
 6126SOL    HW130011   3.925   1.541   4.858  0.2969 -1.0600 -0.7003
 6126SOL    HW230012   3.854   1.661   4.877  0.1370  1.0276 -0.7052
 6127SOL     OW30013   0.745   2.342   3.993 -0.3485 -0.2003 -0.2822
 6127SOL    HW130014   0.671   2.403   3.999 -1.5753 -1.7093  0.0126
 6127SOL    HW230015   0.704   2.259   4.019 -3.8084  2.0242  1.4394
 6128SOL     OW30016   3.116   1.550   4.943  0.1846  0.3735 -0.0979
 6128SOL    HW130017   3.051   1.542   4.873  1.3204  0.0301 -1.1221
 6128SOL    HW230018   3.189   1.515   4.892 -0.2980 -1.0402  0.1801
 6129SOL     OW30019   4.424   3.668  11.750  0.5482 -0.2716 -0.2502
 6129SOL    HW130020   4.456   3.672  11.840 -1.7214  2.0323  0.4418
 6129SOL    HW230021   4.490   3.613  11.709 -2.5906 -1.7526 -3.3055
 6130SOL     OW30022   0.348   2.164  16.448 -0.1690  0.3520 -0.1069
 6130SOL    HW130023   0.358   2.256  16.470  3.2188  0.0596 -0.4246
 6130SOL    HW230024   0.269   2.143  16.497 -0.4542  0.2524 -0.6138
 6131SOL     OW30025   3.286   4.572   7.690  0.0411 -0.5262  0.0937
 6131SOL    HW130026   3.227   4.503   7.721  0.3202 -0.7508  0.1308
 6131SOL    HW230027   3.319   4.609   7.773  1.9739 -0.5162 -0.6767
 6132SOL     OW30028   3.651   2.459   4.511  0.3457  0.4603 -0.1517
 6132SOL    HW130029   3.573   2.438   4.562  0.5885  1.8357  0.7938
 6132SOL    HW230030   3.721   2.430   4.570 -2.2254 -1.2411  2.0654
 6133SOL     OW30031   1.387   3.941   9.122 -0.4800 -0.5431 -0.3794
 6133SOL    HW130032   1.440   3.876   9.169  2.7158  0.9550 -1.8640
 6133SOL    HW230033   1.372   4.001   9.195  0.4948 -0.5362 -0.1761
 6134SOL     OW30034   1.895   1.428   6.949 -0.1082 -0.2745  0.3432
 6134SOL    HW130035   1.855   1.349   6.913 -0.4317 -0.9171  2.0878
 6134SOL    HW230036   1.842   1.439   7.028 -1.4272  2.4921 -0.9296
 6135SOL     OW30037   1.338   0.928   0.703  0.1321 -0.2010 -0.1659
 6135SOL    HW130038   1.406   0.862   0.689  1.5953  0.8007  2.3516
 6135SOL    HW230039   1.347   0.976   0.621 -0.3185 -0.5619 -0.4302
 6136SOL     OW30040   3.910   2.533   3.548 -0.0987  0.0478 -0.7429
 6136SOL    HW130041   3.893   2.439   3.541 -0.3382  0.1276 -1.1823
 6136SOL    HW230042   3.938   2.561   3.461  0.5256 -0.3303 -0.6657
 6137SOL     OW30043   3.969   3.755   3.032  0.2285  0.1312 -0.3201
 6137SOL    HW130044   4.057   3.748   3.070 -0.1325  0.5116  0.5943
 6137SOL    HW230045   3.970   3.847   3.006 -2.6882  0.1999 -0.2693
 6138SOL     OW30046   4.268   3.161   3.841 -0.2389 -0.6673  0.1308
 6138SOL    HW130047   4.311   3.081   3.810  1.2693  0.8190 -1.5965
 6138SOL    HW230048   4.253   3.201   3.755  0.1055 -0.5853  0.1110
 6139SOL     OW30049   2.351   2.421   5.145  0.6296  0.6735  0.6815
 6139SOL    HW130050   2.266   2.435   5.188  1.0552 -0.2423  1.8122
 6139SOL    HW230051   2.334   2.382   5.060  1.0739 -1.3251  1.5136
 6140SOL     OW30052   3.257   1.644  15.627 -0.2770  0.4622  0.0430
 6140SOL    HW130053   3.174   1.684  15.601 -1.1940 -0.3840  1.6093
 6140SOL    HW230054   3.253   1.663  15.721  0.6748  1.3879 -0.1127
 6141SOL     OW30055   3.258   2.413  16.703  0.1385 -0.3402 -0.3779
 6141SOL    HW130056   3.187   2.384  16.646  0.6915 -0.9003 -0.7789
 6141SOL    HW230057   3.211   2.483  16.748 -0.3426  0.0412 -1.4577
 6142SOL     OW30058   1.852   0.019  17.609  0.4784  0.1525 -0.2486
 6142SOL    HW130059   1.869   4.699  17.535 -0.5287  0.2011 -0.5147
 6142SOL    HW230060   1.871   0.106  17.573  3.5862 -1.1407 -1.6938
 6143SOL     OW30061   1.493   3.687   6.809  0.3794 -0.2153 -0.1911
 6143SOL    HW130062   1.473   3.729   6.893 -1.5508 -0.3228 -0.6080
 6143SOL    HW230063   1.584   3.715   6.797 -0.2166  2.7699  2.1908
 6144SOL     OW30064   0.335   4.625   7.166  0.5930  0.1358 -0.0325
 6144SOL    HW130065   0.280   4.554   7.134  0.0881  0.2471  0.5780
 6144SOL    HW230066   0.348   4.675   7.086  1.0709  1.3827  0.8183
 6145SOL     OW30067   4.061   0.630  11.800  0.3921 -0.3960 -0.2021
 6145SOL    HW130068   3.975   0.640  11.839  0.4703 -0.5916  0.0207
 6145SOL    HW230069   4.092   0.720  11.816 -1.0780  0.0017  0.4019
 6146SOL     OW30070   1.959   3.839   6.645  0.2795  0.3349 -0.1620
 6146SOL    HW130071   1.960   3.921   6.596 -0.7633  0.5635  0.2038
 6146SOL    HW230072   2.053   3.823   6.634  0.1158 -0.4979 -0.3451
 6147SOL     OW30073   1.951   3.343   9.588 -0.5827  0.3374 -0.1445
 6147SOL    HW130074   1.900   3.295   9.523 -0.0695  1.9302 -1.7317
 6147SOL    HW230075   1.978   3.419   9.536 -2.8211  1.4414  0.3274
 6148SOL     OW30076   4.215   4.208   3.495 -0.4974 -0.3607 -0.0376
 6148SOL    HW130077   4.235   4.177   3.407 -1.5639 -1.2473  0.0312
 6148SOL    HW230078   4.213   4.303   3.485 -0.7671 -0.2546  1.1213
 6149SOL     OW30079   4.362   3.819   1.810 -0.2866  0.1934 -0.0207
 6149SOL    HW130080   4.289   3.793   1.867  1.3336  0.3004  2.1093
 6149SOL    HW230081   4.439   3.813   1.867  0.4167  2.6316 -0.7206
 6150SOL     OW30082   3.169   2.257   4.979 -0.3004 -0.0756 -0.1370
 6150SOL    HW130083   3.191   2.176   5.026  1.6871  0.6761  0.2235
 6150SOL    HW230084   3.102   2.297   5.034  0.7595  1.1484  0.2747
 6151SOL     OW30085   4.731   2.691   4.080 -0.1153  0.0129  0.1409
 6151SOL    HW130086   4.649   2.719   4.121  0.2874  0.6004  0.5499
 6151SOL    HW230087   4.694   2.666   3.995 -0.4743  0.3765  0.1863
 6152SOL     OW30088   2.418   2.346   0.771  0.0092 -0.0345  0.1367
 6152SOL    HW130089   2.480   2.314   0.836  1.2919  0.4104 -0.8781
 6152SOL    HW230090   2.435   2.300   0.689 -0.4041 -0.3663  0.2337
 6153SOL     OW30091   2.495   3.617  10.846  0.7892  0.2546 -0.1888
 6153SOL    HW130092   2.520   3.707  10.827  1.1666  0.2222  0.1401
 6153SOL    HW230093   2.451   3.594  10.765  0.8884 -3.2486  0.7339
 6154SOL     OW30094   1.307   1.237   8.285 -0.1487  0.3675  0.0486
 6154SOL    HW130095   1.281   1.154   8.324 -2.2788  1.7297  1.5098
 6154SOL    HW230096   1.275   1.299   8.351 -0.8443  0.4747 -0.3909
 6155SOL     OW30097   3.222   1.039  17.575 -0.0648 -0.0396  0.5309
 6155SOL    HW130098   3.152   1.013  17.514  2.0043  1.0220 -2.2993
 6155SOL    HW230099   3.271   1.098  17.518  2.0201 -0.0073  2.3426
 6156SOL     OW30100   0.943   1.904   3.606 -0.4018  0.5504  0.1798
 6156SOL    HW130101   0.966   1.811   3.606 -3.3683 -0.1987  0.8599
 6156SOL    HW230102   1.033   1.935   3.602  0.2988 -1.2185  2.3420
 6157SOL     OW30103   1.358   0.176  16.662 -0.0076 -0.2283  0.3468
 6157SOL    HW130104   1.287   0.183  16.598 -0.8828 -1.2859  1.2030
 6157SOL    HW230105   1.366   0.272  16.662  2.1754 -0.4130 -1.1718
 6158SOL     OW30106   2.291   3.519   7.026  0.4919 -0.7075 -0.0482
 6158SOL    HW130107   2.274   3.446   7.087  1.3656  0.5849  1.7417
 6158SOL    HW230108   2.221   3.576   7.055  2.1129  0.7830  0.9339
 6159SOL     OW30109   4.293   1.881  15.507 -0.0881  0.1472 -0.3521
 6159SOL    HW130110   4.363   1.902  15.445  1.1737 -1.3372  0.5694
 6159SOL    HW230111   4.292   1.958  15.564  0.6565 -1.1101  1.3504
 6160SOL     OW30112   0.863   3.274   8.790 -0.2912  0.5116 -0.3833
 6160SOL    HW130113   0.803   3.299   8.720 -0.6146  3.2488  0.8793
 6160SOL    HW230114   0.871   3.352   8.844 -1.7814  0.3864  0.0205
 6161SOL     OW30115   2.246   4.386   4.707  0.4664  0.3774  0.4528
 6161SOL    HW130116   2.156   4.411   4.730  1.1345  1.3121  1.9727
 6161SOL    HW230117   2.295   4.450   4.758 -1.4278  1.6258  0.7146
 6162SOL     OW30118   1.582   2.458   5.839 -0.5908 -0.2354 -0.3756
 6162SOL    HW130119   1.543   2.411   5.912  0.9526 -0.5443  0.2578
 6162SOL    HW230120   1.676   2.443   5.855 -0.2262  1.2464 -1.1202
 6163SOL     OW30121   1.292   0.125  10.919 -0.8618 -0.3898 -0.1923
 6163SOL    HW130122   1.271   0.160  10.832 -0.4122  1.3860  0.4138
 6163SOL    HW230123   1.227   0.057  10.931 -1.9562  0.8880  1.2001
 6164SOL     OW30124   2.645   3.770   1.367  0.2513  0.1982  0.0197
 6164SOL    HW130125   2.587   3.812   1.431 -0.4383 -1.3070  0.3924
 6164SOL    HW230126   2.689   3.705   1.423 -0.5172  0.2018  0.6333
 6165SOL     OW30127   0.699   1.899   1.048 -0.6229  0.2167 -0.2461
 6165SOL    HW130128   0.725   1.972   1.104  2.3367 -0.8410 -0.2253
 6165SOL    HW230129   0.614   1.935   1.022 -0.9341 -0.3020  0.0571
 6166SOL     OW30130   3.191   0.612   0.412  0.0589  0.0462 -0.0336
 6166SOL    HW130131   3.136   0.644   0.341  0.2961  1.9118  0.6063
 6166SOL    HW230132   3.180   0.671   0.487  0.6251 -0.1580  0.2112
 6167SOL     OW30133   2.182   0.212   8.618 -0.3190  0.2397 -0.6905
 6167SOL    HW130134   2.196   0.234   8.710  0.8141  2.1590 -1.3280
 6167SOL    HW230135   2.176   0.297   8.575  1.1320 -0.5454 -2.4333
 6168SOL     OW30136   0.207   3.469   7.327  0.4942  0.1948  0.0608
 6168SOL    HW130137   0.182   3.531   7.396 -0.3204 -1.3900  1.2108
 6168SOL    HW230138   0.219   3.519   7.247 -0.5572 -0.4683 -0.5091
 6169SOL     OW30139   0.001   1.396   2.488 -0.4170  0.0269 -0.9830
 6169SOL    HW130140   4.719   1.331   2.421  1.0117 -0.6205 -0.7695
 6169SOL    HW230141   0.097   1.392   2.488 -0.4281 -0.3120 -0.1103
 6170SOL     OW30142   3.186   3.771   1.153  0.0993 -0.4687 -0.2357
 6170SOL    HW130143   3.153   3.719   1.226  2.1292  0.3170  1.2515
 6170SOL    HW230144   3.103   3.780   1.106 -1.3357  0.0170  2.3823
 6171SOL     OW30145   2.458   1.167   1.426  0.5196  0.4555  0.3666
 6171SOL    HW130146   2.528   1.150   1.363 -0.0474 -0.0756 -0.1159
 6171SOL    HW230147   2.390   1.208   1.372  0.9430 -0.2079 -0.6504
 6172SOL     OW30148   3.667   0.345   3.493  0.3143  0.5774  0.2214
 6172SOL    HW130149   3.611   0.347   3.415 -0.0950  3.0870  0.5900
 6172SOL    HW230150   3.657   0.435   3.523 -1.7549 -0.7253  3.4322
 6173SOL     OW30151   0.316   2.328   0.084 -0.5466 -0.1615  0.1701
 6173SOL    HW130152   0.310   2.377   0.166  0.4278 -1.7424  1.1971
 6173SOL    HW230153   0.318   2.236   0.113  0.9932 -0.0120  0.5347
 6174SOL     OW30154   1.797   1.190   3.739 -0.0023  0.1954 -0.2258
 6174SOL    HW130155   1.752   1.273   3.722  1.3878  0.8582 -0.6999
 6174SOL    HW230156   1.820   1.198   3.831 -0.5128  0.5895 -0.1310
 6175SOL     OW30157   2.162   4.709   3.276 -0.5735 -0.0735 -0.0852
 6175SOL    HW130158   2.107   4.640   3.240 -0.1240  1.6301 -4.1574
 6175SOL    HW230159   2.133   0.047   3.224  1.1542 -0.6795 -1.9304
 6176SOL     OW30160   1.816   3.022  10.431 -0.1649 -0.0687 -0.3039
 6176SOL    HW130161   1.874   2.987  10.499 -1.3114 -0.3226  0.5586
 6176SOL    HW230162   1.730   3.006  10.469 -0.8797  1.3697 -1.3022
 6177SOL     OW30163   1.969   1.509   8.311 -0.0461  0.2283 -0.4084
 6177SOL    HW130164   1.897   1.543   8.258  0.3867  0.6504 -0.7113
 6177SOL    HW230165   1.986   1.426   8.267 -2.3123 -0.1678 -0.5319
 6178SOL     OW30166   2.267   2.702   6.841  0.5540 -0.1061  0.0773
 6178SOL    HW130167   2.174   2.703   6.819  0.4298 -0.4080  0.5981
 6178SOL    HW230168   2.264   2.608   6.863 -0.4983 -0.1244 -0.1554
 6179SOL     OW30169   2.772   4.031   3.565 -0.3725  0.6102  0.2748
 6179SOL    HW130170   2.758   3.999   3.654  2.3442 -1.5681 -0.0766
 6179SOL    HW230171   2.687   4.020   3.522  0.5672 -0.9100 -1.1735
 6180SOL     OW30172   2.573   1.578   2.116  0.3293 -0.1622  0.3823
 6180SOL    HW130173   2.544   1.525   2.191  1.5201  0.7155  1.4681
 6180SOL    HW230174   2.589   1.511   2.049  2.3345  2.3011 -1.5953
 6181SOL     OW30175   1.633   2.800  12.026  0.1765  0.0713 -0.1107
 6181SOL    HW130176   1.566   2.863  12.051 -0.3367 -0.2435 -0.6990
 6181SOL    HW230177   1.662   2.774  12.113 -0.3738  1.7478  0.5696
 6182SOL     OW30178   3.199   0.656  16.561 -0.0216 -0.2032  0.5461
 6182SOL    HW130179   3.277   0.642  16.507 -0.9504  0.2233 -0.8858
 6182SOL    HW230180   3.178   0.748  16.545 -0.2409  0.0788  2.4490
 6183SOL     OW30181   2.954   0.596   3.482 -0.2670 -0.4255 -0.1336
 6183SOL    HW130182   3.005   0.533   3.533  0.0106 -1.7627 -2.0473
 6183SOL    HW230183   2.863   0.574   3.503 -0.2525  0.3041  0.6873
 6184SOL     OW30184   3.441   3.015  12.673  0.9446  0.1453  0.1563
 6184SOL    HW130185   3.435   2.970  12.589  0.2221  1.3983 -0.4505
 6184SOL    HW230186   3.453   3.106  12.646  0.7202 -0.7917 -3.0711
 6185SOL     OW30187   3.742   1.789   0.558 -0.3664 -0.4017  0.1409
 6185SOL    HW130188   3.686   1.860   0.527 -1.7388 -2.0005 -1.0155
 6185SOL    HW230189   3.822   1.830   0.526 -0.5088  0.5901  1.0523
 6186SOL     OW30190   0.081   2.183  14.601  0.2647  0.0359 -0.3081
 6186SOL    HW130191   0.076   2.088  14.589 -3.0645  0.1428  0.2683
 6186SOL    HW230192   0.016   2.207  14.666  0.0527 -1.2475 -0.0362
 6187SOL     OW30193   1.442   0.131   0.943  0.6184  0.3401 -0.0627
 6187SOL    HW130194   1.402   0.045   0.959 -0.2420  0.9654  1.1416
 6187SOL    HW230195   1.395   0.194   0.998  2.0250  0.9570  0.4258
 6188SOL     OW30196   1.007   1.125  14.551 -0.2666 -0.0249 -0.4599
 6188SOL    HW130197   0.921   1.115  14.592  0.5947 -1.5997  0.9115
 6188SOL    HW230198   0.989   1.086  14.466  0.9440  0.9042 -1.1516
 6189SOL     OW30199   3.835   4.009  10.108 -0.0112 -0.3824  0.3005
 6189SOL    HW130200   3.923   3.971  10.107 -0.0725 -0.4432 -1.2836
 6189SOL    HW230201   3.853   4.071  10.179 -4.4040  0.6831  0.4706
 6190SOL     OW30202   0.485   3.579   2.196  0.3451 -0.6174 -0.7395
 6190SOL    HW130203   0.527   3.665   2.208  0.2057 -0.2601 -2.8632
 6190SOL    HW230204   0.396   3.604   2.173  0.0640 -1.4923 -0.5921
 6191SOL     OW30205   0.910   3.453   3.737 -0.3856 -0.6767  0.6155
 6191SOL    HW130206   0.885   3.518   3.671  2.1608  0.0065  0.3227
 6191SOL    HW230207   0.831   3.400   3.725  0.9957 -2.8139  0.9806
 6192SOL     OW30208   2.610   0.308   0.837 -0.3287  0.0557  0.3854
 6192SOL    HW130209   2.529   0.348   0.868 -1.3426 -0.8475 -1.1123
 6192SOL    HW230210   2.604   0.220   0.875 -1.9929 -0.4121 -0.9633
 6193SOL     OW30211   1.435   0.711   5.698 -0.0152 -0.6152  0.5119
 6193SOL    HW130212   1.386   0.629   5.703 -3.2615  1.2494 -0.5418
 6193SOL    HW230213   1.366   0.774   5.676  1.4869  0.5590 -0.8092
 6194SOL     OW30214   4.430   4.097   6.546 -0.3586  0.3596  0.1692
 6194SOL    HW130215   4.461   4.025   6.601  0.2180 -0.2731 -0.9740
 6194SOL    HW230216   4.409   4.059   6.461 -0.7324  0.6804  0.1185
 6195SOL     OW30217   3.762   0.544   0.650  0.3731 -0.7664  0.7310
 6195SOL    HW130218   3.826   0.486   0.610 -0.2966 -1.2342  0.3425
 6195SOL    HW230219   3.686   0.487   0.664  0.1017 -0.3102  1.1252
 6196SOL     OW30220   2.182   3.734   6.046  0.1736  0.6874 -0.5616
 6196SOL    HW130221   2.136   3.794   6.105 -0.2033  0.6164 -0.7859
 6196SOL    HW230222   2.113   3.705   5.986  2.4472 -1.8121 -1.9915
 6197SOL     OW30223   3.201   3.800   9.904 -0.0671  0.0412 -0.6594
 6197SOL    HW130224   3.109   3.821   9.888 -0.2825 -1.2810 -1.1417
 6197SOL    HW230225   3.250   3.874   9.867 -1.4231  0.9021 -0.7025
 6198SOL     OW30226   4.151   1.716   5.076  0.3923  0.3151  0.8526
 6198SOL    HW130227   4.072   1.768   5.089 -1.0111 -1.2369 -1.3453
 6198SOL    HW230228   4.220   1.782   5.076  1.1188 -0.4303 -1.8834
 6199SOL     OW30229   0.096   2.828   6.419 -0.4094 -1.3422 -0.5302
 6199SOL    HW130230   0.175   2.876   6.444  0.4679 -1.8744 -2.3438
 6199SOL    HW230231   0.121   2.749   6.467 -1.1266 -0.9545  0.4805
 6200SOL     OW30232   2.276   4.617   2.548 -0.2113  0.5836  0.3607
 6200SOL    HW130233   2.331   4.621   2.470 -0.5793  4.2235  0.2751
 6200SOL    HW230234   2.249   4.705   2.574  4.7428  1.8637  1.1059
 6201SOL     OW30235   3.372   1.507   4.200  0.1788 -0.2863 -0.1981
 6201SOL    HW130236   3.297   1.551   4.161  0.5308 -0.9205 -1.5657
 6201SOL    HW230237   3.399   1.447   4.130 -0.0239  0.9688 -1.3470
 6202SOL     OW30238   4.406   3.446   7.861  0.2999  0.0555  0.1594
 6202SOL    HW130239   4.497   3.418   7.876  0.6116  1.0583  0.1126
 6202SOL    HW230240   4.388   3.470   7.952  0.3845 -1.1699  0.4988
 6203SOL     OW30241   3.200   3.292  11.661  0.0251  0.1704 -0.8712
 6203SOL    HW130242   3.129   3.290  11.596 -1.3894 -0.9309  0.7166
 6203SOL    HW230243   3.241   3.378  11.651 -0.2906  0.2269 -1.6954
 6204SOL     OW30244   2.630   4.323   3.239  0.3474 -0.2781 -0.0050
 6204SOL    HW130245   2.691   4.334   3.312 -2.2376 -0.8258  2.2163
 6204SOL    HW230246   2.550   4.343   3.287  0.2450  0.9257 -0.6770
 6205SOL     OW30247   0.186   3.345   2.331  0.0099 -0.1796 -0.4983
 6205SOL    HW130248   0.241   3.398   2.388 -2.2728  2.2208 -0.5623
 6205SOL    HW230249   0.231   3.329   2.247 -0.7689  0.4580 -1.0335
 6206SOL     OW30250   1.682   3.306   7.488 -0.4399 -0.3232  0.5721
 6206SOL    HW130251   1.777   3.297   7.488 -0.3697  0.5268  2.0922
 6206SOL    HW230252   1.671   3.362   7.412 -2.2994 -0.5612  0.6674
 6207SOL     OW30253   1.311   1.196   9.080  0.2062  0.2499 -0.0960
 6207SOL    HW130254   1.338   1.114   9.122 -1.8017 -0.8464 -0.9116
 6207SOL    HW230255   1.326   1.264   9.144  2.4859 -1.5491  1.2697
 6208SOL     OW30256   3.285   3.338   8.496  0.1306  0.3222 -0.2427
 6208SOL    HW130257   3.293   3.306   8.406  1.5565  1.6711 -0.6010
 6208SOL    HW230258   3.367   3.382   8.517 -0.8194  1.0847  1.8129
 6209SOL     OW30259   1.499   1.960   5.113 -0.8930 -0.2394  0.4720
 6209SOL    HW130260   1.557   1.990   5.043 -0.3444 -0.5532  0.7899
 6209SOL    HW230261   1.502   2.035   5.173 -0.2524  2.7358 -3.2968
 6210SOL     OW30262   0.881   2.631   3.636 -0.2452 -0.8785 -0.1705
 6210SOL    HW130263   0.936   2.554   3.644 -0.2010 -0.9074 -0.7859
 6210SOL    HW230264   0.819   2.615   3.708  1.5503 -0.8202  1.4105
 6211SOL     OW30265   2.409   2.158   1.653  0.3938 -0.4044  0.3277
 6211SOL    HW130266   2.469   2.227   1.685  0.3780  0.0021 -0.5263
 6211SOL    HW230267   2.471   2.095   1.616  0.1732  0.0956 -0.8834
 6212SOL     OW30268   4.694   2.057  10.548 -0.6646 -0.0508 -0.3490
 6212SOL    HW130269   4.723   2.130  10.602 -3.8351  0.7977  0.2073
 6212SOL    HW230270   4.709   2.089  10.459  0.1914  0.2968 -0.0783
 6213SOL     OW30271   2.203   1.101   1.623 -0.2806  0.4628  0.1262
 6213SOL    HW130272   2.182   1.121   1.532  2.7669 -3.2992 -1.3932
 6213SOL    HW230273   2.285   1.054   1.611  0.2115  1.5796 -0.8663
 6214SOL     OW30274   1.472   1.052   6.090 -0.3367  0.2889  0.3095
 6214SOL    HW130275   1.409   1.005   6.145  0.0161  0.3493  0.7680
 6214SOL    HW230276   1.539   0.983   6.083 -1.0502 -0.3693 -0.0856
 6215SOL     OW30277   2.395   2.451   1.614  0.0110 -0.2613 -0.2384
 6215SOL    HW130278   2.335   2.382   1.586 -0.9772  0.5695 -0.1589
 6215SOL    HW230279   2.353   2.472   1.697 -0.3875  0.0881 -0.5282
 6216SOL     OW30280   2.622   3.919   4.604  0.2604 -0.1230  0.1205
 6216SOL    HW130281   2.643   3.898   4.695 -1.9278 -3.8199 -0.2232
 6216SOL    HW230282   2.625   3.829   4.570  1.5894  0.0820 -0.2994
 6217SOL     OW30283   4.077   1.997  16.679 -0.1280  0.5079 -0.3893
 6217SOL    HW130284   4.096   1.927  16.741  1.7534 -1.8514 -3.6698
 6217SOL    HW230285   4.032   2.063  16.733  1.6649 -0.0996  1.8730
 6218SOL     OW30286   2.060   3.290  16.253 -0.1693  0.6349 -0.2381
 6218SOL    HW130287   2.136   3.344  16.271  0.3123  0.0089 -0.4014
 6218SOL    HW230288   1.995   3.340  16.302  1.0961  1.6775  0.3543
 6219SOL     OW30289   2.222   0.147   2.625 -0.3815  0.2515  0.0911
 6219SOL    HW130290   2.128   0.134   2.611 -0.7450  0.5936  2.1540
 6219SOL    HW230291   2.223   0.220   2.687  1.7131 -0.0780  0.4309
 6220SOL     OW30292   2.904   2.247  10.727 -0.1379 -0.3502 -0.0643
 6220SOL    HW130293   2.834   2.303  10.695 -0.0315 -1.7317 -2.7574
 6220SOL    HW230294   2.913   2.184  10.655 -2.6456  0.4031 -1.0475
 6221SOL     OW30295   1.768   3.641  10.691 -0.0726  0.4270  0.8510
 6221SOL    HW130296   1.725   3.724  10.709  0.2678  0.2083  2.7355
 6221SOL    HW230297   1.697   3.604  10.639 -0.6519  0.7293  1.4364
 6222SOL     OW30298   3.798   0.265  14.315  0.1983 -0.1476  0.0287
 6222SOL    HW130299   3.775   0.194  14.375  1.3978  1.2707  2.1895
 6222SOL    HW230300   3.790   0.231  14.226 -2.5976 -1.0417  0.6233
 6223SOL     OW30301   0.888   1.485   5.017  0.0772  0.3194 -0.2017
 6223SOL    HW130302   0.809   1.527   5.049 -0.6427  0.5078 -2.1891
 6223SOL    HW230303   0.955   1.529   5.070 -1.4188  1.9080  0.3489
 6224SOL     OW30304   4.504   2.424  16.520 -0.0405  0.3027 -0.2629
 6224SOL    HW130305   4.482   2.457  16.433  1.4924  0.9985 -0.3849
 6224SOL    HW230306   4.454   2.343  16.505  1.2534 -0.4935 -0.3035
 6225SOL     OW30307   0.922   0.231   4.029  0.2872  0.4639 -0.8673
 6225SOL    HW130308   0.965   0.309   4.062 -0.2707  0.1832  0.5287
 6225SOL    HW230309   0.846   0.227   4.088  1.2471  2.6698  0.5134
 6226SOL     OW30310   3.295   4.654   8.620 -0.1739  0.5423  0.4045
 6226SOL    HW130311   3.265   4.563   8.625 -0.8343  0.7507  0.2558
 6226SOL    HW230312   3.242   4.682   8.695 -1.1844  2.3519 -0.9880
 6227SOL     OW30313   4.016   4.586   1.732  0.4261 -0.0600  0.3115
 6227SOL    HW130314   4.090   4.628   1.775  1.1658 -0.3964 -0.6418
 6227SOL    HW230315   3.980   4.654   1.674  0.2740 -0.4891 -0.0938
 6228SOL     OW30316   1.029   2.717   2.716 -0.0109  0.3728 -0.6056
 6228SOL    HW130317   0.965   2.784   2.692 -1.8225 -0.1414  2.7611
 6228SOL    HW230318   1.021   2.738   2.809  2.0519  3.3324 -1.0902
 6229SOL     OW30319   2.628   4.696   4.606  0.6800 -0.0820  0.6074
 6229SOL    HW130320   2.629   4.624   4.669  1.1173 -0.1314  0.5370
 6229SOL    HW230321   2.618   0.032   4.668  3.0655  0.7443  0.0234
 6230SOL     OW30322   2.404   3.358   5.484  0.1894 -0.3077 -0.1852
 6230SOL    HW130323   2.388   3.322   5.396 -4.2267 -0.4507  0.6646
 6230SOL    HW230324   2.489   3.321   5.508 -0.3966  0.1321  2.5415
 6231SOL     OW30325   3.532   1.484   3.656 -0.3538 -0.1876  0.0538
 6231SOL    HW130326   3.550   1.569   3.698  1.2967  0.0898 -1.2231
 6231SOL    HW230327   3.613   1.459   3.612  0.8190  0.2179  1.9705
 6232SOL     OW30328   1.502   1.235   2.015 -0.6671 -0.3531  0.3188
 6232SOL    HW130329   1.485   1.248   1.922 -0.8769 -0.1897  0.3788
 6232SOL    HW230330   1.572   1.298   2.033  0.6573 -1.2395 -1.6811
 6233SOL     OW30331   0.621   1.480   5.649  0.3821 -0.0098 -0.0499
 6233SOL    HW130332   0.569   1.402   5.670  2.8895 -1.6701 -0.0651
 6233SOL    HW230333   0.647   1.463   5.559 -0.6726  1.0008 -0.5392
 6234SOL     OW30334   1.094   3.645   2.777 -0.3281  0.0432  0.4854
 6234SOL    HW130335   1.113   3.664   2.685  2.4256 -0.8575  0.8677
 6234SOL    HW230336   1.049   3.725   2.803  0.0668  0.3599  0.2044
 6235SOL     OW30337   2.927   3.143   9.486  0.0434  0.1645  0.2164
 6235SOL    HW130338   2.965   3.223   9.449  1.0188 -0.0188  0.8223
 6235SOL    HW230339   2.927   3.151   9.581  2.6303  0.5183  0.1880
 6236SOL     OW30340   3.708   1.166   3.531  0.0348  0.9842  0.1922
 6236SOL    HW130341   3.683   1.183   3.621 -1.4159 -0.4622  0.0547
 6236SOL    HW230342   3.712   1.253   3.491 -0.4320  1.6386  1.5802
 6237SOL     OW30343   2.276   2.751   8.058 -0.2454  0.1634 -0.0631
 6237SOL    HW130344   2.351   2.693   8.047 -0.0097  0.6853 -1.2292
 6237SOL    HW230345   2.268   2.743   8.153 -2.6381  2.5885 -0.0598
 6238SOL     OW30346   2.701   3.067  14.439 -0.7230 -0.4884  0.3421
 6238SOL    HW130347   2.720   3.112  14.357  0.5494 -2.1297 -0.2717
 6238SOL    HW230348   2.724   2.977  14.415  0.5087 -0.6184  1.9729
 6239SOL     OW30349   0.100   3.919   0.071 -0.4449  0.1267 -0.0519
 6239SOL    HW130350   0.106   3.885   0.160 -1.2944 -2.6838 -1.0774
 6239SOL    HW230351   0.192   3.929   0.049 -0.7401  0.9629 -0.9503
 6240SOL     OW30352   4.447   2.624   1.339  0.0935  0.0488 -0.0253
 6240SOL    HW130353   4.424   2.532   1.339  1.7583 -0.3695  0.4170
 6240SOL    HW230354   4.543   2.618   1.334  0.0336 -1.3451  0.5375
 6241SOL     OW30355   1.916   0.610   3.256  0.2204 -0.1628  0.0888
 6241SOL    HW130356   1.901   0.554   3.180 -0.0761  0.0361  0.0003
 6241SOL    HW230357   1.830   0.607   3.299  0.2145 -0.0813  0.0826
 6242SOL     OW30358   1.491   4.460  11.236  0.4015  0.3708  0.5069
 6242SOL    HW130359   1.545   4.536  11.258 -0.2542  1.3809 -1.3456
 6242SOL    HW230360   1.412   4.488  11.281 -0.8103  0.4210 -1.6678
 6243SOL     OW30361   2.066   1.312   3.524 -0.5715  0.1149 -0.3122
 6243SOL    HW130362   2.013   1.377   3.570 -0.0864  0.8904 -0.8553
 6243SOL    HW230363   2.028   1.311   3.437 -0.7746 -1.7905 -0.2075
 6244SOL     OW30364   2.666   2.220   0.440  0.0131 -0.1175 -0.5719
 6244SOL    HW130365   2.627   2.301   0.409 -2.7978 -2.2813 -2.6653
 6244SOL    HW230366   2.598   2.172   0.487  0.2775  1.3146  1.2512
 6245SOL     OW30367   1.005   4.541  12.848 -0.1276 -0.0501 -0.4706
 6245SOL    HW130368   0.939   4.473  12.866 -1.1739  1.1556  0.2061
 6245SOL    HW230369   1.083   4.486  12.852 -0.6483 -0.8016 -0.5557
 6246SOL     OW30370   0.772   1.780   3.024  0.4154  0.4063 -0.5191
 6246SOL    HW130371   0.689   1.745   2.991 -0.0433  2.5580 -1.6234
 6246SOL    HW230372   0.757   1.873   3.008  0.9402  0.8937  1.8403
 6247SOL     OW30373   4.641   0.632   5.071  0.2810 -0.4703  0.1760
 6247SOL    HW130374   4.581   0.702   5.044  0.5058  0.1984  1.4275
 6247SOL    HW230375   4.674   0.625   4.981  0.6822  1.0355  0.2023
 6248SOL     OW30376   3.178   0.954  10.632 -0.4478  0.4650 -0.4369
 6248SOL    HW130377   3.138   0.898  10.566 -1.6212  2.3483 -1.3122
 6248SOL    HW230378   3.108   1.010  10.666 -1.2576  0.1102 -1.5350
 6249SOL     OW30379   2.716   1.983   8.191 -0.4668 -0.4167 -0.4208
 6249SOL    HW130380   2.622   1.968   8.188 -0.4440 -0.4438 -1.0472
 6249SOL    HW230381   2.740   1.960   8.281  0.9169  2.6678  0.0071
 6250SOL     OW30382   2.466   1.302   7.988 -0.2007  0.7138  0.2296
 6250SOL    HW130383   2.456   1.215   7.950  0.1179  1.2380 -1.0745
 6250SOL    HW230384   2.411   1.358   7.932 -0.2639 -0.7823 -1.1878
 6251SOL     OW30385   2.521   4.605  10.282 -0.5444  0.0622  0.3436
 6251SOL    HW130386   2.551   4.531  10.334 -0.5922 -1.3204 -1.5844
 6251SOL    HW230387   2.577   4.680  10.301  0.8466 -0.1347 -3.0059
 6252SOL     OW30388   2.922   0.212   1.602 -0.7875  0.3049  0.1394
 6252SOL    HW130389   2.910   0.301   1.636 -2.0765 -0.2430  1.0861
 6252SOL    HW230390   2.832   0.181   1.608 -0.2833 -0.6688  2.3822
 6253SOL     OW30391   2.464   0.369   3.884 -0.1077  0.1912 -0.4102
 6253SOL    HW130392   2.423   0.284   3.867  0.9123 -0.5962  1.0720
 6253SOL    HW230393   2.470   0.377   3.980  2.1185 -1.3180 -0.4345
 6254SOL     OW30394   1.857   2.800   9.553 -0.3020 -0.4156  0.1907
 6254SOL    HW130395   1.899   2.792   9.639  1.1324 -0.0476 -0.4599
 6254SOL    HW230396   1.937   2.808   9.500 -0.4251  0.5488  0.1494
 6255SOL     OW30397   4.642   1.851  10.727 -0.7967  0.7310  0.4071
 6255SOL    HW130398   4.665   1.923  10.668 -0.6716  0.7429  0.4706
 6255SOL    HW230399   4.638   1.783  10.659  1.2727  2.5639 -1.5318
 6256SOL     OW30400   0.560   4.367   4.278 -0.2331 -0.0741  0.1708
 6256SOL    HW130401   0.581   4.275   4.265 -0.8124 -0.0694 -0.8491
 6256SOL    HW230402   0.495   4.378   4.208  0.5933 -0.3455 -0.6433
 6257SOL     OW30403   2.775   3.487   8.349  0.2166 -0.0279  0.5563
 6257SOL    HW130404   2.689   3.457   8.319  0.7417 -0.4753 -0.4744
 6257SOL    HW230405   2.781   3.460   8.441  2.6396  3.0430  1.3220
 6258SOL     OW30406   1.531   2.270   5.203  0.5193 -0.0792  0.1665
 6258SOL    HW130407   1.622   2.253   5.228 -0.1201 -0.3578  2.3161
 6258SOL    HW230408   1.532   2.366   5.207 -0.4398  0.0523 -2.9849
 6259SOL     OW30409   4.089   0.829  10.103  0.1982 -0.2898 -0.6515
 6259SOL    HW130410   4.092   0.814  10.008 -2.0264 -2.3526 -0.3929
 6259SOL    HW230411   3.996   0.812  10.115  0.1412 -1.5623 -2.7805
 6260SOL     OW30412   1.049   3.577   4.559 -0.1603  0.8715  0.1486
 6260SOL    HW130413   1.067   3.652   4.616 -0.3827  0.7953  0.3183
 6260SOL    HW230414   1.072   3.503   4.615  0.6669  0.1702 -1.1288
 6261SOL     OW30415   2.756   1.543   7.848 -0.5063  0.1096  0.1030
 6261SOL    HW130416   2.757   1.448   7.859  0.6143  0.0659 -0.3786
 6261SOL    HW230417   2.842   1.567   7.883  0.0163  2.1138 -2.5487
 6262SOL     OW30418   0.662   3.145   1.466  0.0764 -0.0661 -0.7265
 6262SOL    HW130419   0.720   3.089   1.414 -1.9334 -0.9542 -1.9794
 6262SOL    HW230420   0.604   3.077   1.498  0.9152 -0.2254  0.4447
 6263SOL     OW30421   3.795   0.904  16.789  0.2344 -0.2879  0.4704
 6263SOL    HW130422   3.724   0.841  16.776  0.8102 -0.3084 -2.5848
 6263SOL    HW230423   3.815   0.920  16.696  2.3266 -0.6979  0.8415
 6264SOL     OW30424   4.440   3.769  14.328 -0.0990 -0.0356 -0.1106
 6264SOL    HW130425   4.419   3.735  14.415  0.5311  2.1130  0.8841
 6264SOL    HW230426   4.395   3.707  14.270 -0.3150 -0.8686  0.9597
 6265SOL     OW30427   3.593   0.434   2.477 -0.2663  0.1419  0.4591
 6265SOL    HW130428   3.558   0.522   2.464  0.7454  0.4670 -0.0599
 6265SOL    HW230429   3.583   0.413   2.384  0.6448  1.0455  0.1671
 6266SOL     OW30430   0.221   0.684   5.760  0.4955  0.0636  0.0554
 6266SOL    HW130431   0.264   0.757   5.716  0.0832 -1.7992 -3.4544
 6266SOL    HW230432   0.165   0.735   5.819 -1.3529 -1.7697 -0.1121
 6267SOL     OW30433   3.825   3.674  17.510  0.8306  0.3911 -0.4576
 6267SOL    HW130434   3.893   3.724  17.465  1.7426 -2.3619 -2.1219
 6267SOL    HW230435   3.788   3.736  17.572  1.8229  0.1741  0.3378
 6268SOL     OW30436   0.726   4.224   1.442 -0.0272 -0.4594 -0.7589
 6268SOL    HW130437   0.773   4.306   1.428 -2.0890  0.7433 -0.6146
 6268SOL    HW230438   0.680   4.205   1.361 -3.3407 -2.7435  1.6671
 6269SOL     OW30439   1.555   0.659   2.984 -0.5327 -0.3724  0.1238
 6269SOL    HW130440   1.517   0.573   3.004  1.8628 -1.2877  0.6442
 6269SOL    HW230441   1.604   0.645   2.904 -1.1026  2.1548 -0.6529
 6270SOL     OW30442   1.671   0.083   6.084  0.0322 -0.3025 -0.4100
 6270SOL    HW130443   1.716   0.045   6.009  1.6656  0.5084  0.1663
 6270SOL    HW230444   1.611   0.014   6.110  0.4155 -0.1757  0.7868
 6271SOL     OW30445   0.342   2.574   6.356  0.5479  0.4694 -0.3977
 6271SOL    HW130446   0.279   2.567   6.427  0.6694 -6.3056 -0.9844
 6271SOL    HW230447   0.280   2.601   6.289  1.5104 -1.2372 -1.9836
 6272SOL     OW30448   4.610   1.513  12.150  0.0470 -0.1392 -0.3339
 6272SOL    HW130449   4.540   1.541  12.208 -0.9717 -0.2138 -1.5192
 6272SOL    HW230450   4.573   1.429  12.123 -0.1615  0.1346 -0.9141
 6273SOL     OW30451   2.382   0.047   6.584 -0.6637 -0.1537  0.2871
 6273SOL    HW130452   2.341   4.699   6.566 -0.3233  0.2677 -2.5896
 6273SOL    HW230453   2.325   0.082   6.652  0.9746  1.7139  0.7227
 6274SOL     OW30454   1.696   2.838   1.758  0.7222  0.3648  0.2826
 6274SOL    HW130455   1.786   2.865   1.741  1.0292 -1.1083 -0.4778
 6274SOL    HW230456   1.703   2.746   1.785 -0.9572  0.5284  1.2870
 6275SOL     OW30457   4.018   1.824   3.081  0.6348 -0.0428  0.0217
 6275SOL    HW130458   4.081   1.877   3.131 -1.3098  1.0368  1.3230
 6275SOL    HW230459   4.088   1.763   3.056  0.6844 -0.5924  1.4786
 6276SOL     OW30460   3.186   3.077   5.682 -0.2245 -0.2521  0.0516
 6276SOL    HW130461   3.102   3.107   5.715  0.7538  1.7417  0.7288
 6276SOL    HW230462   3.214   3.156   5.635  1.1955 -0.5057  0.4716
 6277SOL     OW30463   0.405   1.821   3.402 -0.1389  0.0664  0.5548
 6277SOL    HW130464   0.436   1.757   3.338  0.1104  1.6839 -0.9185
 6277SOL    HW230465   0.489   1.856   3.432  1.6843 -2.0384 -2.0434
 6278SOL     OW30466   0.362   1.489   7.470 -0.1963  0.2203  0.2838
 6278SOL    HW130467   0.298   1.532   7.527  0.1404 -0.2973  1.0490
 6278SOL    HW230468   0.443   1.531   7.499  0.1471 -0.3461  0.1402
 6279SOL     OW30469   1.942   3.327   6.507 -0.3280  0.8009 -0.0327
 6279SOL    HW130470   1.856   3.360   6.533 -1.8079 -1.1933 -2.3332
 6279SOL    HW230471   1.981   3.406   6.470 -1.5277  0.9776 -0.9153
 6280SOL     OW30472   0.221   1.812   2.876 -0.0547 -0.8185  0.3208
 6280SOL    HW130473   0.166   1.878   2.835 -1.2351 -0.4819  2.4589
 6280SOL    HW230474   0.259   1.852   2.954 -0.6089  1.0871 -0.3948
 6281SOL     OW30475   3.576   2.508   2.893  0.1748 -0.1496  0.1328
 6281SOL    HW130476   3.534   2.514   2.979 -0.1492 -0.1105 -0.0302
 6281SOL    HW230477   3.639   2.579   2.906 -1.8202  1.6015  0.0970
 6282SOL     OW30478   3.115   0.827   3.278 -0.3566 -0.7255 -0.5283
 6282SOL    HW130479   3.064   0.800   3.354 -1.7276 -0.8156 -1.4651
 6282SOL    HW230480   3.188   0.768   3.293 -0.9945 -2.5850 -4.6671
 6283SOL     OW30481   3.791   4.162  10.946 -0.3141  0.0342  0.3268
 6283SOL    HW130482   3.843   4.233  10.909 -0.0380 -0.3609 -0.0467
 6283SOL    HW230483   3.809   4.180  11.038  0.1320  1.2611  0.0067
 6284SOL     OW30484   3.471   3.815  12.101 -0.3282 -0.0363  0.6119
 6284SOL    HW130485   3.396   3.761  12.127 -1.1228  0.1420 -1.2924
 6284SOL    HW230486   3.524   3.801  12.179  1.0749  0.3084 -0.2838
 6285SOL     OW30487   0.170   1.361   6.746 -0.2438 -0.1472 -0.2866
 6285SOL    HW130488   0.102   1.295   6.733 -2.2295  1.9508 -0.5227
 6285SOL    HW230489   0.154   1.388   6.837  1.5026  2.0523 -0.6405
 6286SOL     OW30490   4.054   3.901   6.330 -0.4838 -0.1956 -0.0096
 6286SOL    HW130491   4.024   3.813   6.306  2.0427 -1.3093  1.0125
 6286SOL    HW230492   4.095   3.876   6.412  2.4500  1.9219 -0.8560
 6287SOL     OW30493   0.788   3.123   4.157 -0.1927  0.1977  0.4087
 6287SOL    HW130494   0.779   3.099   4.065 -0.7681 -0.3865  0.6165
 6287SOL    HW230495   0.700   3.103   4.189 -0.3217 -1.7746 -1.1952
 6288SOL     OW30496   2.216   3.997   8.202  0.1968  0.2724 -0.2326
 6288SOL    HW130497   2.178   3.986   8.289 -1.1682  1.3919 -0.7017
 6288SOL    HW230498   2.144   4.035   8.152 -0.6340 -0.8340  0.1136
 6289SOL     OW30499   3.323   3.213   8.262 -0.4884  0.2121 -0.1008
 6289SOL    HW130500   3.304   3.130   8.218 -1.8740  0.6261 -0.2863
 6289SOL    HW230501   3.419   3.215   8.264 -0.5107 -0.0661  1.5360
 6290SOL     OW30502   4.341   4.532   9.234 -0.5682 -0.0621 -0.0513
 6290SOL    HW130503   4.404   4.461   9.240 -0.2408  0.1992 -0.4273
 6290SOL    HW230504   4.320   4.564   9.323  0.0067 -1.6640  0.6561
 6291SOL     OW30505   2.453   4.012   9.043  0.4305  0.0250 -0.1939
 6291SOL    HW130506   2.421   3.953   8.974  1.0539 -0.5874  0.0334
 6291SOL    HW230507   2.416   4.097   9.020  1.6418  0.6224  0.0408
 6292SOL     OW30508   0.786   2.340  16.513  0.5852  0.1790 -0.0277
 6292SOL    HW130509   0.810   2.308  16.426 -0.8557 -0.5112 -0.1601
 6292SOL    HW230510   0.777   2.434  16.498 -1.9123  0.0320  0.5817
 6293SOL     OW30511   3.521   1.875   7.201 -0.6431  0.0537  0.1614
 6293SOL    HW130512   3.593   1.832   7.153  0.8555  0.9034  1.6268
 6293SOL    HW230513   3.521   1.951   7.143 -0.3280 -0.1295 -0.0835
 6294SOL     OW30514   1.759   3.619   0.329  0.3977  0.4539  0.3313
 6294SOL    HW130515   1.739   3.601   0.421 -1.0727 -2.1718 -0.5009
 6294SOL    HW230516   1.731   3.710   0.320  1.5207  0.5912 -1.9529
 6295SOL     OW30517   0.451   0.992   4.624 -0.0291 -0.1044 -0.0005
 6295SOL    HW130518   0.524   1.000   4.685 -0.5583  3.4457  0.1893
 6295SOL    HW230519   0.375   0.996   4.683  0.5756  1.2141  0.7013
 6296SOL     OW30520   4.233   3.464   8.331 -0.4156 -0.0544  0.4739
 6296SOL    HW130521   4.177   3.413   8.389 -0.1336 -1.6542 -0.6642
 6296SOL    HW230522   4.247   3.549   8.374 -0.0065 -0.6673  1.5397
 6297SOL     OW30523   4.099   3.792   3.392 -0.0646  0.2627  0.5044
 6297SOL    HW130524   4.071   3.713   3.439 -1.9360  0.5026 -0.2096
 6297SOL    HW230525   4.171   3.824   3.446  0.2026 -2.1377  1.5484
 6298SOL     OW30526   4.479   3.533  17.692  0.2199 -0.6600  0.2674
 6298SOL    HW130527   4.403   3.563  17.741  0.7306 -0.8002  1.1518
 6298SOL    HW230528   4.541   3.601  17.718 -0.8528 -0.4563  2.3042
 6299SOL     OW30529   3.467   2.348  15.651 -0.2067 -0.7798  0.9146
 6299SOL    HW130530   3.529   2.410  15.613 -2.8683  2.1904  1.3644
 6299SOL    HW230531   3.431   2.396  15.726 -1.8545  2.2727 -1.8474
 6300SOL     OW30532   2.459   1.702   2.654  0.1536  0.3135  0.5920
 6300SOL    HW130533   2.372   1.702   2.695 -0.6746  0.8914 -1.1642
 6300SOL    HW230534   2.504   1.766   2.710  2.1152 -1.0033  0.5067
 6301SOL     OW30535   0.609   2.424   8.517 -0.1920  0.1082  0.6341
 6301SOL    HW130536   0.543   2.489   8.542  0.0764  0.5184  0.2785
 6301SOL    HW230537   0.683   2.485   8.517  0.6486 -0.8978  0.8906
 6302SOL     OW30538   3.714   1.402   0.818 -0.3076 -0.1704  0.2366
 6302SOL    HW130539   3.783   1.369   0.760  0.7558  1.1898  0.7394
 6302SOL    HW230540   3.677   1.469   0.761 -0.6789 -1.0091 -0.5023
 6303SOL     OW30541   1.621   2.905   4.585  0.2863 -0.1970  0.6101
 6303SOL    HW130542   1.599   2.993   4.555 -0.0208 -1.1761 -2.0695
 6303SOL    HW230543   1.712   2.898   4.557  0.1701  0.2879  0.1077
 6304SOL     OW30544   1.705   1.857   7.635  0.2691  0.7162  0.0198
 6304SOL    HW130545   1.642   1.926   7.655 -0.5220 -0.3835  1.3086
 6304SOL    HW230546   1.786   1.892   7.673  1.7633  1.9830 -4.2791
 6305SOL     OW30547   2.785   3.094   8.843 -0.2989 -0.1101 -0.2167
 6305SOL    HW130548   2.802   3.023   8.905  2.2441  1.3079  0.6918
 6305SOL    HW230549   2.872   3.119   8.812  0.4607  0.2832  2.2548
 6306SOL     OW30550   0.553   3.462   8.378 -0.0170  0.0522 -0.4902
 6306SOL    HW130551   0.459   3.469   8.389  0.3279  0.4927  2.2929
 6306SOL    HW230552   0.541   3.408   8.300  1.3025 -0.4272 -0.3681
 6307SOL     OW30553   1.213   4.083   2.234  0.6628  0.8884  0.5848
 6307SOL    HW130554   1.143   4.107   2.295 -0.7463 -0.1881 -0.6338
 6307SOL    HW230555   1.272   4.159   2.239 -1.3144  2.5664 -1.4448
 6308SOL     OW30556   4.572   0.429   9.366  0.3167  0.3250 -0.3795
 6308SOL    HW130557   4.652   0.391   9.401  1.3208  1.7378 -1.1602
 6308SOL    HW230558   4.518   0.350   9.378  2.4895 -1.1812 -0.6103
 6309SOL     OW30559   1.582   3.443   5.688  0.0339  0.2329  0.0247
 6309SOL    HW130560   1.607   3.376   5.625 -0.2798  1.3046 -1.2277
 6309SOL    HW230561   1.590   3.405   5.776  0.0446 -0.8332 -0.4381
 6310SOL     OW30562   0.355   2.147   4.257 -0.3271  0.2010 -0.2287
 6310SOL    HW130563   0.370   2.241   4.271  0.9082 -0.1441  0.7786
 6310SOL    HW230564   0.437   2.127   4.211 -2.0242 -1.1183 -2.7286
 6311SOL     OW30565   3.297   4.504   2.471  0.0806  0.3511 -0.2012
 6311SOL    HW130566   3.246   4.425   2.485 -0.7364  0.9605  0.2834
 6311SOL    HW230567   3.380   4.468   2.502 -0.0159  0.0278 -0.3189
 6312SOL     OW30568   2.719   4.411   1.546  0.7538 -0.0894 -0.1999
 6312SOL    HW130569   2.758   4.371   1.624  0.1622 -0.8219 -0.2806
 6312SOL    HW230570   2.643   4.455   1.583  1.1424  0.5683 -0.1884
 6313SOL     OW30571   2.306   2.354   2.672 -0.3926 -0.0395 -0.5724
 6313SOL    HW130572   2.278   2.296   2.742 -0.4844 -0.3622 -0.8745
 6313SOL    HW230573   2.323   2.292   2.600  1.6125 -1.0972  0.8216
 6314SOL     OW30574   4.115   4.090   4.215 -0.2879  0.6224  0.3452
 6314SOL    HW130575   4.037   4.144   4.201 -1.2612 -1.1095 -0.8220
 6314SOL    HW230576   4.078   4.036   4.285  0.2680 -1.2398 -0.8091
 6315SOL     OW30577   1.121   1.498   6.449  0.4270  1.1086 -0.4319
 6315SOL    HW130578   1.075   1.523   6.529 -0.4255 -2.2893  0.1466
 6315SOL    HW230579   1.209   1.480   6.483  0.2767 -1.9226 -1.6069
 6316SOL     OW30580   0.109   1.074   4.508 -0.4027 -0.2062 -0.1546
 6316SOL    HW130581   0.114   1.137   4.437  3.9946 -1.5789 -1.0358
 6316SOL    HW230582   0.078   1.001   4.455 -0.1064 -0.7677  0.4449
 6317SOL     OW30583   3.605   3.680  14.028  0.0301 -0.2626 -0.3495
 6317SOL    HW130584   3.514   3.678  14.058  1.0257 -1.6004  2.5809
 6317SOL    HW230585   3.650   3.680  14.112 -0.1518  0.4832 -0.2560
 6318SOL     OW30586   0.785   4.401  16.638 -0.5214  0.0864 -0.8954
 6318SOL    HW130587   0.771   4.494  16.656 -2.0388 -0.7058  1.9384
 6318SOL    HW230588   0.825   4.400  16.551 -1.5007 -2.4302 -1.3312
 6319SOL     OW30589   0.152   4.356  14.012  0.1034 -0.2365 -0.5302
 6319SOL    HW130590   0.058   4.365  14.023 -0.0159 -2.6160  0.3442
 6319SOL    HW230591   0.181   4.447  14.003  0.8570 -0.3415  0.6887
 6320SOL     OW30592   1.535   1.662   6.798  0.0677 -0.1239  0.7989
 6320SOL    HW130593   1.564   1.678   6.888 -1.0403  1.2950  0.8975
 6320SOL    HW230594   1.596   1.716   6.747  2.5886 -0.6408  3.2698
 6321SOL     OW30595   4.528   0.709   7.278  0.1735 -0.3107  0.0017
 6321SOL    HW130596   4.476   0.772   7.229 -0.7456 -0.8436  0.3085
 6321SOL    HW230597   4.581   0.762   7.337 -0.2059 -0.8535  0.8176
 6322SOL     OW30598   2.572   2.296   1.348  0.4766 -0.3330 -0.1972
 6322SOL    HW130599   2.557   2.361   1.279  0.2978 -2.1808 -1.8794
 6322SOL    HW230600   2.483   2.262   1.359 -1.0335  3.8695  0.6360
 6323SOL     OW30601   0.433   3.356   6.662  0.0044 -0.0026 -0.9569
 6323SOL    HW130602   0.383   3.384   6.586  0.5213 -1.2675 -1.7701
 6323SOL    HW230603   0.353   3.324   6.704  2.0706 -0.5409  2.6390
 6324SOL     OW30604   0.784   0.960   7.411 -0.0518 -0.0795 -0.0556
 6324SOL    HW130605   0.844   0.912   7.468  1.0125  0.4652 -0.7054
 6324SOL    HW230606   0.726   0.889   7.382 -1.2295 -0.3025  2.8243
 6325SOL     OW30607   3.448   0.557   6.065 -0.1830  0.6756 -0.4914
 6325SOL    HW130608   3.504   0.634   6.054  0.3119  0.3711 -0.0923
 6325SOL    HW230609   3.405   0.582   6.147 -0.9831  2.7150 -1.5408
 6326SOL     OW30610   1.976   1.591  10.909 -0.5120 -0.4749 -0.4926
 6326SOL    HW130611   1.993   1.654  10.838 -1.8199  1.5173  0.9789
 6326SOL    HW230612   1.882   1.610  10.915 -0.0113  0.9560  2.8385
 6327SOL     OW30613   3.191   3.600   8.481 -0.0479  0.6115 -0.0895
 6327SOL    HW130614   3.230   3.598   8.569 -0.6449  4.2379  0.2687
 6327SOL    HW230615   3.164   3.508   8.475  4.1037 -0.5461 -0.9071
 6328SOL     OW30616   2.297   2.420   4.522  0.4507 -0.3835 -0.1896
 6328SOL    HW130617   2.316   2.327   4.538  0.5479 -0.5518 -1.2911
 6328SOL    HW230618   2.355   2.476   4.573 -0.3255  0.8622 -0.6797
 6329SOL     OW30619   0.034   3.053   4.407 -0.0215 -0.0866  0.2429
 6329SOL    HW130620   0.062   3.072   4.318 -1.0532 -0.4327 -0.1523
 6329SOL    HW230621   4.679   3.078   4.402  0.2225  0.4330 -1.4732
 6330SOL     OW30622   4.540   1.431   7.676  0.0822  0.2841  0.2345
 6330SOL    HW130623   4.451   1.468   7.677  0.1035  0.3431 -0.0818
 6330SOL    HW230624   4.528   1.364   7.744 -3.4359  1.3515  0.6637
 6331SOL     OW30625   2.243   4.592  13.560 -0.3117  0.6720  0.1539
 6331SOL    HW130626   2.149   4.609  13.560 -0.9333 -2.7914  1.2446
 6331SOL    HW230627   2.273   4.667  13.508  1.6846 -0.6579 -0.6009
 6332SOL     OW30628   0.111   2.321  15.083 -0.5792  0.0370 -0.5543
 6332SOL    HW130629   0.111   2.255  15.152  2.6624 -0.6234 -1.2084
 6332SOL    HW230630   0.037   2.291  15.031  1.0082 -1.9952 -1.6150
 6333SOL     OW30631   3.448   4.003  11.912  0.0492 -0.0960  0.5004
 6333SOL    HW130632   3.484   4.088  11.936  1.0493 -0.5819  0.7239
 6333SOL    HW230633   3.459   3.945  11.987  0.0526  0.2523  0.7696
 6334SOL     OW30634   3.025   3.689  16.962 -0.1400 -0.1150  0.0813
 6334SOL    HW130635   3.007   3.759  16.898 -1.7672  0.9387  1.7070
 6334SOL    HW230636   2.948   3.636  16.941  0.0335 -0.7606  1.0868
 6335SOL     OW30637   1.465   3.713   8.204  0.3241  0.1783  0.0373
 6335SOL    HW130638   1.444   3.625   8.235  0.5825  0.3098  0.5799
 6335SOL    HW230639   1.388   3.730   8.150  0.9061  0.8270 -0.5965
 6336SOL     OW30640   0.288   3.733   6.851 -0.3986  0.7025 -0.3358
 6336SOL    HW130641   0.380   3.752   6.868  0.2559 -0.0266 -3.0207
 6336SOL    HW230642   0.300   3.682   6.770 -1.8141  0.6977 -0.5427
 6337SOL     OW30643   2.390   2.652   5.981 -0.1119 -0.2130  0.3301
 6337SOL    HW130644   2.298   2.625   5.973 -0.1251 -0.0642 -0.0124
 6337SOL    HW230645   2.373   2.746   5.991  1.3107 -0.2437  3.0930
 6338SOL     OW30646   2.114   3.070   9.077  0.1568  0.1208 -0.2775
 6338SOL    HW130647   2.097   2.980   9.048  2.2168 -1.1034  2.3062
 6338SOL    HW230648   2.152   3.107   8.997 -0.7267 -0.2064 -0.8542
 6339SOL     OW30649   0.300   2.867   5.830 -0.0863  0.1312 -0.7262
 6339SOL    HW130650   0.282   2.828   5.744 -0.9104 -0.6975 -0.1799
 6339SOL    HW230651   0.239   2.812   5.878  1.5170 -1.5644 -0.6484
 6340SOL     OW30652   0.886   2.678   7.195 -0.0219 -1.4552 -0.1832
 6340SOL    HW130653   0.909   2.611   7.259 -4.0298 -0.8794  1.8484
 6340SOL    HW230654   0.792   2.677   7.209  0.4864 -2.8821  3.0281
 6341SOL     OW30655   3.036   1.729   9.651  0.6576 -0.1100 -0.2420
 6341SOL    HW130656   3.025   1.770   9.736  2.0767 -0.4236  0.0851
 6341SOL    HW230657   3.070   1.798   9.594 -0.8535  1.7394  1.0920
 6342SOL     OW30658   1.317   0.310   4.472  0.0152  0.7784  0.5278
 6342SOL    HW130659   1.252   0.317   4.541 -0.1908 -0.3287  0.4383
 6342SOL    HW230660   1.356   0.224   4.489  0.0321  0.4205 -1.3439
 6343SOL     OW30661   1.893   0.379   4.717  0.1152  0.2867  0.2022
 6343SOL    HW130662   1.921   0.448   4.777  2.1616 -1.8764  1.7480
 6343SOL    HW230663   1.820   0.350   4.773 -1.1154 -1.3606 -2.2530
 6344SOL     OW30664   2.031   4.307   9.088  0.1473  0.0176  0.0947
 6344SOL    HW130665   2.101   4.372   9.081  0.4610 -0.1598  1.6874
 6344SOL    HW230666   2.019   4.294   8.993 -1.7286 -1.6590  0.5546
 6345SOL     OW30667   2.556   2.051   3.855 -0.3700  0.0239 -0.1806
 6345SOL    HW130668   2.567   2.115   3.925 -1.8141  1.0980 -0.9347
 6345SOL    HW230669   2.581   2.091   3.771  1.3984 -1.7491 -0.4940
 6346SOL     OW30670   1.965   0.854   4.928  0.5005  0.3762 -0.0464
 6346SOL    HW130671   1.999   0.847   5.017  3.1512  0.8970 -1.0101
 6346SOL    HW230672   1.893   0.916   4.939  1.1243  1.5912 -2.5526
 6347SOL     OW30673   1.823   2.694   5.799  0.1467  0.6896 -0.2096
 6347SOL    HW130674   1.886   2.692   5.726 -0.6770  0.3709 -0.9113
 6347SOL    HW230675   1.827   2.607   5.839  2.5274 -0.1990 -2.3336
 6348SOL     OW30676   1.984   3.068   2.348  0.2535  0.3741  0.1436
 6348SOL    HW130677   1.939   2.997   2.394 -1.5016  0.8977 -0.7708
 6348SOL    HW230678   1.925   3.142   2.362  1.2135  0.7756  2.0377
 6349SOL     OW30679   4.165   1.378   3.808  0.0886  0.1871  0.3631
 6349SOL    HW130680   4.201   1.452   3.759 -1.3653  1.2667  0.9371
 6349SOL    HW230681   4.170   1.405   3.900 -4.8103  1.2952  0.2890
 6350SOL     OW30682   3.576   3.765   6.604 -0.1185  0.1513 -0.4102
 6350SOL    HW130683   3.653   3.815   6.579  0.2189  0.5715  1.4311
 6350SOL    HW230684   3.511   3.818   6.558 -0.4194  0.9486  0.9332
 6351SOL     OW30685   3.694   0.687  16.445  0.5178 -0.1413 -0.0401
 6351SOL    HW130686   3.718   0.753  16.380  2.1040 -0.6949 -0.0289
 6351SOL    HW230687   3.782   0.656  16.466  0.1904 -1.0527 -0.0383
 6352SOL     OW30688   2.401   0.935   8.753 -0.1514  0.3101 -0.1330
 6352SOL    HW130689   2.488   0.970   8.774 -0.9629  1.6872  0.9763
 6352SOL    HW230690   2.346   0.934   8.832 -0.8207 -1.3133 -0.6191
 6353SOL     OW30691   2.590   0.825   6.011 -0.2014 -0.2208 -0.6080
 6353SOL    HW130692   2.646   0.844   6.087  0.3343  0.7558 -1.2393
 6353SOL    HW230693   2.640   0.872   5.944  1.4931 -0.3578  0.5641
 6354SOL     OW30694   0.257   2.530   7.124  0.4316  0.0665  0.4793
 6354SOL    HW130695   0.247   2.612   7.172 -0.2915 -0.6474  1.5567
 6354SOL    HW230696   0.235   2.465   7.191 -1.1261  0.4638  0.3525
 6355SOL     OW30697   2.806   0.131  10.437  0.1706  0.3586 -0.1648
 6355SOL    HW130698   2.860   0.187  10.382  0.7929  0.6729  0.7761
 6355SOL    HW230699   2.714   0.140  10.413 -0.7098  1.1510  3.6038
 6356SOL     OW30700   4.239   0.487   1.684  0.3518  0.0549 -0.0706
 6356SOL    HW130701   4.165   0.457   1.631  1.5720  0.4031 -1.9795
 6356SOL    HW230702   4.262   0.405   1.727 -1.2195  0.0467  0.7397
 6357SOL     OW30703   2.738   2.304   7.757  1.2801 -0.2210 -0.0544
 6357SOL    HW130704   2.721   2.356   7.679 -2.1976  0.5951  1.2624
 6357SOL    HW230705   2.774   2.222   7.724  1.2272 -0.7184  1.1195
 6358SOL     OW30706   0.488   0.914   0.001 -0.3209  0.1360 -0.2316
 6358SOL    HW130707   0.568   0.898  17.697 -0.6261 -1.9540 -0.0671
 6358SOL    HW230708   0.429   0.952  17.683  0.6506  0.1507 -1.1195
 6359SOL     OW30709   1.356   2.827   3.999 -0.1669 -0.0870 -0.2297
 6359SOL    HW130710   1.427   2.891   4.003 -1.4999  1.4763 -1.2651
 6359SOL    HW230711   1.276   2.876   3.981  0.8136  2.3765  2.1956
 6360SOL     OW30712   0.799   3.906   9.163  0.3692 -0.1025 -0.3409
 6360SOL    HW130713   0.713   3.901   9.122 -1.0452 -1.8823  2.8498
 6360SOL    HW230714   0.788   3.849   9.239 -1.7489  0.0294 -0.5497
 6361SOL     OW30715   2.162   4.263   8.335 -0.1049  0.7447 -0.1244
 6361SOL    HW130716   2.225   4.331   8.311  2.2127 -0.6043  2.1186
 6361SOL    HW230717   2.209   4.181   8.321 -2.3590 -0.4831 -0.4544
 6362SOL     OW30718   1.351   3.229   1.676  0.4824  0.4728 -0.0959
 6362SOL    HW130719   1.303   3.240   1.758 -1.4852  1.4374 -1.3649
 6362SOL    HW230720   1.294   3.162   1.638  1.4700 -0.1249 -0.5213
 6363SOL     OW30721   0.099   2.718   2.682  0.1584 -0.2622  0.0630
 6363SOL    HW130722   0.151   2.729   2.761 -1.4240  0.2872  1.0338
 6363SOL    HW230723   0.089   2.624   2.667 -1.0866 -0.3592  1.4565
 6364SOL     OW30724   3.155   1.388  12.136  0.3432 -0.6121 -0.1261
 6364SOL    HW130725   3.197   1.371  12.220 -0.2519 -1.5874 -0.0263
 6364SOL    HW230726   3.067   1.404  12.168  0.9806  3.0771 -0.2360
 6365SOL     OW30727   3.986   1.718   6.976 -0.7330  0.8105  0.6217
 6365SOL    HW130728   4.058   1.766   7.018  0.0899  1.9276 -2.0961
 6365SOL    HW230729   4.025   1.636   6.945 -2.3993  0.3685 -0.2517
 6366SOL     OW30730   1.906   0.772   3.947  0.2085  0.3344  0.4185
 6366SOL    HW130731   1.860   0.749   3.866 -1.1106  2.5982  0.5026
 6366SOL    HW230732   1.922   0.685   3.983  1.6975  0.8868  1.0838
 6367SOL     OW30733   1.940   0.423   5.525 -0.4294 -0.2248 -0.7247
 6367SOL    HW130734   1.886   0.424   5.446  1.3440 -0.9121 -1.9449
 6367SOL    HW230735   1.995   0.492   5.488 -0.8209  0.4656 -0.0187
 6368SOL     OW30736   0.032   1.164   5.723  0.3554 -0.3981  0.0917
 6368SOL    HW130737   4.677   1.181   5.743  0.6081  0.4637  0.5097
 6368SOL    HW230738   0.076   1.244   5.750  0.5924 -0.6839  0.5635
 6369SOL     OW30739   4.441   0.306   1.550  0.2404  0.1348 -0.3306
 6369SOL    HW130740   4.497   0.234   1.521 -1.3953 -2.2840  2.5862
 6369SOL    HW230741   4.495   0.384   1.531 -1.2073  0.7455 -1.9432
 6370SOL     OW30742   0.500   2.976   9.035 -0.4356 -0.6936  0.0473
 6370SOL    HW130743   0.485   3.070   9.036 -0.9708 -0.7787 -0.1823
 6370SOL    HW230744   0.590   2.965   9.066 -0.5121  0.6234  0.7092
 6371SOL     OW30745   3.403   3.151  17.655  0.2908  0.5182  0.2010
 6371SOL    HW130746   3.439   3.091  17.721  0.3311 -2.0321 -2.1565
 6371SOL    HW230747   3.472   3.165  17.591 -0.8342 -0.0884 -1.1342
 6372SOL     OW30748   2.759   3.531   0.704  0.2235 -0.4101 -0.1234
 6372SOL    HW130749   2.677   3.576   0.725  1.6066  0.8328  2.6413
 6372SOL    HW230750   2.796   3.535   0.792 -0.6880 -2.0150  0.3230
 6373SOL     OW30751   3.440   0.230   0.464  0.3872 -0.1602 -0.6379
 6373SOL    HW130752   3.365   0.175   0.488 -0.0390  0.2574 -1.0206
 6373SOL    HW230753   3.508   0.165   0.447 -0.6661 -1.2151 -0.8316
 6374SOL     OW30754   1.796   2.467   2.071 -0.4019  0.1299 -0.6603
 6374SOL    HW130755   1.828   2.529   2.137  2.0940 -0.9038 -0.8825
 6374SOL    HW230756   1.722   2.433   2.121 -0.0196 -0.3518 -0.4130
 6375SOL     OW30757   2.865   1.761   1.912  0.0680 -0.1504  0.0539
 6375SOL    HW130758   2.905   1.819   1.847  1.2993 -1.9424 -0.7935
 6375SOL    HW230759   2.888   1.795   1.999  2.0277 -1.2924 -0.0177
 6376SOL     OW30760   0.859   0.749   8.724 -0.3411 -0.0252  0.1674
 6376SOL    HW130761   0.780   0.694   8.727 -2.0338  2.3297 -0.9156
 6376SOL    HW230762   0.806   0.826   8.701 -0.1385 -0.4596 -1.7632
 6377SOL     OW30763   2.192   4.321   6.900  0.2808 -0.2812  0.4835
 6377SOL    HW130764   2.281   4.320   6.935 -0.2241 -2.7528  1.6760
 6377SOL    HW230765   2.189   4.398   6.843 -0.7395 -1.5580 -1.1612
 6378SOL     OW30766   4.617   0.503   8.316  0.2527 -0.2868 -0.3380
 6378SOL    HW130767   4.599   0.573   8.252 -0.2812 -0.4007 -0.3078
 6378SOL    HW230768   4.587   0.418   8.284  2.2011 -1.6832  1.5718
 6379SOL     OW30769   1.880   2.490   7.750  0.4319 -0.4918  0.2342
 6379SOL    HW130770   1.933   2.497   7.829  0.9990 -3.6684  0.1324
 6379SOL    HW230771   1.942   2.450   7.690 -0.4094  0.2935 -1.1642
 6380SOL     OW30772   0.674   3.017   2.255 -0.7289 -0.0418 -0.1868
 6380SOL    HW130773   0.713   2.937   2.291 -1.4834 -0.0562  0.5935
 6380SOL    HW230774   0.717   3.093   2.293 -0.4523 -0.1402 -0.3057
 6381SOL     OW30775   4.314   3.062   4.980 -0.9028  0.0960  0.1488
 6381SOL    HW130776   4.231   3.075   4.935 -1.4169  0.5714  1.2539
 6381SOL    HW230777   4.360   3.146   4.980 -0.8996  0.0723  3.4968
 6382SOL     OW30778   1.113   1.673  14.376 -0.4566  0.4613 -0.4648
 6382SOL    HW130779   1.139   1.581  14.375  0.5423  0.7678 -1.6101
 6382SOL    HW230780   1.040   1.673  14.314  0.0133 -1.4566 -1.0145
 6383SOL     OW30781   3.924   0.441   6.459  0.0046 -0.0846 -0.2537
 6383SOL    HW130782   3.951   0.526   6.425  0.3382 -0.0271  0.1607
 6383SOL    HW230783   3.948   0.390   6.382 -2.9134 -0.5345 -0.8984
 6384SOL     OW30784   3.719   0.839   2.700 -0.1599 -0.0271  0.3894
 6384SOL    HW130785   3.809   0.870   2.688 -0.9468  1.5214 -1.5862
 6384SOL    HW230786   3.710   0.867   2.791 -4.1092 -1.0111  0.3124
 6385SOL     OW30787   1.514   4.370  13.045 -0.1266  0.9115  0.1740
 6385SOL    HW130788   1.534   4.311  13.118 -0.5590  0.5056 -0.0313
 6385SOL    HW230789   1.603   4.398  13.025  0.8347 -1.5700  0.9162
 6386SOL     OW30790   0.075   2.198  16.600 -0.1422  0.3674  0.0041
 6386SOL    HW130791   0.031   2.249  16.532 -1.9916 -1.3504 -0.0687
 6386SOL    HW230792   0.043   2.243  16.678  0.0441 -1.3425  1.0495
 6387SOL     OW30793   4.368   2.382  14.157  0.0328 -0.6927 -0.2263
 6387SOL    HW130794   4.305   2.311  14.165 -2.3850  1.2302 -2.4058
 6387SOL    HW230795   4.449   2.338  14.132  0.3253  0.4393 -1.2598
 6388SOL     OW30796   2.077   1.453   1.592  0.2710  0.7587 -0.0678
 6388SOL    HW130797   2.147   1.510   1.624 -0.2056  0.9124  0.7071
 6388SOL    HW230798   2.073   1.382   1.657 -3.0283 -0.8208 -1.9677
 6389SOL     OW30799   3.595   2.195   5.459  0.1240  0.0277  0.2276
 6389SOL    HW130800   3.556   2.108   5.448  0.4233 -0.0970  0.1372
 6389SOL    HW230801   3.675   2.163   5.500  0.4922 -0.2248 -0.6793
 6390SOL     OW30802   1.935   3.251   1.309  0.0611 -0.5737 -0.2705
 6390SOL    HW130803   1.969   3.324   1.258 -0.5762 -0.6490 -0.8055
 6390SOL    HW230804   2.014   3.232   1.360  0.6741  1.1357 -0.5636
 6391SOL     OW30805   0.360   0.970   6.482 -0.3227  0.5557  0.4714
 6391SOL    HW130806   0.428   0.906   6.503  0.8021  1.4091 -0.5996
 6391SOL    HW230807   0.385   0.988   6.391 -0.3206  1.8519  0.7288
 6392SOL     OW30808   4.491   2.177   2.943 -0.2583  0.4469 -0.7267
 6392SOL    HW130809   4.519   2.268   2.930 -0.9100  0.5177 -1.6507
 6392SOL    HW230810   4.487   2.153   2.850  0.8502 -2.6223  0.0276
 6393SOL     OW30811   0.825   1.216   3.294 -0.0661  0.2193 -0.7021
 6393SOL    HW130812   0.815   1.125   3.322 -0.1775  0.4334 -0.0305
 6393SOL    HW230813   0.869   1.195   3.212 -1.3994 -0.1533 -1.3316
 6394SOL     OW30814   3.023   2.446  14.754 -0.4017 -0.6255  0.6495
 6394SOL    HW130815   2.958   2.385  14.719 -0.3854 -1.2940  1.7732
 6394SOL    HW230816   3.019   2.518  14.692 -0.7702 -1.7540 -0.6343
 6395SOL     OW30817   3.703   2.270   7.911 -0.3586 -0.0848  0.1106
 6395SOL    HW130818   3.649   2.299   7.838 -0.4031  0.5973  0.4096
 6395SOL    HW230819   3.743   2.202   7.857  0.0030 -1.1355  1.6715
 6396SOL     OW30820   1.542   4.698  13.020  0.0003  0.1438  0.0007
 6396SOL    HW130821   1.607   4.639  13.057 -0.4012  0.1001  0.6445
 6396SOL    HW230822   1.495   4.722  13.100 -2.1458  0.2306 -1.2910
 6397SOL     OW30823   0.792   2.894   5.912 -0.2681  0.1895 -0.0465
 6397SOL    HW130824   0.766   2.928   5.826 -1.4836  0.1181  0.2891
 6397SOL    HW230825   0.711   2.872   5.958  0.0135  0.8366  0.7474
 6398SOL     OW30826   2.305   3.347   3.058  0.0428  0.4823 -0.2642
 6398SOL    HW130827   2.256   3.392   2.990 -0.1065  2.0531  0.8882
 6398SOL    HW230828   2.313   3.418   3.121 -0.6081  0.6657 -0.3900
 6399SOL     OW30829   0.906   1.721   8.925  0.1905 -0.2657  0.1911
 6399SOL    HW130830   0.844   1.794   8.921  0.0045 -0.4222  0.2215
 6399SOL    HW230831   0.841   1.651   8.916 -1.6118  1.3355  0.5763
 6400SOL     OW30832   3.799   2.372  11.681 -0.3634  0.2705  0.3388
 6400SOL    HW130833   3.870   2.430  11.710 -0.2121 -0.3359  1.2060
 6400SOL    HW230834   3.742   2.434  11.636 -1.3084 -0.8015  0.0461
 6401SOL     OW30835   1.574   1.209   0.057  0.1581 -0.3637  0.3642
 6401SOL    HW130836   1.497   1.152   0.051 -1.4339  1.8623 -0.4384
 6401SOL    HW230837   1.572   1.255  17.719 -0.0391  0.9655  1.0959
 6402SOL     OW30838   2.469   4.581  12.444  0.2973 -0.7020  0.5125
 6402SOL    HW130839   2.475   4.573  12.349 -0.1614  1.9887  0.2657
 6402SOL    HW230840   2.386   4.538  12.464 -0.1930  0.6484  1.3093
 6403SOL     OW30841   4.381   0.616   5.321  0.1959 -0.3689 -0.5597
 6403SOL    HW130842   4.448   0.683   5.309 -1.2128  1.0027 -0.7701
 6403SOL    HW230843   4.389   0.565   5.241 -1.8143 -0.9738 -0.3738
 6404SOL     OW30844   2.985   0.981   4.457 -0.7525 -0.2889 -0.0849
 6404SOL    HW130845   2.933   1.049   4.499 -2.4589 -1.6256 -0.0709
 6404SOL    HW230846   2.934   0.900   4.462 -2.2920  0.4091 -4.9400
 6405SOL     OW30847   0.034   2.898  14.519  1.2765 -0.1815 -0.0273
 6405SOL    HW130848   0.059   2.906  14.611  0.5287 -1.0228  0.2435
 6405SOL    HW230849   0.118   2.903  14.472  0.4251  0.4790 -1.4707
 6406SOL     OW30850   2.888   4.338  16.725 -0.0275  0.3456 -0.1197
 6406SOL    HW130851   2.938   4.258  16.741 -2.9465 -1.1644  1.4935
 6406SOL    HW230852   2.851   4.311  16.641  2.0102 -2.3710 -0.1496
 6407SOL     OW30853   3.982   4.716   4.751  0.6250  0.0382 -0.6231
 6407SOL    HW130854   3.933   4.634   4.740  0.7639 -0.4092  2.0884
 6407SOL    HW230855   3.913   0.046   4.753  1.7820  1.1252  2.5385
 6408SOL     OW30856   3.140   2.223   7.980 -0.4257 -0.2752 -0.6025
 6408SOL    HW130857   3.122   2.137   7.943  0.7129 -1.1012  0.7797
 6408SOL    HW230858   3.051   2.241   8.008 -0.9363 -3.1811 -0.4010
 6409SOL     OW30859   0.190   3.877   5.296 -0.1649 -0.6938 -0.2097
 6409SOL    HW130860   0.126   3.839   5.356 -0.3200  0.2264  0.2064
 6409SOL    HW230861   0.166   3.969   5.293 -2.1898 -1.1724  1.2013
 6410SOL     OW30862   2.931   4.192   6.292  0.0896  0.2241  0.0547
 6410SOL    HW130863   2.947   4.233   6.377 -1.7139 -2.8876  1.8967
 6410SOL    HW230864   2.840   4.167   6.306  0.0437 -1.2617 -2.8500
 6411SOL     OW30865   2.397   2.037   6.867  0.4273  0.0968  0.9048
 6411SOL    HW130866   2.490   2.040   6.890  0.6003 -0.9039  0.3006
 6411SOL    HW230867   2.359   2.071   6.948 -1.5812  2.5086 -1.0596
 6412SOL     OW30868   0.542   2.122  11.623 -0.1862  0.0022 -0.1369
 6412SOL    HW130869   0.451   2.094  11.623 -0.1383 -0.1237 -3.4499
 6412SOL    HW230870   0.580   2.036  11.604 -1.3845 -0.2181 -1.5033
 6413SOL     OW30871   0.697   3.924   7.149 -0.6783  0.0594  0.0406
 6413SOL    HW130872   0.787   3.922   7.117 -0.8406 -0.9906 -0.3670
 6413SOL    HW230873   0.714   3.902   7.240 -0.4405 -1.4536 -0.3718
 6414SOL     OW30874   3.023   2.267   8.307 -0.4918 -0.1386 -0.6391
 6414SOL    HW130875   2.980   2.277   8.391  0.7748 -3.4398  0.4134
 6414SOL    HW230876   3.047   2.355   8.277 -1.5007  0.6183  0.7956
 6415SOL     OW30877   0.230   3.248   3.638  0.5465 -0.1694 -0.2548
 6415SOL    HW130878   0.230   3.343   3.622 -2.2334 -0.1573 -0.2627
 6415SOL    HW230879   0.151   3.232   3.688  0.6174 -0.5645 -0.2713
 6416SOL     OW30880   3.120   4.651   3.981 -0.0688 -0.3814  0.2331
 6416SOL    HW130881   3.083   4.678   4.065  0.6387 -0.9600  0.7307
 6416SOL    HW230882   3.189   4.716   3.966  0.9619 -1.3274  0.7856
 6417SOL     OW30883   2.220   1.645   9.425  0.8750  0.5011 -0.3259
 6417SOL    HW130884   2.303   1.598   9.414  0.7092  0.6007 -1.9048
 6417SOL    HW230885   2.161   1.569   9.428  0.7256  0.6761  1.4777
 6418SOL     OW30886   1.709   0.722  16.666 -0.3017 -0.0770 -0.3554
 6418SOL    HW130887   1.695   0.640  16.619 -0.9839  0.1187 -0.5069
 6418SOL    HW230888   1.678   0.707  16.755 -0.3323 -0.7431 -0.4819
 6419SOL     OW30889   1.879   3.023   7.117  0.6984 -0.0324  0.1472
 6419SOL    HW130890   1.836   3.000   7.199 -0.9834 -1.8314 -1.2442
 6419SOL    HW230891   1.819   3.088   7.080 -1.3235 -1.0162  1.6995
 6420SOL     OW30892   2.518   0.727   3.006 -0.2363 -0.4575  0.4759
 6420SOL    HW130893   2.544   0.730   3.098  0.5671 -2.3890  0.3268
 6420SOL    HW230894   2.495   0.819   2.997 -1.7375 -0.7176  1.7608
 6421SOL     OW30895   1.993   2.182   3.387 -0.4577  0.0008 -0.0764
 6421SOL    HW130896   2.062   2.130   3.428  0.1893  1.2694  0.4471
 6421SOL    HW230897   1.959   2.221   3.468 -0.3812  2.2791 -1.1551
 6422SOL     OW30898   2.494   2.683   8.435 -0.3180  0.0515  0.1655
 6422SOL    HW130899   2.589   2.692   8.437 -0.4844  1.8251 -0.3522
 6422SOL    HW230900   2.480   2.594   8.403  1.9795  1.0900 -3.6830
 6423SOL     OW30901   1.512   2.965   6.085  0.2704 -0.5823 -0.7977
 6423SOL    HW130902   1.450   3.038   6.078  0.9178 -0.1190 -1.8656
 6423SOL    HW230903   1.464   2.896   6.040  0.7152 -0.0782 -2.0641
 6424SOL     OW30904   1.499   3.828  10.523 -0.4251  0.0584 -0.2958
 6424SOL    HW130905   1.582   3.876  10.515 -0.8646  0.7664 -0.5937
 6424SOL    HW230906   1.471   3.859  10.609 -1.5696 -0.9082 -0.3190
 6425SOL     OW30907   4.373   4.029  14.806 -0.5421  0.2759 -0.0629
 6425SOL    HW130908   4.417   4.089  14.866  1.1585 -0.5707 -0.4634
 6425SOL    HW230909   4.284   4.025  14.839  0.0737 -4.0360  1.1229
 6426SOL     OW30910   3.437   1.444  12.620  0.2103 -0.1230  0.4739
 6426SOL    HW130911   3.405   1.518  12.671 -0.3727  0.4491 -0.7056
 6426SOL    HW230912   3.500   1.405  12.680 -0.4107 -1.3775  0.3173
 6427SOL     OW30913   1.918   2.139   4.094  0.0551 -0.6296  0.2055
 6427SOL    HW130914   1.866   2.114   4.018  1.4063  0.1266 -0.9496
 6427SOL    HW230915   1.931   2.051   4.132 -1.3080 -0.9198 -0.0118
 6428SOL     OW30916   2.119   0.052  11.578 -0.1334  0.4421  0.2988
 6428SOL    HW130917   2.197   0.102  11.553 -2.4766  4.2291  0.4606
 6428SOL    HW230918   2.065   0.129  11.596 -1.6227 -0.7074  0.7055
 6429SOL     OW30919   0.571   1.302   7.579  0.2648  0.4063  0.0797
 6429SOL    HW130920   0.495   1.261   7.621 -0.0641  2.1424  1.1911
 6429SOL    HW230921   0.513   1.347   7.518 -0.3661 -1.2040 -0.4948
 6430SOL     OW30922   1.110   2.036   9.468  0.1822  0.0041 -0.0557
 6430SOL    HW130923   1.146   2.119   9.500 -1.9479  0.2841  1.6493
 6430SOL    HW230924   1.190   1.987   9.454 -0.6165 -0.8982 -1.4326
 6431SOL     OW30925   0.469   3.330   3.108 -0.3502  0.1331 -0.0039
 6431SOL    HW130926   0.438   3.264   3.046  0.2973  0.9262 -1.1429
 6431SOL    HW230927   0.554   3.350   3.070 -0.7133  1.6466 -0.0312
 6432SOL     OW30928   0.206   3.362   3.260 -0.4686  0.1992 -0.1622
 6432SOL    HW130929   0.235   3.432   3.319  1.9200  0.2262 -1.3528
 6432SOL    HW230930   0.287   3.348   3.210 -0.7057 -0.2393 -0.4204
 6433SOL     OW30931   2.176   0.678   5.505  0.0229 -0.5561  0.5755
 6433SOL    HW130932   2.130   0.763   5.502 -0.7194 -0.9335  1.2619
 6433SOL    HW230933   2.252   0.707   5.555  1.0676 -0.0871 -1.2738
 6434SOL     OW30934   0.509   4.471   3.051 -0.2378  0.0097 -0.3304
 6434SOL    HW130935   0.443   4.540   3.043 -1.3271 -0.9223  0.5384
 6434SOL    HW230936   0.580   4.513   3.099 -0.9776 -0.4097  1.1229
 6435SOL     OW30937   2.872   2.825   7.098  0.0288  0.2483  0.4803
 6435SOL    HW130938   2.966   2.816   7.106 -0.0625 -1.5074 -0.4757
 6435SOL    HW230939   2.864   2.797   7.007  0.6413 -1.2560  0.8966
 6436SOL     OW30940   3.966   2.108  12.751 -0.1338 -0.3792  0.3261
 6436SOL    HW130941   3.927   2.156  12.824 -0.9296  1.7105 -1.4430
 6436SOL    HW230942   4.059   2.121  12.767  0.3916 -0.8290 -2.4056
 6437SOL     OW30943   0.214   2.038   8.277 -0.6794  0.0831 -0.9359
 6437SOL    HW130944   0.261   2.121   8.266  0.5856 -0.5746 -0.5001
 6437SOL    HW230945   0.159   2.030   8.200  1.0956 -0.3527 -2.1477
 6438SOL     OW30946   1.707   3.580   1.838 -0.3335  0.6816 -0.6122
 6438SOL    HW130947   1.759   3.500   1.839 -2.1776 -0.5339 -1.5653
 6438SOL    HW230948   1.767   3.653   1.826 -0.6829  0.6330 -2.7629
 6439SOL     OW30949   3.811   0.807   0.583  0.5735 -0.7472  0.2695
 6439SOL    HW130950   3.784   0.717   0.604  1.1972 -0.9965  0.0225
 6439SOL    HW230951   3.779   0.819   0.494 -0.0131  1.0096  0.7367
 6440SOL     OW30952   2.328   1.647  15.580  0.1870  0.0085  0.3806
 6440SOL    HW130953   2.258   1.584  15.563 -0.3210  0.8864 -0.8042
 6440SOL    HW230954   2.405   1.594  15.561  1.5501  2.3438 -0.6875
 6441SOL     OW30955   2.284   2.219  12.881  0.3542  0.3400  0.2709
 6441SOL    HW130956   2.360   2.265  12.916  1.1853 -0.3716 -0.5922
 6441SOL    HW230957   2.227   2.290  12.853  0.6252  1.1528  1.7977
 6442SOL     OW30958   2.586   1.440   9.532 -0.2338  0.3363  0.0229
 6442SOL    HW130959   2.656   1.378   9.555 -1.1204 -1.4494 -2.0643
 6442SOL    HW230960   2.630   1.518   9.566  0.7904  1.7254 -4.4966
 6443SOL     OW30961   1.830   0.233   8.005  0.0334 -0.0931 -0.0938
 6443SOL    HW130962   1.776   0.187   8.070  1.4941 -1.4200  0.1736
 6443SOL    HW230963   1.800   0.323   8.014 -1.1522 -0.3211 -1.6636
 6444SOL     OW30964   4.237   0.747   7.961 -0.6204 -0.1467 -0.1114
 6444SOL    HW130965   4.288   0.753   8.042  0.4741  2.0705 -0.9637
 6444SOL    HW230966   4.191   0.829   7.979  1.7440  1.4554 -1.2721
 6445SOL     OW30967   0.176   0.706  13.457 -0.2948  0.4389  0.4891
 6445SOL    HW130968   0.203   0.779  13.400  1.6401 -1.3752 -0.9485
 6445SOL    HW230969   0.192   0.633  13.397 -2.6082 -1.1962  1.9200
 6446SOL     OW30970   4.289   3.375  11.783 -0.3132  0.3287 -0.5866
 6446SOL    HW130971   4.298   3.469  11.793 -1.2089  0.5750 -2.1294
 6446SOL    HW230972   4.246   3.346  11.863 -0.1775  2.0617  0.1166
 6447SOL     OW30973   3.356   1.678  12.783  0.0324 -0.2385  0.1928
 6447SOL    HW130974   3.321   1.763  12.757  1.4956  0.7552  1.4599
 6447SOL    HW230975   3.273   1.653  12.824 -1.1296  0.5175 -1.7171
 6448SOL     OW30976   3.574   2.064   2.500 -0.1909  0.2221 -0.0625
 6448SOL    HW130977   3.622   2.035   2.578 -0.8157  1.2882  0.7023
 6448SOL    HW230978   3.642   2.066   2.433 -0.6309  0.8955 -0.4861
 6449SOL     OW30979   3.914   1.062  13.675  0.3929  0.5147 -0.1157
 6449SOL    HW130980   3.899   1.155  13.658  1.3662  0.7703  0.3988
 6449SOL    HW230981   3.901   1.016  13.592  0.2564 -0.9329  0.7055
 6450SOL     OW30982   3.709   4.351   5.027  0.4358 -0.3678 -0.1777
 6450SOL    HW130983   3.620   4.332   4.998 -0.4975  1.5917  1.4176
 6450SOL    HW230984   3.740   4.261   5.038 -1.0788 -0.9315 -0.5610
 6451SOL     OW30985   3.174   1.254   3.397 -0.2112  0.4629  0.1741
 6451SOL    HW130986   3.235   1.302   3.453 -0.3023 -0.9289  1.4486
 6451SOL    HW230987   3.108   1.229   3.461 -0.6981  0.3593 -0.3637
 6452SOL     OW30988   4.212   4.087   1.805  0.1026 -0.3147 -0.4851
 6452SOL    HW130989   4.219   4.180   1.783  3.5998 -0.1670  1.1820
 6452SOL    HW230990   4.297   4.059   1.770 -0.6900  0.1101 -2.7442
 6453SOL     OW30991   0.438   4.440   3.421  0.0303  0.1102 -0.0887
 6453SOL    HW130992   0.505   4.379   3.450  0.5652  0.5369 -0.4443
 6453SOL    HW230993   0.498   4.501   3.379  3.6482 -3.2624  0.2383
 6454SOL     OW30994   0.656   3.281  16.404 -0.4089  0.5059  0.0114
 6454SOL    HW130995   0.704   3.258  16.483 -2.6472 -0.6969  1.0254
 6454SOL    HW230996   0.565   3.254  16.419 -0.0163 -0.2270  1.0125
 6455SOL     OW30997   0.779   4.647   2.991 -0.3414 -0.0869 -0.0105
 6455SOL    HW130998   0.840   4.705   2.947  0.7931 -2.5988 -1.7673
 6455SOL    HW230999   0.710   4.704   3.025 -1.2696 -0.6075 -1.0302
 6456SOL     OW31000   4.501   3.364  11.204 -0.1862 -0.2560 -0.3537
 6456SOL    HW131001   4.502   3.277  11.165  1.2839 -0.3139 -0.1954
 6456SOL    HW231002   4.409   3.383  11.185  0.3796 -0.2226 -3.1398
 6457SOL     OW31003   1.519   0.969   2.066 -0.1751 -0.4349 -0.2984
 6457SOL    HW131004   1.508   0.935   1.978  0.4430 -1.1733 -0.0886
 6457SOL    HW231005   1.490   1.057   2.041 -1.2678  0.1378  2.9174
 6458SOL     OW31006   1.408   4.612   3.494 -0.3741  0.2547  0.5415
 6458SOL    HW131007   1.460   4.644   3.421 -1.2838  1.5689  0.4699
 6458SOL    HW231008   1.333   4.669   3.480 -0.2210 -0.0134 -1.4122
 6459SOL     OW31009   0.353   4.364   4.103 -0.3220  0.0691 -0.3271
 6459SOL    HW131010   0.275   4.318   4.072 -0.4598  0.4437 -0.5361
 6459SOL    HW231011   0.398   4.374   4.018  2.1422  0.2800  1.0016
 6460SOL     OW31012   2.429   2.385   9.842 -0.1582  0.6762  0.0428
 6460SOL    HW131013   2.384   2.368   9.924 -1.1897  2.6757 -0.0974
 6460SOL    HW231014   2.356   2.408   9.784 -1.2408 -2.5894  0.1210
 6461SOL     OW31015   3.816   3.497  14.421 -0.4280  0.4766 -0.5536
 6461SOL    HW131016   3.911   3.489  14.411 -0.7255 -1.5070 -1.7199
 6461SOL    HW231017   3.784   3.465  14.337  2.0314 -0.0538 -1.3070
 6462SOL     OW31018   3.875   0.911   5.976 -0.1509 -0.2515  0.1426
 6462SOL    HW131019   3.920   0.838   5.932  0.3529 -0.8338  1.6445
 6462SOL    HW231020   3.885   0.980   5.910  2.3151 -0.2812  0.4917
 6463SOL     OW31021   0.131   0.065   6.979 -0.0657  0.5001  0.1433
 6463SOL    HW131022   0.153   4.725   6.927  3.7856  0.7938  1.3302
 6463SOL    HW231023   0.035   0.066   6.980 -0.0535  1.2730  1.0257
 6464SOL     OW31024   1.490   3.850   7.034  0.1198  0.3138  0.6787
 6464SOL    HW131025   1.551   3.863   7.107 -0.0396 -1.4466  1.1055
 6464SOL    HW231026   1.454   3.935   7.009 -0.9665 -0.5576 -0.6805
 6465SOL     OW31027   0.683   3.288   0.426  0.1198  0.3035 -0.0617
 6465SOL    HW131028   0.741   3.234   0.481  1.6091  0.4696 -1.4691
 6465SOL    HW231029   0.609   3.235   0.396  1.0950 -0.3783 -1.2711
 6466SOL     OW31030   3.979   4.524  15.107  0.4633  0.0640  0.0908
 6466SOL    HW131031   3.905   4.491  15.056 -0.3609  0.7728  0.8374
 6466SOL    HW231032   4.009   4.445  15.152  1.1503 -0.3223 -1.0370
 6467SOL     OW31033   3.159   0.971   0.221 -0.7270  0.1371 -0.0118
 6467SOL    HW131034   3.101   0.902   0.254  0.7701 -0.6255  1.0775
 6467SOL    HW231035   3.213   0.918   0.162 -0.3903  0.1373  0.2977
 6468SOL     OW31036   1.648   0.910   9.380 -0.7852 -0.1239 -0.0953
 6468SOL    HW131037   1.619   0.939   9.294  1.0524  1.1879 -0.2582
 6468SOL    HW231038   1.592   0.970   9.429  1.2616  1.3156  0.4288
 6469SOL     OW31039   0.617   0.210   2.528  0.2257  0.2116 -0.8361
 6469SOL    HW131040   0.643   0.262   2.452 -1.0388  0.3304 -1.1925
 6469SOL    HW231041   0.570   0.135   2.493 -0.0817 -0.5001  1.0991
 6470SOL     OW31042   2.519   0.881  11.506 -0.2860  0.2692 -0.2653
 6470SOL    HW131043   2.506   0.816  11.575 -0.2978 -0.9556 -1.4253
 6470SOL    HW231044   2.614   0.889  11.505 -0.3255  0.6674 -0.7210
 6471SOL     OW31045   4.455   4.387   3.546 -0.0149  0.2772 -0.2263
 6471SOL    HW131046   4.361   4.373   3.539 -0.0262 -0.2119  0.8809
 6471SOL    HW231047   4.476   4.368   3.455  0.0604 -0.8936  0.0299
 6472SOL     OW31048   0.996   2.983   9.637 -0.1141  0.5941  0.1382
 6472SOL    HW131049   0.968   2.963   9.727 -0.3151  1.0281  0.1675
 6472SOL    HW231050   1.089   2.994   9.656  0.2609 -0.1735 -1.2705
 6473SOL     OW31051   4.596   1.500   2.237 -0.1115 -0.1551  0.5963
 6473SOL    HW131052   4.655   1.429   2.213 -0.6953 -1.0834  1.9310
 6473SOL    HW231053   4.661   1.554   2.282  1.5296 -1.5102 -0.1679
 6474SOL     OW31054   3.388   3.429  12.107 -0.2321  0.0217 -0.3211
 6474SOL    HW131055   3.363   3.437  12.015 -1.3274 -2.2569 -0.2506
 6474SOL    HW231056   3.366   3.338  12.129  1.6720 -0.4982 -0.6267
 6475SOL     OW31057   1.274   0.498   9.473 -0.1095 -0.1588  0.5105
 6475SOL    HW131058   1.350   0.521   9.528  0.2499  0.5070 -0.2587
 6475SOL    HW231059   1.201   0.517   9.531  1.2902  0.6858  1.9814
 6476SOL     OW31060   3.720   2.763   1.734  0.7447 -0.2413  0.1933
 6476SOL    HW131061   3.671   2.716   1.801 -0.1085  1.2929  0.6335
 6476SOL    HW231062   3.694   2.851   1.761  1.3363 -0.1872  0.5835
 6477SOL     OW31063   3.997   1.944  11.371 -0.3894 -0.2417  0.2439
 6477SOL    HW131064   3.993   2.038  11.352 -0.7080 -0.0996  1.0093
 6477SOL    HW231065   4.056   1.914  11.301 -0.3191  0.5435 -0.0329
 6478SOL     OW31066   0.780   4.667  16.693  0.2859 -0.2614  0.2575
 6478SOL    HW131067   0.685   4.667  16.700  0.3526 -0.7193  1.0919
 6478SOL    HW231068   0.793   0.022  16.668  0.1310 -0.2537  0.2034
 6479SOL     OW31069   2.412   4.508   6.323  0.4691  0.2548  0.0103
 6479SOL    HW131070   2.359   4.571   6.275 -0.9649 -2.2448 -1.7359
 6479SOL    HW231071   2.478   4.488   6.256  0.6679 -1.8027  0.8034
 6480SOL     OW31072   0.705   2.627   0.568 -0.5294 -0.3654 -0.3354
 6480SOL    HW131073   0.685   2.687   0.496  2.0506  0.5971 -0.2718
 6480SOL    HW231074   0.620   2.645   0.608 -0.5447  0.9348 -0.9242
 6481SOL     OW31075   4.505   4.003   7.557 -0.3294  0.2403 -0.3518
 6481SOL    HW131076   4.520   4.017   7.463 -1.1202 -0.9861 -0.6690
 6481SOL    HW231077   4.518   4.091   7.593 -1.3591 -0.1677  1.0283
 6482SOL     OW31078   4.350   2.870  15.949  0.2588  0.4559  0.3443
 6482SOL    HW131079   4.373   2.962  15.955 -4.2612  1.7092 -1.3872
 6482SOL    HW231080   4.257   2.875  15.971  0.0304  0.2521 -0.5750
 6483SOL     OW31081   0.620   2.988   0.688  0.1031 -0.1951 -0.4995
 6483SOL    HW131082   0.678   3.009   0.615  0.6717  1.8538  0.5398
 6483SOL    HW231083   0.560   3.060   0.670 -1.0911 -0.6297  1.7560
 6484SOL     OW31084   1.047   1.084   9.630  0.8563 -0.6620  0.1659
 6484SOL    HW131085   1.093   1.075   9.713 -1.2508 -1.8443  1.1993
 6484SOL    HW231086   1.031   1.178   9.634 -0.0583 -0.8244  0.2207
 6485SOL     OW31087   3.712   4.594   6.326  0.3590 -0.2969 -0.4703
 6485SOL    HW131088   3.744   4.541   6.253  0.7269  1.3265 -1.4749
 6485SOL    HW231089   3.690   4.674   6.278  0.3527 -1.2583 -2.0908
 6486SOL     OW31090   1.300   4.218  11.729 -0.5305  0.2066  0.2794
 6486SOL    HW131091   1.225   4.247  11.677 -0.9931 -0.9592  0.2931
 6486SOL    HW231092   1.361   4.173  11.670 -1.2639  1.3716 -1.3361
 6487SOL     OW31093   3.134   4.049   5.000 -0.3734  0.0569 -0.1452
 6487SOL    HW131094   3.172   4.015   4.919  2.3583  1.3869  0.5726
 6487SOL    HW231095   3.207   4.041   5.062  0.7037 -0.9996 -1.5496
 6488SOL     OW31096   3.373   4.249   7.448  0.4165 -0.7622  0.4845
 6488SOL    HW131097   3.309   4.260   7.519 -1.5392  1.1673 -1.5848
 6488SOL    HW231098   3.365   4.156   7.429  1.9226 -0.5792 -0.9898
 6489SOL     OW31099   1.651   0.722   6.905  0.1016  0.2456 -0.1357
 6489SOL    HW131100   1.684   0.644   6.860  0.5602  1.7480 -2.3902
 6489SOL    HW231101   1.585   0.676   6.957 -0.7853 -0.0830 -1.5604
 6490SOL     OW31102   3.094   4.605   8.341 -0.0098  0.2875 -0.3753
 6490SOL    HW131103   3.140   4.682   8.374 -1.6481 -0.2775  3.2439
 6490SOL    HW231104   3.154   4.541   8.380  0.8426  0.4269 -1.4526
 6491SOL     OW31105   0.161   3.861   5.595  0.0927  0.0473 -0.4409
 6491SOL    HW131106   0.125   3.800   5.531 -2.6337  1.6525 -0.4400
 6491SOL    HW231107   0.241   3.814   5.617  0.0987 -0.5708 -1.7517
 6492SOL     OW31108   0.363   1.002   6.196  0.2208 -0.4614 -0.4281
 6492SOL    HW131109   0.448   0.960   6.206 -0.3491 -1.8244 -1.4425
 6492SOL    HW231110   0.319   0.946   6.132 -0.4777 -1.5530  1.0207
 6493SOL     OW31111   3.882   0.524  12.677  0.2671  0.8993  0.1000
 6493SOL    HW131112   3.795   0.563  12.666 -1.4654 -2.2843  2.3984
 6493SOL    HW231113   3.912   0.548  12.765  0.3067 -0.6205  0.5003
 6494SOL     OW31114   2.188   3.183   8.851  0.0831 -0.7276 -0.2742
 6494SOL    HW131115   2.152   3.237   8.780 -0.9058 -0.9595  0.0560
 6494SOL    HW231116   2.279   3.175   8.823  0.4325  2.1195  0.0337
 6495SOL     OW31117   4.596   4.201  11.989 -0.4848 -0.4508  0.5076
 6495SOL    HW131118   4.541   4.192  12.067  0.2674 -1.0524  0.9753
 6495SOL    HW231119   4.638   4.285  12.007 -1.2513  0.1898 -0.7065
 6496SOL     OW31120   2.822   1.930   8.455 -0.3237  0.4411 -0.0449
 6496SOL    HW131121   2.849   2.006   8.506  1.6798 -0.1117 -0.2756
 6496SOL    HW231122   2.762   1.895   8.520 -1.6267 -2.1110 -2.6409
 6497SOL     OW31123   2.232   2.952   7.157  0.6573 -0.1459  0.2920
 6497SOL    HW131124   2.141   2.942   7.127  0.5413  0.1527  0.5417
 6497SOL    HW231125   2.257   2.998   7.076 -0.5813  1.3170  0.7293
 6498SOL     OW31126   1.357   2.443   7.180 -0.5937  0.3338 -0.3521
 6498SOL    HW131127   1.296   2.459   7.252 -0.6322 -0.9669 -0.0829
 6498SOL    HW231128   1.421   2.392   7.231  1.2593 -0.4910 -3.5132
 6499SOL     OW31129   1.892   1.187   2.608  0.2503  0.4025 -0.1469
 6499SOL    HW131130   1.827   1.238   2.561 -0.9592 -0.2334  0.8273
 6499SOL    HW231131   1.942   1.258   2.649  0.0783  1.1012 -1.1604
 6500SOL     OW31132   0.037   0.979  11.852  0.4879  0.2165  0.1801
 6500SOL    HW131133   4.725   0.991  11.770 -0.7795 -0.0819  0.9061
 6500SOL    HW231134   0.102   0.918  11.818  0.5421  1.0016 -1.1217
 6501SOL     OW31135   0.241   1.469   7.747  0.2338  0.0452  0.1669
 6501SOL    HW131136   0.317   1.515   7.784  0.0634  0.7274 -0.3312
 6501SOL    HW231137   0.196   1.450   7.829 -1.7861  1.7222 -0.5594
 6502SOL     OW31138   2.608   0.379   8.814  0.9659  0.1988  0.3475
 6502SOL    HW131139   2.605   0.312   8.883 -1.1829  1.0330  1.0810
 6502SOL    HW231140   2.699   0.383   8.785  1.8875 -0.5880  3.0470
 6503SOL     OW31141   1.233   4.265   7.436  0.1135 -0.4994 -0.2249
 6503SOL    HW131142   1.314   4.250   7.485  0.0317 -2.0711 -0.5639
 6503SOL    HW231143   1.256   4.356   7.417  1.4888 -0.5642  1.1191
 6504SOL     OW31144   3.973   3.577   4.426 -0.2326  0.1382  0.0814
 6504SOL    HW131145   3.911   3.517   4.384  0.1845 -0.9534  1.0226
 6504SOL    HW231146   4.052   3.544   4.383 -1.6958 -1.1087 -1.6993
 6505SOL     OW31147   2.657   4.517  10.696 -0.1649 -0.1948 -0.0623
 6505SOL    HW131148   2.741   4.544  10.660 -0.4967  0.6223 -0.2105
 6505SOL    HW231149   2.604   4.561  10.630  2.3612  0.2904 -1.7799
 6506SOL     OW31150   1.377   3.650   9.816 -0.3698  0.0697 -0.1627
 6506SOL    HW131151   1.305   3.712   9.806  0.1294  0.7089  0.1814
 6506SOL    HW231152   1.388   3.643   9.911 -1.8138 -0.0553 -0.0130
 6507SOL     OW31153   3.782   2.613  11.873  0.0298  0.1723 -0.3801
 6507SOL    HW131154   3.713   2.668  11.911  0.7946  2.0444 -1.7266
 6507SOL    HW231155   3.756   2.613  11.781 -1.9899  0.7952  0.1804
 6508SOL     OW31156   2.836   4.625  13.006  0.7064 -0.1907  0.1234
 6508SOL    HW131157   2.909   4.621  12.945  1.0063 -1.6991  0.5823
 6508SOL    HW231158   2.819   4.719  12.993  1.5599  0.1464  1.4255
 6509SOL     OW31159   1.046   2.921  12.076 -0.0230 -0.7674 -0.0477
 6509SOL    HW131160   1.074   2.966  12.156 -0.5843  0.1213 -0.3489
 6509SOL    HW231161   0.990   2.987  12.035  0.6054  0.2039  0.6662
 6510SOL     OW31162   1.937   0.032   4.244  0.3922 -0.0227  0.3332
 6510SOL    HW131163   1.958   0.077   4.326  1.6200 -0.4797  0.2803
 6510SOL    HW231164   1.848   0.004   4.266  0.3175 -1.1593 -1.4004
 6511SOL     OW31165   1.792   4.684  10.971 -0.3497 -0.3414 -0.1711
 6511SOL    HW131166   1.726   4.736  10.925  0.1523  0.7393  0.3340
 6511SOL    HW231167   1.869   4.701  10.917  0.0911  0.1642  0.6089
 6512SOL     OW31168   0.967   1.967   4.765 -0.0997 -0.1444  0.0454
 6512SOL    HW131169   1.034   1.916   4.811  0.6695 -0.5298 -1.5153
 6512SOL    HW231170   0.893   1.943   4.822  0.8651 -0.1034  1.3190
 6513SOL     OW31171   4.618   4.643   6.842 -0.9261  0.0151  0.0031
 6513SOL    HW131172   4.543   4.614   6.791 -0.6008  1.1060 -1.1024
 6513SOL    HW231173   4.626   4.733   6.810  0.8665  0.0905  0.6420
 6514SOL     OW31174   1.262   1.706   8.959 -0.1202  0.6276  0.6146
 6514SOL    HW131175   1.214   1.641   9.009  0.7773  0.3991  1.1799
 6514SOL    HW231176   1.210   1.786   8.971  0.1974  0.6956  1.5522
 6515SOL     OW31177   0.360   1.000   9.650  0.6073 -0.0876 -0.5745
 6515SOL    HW131178   0.410   0.951   9.715 -0.9862 -1.5294 -0.4507
 6515SOL    HW231179   0.276   1.031   9.683  0.4074 -1.1553 -0.0961
 6516SOL     OW31180   4.277   0.995   5.879  0.1203  0.1307  0.1525
 6516SOL    HW131181   4.306   0.933   5.947 -1.8155  1.2422  2.0278
 6516SOL    HW231182   4.215   0.953   5.819  0.4476  2.4156 -1.7398
 6517SOL     OW31183   3.055   4.298   9.986 -0.3964  0.0266  0.1069
 6517SOL    HW131184   3.145   4.331   9.980 -0.6747  0.2086 -2.7460
 6517SOL    HW231185   3.072   4.205   9.969  5.0260  0.6754  1.9594
 6518SOL     OW31186   0.232   0.543   4.482  0.6222 -0.1074  0.2428
 6518SOL    HW131187   0.244   0.637   4.475 -0.6930 -0.0459 -1.2952
 6518SOL    HW231188   0.148   0.546   4.529 -0.5850 -0.1237 -1.9011
 6519SOL     OW31189   3.864   4.352   6.763 -0.7221 -0.7939  0.0627
 6519SOL    HW131190   3.887   4.424   6.822 -2.0117 -0.8637  0.6573
 6519SOL    HW231191   3.769   4.365   6.764 -0.9487 -2.4365 -0.1971
 6520SOL     OW31192   3.545   2.144   2.148  0.1087 -0.4531  0.6222
 6520SOL    HW131193   3.498   2.203   2.207 -0.7784 -0.4964 -0.0409
 6520SOL    HW231194   3.609   2.104   2.207 -0.3173 -3.3048 -0.8289
 6521SOL     OW31195   3.940   4.610  12.174  0.3130 -0.2663 -1.2078
 6521SOL    HW131196   3.986   4.693  12.190 -0.5686 -0.5203  2.5663
 6521SOL    HW231197   4.004   4.554  12.216  0.6224 -0.4261 -1.8873
 6522SOL     OW31198   4.647   0.390   7.532 -0.4433 -0.0067 -0.7620
 6522SOL    HW131199   4.687   0.461   7.582 -0.5753 -0.5264  0.0936
 6522SOL    HW231200   4.729   0.355   7.498 -0.0381  0.3365 -0.1533
 6523SOL     OW31201   3.957   0.966   2.567  0.2048 -0.3914 -0.4113
 6523SOL    HW131202   4.045   0.972   2.532  1.0728 -4.6824  1.1033
 6523SOL    HW231203   3.929   1.055   2.545  0.7572  0.2056  1.2224
 6524SOL     OW31204   2.731   1.154   1.593  0.1903 -0.5550  0.2863
 6524SOL    HW131205   2.721   1.199   1.510  2.2038  0.2687  0.4821
 6524SOL    HW231206   2.824   1.177   1.602 -0.2298  1.7119 -1.3664
 6525SOL     OW31207   1.025   2.477  12.971  0.3190  0.4785 -0.3373
 6525SOL    HW131208   1.059   2.523  13.048 -0.5800 -0.4739  0.6357
 6525SOL    HW231209   1.063   2.390  12.980 -0.1238  0.1181 -1.9607
 6526SOL     OW31210   1.522   3.809   2.641  0.5531  0.8183  0.1974
 6526SOL    HW131211   1.447   3.850   2.599  0.8633  0.0773 -1.0612
 6526SOL    HW231212   1.523   3.722   2.600  2.0277  0.5204  0.8762
 6527SOL     OW31213   2.259   2.765  15.988 -0.3808  0.1579  0.3226
 6527SOL    HW131214   2.289   2.675  15.973 -2.2346 -0.4112  0.0873
 6527SOL    HW231215   2.193   2.774  15.920 -1.4424 -0.9197  1.2243
 6528SOL     OW31216   4.093   1.300  14.167 -0.7692 -0.5206  0.0368
 6528SOL    HW131217   4.123   1.369  14.227  3.5360 -3.7162  1.5517
 6528SOL    HW231218   4.017   1.260  14.209 -0.2769 -1.5536 -0.0540
 6529SOL     OW31219   3.906   3.569  11.386  0.1066  0.4394 -0.5660
 6529SOL    HW131220   3.917   3.628  11.311 -0.0598  0.7408 -0.3566
 6529SOL    HW231221   3.987   3.518  11.396  0.1843  0.8680  1.0407
 6530SOL     OW31222   3.510   0.415  17.003  0.0272  0.6769 -0.2902
 6530SOL    HW131223   3.457   0.448  16.929  0.6205 -0.9854 -1.4608
 6530SOL    HW231224   3.473   0.327  17.006  4.1348 -1.0116  0.0052
 6531SOL     OW31225   0.988   3.099   7.628  0.2965 -0.1751  0.2988
 6531SOL    HW131226   1.019   3.188   7.613 -0.4570 -0.0187 -0.3184
 6531SOL    HW231227   0.916   3.085   7.566  0.0836  1.5704  0.1709
 6532SOL     OW31228   4.548   3.854   3.033 -0.2156  0.1971 -0.0958
 6532SOL    HW131229   4.509   3.767   3.027  2.1895 -0.9562  0.9593
 6532SOL    HW231230   4.613   3.831   3.099 -0.7952  0.0062  0.4111
 6533SOL     OW31231   3.714   1.669   6.666 -0.1994 -0.2929  0.1984
 6533SOL    HW131232   3.737   1.622   6.586  0.7615 -1.1053  0.9669
 6533SOL    HW231233   3.772   1.745   6.675 -0.3927  0.0165 -1.1424
 6534SOL     OW31234   2.792   2.306   5.080  0.1107 -0.8844 -0.5892
 6534SOL    HW131235   2.758   2.235   5.135 -0.4389  0.3128  0.6172
 6534SOL    HW231236   2.709   2.327   5.037  1.1592  2.9637 -0.7807
 6535SOL     OW31237   2.363   0.651   3.518  0.2954 -0.4118  0.3082
 6535SOL    HW131238   2.375   0.738   3.556  0.6010 -0.5496  0.5348
 6535SOL    HW231239   2.335   0.603   3.596  0.9455 -0.8093  0.2990
 6536SOL     OW31240   0.098   0.290   7.357  0.2899 -0.4297  0.3459
 6536SOL    HW131241   0.173   0.289   7.416 -0.0888 -1.9785  0.7893
 6536SOL    HW231242   0.113   0.375   7.315  1.1481 -0.7747 -0.0394
 6537SOL     OW31243   3.839   2.587  15.244  0.8260 -0.4512  0.2636
 6537SOL    HW131244   3.880   2.597  15.158 -1.0109  0.2021 -0.5462
 6537SOL    HW231245   3.747   2.612  15.230  1.1400  0.6035  0.0909
 6538SOL     OW31246   2.147   2.949  12.371  0.1370 -0.1960 -0.9234
 6538SOL    HW131247   2.229   2.984  12.338  0.5267 -1.4696 -1.3113
 6538SOL    HW231248   2.158   2.856  12.349  2.3982 -0.6200  2.0018
 6539SOL     OW31249   3.068   3.596   3.498  0.4512  0.7487  0.1349
 6539SOL    HW131250   3.051   3.537   3.572  1.0094 -0.3961 -0.6478
 6539SOL    HW231251   2.990   3.646   3.477 -1.5010 -1.2010  2.6201
 6540SOL     OW31252   3.302   1.373  11.899  0.4546  0.1546  0.0921
 6540SOL    HW131253   3.391   1.388  11.931  0.1158  0.3288  0.9455
 6540SOL    HW231254   3.246   1.382  11.976  0.1721  1.4477 -0.2555
 6541SOL     OW31255   3.677   2.215  12.149 -0.5286 -0.6209 -0.5659
 6541SOL    HW131256   3.736   2.287  12.125 -2.4373  1.5078  1.2178
 6541SOL    HW231257   3.736   2.146  12.180 -0.7321 -1.0745 -1.1770
 6542SOL     OW31258   3.279   0.024   3.456 -0.4461 -0.3040  0.1670
 6542SOL    HW131259   3.210   4.695   3.455 -1.5716  0.8449  1.4435
 6542SOL    HW231260   3.356   4.705   3.461  0.2493  0.6226 -0.1299
 6543SOL     OW31261   1.360   3.474   8.865  0.2639  0.1753 -0.0179
 6543SOL    HW131262   1.335   3.513   8.781  0.7687 -1.8447 -1.1105
 6543SOL    HW231263   1.411   3.399   8.834  1.0650  0.3187  0.9751
 6544SOL     OW31264   0.927   3.246  13.568 -0.1916  0.0143  0.2615
 6544SOL    HW131265   0.995   3.211  13.510 -1.2221  2.4020 -2.3963
 6544SOL    HW231266   0.950   3.201  13.649 -1.2359 -2.4972 -0.8210
 6545SOL     OW31267   3.020   3.859  12.322  0.2894  0.5358  0.3609
 6545SOL    HW131268   2.958   3.908  12.268 -0.7066 -0.4964  0.5449
 6545SOL    HW231269   3.019   3.904  12.407 -0.1176  0.5813  0.3326
 6546SOL     OW31270   3.613   2.475   2.199  0.1291 -0.2527  0.6871
 6546SOL    HW131271   3.541   2.413   2.210 -0.5485  0.2368 -1.0776
 6546SOL    HW231272   3.659   2.470   2.283  1.5594 -2.4141 -0.2086
 6547SOL     OW31273   3.081   1.764   1.478 -0.6799  0.3622  0.2298
 6547SOL    HW131274   3.063   1.701   1.546 -2.2620 -2.0083 -2.3986
 6547SOL    HW231275   2.994   1.802   1.482 -0.5670  0.6843 -0.2843
 6548SOL     OW31276   1.548   0.388   1.226  0.5901  0.7090  0.5309
 6548SOL    HW131277   1.536   0.420   1.316  0.9179  0.4872  0.6549
 6548SOL    HW231278   1.642   0.401   1.213  0.1576  2.3229 -0.9070
 6549SOL     OW31279   2.828   0.444   8.683 -0.7528 -0.1964  0.2309
 6549SOL    HW131280   2.907   0.408   8.641  0.0151 -0.2783  1.7235
 6549SOL    HW231281   2.882   0.487   8.749  0.1355  0.0358 -0.6392
 6550SOL     OW31282   4.236   3.727   7.969 -0.1973 -0.0694  0.0690
 6550SOL    HW131283   4.306   3.673   8.005 -0.0030 -0.1889 -0.5061
 6550SOL    HW231284   4.292   3.799   7.941 -0.4925 -0.2601 -0.9785
 6551SOL     OW31285   0.076   2.922   8.005 -0.5635 -0.1910  0.0396
 6551SOL    HW131286   0.053   3.011   7.979  0.0594  0.6468  2.4161
 6551SOL    HW231287   0.170   2.942   8.007 -1.2188  2.7303  0.6737
 6552SOL     OW31288   0.439   4.154   5.835 -0.0795  0.3984  0.6581
 6552SOL    HW131289   0.490   4.186   5.909  0.8297  0.7995 -0.1348
 6552SOL    HW231290   0.447   4.059   5.842 -0.2940  0.1281 -2.5094
 6553SOL     OW31291   4.256   0.529  15.859  0.0249  0.0848  0.0458
 6553SOL    HW131292   4.226   0.620  15.854  2.0634  0.8477  1.4339
 6553SOL    HW231293   4.201   0.478  15.799  0.0840  1.3995 -1.1412
 6554SOL     OW31294   0.406   4.440   8.336  0.1324  0.1007  0.7947
 6554SOL    HW131295   0.480   4.415   8.280 -0.8284 -0.6308 -0.1423
 6554SOL    HW231296   0.330   4.422   8.280 -0.2348  1.1269  0.9542
 6555SOL     OW31297   4.076   1.755   9.578  0.2948 -0.4351 -0.2099
 6555SOL    HW131298   4.089   1.677   9.524 -3.1627 -1.6503  0.6776
 6555SOL    HW231299   4.086   1.723   9.668  1.5590 -2.7805 -1.2122
 6556SOL     OW31300   3.977   0.021  14.067  0.7218 -0.3955  0.2635
 6556SOL    HW131301   3.904   0.015  14.006  0.2143 -0.2927  0.8682
 6556SOL    HW231302   3.945   4.706  14.141 -1.2495  0.9391  0.3549
 6557SOL     OW31303   2.820   2.239   0.873 -0.0044 -0.6667  0.3120
 6557SOL    HW131304   2.871   2.159   0.856  0.0615 -0.0809 -2.1881
 6557SOL    HW231305   2.810   2.280   0.787 -0.1201  0.2141  0.7489
 6558SOL     OW31306   1.063   0.559   9.718 -0.3473 -0.7539  0.4264
 6558SOL    HW131307   1.087   0.651   9.709  1.1635 -1.1566  0.2867
 6558SOL    HW231308   0.970   0.570   9.699  0.0149  0.3644 -0.7238
 6559SOL     OW31309   0.403   1.582   8.919  0.4468 -0.0467  0.1650
 6559SOL    HW131310   0.399   1.653   8.854  0.3520 -1.2423 -1.1252
 6559SOL    HW231311   0.329   1.609   8.973  1.2810  1.0905  0.7607
 6560SOL     OW31312   2.152   0.294   5.296 -0.2190 -0.2882  0.0983
 6560SOL    HW131313   2.192   0.378   5.275 -0.9760 -0.4304 -1.9434
 6560SOL    HW231314   2.170   0.280   5.388  1.3221  1.8401  0.1145
 6561SOL     OW31315   0.176   2.370   1.052 -0.3317  0.0765 -0.1715
 6561SOL    HW131316   0.087   2.388   1.085  0.4361  0.7361  1.5270
 6561SOL    HW231317   0.207   2.445   1.002 -0.0321 -0.4525 -0.7752
 6562SOL     OW31318   1.591   1.042   2.806  0.4508  0.5477 -0.2556
 6562SOL    HW131319   1.564   1.111   2.745  0.9250  1.2343  0.3125
 6562SOL    HW231320   1.678   1.012   2.781  0.5370  1.3842 -0.9645
 6563SOL     OW31321   4.212   0.386   1.352  0.2112 -0.0170  0.6052
 6563SOL    HW131322   4.274   0.356   1.418  0.1990 -1.1123  0.1226
 6563SOL    HW231323   4.179   0.305   1.314  1.2258 -0.4619  0.6865
 6564SOL     OW31324   0.334   4.482   6.181  0.1551  0.0262  0.3126
 6564SOL    HW131325   0.340   4.517   6.270 -1.6206  0.6902  0.1828
 6564SOL    HW231326   0.407   4.528   6.139  0.1703  2.4348  2.9436
 6565SOL     OW31327   3.658   1.923   3.067 -0.0482  0.8969  0.1085
 6565SOL    HW131328   3.724   1.854   3.075  0.2824  1.3750  1.5118
 6565SOL    HW231329   3.684   1.994   3.126  1.9450  0.5814 -0.4097
 6566SOL     OW31330   3.468   4.023  15.734  0.3158  0.0209  0.3117
 6566SOL    HW131331   3.549   4.059  15.771  0.3360 -0.6480  0.9037
 6566SOL    HW231332   3.468   3.941  15.782  0.9738 -0.8986 -1.2640
 6567SOL     OW31333   3.809   2.956  12.601  1.4479 -0.1908 -0.1997
 6567SOL    HW131334   3.845   2.879  12.646 -2.2662 -1.5165  0.5711
 6567SOL    HW231335   3.795   3.011  12.678  0.0822  0.1084 -0.6568
 6568SOL     OW31336   2.464   0.080  17.010  0.2463 -0.1550 -0.4365
 6568SOL    HW131337   2.379   0.079  17.054  1.6810  0.3155  2.3994
 6568SOL    HW231338   2.512   0.007  17.049  0.8335  1.5846  2.1183
 6569SOL     OW31339   1.612   0.662   9.164  0.0309 -0.4364  0.0175
 6569SOL    HW131340   1.682   0.613   9.206 -1.0682  0.6394  3.1028
 6569SOL    HW231341   1.572   0.706   9.239  0.0462  0.6299 -0.5946
 6570SOL     OW31342   0.182   2.741   8.926 -0.6354 -0.1830  0.3416
 6570SOL    HW131343   0.186   2.735   8.831  1.6782 -0.1538  0.4475
 6570SOL    HW231344   0.122   2.814   8.942 -0.3761 -0.1372  1.1407
 6571SOL     OW31345   3.481   0.216   7.705  0.1492 -0.2633  0.0961
 6571SOL    HW131346   3.562   0.184   7.746 -0.8435 -2.6871  0.1712
 6571SOL    HW231347   3.444   0.283   7.762 -0.5786 -1.1456  0.6678
 6572SOL     OW31348   3.469   4.244   5.858 -0.3597 -0.9896 -0.4731
 6572SOL    HW131349   3.404   4.248   5.928 -0.1456 -2.5833 -0.1778
 6572SOL    HW231350   3.421   4.177   5.810 -2.6254 -0.7470  1.4327
 6573SOL     OW31351   1.271   0.169   8.757 -0.0688  0.3578 -0.4643
 6573SOL    HW131352   1.323   0.116   8.697 -0.2523 -1.8798  1.3834
 6573SOL    HW231353   1.339   0.192   8.821  2.4811 -0.8524 -2.7604
 6574SOL     OW31354   4.087   0.303   4.519  0.4615 -0.0627  0.1450
 6574SOL    HW131355   4.119   0.259   4.440  1.8577  1.6605 -0.2489
 6574SOL    HW231356   4.071   0.388   4.478 -1.8245 -1.3080 -1.5865
 6575SOL     OW31357   1.125   0.996  10.401  0.5189 -0.7569 -0.0502
 6575SOL    HW131358   1.071   1.054  10.347  0.9610 -0.5890 -0.3178
 6575SOL    HW231359   1.185   0.962  10.334  2.7731  2.1415  0.4624
 6576SOL     OW31360   1.101   4.391   6.102  0.0948  0.4404  0.4403
 6576SOL    HW131361   1.192   4.368   6.118 -0.0613 -1.7628 -1.6951
 6576SOL    HW231362   1.111   4.459   6.035  2.0744  0.6680  0.9745
 6577SOL     OW31363   2.886   2.707   2.089  0.4105 -0.1137 -0.0435
 6577SOL    HW131364   2.981   2.700   2.096  0.1173 -2.5579  1.4202
 6577SOL    HW231365   2.878   2.617   2.058 -1.5442  0.4966 -1.3365
 6578SOL     OW31366   1.934   0.586  14.769 -0.1512 -0.9406 -0.4481
 6578SOL    HW131367   1.950   0.567  14.862 -2.0037  0.2393  0.1091
 6578SOL    HW231368   1.880   0.511  14.747 -0.6043 -1.1567  1.3991
 6579SOL     OW31369   0.093   1.267  11.869  0.5265  0.2799  0.0327
 6579SOL    HW131370   0.082   1.175  11.894  0.2793  0.5519  0.9159
 6579SOL    HW231371   0.090   1.310  11.955  1.6940  0.1972  0.1210
 6580SOL     OW31372   0.467   4.622  15.456  0.0983 -0.2405 -0.1148
 6580SOL    HW131373   0.550   4.647  15.497  0.4972 -1.3646 -0.2333
 6580SOL    HW231374   0.404   4.672  15.509  0.1872 -0.6614  0.3870
 6581SOL     OW31375   4.503   0.952  15.665 -0.5602  0.4303 -0.1227
 6581SOL    HW131376   4.491   0.877  15.606 -0.4771 -0.0350  0.4465
 6581SOL    HW231377   4.480   1.016  15.599 -0.8844  0.5094  0.0645
 6582SOL     OW31378   3.136   3.640   0.829 -0.6587  0.4100 -0.1081
 6582SOL    HW131379   3.094   3.694   0.896 -1.3940 -2.1365  1.5128
 6582SOL    HW231380   3.225   3.671   0.816 -0.8993  1.3615  0.5609
 6583SOL     OW31381   2.700   2.106   1.860 -0.7708 -0.4668 -0.4490
 6583SOL    HW131382   2.679   2.186   1.811  2.0859  0.6573  0.1531
 6583SOL    HW231383   2.794   2.093   1.847 -0.1546  2.0029  1.4973
 6584SOL     OW31384   3.158   3.805  11.978 -0.0330 -0.1999  0.1709
 6584SOL    HW131385   3.179   3.877  12.037  3.1088 -1.6254  0.8331
 6584SOL    HW231386   3.214   3.741  12.024 -0.5024 -0.4238  0.4277
 6585SOL     OW31387   1.723   1.084  14.434  0.1009  0.4441  0.5225
 6585SOL    HW131388   1.753   1.097  14.344 -0.9697  0.1787  0.1182
 6585SOL    HW231389   1.718   0.989  14.441  2.2984  0.2282 -0.8895
 6586SOL     OW31390   0.510   1.869   2.011 -0.3385 -0.1141 -0.0603
 6586SOL    HW131391   0.445   1.939   2.002  1.9755  2.2948  1.9858
 6586SOL    HW231392   0.524   1.855   1.918  2.9841 -0.7257  0.5408
 6587SOL     OW31393   2.326   2.557   8.788  0.5761  0.5464 -0.1537
 6587SOL    HW131394   2.413   2.521   8.768  1.7618  2.9967  0.6374
 6587SOL    HW231395   2.324   2.542   8.882  0.0248  1.5112 -0.0214
 6588SOL     OW31396   1.068   4.665   3.498 -0.0576  0.5407 -0.4136
 6588SOL    HW131397   0.992   4.713   3.532  0.1837  2.4222 -2.5445
 6588SOL    HW231398   1.036   4.640   3.412  0.5855  1.1119 -0.8214
 6589SOL     OW31399   1.791   1.482   9.044  0.2174 -0.2953  0.0600
 6589SOL    HW131400   1.785   1.462   8.950 -2.3460  0.3131  0.0839
 6589SOL    HW231401   1.704   1.518   9.061  1.1552  3.4190 -3.0968
 6590SOL     OW31402   2.870   1.056   3.034 -0.4325  0.6264  0.0742
 6590SOL    HW131403   2.821   1.010   3.102  1.2036  1.4030  1.7847
 6590SOL    HW231404   2.918   1.125   3.080 -0.9700  1.0241  0.0377
 6591SOL     OW31405   0.798   2.563   7.612  0.1639  0.5992  0.5649
 6591SOL    HW131406   0.835   2.517   7.536 -0.9419  1.3682 -0.4420
 6591SOL    HW231407   0.875   2.594   7.658  0.3706 -0.6834  1.0838
 6592SOL     OW31408   1.232   1.543   2.619  0.1109  0.0162 -0.2461
 6592SOL    HW131409   1.142   1.532   2.589 -0.1335  0.2848  0.3769
 6592SOL    HW231410   1.242   1.456   2.658 -0.6135 -0.2385 -0.6367
 6593SOL     OW31411   3.110   3.664   5.090 -0.4925 -0.2773  0.2152
 6593SOL    HW131412   3.113   3.588   5.149 -4.1173 -1.7837 -1.5860
 6593SOL    HW231413   3.046   3.630   5.028  1.1064 -2.5324 -0.1983
 6594SOL     OW31414   0.149   0.800   5.428  0.0911 -0.0999 -0.4144
 6594SOL    HW131415   0.136   0.795   5.333 -1.0332  3.5448 -0.4613
 6594SOL    HW231416   0.095   0.879   5.441 -1.0322 -0.8684 -0.4223
 6595SOL     OW31417   0.033   1.814   8.820 -0.2815  0.2227 -0.1008
 6595SOL    HW131418   4.700   1.866   8.782 -1.3999 -1.2385 -0.0219
 6595SOL    HW231419   4.735   1.727   8.839 -0.6191  0.3129 -0.3263
 6596SOL     OW31420   2.054   4.548   4.122  0.1755 -0.3235  0.3164
 6596SOL    HW131421   2.145   4.563   4.150 -0.0543  1.4650  0.0734
 6596SOL    HW231422   2.009   4.620   4.166 -0.0464 -1.8178  2.5399
 6597SOL     OW31423   3.561   0.034   2.735 -0.7425 -0.1961  0.1568
 6597SOL    HW131424   3.586   4.697   2.790  1.9084  0.8551  0.3770
 6597SOL    HW231425   3.496   0.074   2.792 -0.7283  0.6924 -0.4543
 6598SOL     OW31426   0.185   1.339   8.244  0.0292  0.0700 -0.4608
 6598SOL    HW131427   0.160   1.349   8.336 -1.2274  1.1833 -0.9208
 6598SOL    HW231428   0.247   1.407   8.218  1.9537 -1.6760 -0.4207
 6599SOL     OW31429   0.093   0.959   6.432  0.2073 -0.2420  0.1239
 6599SOL    HW131430   0.059   0.870   6.433  1.6702 -0.8141 -0.7001
 6599SOL    HW231431   0.184   0.949   6.462 -0.0948 -0.9546  0.8076
 6600SOL     OW31432   3.856   4.171   7.028  0.8152 -0.2220 -0.0094
 6600SOL    HW131433   3.893   4.254   6.998  2.3803 -0.8717  0.1385
 6600SOL    HW231434   3.832   4.129   6.945  0.0184  2.1231 -0.9624
 6601SOL     OW31435   4.227   2.049   4.058  0.6242  1.1984 -0.5398
 6601SOL    HW131436   4.168   2.105   4.008  1.7029  2.5134 -0.3031
 6601SOL    HW231437   4.228   2.093   4.143  2.7396  1.2589 -0.6171
 6602SOL     OW31438   3.589   4.122   5.612 -0.1009 -0.0935 -0.8308
 6602SOL    HW131439   3.597   4.163   5.698 -1.5382 -0.2719 -0.6165
 6602SOL    HW231440   3.500   4.091   5.592 -0.7877  0.5213  1.3008
 6603SOL     OW31441   3.397   3.689   2.954 -0.8363  0.2237  0.3633
 6603SOL    HW131442   3.374   3.609   2.908 -0.2124 -0.3233  1.0016
 6603SOL    HW231443   3.491   3.693   2.936 -1.0936  0.5319 -0.8674
 6604SOL     OW31444   1.459   1.743   8.756  0.2873  0.4629 -0.1028
 6604SOL    HW131445   1.397   1.698   8.813  3.1449 -1.4103  1.4942
 6604SOL    HW231446   1.427   1.715   8.670 -2.2253 -1.3339  1.4128
 6605SOL     OW31447   3.454   4.383  17.000 -0.2709 -0.1420  0.1636
 6605SOL    HW131448   3.358   4.383  17.007 -0.2445 -2.4677  0.5625
 6605SOL    HW231449   3.463   4.362  16.907 -1.8695 -3.3408  0.7207
 6606SOL     OW31450   1.145   1.241  14.773  0.1845  0.2538  0.1015
 6606SOL    HW131451   1.207   1.172  14.796  0.8121  1.0929  0.9176
 6606SOL    HW231452   1.100   1.201  14.699  1.4930 -2.8699  0.9900
 6607SOL     OW31453   2.388   3.158   4.420  0.1038  0.1704  0.5735
 6607SOL    HW131454   2.328   3.227   4.447 -1.1704 -0.7567  0.0769
 6607SOL    HW231455   2.436   3.205   4.352  0.6936 -3.2204 -1.3615
 6608SOL     OW31456   0.954   0.160   8.114 -0.1864 -0.2344  0.1243
 6608SOL    HW131457   0.936   0.089   8.175 -0.9390  0.8059  1.1229
 6608SOL    HW231458   0.989   0.226   8.174  0.7281 -1.0373  0.4605
 6609SOL     OW31459   4.517   4.295   3.290  0.2753 -0.1709 -0.4248
 6609SOL    HW131460   4.602   4.263   3.259  1.1546  1.3807  0.4147
 6609SOL    HW231461   4.468   4.213   3.287  0.2736 -0.2094  0.7930
 6610SOL     OW31462   3.869   0.660   1.368 -0.2899  0.1307 -0.3022
 6610SOL    HW131463   3.845   0.591   1.306 -1.1520  1.0503 -0.9802
 6610SOL    HW231464   3.801   0.727   1.367 -1.7778 -1.3561  0.7242
 6611SOL     OW31465   0.181   1.871   2.533  0.3614 -0.1233  0.1041
 6611SOL    HW131466   0.274   1.887   2.518  0.3156 -1.3930 -1.4942
 6611SOL    HW231467   0.180   1.777   2.553  2.1467  0.0475  0.9597
 6612SOL     OW31468   3.068   3.389   0.759  0.0732  0.1894  0.1851
 6612SOL    HW131469   3.106   3.363   0.843 -0.3658  2.4124  1.0948
 6612SOL    HW231470   3.081   3.484   0.766  0.8463  0.1109 -0.1340
 6613SOL     OW31471   1.324   0.847   5.425 -0.3426  0.1577  0.3033
 6613SOL    HW131472   1.247   0.902   5.407 -0.1118  0.7747  1.1614
 6613SOL    HW231473   1.344   0.886   5.511 -0.7461 -0.8537  0.8533
 6614SOL     OW31474   0.651   4.081   8.930 -0.2473 -0.1317 -0.1519
 6614SOL    HW131475   0.605   4.029   8.864  2.2093  0.0883 -2.0028
 6614SOL    HW231476   0.737   4.067   8.892  0.3507 -1.8779  1.8264
 6615SOL     OW31477   0.318   3.538  12.291 -0.2304  0.7100 -0.4982
 6615SOL    HW131478   0.380   3.469  12.264 -1.4293 -0.9576  1.0243
 6615SOL    HW231479   0.333   3.515  12.383 -2.4242 -2.3935 -0.9274
 6616SOL     OW31480   4.197   1.055  14.532  0.2156 -0.3464 -0.1224
 6616SOL    HW131481   4.139   0.994  14.577  0.1593 -1.6859 -2.0382
 6616SOL    HW231482   4.277   1.002  14.535  0.3706 -0.1179 -0.1794
 6617SOL     OW31483   0.573   3.201   7.912 -0.0783  0.0568  0.4231
 6617SOL    HW131484   0.601   3.112   7.892 -0.3224  0.1721 -0.4120
 6617SOL    HW231485   0.638   3.247   7.860 -1.6177  1.1320 -0.5413
 6618SOL     OW31486   4.346   0.595  16.701 -0.2645 -0.2594 -0.1123
 6618SOL    HW131487   4.361   0.627  16.790  0.0655 -1.1783  0.1641
 6618SOL    HW231488   4.259   0.556  16.715 -0.7135  1.4555  1.8738
 6619SOL     OW31489   1.369   3.938   5.032 -0.3010 -0.2348 -0.1267
 6619SOL    HW131490   1.340   3.852   5.004 -2.9409  0.6166  0.0061
 6619SOL    HW231491   1.463   3.919   5.040 -0.4724 -0.5262  1.2950
 6620SOL     OW31492   3.575   2.312   5.724 -0.2097  0.7710  0.8839
 6620SOL    HW131493   3.588   2.288   5.632  0.0147  0.1942  1.0689
 6620SOL    HW231494   3.494   2.362   5.715  0.1376  1.3550  1.0104
 6621SOL     OW31495   2.542   1.012   5.649 -0.2837 -0.3932  0.4402
 6621SOL    HW131496   2.448   1.017   5.662 -0.2127 -0.0712  0.8154
 6621SOL    HW231497   2.540   0.943   5.583  0.7679 -1.4324  1.4994
 6622SOL     OW31498   0.630   4.090  16.649  0.5670  0.1986  0.2413
 6622SOL    HW131499   0.612   4.084  16.555  0.4736  1.9359  0.1495
 6622SOL    HW231500   0.633   4.185  16.653  0.1632  0.1860  0.7622
 6623SOL     OW31501   2.032   2.500  14.682  0.1383 -0.0174  0.7240
 6623SOL    HW131502   2.120   2.496  14.644 -0.0171 -0.8500  0.4508
 6623SOL    HW231503   1.991   2.428  14.635  0.3206 -0.7704  1.7154
 6624SOL     OW31504   3.209   2.028   5.847 -0.2899  0.5354 -1.0549
 6624SOL    HW131505   3.175   2.037   5.758  0.6016 -1.6554 -1.6069
 6624SOL    HW231506   3.185   1.939   5.872  1.3817  0.5922  0.7032
 6625SOL     OW31507   3.546   3.933   4.780 -0.2188 -0.2573  0.3053
 6625SOL    HW131508   3.558   3.850   4.825 -3.0947 -0.6000  0.4529
 6625SOL    HW231509   3.451   3.944   4.771 -0.2040 -1.1581 -0.9643
 6626SOL     OW31510   1.282   1.299   2.736  0.2570 -0.2698  0.0100
 6626SOL    HW131511   1.297   1.205   2.723 -1.2522 -0.6203  0.8200
 6626SOL    HW231512   1.316   1.293   2.825 -0.9207 -2.2222  0.3271
 6627SOL     OW31513   1.376   3.261   6.940 -0.8254 -1.0034  0.0907
 6627SOL    HW131514   1.370   3.349   6.976  3.1468  0.3166 -2.4858
 6627SOL    HW231515   1.282   3.244   6.953 -1.4795  1.7486 -1.0970
 6628SOL     OW31516   0.473   1.609   5.840 -0.6865 -0.0459 -0.4040
 6628SOL    HW131517   0.413   1.568   5.779  0.9022 -0.2097 -1.8411
 6628SOL    HW231518   0.556   1.565   5.823 -0.0480  1.1834 -0.4836
 6629SOL     OW31519   3.233   4.591   9.248 -0.2695 -0.1122  0.0210
 6629SOL    HW131520   3.254   4.523   9.311 -0.7630 -0.7988 -0.5557
 6629SOL    HW231521   3.215   4.541   9.168  1.0433 -1.9153  0.8821
 6630SOL     OW31522   1.143   0.772  13.186  0.3395 -0.2980 -0.1310
 6630SOL    HW131523   1.066   0.828  13.175  0.5272 -0.1163 -0.5224
 6630SOL    HW231524   1.152   0.731  13.100 -0.4587 -1.4815  0.3529
 6631SOL     OW31525   0.154   1.433   5.804  0.2482 -0.1486  0.0718
 6631SOL    HW131526   0.153   1.514   5.752 -0.9780 -0.0771  0.2197
 6631SOL    HW231527   0.125   1.466   5.888 -1.0313 -0.1728 -0.3645
 6632SOL     OW31528   2.830   3.491  16.087 -0.0501  0.1649  0.9486
 6632SOL    HW131529   2.891   3.443  16.031 -1.4745 -0.1194 -0.3294
 6632SOL    HW231530   2.757   3.430  16.083  0.8080 -0.8851  1.1024
 6633SOL     OW31531   1.532   3.566   5.187  0.6446 -0.2471  0.0712
 6633SOL    HW131532   1.519   3.475   5.214  2.3435  0.4152  3.1654
 6633SOL    HW231533   1.572   3.600   5.267  2.9258 -0.6362 -0.9249
 6634SOL     OW31534   4.007   2.356   7.803 -0.2542 -0.0100  0.0551
 6634SOL    HW131535   3.966   2.276   7.771  0.3204 -0.6451  0.9070
 6634SOL    HW231536   4.052   2.400   7.731 -0.5635 -2.5885 -1.7078
 6635SOL     OW31537   3.699   0.455   2.958 -0.6749  0.9165  0.3230
 6635SOL    HW131538   3.618   0.483   2.915  0.4304 -0.3078 -2.5570
 6635SOL    HW231539   3.676   0.481   3.048  0.3908 -0.7368  1.0866
 6636SOL     OW31540   4.120   3.997   7.626 -0.4184  0.2263  0.2352
 6636SOL    HW131541   4.186   4.063   7.611 -0.2055 -0.0112  0.1312
 6636SOL    HW231542   4.169   3.917   7.647 -0.5694  0.0729  0.0106
 6637SOL     OW31543   2.991   0.446   6.857  0.1627  0.9099 -0.0383
 6637SOL    HW131544   3.016   0.418   6.945 -0.1905 -0.4278 -0.3545
 6637SOL    HW231545   3.039   0.528   6.846  2.2621 -0.1232  1.4112
 6638SOL     OW31546   0.426   3.756  14.656 -0.0334  0.3301  0.1635
 6638SOL    HW131547   0.458   3.807  14.582 -1.5742  0.3288 -0.4934
 6638SOL    HW231548   0.498   3.734  14.716  0.1974  4.7334  1.4639
 6639SOL     OW31549   1.330   0.453  12.517 -0.3325  0.5484  0.3219
 6639SOL    HW131550   1.260   0.462  12.581  0.0357  0.4980  0.7324
 6639SOL    HW231551   1.356   0.363  12.539  0.9597  0.7034 -0.5541
 6640SOL     OW31552   0.305   0.548   7.526  0.0226 -0.2303  0.5715
 6640SOL    HW131553   0.271   0.633   7.556 -0.8559 -0.5770  0.5610
 6640SOL    HW231554   0.389   0.541   7.572  0.1302  0.3168  0.4583
 6641SOL     OW31555   1.468   2.977  17.220  0.6210 -0.3980  0.5654
 6641SOL    HW131556   1.398   3.036  17.248  2.0303  1.6836 -0.2755
 6641SOL    HW231557   1.545   3.024  17.251  0.5808 -0.9703  1.5342
 6642SOL     OW31558   2.699   0.615   7.048 -0.2591 -0.0537 -0.7629
 6642SOL    HW131559   2.667   0.630   6.959  2.4920 -0.9637 -1.9183
 6642SOL    HW231560   2.650   0.533   7.055  0.3094 -0.4359 -1.2077
 6643SOL     OW31561   0.234   3.134   3.391  0.2031  0.4645  0.3349
 6643SOL    HW131562   0.202   3.203   3.333  1.6505  1.1510  0.3579
 6643SOL    HW231563   0.254   3.173   3.477  3.9725  0.1880 -0.4111
 6644SOL     OW31564   1.244   0.965   3.747 -0.4119  0.2663  0.3691
 6644SOL    HW131565   1.252   0.897   3.679  2.4912  0.1061  0.8635
 6644SOL    HW231566   1.273   1.045   3.704  1.4076 -0.6860 -0.1684
 6645SOL     OW31567   1.775   2.325  11.370 -0.1414 -0.2340  0.2359
 6645SOL    HW131568   1.686   2.333  11.335  0.7042  0.7178 -1.7244
 6645SOL    HW231569   1.790   2.231  11.375 -0.4829 -0.3200 -0.3304
 6646SOL     OW31570   0.346   2.729   0.455  0.5764 -0.3876  0.0381
 6646SOL    HW131571   0.367   2.721   0.548 -1.0906 -0.7864  0.3646
 6646SOL    HW231572   0.434   2.746   0.419 -0.1835  1.1963 -1.0709
 6647SOL     OW31573   0.815   0.726  12.329  0.0220 -0.0874 -0.2365
 6647SOL    HW131574   0.878   0.737  12.401  0.7572  0.1621 -0.9107
 6647SOL    HW231575   0.864   0.745  12.249 -1.7967  0.5378 -1.1974
 6648SOL     OW31576   3.087   4.183   0.908  0.1245  0.2813  0.1978
 6648SOL    HW131577   3.049   4.098   0.886  0.0018  0.7919 -1.5288
 6648SOL    HW231578   3.124   4.213   0.825 -1.1600  3.0561  0.6214
 6649SOL     OW31579   4.144   1.749  15.316 -0.2982  0.0325 -0.3264
 6649SOL    HW131580   4.193   1.801  15.379 -0.4185  1.1013 -1.1251
 6649SOL    HW231581   4.094   1.696  15.379 -0.0785  0.0210 -0.1610
 6650SOL     OW31582   2.582   0.722   6.432 -0.4198  0.1073 -0.4705
 6650SOL    HW131583   2.644   0.777   6.383  2.7406  1.3874  5.0004
 6650SOL    HW231584   2.524   0.698   6.360 -1.2921 -0.2208  0.3526
 6651SOL     OW31585   0.383   0.328   1.785  0.0709  0.0599 -0.4390
 6651SOL    HW131586   0.311   0.293   1.837  1.1989 -1.8874 -0.1854
 6651SOL    HW231587   0.400   0.250   1.734 -0.0477  1.4018 -2.5197
 6652SOL     OW31588   2.586   0.032  14.484  0.5694  0.4331  0.3114
 6652SOL    HW131589   2.680   0.047  14.479  0.4158  2.1336  2.3061
 6652SOL    HW231590   2.587   4.688  14.433  0.3880  1.8732 -1.9820
 6653SOL     OW31591   2.159   2.252  14.332 -0.1798  0.1144  0.1428
 6653SOL    HW131592   2.114   2.302  14.263 -0.1466  1.4655  1.0935
 6653SOL    HW231593   2.088   2.254  14.396  0.7145 -3.3227  1.2254
 6654SOL     OW31594   1.103   2.647   8.633 -0.5022 -0.7520 -0.0984
 6654SOL    HW131595   1.036   2.612   8.692 -0.6201 -0.1598  0.1295
 6654SOL    HW231596   1.119   2.563   8.591 -0.2148 -0.3494 -0.7905
 6655SOL     OW31597   2.422   3.207   7.652  0.4109 -0.9769 -0.4281
 6655SOL    HW131598   2.516   3.187   7.660  0.0922 -2.3797 -0.1796
 6655SOL    HW231599   2.396   3.189   7.743 -1.2027 -2.4385 -1.1851
 6656SOL     OW31600   0.307   3.028   6.070  0.7742 -0.3110  0.3939
 6656SOL    HW131601   0.343   3.018   5.982  0.8988  1.3294  0.2529
 6656SOL    HW231602   0.384   3.008   6.123  1.5465  3.5874  0.7125
 6657SOL     OW31603   2.900   4.438  10.184  0.1756  0.7884  0.2541
 6657SOL    HW131604   2.941   4.395  10.109  0.0492  0.3435  0.4409
 6657SOL    HW231605   2.941   4.524  10.181 -0.8314  1.2956  0.9604
 6658SOL     OW31606   3.470   1.996   8.328  0.4428  0.4784 -0.0496
 6658SOL    HW131607   3.385   1.953   8.328  0.8644 -0.3889 -1.6507
 6658SOL    HW231608   3.454   2.073   8.382  3.1088  1.2486 -0.3618
 6659SOL     OW31609   4.040   1.298   5.680 -0.2927 -0.7528  0.0008
 6659SOL    HW131610   3.996   1.322   5.598  0.3573 -1.3239 -0.5082
 6659SOL    HW231611   3.997   1.347   5.750 -2.2045  0.2836 -1.8844
 6660SOL     OW31612   1.648   2.885  15.644  0.2794 -0.2919  0.6294
 6660SOL    HW131613   1.639   2.789  15.649  0.2983 -0.2466  1.4692
 6660SOL    HW231614   1.724   2.906  15.698  1.6073  0.5775 -1.5838
 6661SOL     OW31615   2.365   2.229   5.948  0.5942 -0.3729 -0.2193
 6661SOL    HW131616   2.401   2.175   6.019 -2.0589  1.2561  2.3642
 6661SOL    HW231617   2.332   2.307   5.991 -0.3939 -1.2421  0.6174
 6662SOL     OW31618   1.211   4.727  14.407 -0.4276 -0.1476 -0.2206
 6662SOL    HW131619   1.254   4.670  14.470 -0.7192  0.2973  0.3841
 6662SOL    HW231620   1.124   4.716  14.445 -0.7695 -0.6924 -1.1698
 6663SOL     OW31621   0.967   2.062  10.530 -0.0481  0.2529 -0.3364
 6663SOL    HW131622   0.930   2.054  10.442 -0.6405  2.2799 -0.2727
 6663SOL    HW231623   0.900   2.008  10.572  0.3001 -0.4719 -0.7163
 6664SOL     OW31624   4.724   1.045   0.379  0.0050  0.3386 -0.4465
 6664SOL    HW131625   0.023   1.008   0.298 -1.0510 -1.6663  0.0316
 6664SOL    HW231626   4.639   1.080   0.354 -0.3301  0.5842  1.0746
 6665SOL     OW31627   2.867   2.404   4.678 -0.0868  0.2588 -0.2965
 6665SOL    HW131628   2.901   2.397   4.589  0.0304  0.6156 -0.2782
 6665SOL    HW231629   2.793   2.344   4.674 -0.3804  0.5608  0.6198
 6666SOL     OW31630   4.135   1.042  14.263  0.2051  0.6263  0.4306
 6666SOL    HW131631   4.146   1.133  14.237  1.8544  0.0392 -0.9303
 6666SOL    HW231632   4.133   1.054  14.358  1.9127 -0.2006  0.5787
 6667SOL     OW31633   2.626   0.622   6.784  0.3292 -0.1312 -0.1497
 6667SOL    HW131634   2.681   0.549   6.756 -0.0464 -0.2561 -0.5600
 6667SOL    HW231635   2.544   0.613   6.735  0.6185  1.3059 -0.9228
 6668SOL     OW31636   0.236   0.811   1.743 -0.4394  0.3101 -0.4065
 6668SOL    HW131637   0.202   0.738   1.795 -3.4200  2.3233  0.4582
 6668SOL    HW231638   0.307   0.765   1.699 -0.6673  0.1200 -0.5813
 6669SOL     OW31639   0.962   0.347  13.207  0.3984  0.1877 -0.4717
 6669SOL    HW131640   0.918   0.425  13.243  1.3435  1.4723 -2.0826
 6669SOL    HW231641   0.991   0.372  13.120  1.3490  0.2843 -0.1302
 6670SOL     OW31642   1.450   3.328   5.274 -0.2799 -0.4743  0.4910
 6670SOL    HW131643   1.392   3.304   5.203  0.1462  1.0689 -0.3729
 6670SOL    HW231644   1.517   3.260   5.268 -0.4802 -0.7099  0.9095
 6671SOL     OW31645   1.948   0.873   2.998  0.6728  0.2702 -0.3318
 6671SOL    HW131646   1.984   0.956   3.029 -1.4661  0.1564  2.4311
 6671SOL    HW231647   1.854   0.887   2.994  0.4180 -0.8712  1.6087
 6672SOL     OW31648   3.005   1.810   2.183 -0.4068  0.6171  0.8184
 6672SOL    HW131649   2.946   1.736   2.198 -2.2340  2.0005  0.4849
 6672SOL    HW231650   3.084   1.780   2.229 -0.0642  0.1853 -0.0543
 6673SOL     OW31651   0.261   3.779  13.892 -0.4349  0.1117 -0.1464
 6673SOL    HW131652   0.196   3.729  13.842 -1.2242  1.8057 -0.7889
 6673SOL    HW231653   0.289   3.835  13.820  1.3236 -0.5064  0.0399
 6674SOL     OW31654   0.496   1.960   2.762  0.4335 -0.5859  0.2201
 6674SOL    HW131655   0.478   1.954   2.668  1.6703  1.8148 -0.1507
 6674SOL    HW231656   0.443   2.037   2.780 -0.2954 -1.0936  0.2492
 6675SOL     OW31657   2.203   2.605   9.755  0.4640  0.3797  0.6052
 6675SOL    HW131658   2.149   2.684   9.756  1.6784  1.2240  0.4314
 6675SOL    HW231659   2.142   2.533   9.768 -0.7227  1.5485  1.5386
 6676SOL     OW31660   0.394   3.026   8.254  0.2632  0.3935  0.3735
 6676SOL    HW131661   0.309   2.987   8.277 -1.0604  2.6382 -0.7577
 6676SOL    HW231662   0.447   2.980   8.319  0.6195  0.6105  0.2368
 6677SOL     OW31663   1.845   1.395   3.004 -0.0233 -0.3475 -0.4496
 6677SOL    HW131664   1.871   1.406   3.096  1.3622 -3.2318 -0.4870
 6677SOL    HW231665   1.783   1.323   3.019 -1.4558  0.7986 -0.9158
 6678SOL     OW31666   4.261   3.307  14.365  0.2767  0.1834  0.0129
 6678SOL    HW131667   4.194   3.374  14.376 -0.5407 -0.6294 -0.0400
 6678SOL    HW231668   4.326   3.357  14.314  1.9095 -1.1087  0.8233
 6679SOL     OW31669   3.785   4.614   4.421 -0.5000  0.2311  0.0143
 6679SOL    HW131670   3.766   4.694   4.372 -1.1546 -0.4339 -0.8213
 6679SOL    HW231671   3.775   4.640   4.512  0.4216 -2.0160  0.7538
 6680SOL     OW31672   0.548   4.023   9.377 -0.2899 -0.0653 -0.2026
 6680SOL    HW131673   0.511   3.943   9.413  0.5533 -1.0261 -1.4652
 6680SOL    HW231674   0.581   3.992   9.292 -1.1089 -0.9165 -0.2075
 6681SOL     OW31675   3.371   1.695   5.396  0.2560  0.3519 -0.4814
 6681SOL    HW131676   3.301   1.649   5.443 -0.6499 -1.7295 -3.8152
 6681SOL    HW231677   3.353   1.676   5.304  3.2996  0.7617 -1.1506
 6682SOL     OW31678   2.945   1.008   4.860 -0.3033  0.5530  0.3653
 6682SOL    HW131679   2.984   0.994   4.773 -0.5170  0.4469  0.2865
 6682SOL    HW231680   2.895   1.089   4.846 -0.9363 -0.3935 -2.8443
 6683SOL     OW31681   3.915   4.340   5.247  0.6749  0.1531  0.6891
 6683SOL    HW131682   3.935   4.380   5.332  1.1575  1.8903 -0.2473
 6683SOL    HW231683   3.820   4.331   5.254  0.5739 -1.1969 -2.1514
 6684SOL     OW31684   1.385   2.236   4.983  0.1139 -0.1404 -0.2138
 6684SOL    HW131685   1.431   2.221   5.065 -0.4069  0.1100  0.1210
 6684SOL    HW231686   1.441   2.304   4.945 -1.6785  0.6680 -1.4266
 6685SOL     OW31687   3.357   3.571  13.311  0.1808 -0.1494 -0.5964
 6685SOL    HW131688   3.273   3.592  13.352  0.8056 -0.2817  0.7623
 6685SOL    HW231689   3.419   3.579  13.384  1.1196 -0.7926 -1.3231
 6686SOL     OW31690   1.633   3.623   8.932 -0.0489  0.0788 -0.2326
 6686SOL    HW131691   1.542   3.595   8.916 -0.3725  0.3944  1.0867
 6686SOL    HW231692   1.676   3.558   8.988 -1.4008  1.1568  2.0692
 6687SOL     OW31693   0.277   2.476   6.852  0.5339 -0.2596  0.5079
 6687SOL    HW131694   0.188   2.438   6.855  0.9802 -1.2127  2.0022
 6687SOL    HW231695   0.279   2.507   6.943 -0.5329  1.1604  0.0472
 6688SOL     OW31696   4.657   2.692   5.641  0.5515  0.5977 -0.3225
 6688SOL    HW131697   4.647   2.786   5.657 -0.2810  0.4822 -0.1720
 6688SOL    HW231698   4.641   2.647   5.724 -1.3449 -1.6048 -1.8709
 6689SOL     OW31699   3.836   2.883   3.408 -0.6768  0.0462 -0.5850
 6689SOL    HW131700   3.885   2.808   3.373  1.2997  0.5812  1.0578
 6689SOL    HW231701   3.770   2.833   3.457 -0.3172 -1.4995 -1.6665
 6690SOL     OW31702   1.188   3.527   4.159 -0.0130 -0.2745  0.0586
 6690SOL    HW131703   1.124   3.458   4.174 -1.7970  0.8658 -2.3586
 6690SOL    HW231704   1.200   3.565   4.246 -0.5385 -0.8461  0.3849
 6691SOL     OW31705   1.715   3.309  16.101  0.2533  0.3287  0.1158
 6691SOL    HW131706   1.747   3.328  16.189 -0.1782 -0.8153  0.5135
 6691SOL    HW231707   1.690   3.394  16.065  0.7038 -0.8711 -3.0230
 6692SOL     OW31708   1.219   0.523   2.287 -0.1121 -0.3543 -0.3982
 6692SOL    HW131709   1.204   0.465   2.212 -2.8891 -1.3497  0.9086
 6692SOL    HW231710   1.286   0.578   2.246  0.8530 -0.9588  0.3765
 6693SOL     OW31711   4.023   0.061   0.990 -0.1751  0.2973  0.3040
 6693SOL    HW131712   3.950   0.116   0.962  1.1187  0.4075 -2.8024
 6693SOL    HW231713   3.979   4.714   1.006  1.4495 -0.0844  2.7903
 6694SOL     OW31714   4.523   0.837   5.299  0.0301  0.0629  0.1026
 6694SOL    HW131715   4.517   0.890   5.379 -1.1544  2.0726 -1.3377
 6694SOL    HW231716   4.587   0.883   5.245  2.3914 -2.0906  1.0688
 6695SOL     OW31717   1.711   1.781   9.241  0.0158  0.5158  0.2008
 6695SOL    HW131718   1.798   1.793   9.202 -0.4499  2.2084 -0.3285
 6695SOL    HW231719   1.735   1.716   9.307  0.2707  2.2115  1.7749
 6696SOL     OW31720   3.699   2.457   9.396  0.1576 -0.2661 -0.1695
 6696SOL    HW131721   3.713   2.493   9.483  1.5265 -0.7089 -0.1984
 6696SOL    HW231722   3.663   2.371   9.419 -0.3869  0.6990  2.5424
 6697SOL     OW31723   1.142   2.221   6.378 -0.1569 -0.0654 -0.2338
 6697SOL    HW131724   1.222   2.274   6.371 -0.4273  0.6316  2.0363
 6697SOL    HW231725   1.128   2.209   6.472  2.3986  1.1755  0.2925
 6698SOL     OW31726   1.382   0.299   5.861  0.6961 -1.1528  0.4459
 6698SOL    HW131727   1.410   0.267   5.775  0.3286  1.0683 -0.4912
 6698SOL    HW231728   1.456   0.323   5.916  0.6963  0.4331 -0.2709
 6699SOL     OW31729   2.699   3.545  14.812 -0.1469 -0.1778 -0.0860
 6699SOL    HW131730   2.615   3.528  14.854  0.1462 -0.8831  0.2078
 6699SOL    HW231731   2.722   3.626  14.859 -0.8294  1.0244 -1.7938
 6700SOL     OW31732   2.986   1.287  13.198 -0.0386  0.7258 -0.0063
 6700SOL    HW131733   2.993   1.343  13.275  1.4271 -1.5723  1.5533
 6700SOL    HW231734   3.076   1.304  13.167  0.2069  0.6931  0.6974
 6701SOL     OW31735   3.120   0.450   3.836  0.0318  0.2861 -0.2217
 6701SOL    HW131736   3.188   0.514   3.815 -1.7012  2.0065 -0.5480
 6701SOL    HW231737   3.087   0.414   3.754 -3.4068  1.0436  0.8276
 6702SOL     OW31738   1.423   2.566  15.861 -0.1787  0.5012  0.1397
 6702SOL    HW131739   1.474   2.599  15.935 -0.8734 -0.1109  0.8989
 6702SOL    HW231740   1.370   2.642  15.839 -1.3678 -0.1781  0.6233
 6703SOL     OW31741   1.828   4.157  16.325  0.2442 -0.0523  0.0425
 6703SOL    HW131742   1.880   4.189  16.252 -1.0230  0.5136 -0.5991
 6703SOL    HW231743   1.738   4.185  16.311  0.5633  1.6314  1.3140
 6704SOL     OW31744   0.597   0.105   3.149 -0.8521 -0.2203  0.1641
 6704SOL    HW131745   0.648   0.182   3.121  0.2848 -0.2675  2.1084
 6704SOL    HW231746   0.537   0.086   3.077 -1.6109  0.1769  0.6840
 6705SOL     OW31747   1.235   2.112  12.409 -0.4823  0.2375 -0.0350
 6705SOL    HW131748   1.147   2.137  12.382  0.3647  1.2602 -1.8924
 6705SOL    HW231749   1.270   2.201  12.413 -2.6089  1.0570  0.2511
 6706SOL     OW31750   0.626   0.263   8.880  0.4975  0.1355 -0.1841
 6706SOL    HW131751   0.571   0.229   8.809  1.4997 -1.8167 -0.0234
 6706SOL    HW231752   0.710   0.243   8.839  0.0955  1.2942 -1.5793
 6707SOL     OW31753   1.049   0.322   8.314  0.5462 -0.4173 -0.0740
 6707SOL    HW131754   1.045   0.294   8.406 -3.6446  0.5917  0.0659
 6707SOL    HW231755   1.040   0.416   8.327  1.6748 -0.4731  1.1124
 6708SOL     OW31756   0.625   2.657   1.450  0.5773 -0.1859 -0.3657
 6708SOL    HW131757   0.561   2.586   1.460 -0.2502  0.5067 -0.8288
 6708SOL    HW231758   0.692   2.624   1.511 -0.0387 -2.3719 -0.8527
 6709SOL     OW31759   2.112   3.646   2.658  0.8250 -0.0503  0.3615
 6709SOL    HW131760   2.026   3.634   2.616 -0.3602  3.2605  1.8618
 6709SOL    HW231761   2.120   3.741   2.668 -2.5413 -0.0180  2.7538
 6710SOL     OW31762   1.567   3.155  11.226  0.1503  0.4265  0.2911
 6710SOL    HW131763   1.494   3.185  11.172 -0.7021 -5.2625 -1.7784
 6710SOL    HW231764   1.638   3.217  11.212 -0.7253  1.2958 -0.2703
 6711SOL     OW31765   3.276   1.975   0.223 -0.3238 -0.2724  0.3136
 6711SOL    HW131766   3.195   2.025   0.208 -0.6482 -0.7263  0.5412
 6711SOL    HW231767   3.247   1.906   0.283 -2.5009  0.5124  0.1908
 6712SOL     OW31768   0.698   1.460   3.194 -0.1798  0.0778 -0.5117
 6712SOL    HW131769   0.734   1.375   3.219 -2.7651 -0.8398  0.0418
 6712SOL    HW231770   0.748   1.470   3.113  0.0963 -0.0874 -0.3616
 6713SOL     OW31771   2.738   0.311   8.119  0.0236  0.2501  0.4494
 6713SOL    HW131772   2.660   0.256   8.109 -0.8960  1.9570 -1.7284
 6713SOL    HW231773   2.749   0.309   8.214 -0.6972  0.0648  0.5325
 6714SOL     OW31774   2.827   2.320   1.509 -0.4413 -0.3900 -0.0374
 6714SOL    HW131775   2.911   2.366   1.515 -0.2849 -0.8433  1.2793
 6714SOL    HW231776   2.792   2.370   1.435 -1.3439  0.4101  0.9244
 6715SOL     OW31777   2.649   1.378  12.999 -0.1116 -0.0081  0.2088
 6715SOL    HW131778   2.706   1.411  13.068 -0.4846  1.5812 -0.2542
 6715SOL    HW231779   2.631   1.290  13.033  3.1453  0.3237  2.7715
 6716SOL     OW31780   3.832   0.955   3.173  0.4021  0.1000 -0.1224
 6716SOL    HW131781   3.782   0.895   3.118 -0.4508 -0.6115  1.4205
 6716SOL    HW231782   3.785   1.038   3.166  0.0895 -0.0198  0.5214
 6717SOL     OW31783   1.488   3.214   8.886  0.0953 -0.2340 -1.1373
 6717SOL    HW131784   1.406   3.165   8.887  0.3624 -0.6287  0.9130
 6717SOL    HW231785   1.526   3.188   8.970  0.0426  0.7358 -0.8107
 6718SOL     OW31786   2.115   1.627  10.550  0.3183 -0.3943  0.0453
 6718SOL    HW131787   2.113   1.537  10.585 -1.0275 -0.6333 -0.6608
 6718SOL    HW231788   2.092   1.622  10.457 -1.8270 -0.9947  0.6113
 6719SOL     OW31789   2.434   2.939   5.040  0.1190 -0.4698 -0.4752
 6719SOL    HW131790   2.370   2.889   5.091  0.6683  1.2025  1.8347
 6719SOL    HW231791   2.514   2.934   5.093 -0.7500 -0.8593  0.7986
 6720SOL     OW31792   1.881   4.219   3.086  0.0851  0.2526  0.5151
 6720SOL    HW131793   1.888   4.146   3.025 -2.2442 -0.0106  0.5749
 6720SOL    HW231794   1.786   4.226   3.099  0.0752  1.8155 -0.3737
 6721SOL     OW31795   3.772   1.730   2.313 -0.2229 -0.2618 -0.0140
 6721SOL    HW131796   3.677   1.739   2.326 -0.3082 -2.4456  0.9038
 6721SOL    HW231797   3.793   1.685   2.394 -0.5945  1.5486  1.0880
 6722SOL     OW31798   3.036   3.525   8.859  0.2213 -0.5131 -0.4490
 6722SOL    HW131799   3.007   3.543   8.948  1.3543 -0.9111  0.0020
 6722SOL    HW231800   2.985   3.591   8.813  2.2460  0.5294 -1.1926
 6723SOL     OW31801   3.012   1.154   2.278 -0.9407  0.1549 -0.4899
 6723SOL    HW131802   3.054   1.146   2.192 -0.1995 -0.7994 -0.0466
 6723SOL    HW231803   3.070   1.102   2.335  2.0339  3.3789 -0.5892
 6724SOL     OW31804   0.388   3.210   2.592  0.2158 -0.6130 -0.6496
 6724SOL    HW131805   0.393   3.294   2.545  0.1286 -0.2525 -0.0181
 6724SOL    HW231806   0.403   3.153   2.517  0.0721 -0.2087 -0.9899
 6725SOL     OW31807   3.008   2.897  14.600 -0.1933 -0.3045  0.3834
 6725SOL    HW131808   3.011   2.932  14.511  0.6199  0.3013  0.6513
 6725SOL    HW231809   3.090   2.932  14.633  1.7073 -3.0818 -1.4043
 6726SOL     OW31810   0.522   1.162   8.286 -0.2048  0.4649 -0.3682
 6726SOL    HW131811   0.552   1.250   8.309  0.2715  0.3849 -0.6958
 6726SOL    HW231812   0.453   1.150   8.351 -0.9945 -1.9184 -1.6511
 6727SOL     OW31813   0.986   0.995  10.983 -0.5965  0.0513 -0.1672
 6727SOL    HW131814   0.918   0.992  10.916 -3.2476  0.3980  2.5438
 6727SOL    HW231815   1.013   1.087  10.979  2.6938 -0.7999  2.0656
 6728SOL     OW31816   2.304   0.143   2.262 -0.2473 -0.1636  0.4645
 6728SOL    HW131817   2.357   0.188   2.328 -2.8428  2.0380  1.0668
 6728SOL    HW231818   2.223   0.194   2.267  1.3959  2.4235  0.6084
 6729SOL     OW31819   3.015   3.891   8.921 -0.1843 -0.0577  0.5777
 6729SOL    HW131820   3.096   3.839   8.915  0.2211  0.5295  0.9850
 6729SOL    HW231821   3.018   3.926   8.832  0.4478  0.7665  0.9192
 6730SOL     OW31822   1.912   3.847   7.681 -0.0307  0.3281 -0.2408
 6730SOL    HW131823   2.006   3.860   7.670  0.3841 -1.0984  1.6572
 6730SOL    HW231824   1.885   3.937   7.701  1.5768 -0.0247  3.4375
 6731SOL     OW31825   2.832   3.926   0.758  0.0461 -0.3198 -0.1373
 6731SOL    HW131826   2.803   3.846   0.715 -0.0166 -0.0878 -0.5285
 6731SOL    HW231827   2.928   3.923   0.755  0.1125  1.9633 -0.8425
 6732SOL     OW31828   4.417   2.858   2.894  0.1282  0.0328 -0.2350
 6732SOL    HW131829   4.459   2.921   2.835  1.4827 -1.5452 -0.9404
 6732SOL    HW231830   4.373   2.811   2.823 -2.5353 -0.6310  1.8271
 6733SOL     OW31831   0.114   0.874  16.187  0.7484 -0.0842 -0.2748
 6733SOL    HW131832   0.106   0.945  16.123 -2.4373  0.9755  1.3269
 6733SOL    HW231833   0.137   0.921  16.267 -2.5665 -0.0234  0.6521
 6734SOL     OW31834   1.986   2.219   7.843  0.0140 -0.6146 -0.7619
 6734SOL    HW131835   2.039   2.297   7.860 -0.3932 -1.0175  2.4108
 6734SOL    HW231836   1.963   2.182   7.928 -0.0384  0.1864 -0.4338
 6735SOL     OW31837   2.744   2.792   8.503  0.3660 -0.0743  0.1356
 6735SOL    HW131838   2.787   2.725   8.555 -0.2558 -2.0388 -1.8977
 6735SOL    HW231839   2.771   2.771   8.414 -2.2878 -0.7224 -0.4987
 6736SOL     OW31840   3.119   4.319  11.321  0.1433  0.1319 -0.2069
 6736SOL    HW131841   3.178   4.267  11.376 -1.7801 -0.2159  1.5144
 6736SOL    HW231842   3.136   4.255  11.251 -0.5603  0.5010 -0.7159
 6737SOL     OW31843   2.498   0.792   7.161 -0.0439 -0.7101 -0.2460
 6737SOL    HW131844   2.453   0.803   7.077  0.3996  2.5623 -0.0639
 6737SOL    HW231845   2.570   0.737   7.131  0.7593 -0.2806  0.9037
 6738SOL     OW31846   4.070   1.707   0.363 -0.0933 -0.1378  0.2483
 6738SOL    HW131847   4.062   1.802   0.360  5.7724  0.3180 -0.7888
 6738SOL    HW231848   4.110   1.701   0.450 -1.3213  1.8423  0.9602
 6739SOL     OW31849   3.564   4.254   9.696  0.1422 -0.2069 -0.2928
 6739SOL    HW131850   3.469   4.265   9.693  0.1323  0.1578  1.1745
 6739SOL    HW231851   3.575   4.161   9.716  1.5676  0.2902  1.2336
 6740SOL     OW31852   2.073   4.572   7.332 -0.3874  0.0843  0.2332
 6740SOL    HW131853   2.025   4.638   7.381  0.2887  0.2935  0.6215
 6740SOL    HW231854   2.006   4.559   7.265  2.4820  0.2633 -2.6895
 6741SOL     OW31855   4.709   1.843  10.325 -0.0670  1.3336 -0.2387
 6741SOL    HW131856   0.001   1.896  10.251  0.4829 -1.5587 -2.0756
 6741SOL    HW231857   4.707   1.763  10.273  1.0535  1.5149 -0.5698
 6742SOL     OW31858   4.427   1.405   3.130  0.4333  0.1613  0.4384
 6742SOL    HW131859   4.401   1.409   3.038  2.8027 -1.7690 -0.3350
 6742SOL    HW231860   4.499   1.468   3.136 -0.1279  1.0570 -2.0524
 6743SOL     OW31861   1.784   4.338  12.738 -0.0778 -0.0012  0.6085
 6743SOL    HW131862   1.823   4.316  12.654 -1.7470 -1.8683  0.3314
 6743SOL    HW231863   1.704   4.290  12.719  2.0361 -2.2022 -2.7438
 6744SOL     OW31864   3.905   3.621   5.178 -0.1447  0.0251  0.0298
 6744SOL    HW131865   3.976   3.663   5.226 -0.9504 -0.5671  1.7166
 6744SOL    HW231866   3.885   3.682   5.107 -0.0470  1.2282  1.0294
 6745SOL     OW31867   2.823   0.808  16.763  0.0924  0.3079 -0.2742
 6745SOL    HW131868   2.781   0.893  16.764 -1.6786 -0.6152  1.7295
 6745SOL    HW231869   2.874   0.812  16.681  1.1316 -3.2703  0.1568
 6746SOL     OW31870   2.879   1.945   3.649  0.2007  0.2682  0.3283
 6746SOL    HW131871   2.924   1.860   3.652  1.9847  1.2504  1.4447
 6746SOL    HW231872   2.787   1.923   3.662  0.2855 -0.8361 -0.9815
 6747SOL     OW31873   4.137   2.231   2.574  0.1489  0.0370 -0.6429
 6747SOL    HW131874   4.225   2.192   2.574 -1.1659 -2.9508  2.0328
 6747SOL    HW231875   4.088   2.150   2.588  2.6303 -1.2543  0.6557
 6748SOL     OW31876   0.690   4.641   4.387 -0.4199 -0.0809 -0.0236
 6748SOL    HW131877   0.664   4.708   4.324  2.7709  0.1649 -1.0374
 6748SOL    HW231878   0.654   4.558   4.355  4.0624 -1.8983 -0.3631
 6749SOL     OW31879   2.759   2.330  10.493  0.1621 -0.2632  0.7043
 6749SOL    HW131880   2.686   2.286  10.450 -0.3773  0.4963  0.8645
 6749SOL    HW231881   2.818   2.334  10.418 -0.8122  1.3217  0.0306
 6750SOL     OW31882   1.827   4.580  16.352 -0.7765 -0.0668 -0.1310
 6750SOL    HW131883   1.854   4.569  16.260 -0.5663 -0.0988 -0.0660
 6750SOL    HW231884   1.892   4.534  16.406  0.6383  1.7306 -0.3041
 6751SOL     OW31885   4.467   3.449   1.302  0.1596 -0.1127 -0.2208
 6751SOL    HW131886   4.530   3.441   1.373 -0.5003 -0.1793  0.3581
 6751SOL    HW231887   4.471   3.375   1.242 -3.4531  0.4764 -1.2481
 6752SOL     OW31888   2.002   4.288  13.174  0.1270 -0.6166  0.0243
 6752SOL    HW131889   1.977   4.265  13.085 -0.9668  0.8041 -0.0423
 6752SOL    HW231890   2.083   4.338  13.169 -0.6924  0.6757 -0.6273
 6753SOL     OW31891   0.917   4.120   6.883 -0.1141  0.2873  0.7019
 6753SOL    HW131892   0.904   4.177   6.960 -0.1406  0.2304  0.7393
 6753SOL    HW231893   0.924   4.187   6.814 -3.2874  0.2574  0.3260
 6754SOL     OW31894   1.854   2.997   7.646  0.0265  0.6471  0.5014
 6754SOL    HW131895   1.796   3.016   7.720 -2.9398  1.0005 -1.8891
 6754SOL    HW231896   1.935   3.040   7.671 -1.4920  3.0483  1.2678
 6755SOL     OW31897   2.534   4.382  16.588  0.3985  0.5330 -0.2498
 6755SOL    HW131898   2.590   4.317  16.546 -1.2944 -1.1529  0.1183
 6755SOL    HW231899   2.589   4.460  16.590 -0.7510  1.2860  2.8293
 6756SOL     OW31900   3.869   4.497  17.029 -0.2739 -0.0439  0.4517
 6756SOL    HW131901   3.837   4.417  16.989  2.4110 -0.6027 -0.5976
 6756SOL    HW231902   3.796   4.553  17.055 -2.0022 -1.5869 -1.1683
 6757SOL     OW31903   0.055   3.446   6.854 -0.4787  0.2957  0.1544
 6757SOL    HW131904   0.122   3.381   6.833 -0.7097 -0.0953  0.6238
 6757SOL    HW231905   0.028   3.471   6.766 -0.0272  0.7379  0.1417
 6758SOL     OW31906   1.223   1.897  16.913  0.0209 -0.4751  0.1023
 6758SOL    HW131907   1.301   1.936  16.951  1.3548 -0.5617 -2.5805
 6758SOL    HW231908   1.253   1.806  16.922  2.7946  0.4076 -0.3410
 6759SOL     OW31909   2.071   0.297   3.622  0.0997  0.4823  0.6550
 6759SOL    HW131910   2.049   0.356   3.694  1.1384  1.3660  0.2446
 6759SOL    HW231911   2.083   0.352   3.544  0.0467 -0.5205 -0.0573
 6760SOL     OW31912   0.345   3.297  16.772  0.2083  0.3225 -0.2206
 6760SOL    HW131913   0.427   3.335  16.740  0.2990  1.2351  1.0940
 6760SOL    HW231914   0.349   3.320  16.865  2.0116 -1.0588  0.0483
 6761SOL     OW31915   4.612   2.104   2.705 -0.1915 -0.2952  0.0339
 6761SOL    HW131916   4.625   2.039   2.774 -2.2568 -1.1915 -0.4024
 6761SOL    HW231917   4.696   2.148   2.702 -0.5518  0.5060  1.2692
 6762SOL     OW31918   3.315   2.189   9.135  0.2600 -0.1886 -0.3043
 6762SOL    HW131919   3.349   2.277   9.119  0.2418 -0.1486 -0.1262
 6762SOL    HW231920   3.295   2.192   9.229 -1.3331 -2.3218 -0.5842
 6763SOL     OW31921   0.924   1.247   3.812  0.5972  0.2414 -0.4158
 6763SOL    HW131922   0.841   1.256   3.765 -0.6501 -0.6001  1.5970
 6763SOL    HW231923   0.929   1.151   3.814 -1.5119  0.1473  0.1835
 6764SOL     OW31924   1.414   4.485   8.217 -0.1657 -0.4370 -0.0268
 6764SOL    HW131925   1.503   4.465   8.245 -0.0005 -1.7069 -1.4859
 6764SOL    HW231926   1.423   4.570   8.175  1.9775 -0.2868  0.7632
 6765SOL     OW31927   4.227   1.513   4.304 -0.5447 -0.2202 -0.1716
 6765SOL    HW131928   4.304   1.560   4.272  1.6835 -3.1532  0.8544
 6765SOL    HW231929   4.176   1.583   4.344 -1.1310 -1.0776  0.5861
 6766SOL     OW31930   0.203   4.618  11.270  0.2934  0.5522  0.2334
 6766SOL    HW131931   0.134   4.597  11.333  1.8486 -2.6529  0.8206
 6766SOL    HW231932   0.194   4.536  11.221  0.9883  0.3237  0.4890
 6767SOL     OW31933   2.904   4.178   8.691  0.1934  0.3678  0.0379
 6767SOL    HW131934   2.963   4.234   8.639  2.6997 -2.1222  0.2315
 6767SOL    HW231935   2.846   4.148   8.621 -0.1360  1.8154 -0.3120
 6768SOL     OW31936   0.307   2.355   8.447  0.1897  0.3470  0.2087
 6768SOL    HW131937   0.297   2.315   8.533 -1.7213 -0.9937 -0.6458
 6768SOL    HW231938   0.340   2.443   8.466  0.0341  0.2899  0.7317
 6769SOL     OW31939   0.424   3.128   2.304 -0.0790 -0.2819  0.4608
 6769SOL    HW131940   0.494   3.064   2.315  0.6510  0.2452 -1.0459
 6769SOL    HW231941   0.422   3.148   2.210  2.3472  0.2457  0.5355
 6770SOL     OW31942   1.755   0.643   5.200  0.5312  0.5188  0.3720
 6770SOL    HW131943   1.761   0.672   5.109 -0.4820  0.0607  0.1627
 6770SOL    HW231944   1.703   0.706   5.250  0.7146 -0.4574  1.8212
 6771SOL     OW31945   3.781   2.025  11.181  0.3751  0.2020  1.0033
 6771SOL    HW131946   3.746   1.975  11.255 -2.1737 -0.0885 -0.3691
 6771SOL    HW231947   3.749   2.110  11.209  0.3295  1.1049 -1.7347
 6772SOL     OW31948   3.832   1.426   2.845 -0.3532  0.2888 -1.1595
 6772SOL    HW131949   3.780   1.367   2.791 -1.4238 -0.8388  1.1121
 6772SOL    HW231950   3.854   1.358   2.909  2.4872  2.1052 -0.1899
 6773SOL     OW31951   1.241   3.032   5.914 -0.3434  0.5453  0.4087
 6773SOL    HW131952   1.158   3.011   5.957 -0.3700 -0.0036  0.0841
 6773SOL    HW231953   1.251   3.126   5.929  0.8630  0.8960 -2.6112
 6774SOL     OW31954   1.671   0.264   7.453 -0.4089 -0.0744  0.3991
 6774SOL    HW131955   1.612   0.195   7.481 -0.2437  0.0178  0.9715
 6774SOL    HW231956   1.610   0.328   7.416 -0.6133 -0.0248  0.8278
 6775SOL     OW31957   4.134   3.215   9.401 -0.1023  0.9559  0.1891
 6775SOL    HW131958   4.135   3.142   9.339 -0.1087 -0.1285  1.4935
 6775SOL    HW231959   4.075   3.276   9.355  1.3555  3.1035  1.1624
 6776SOL     OW31960   1.663   0.984   2.366 -0.0128  0.4616  0.7151
 6776SOL    HW131961   1.590   1.029   2.410 -0.4133  0.4848  0.0259
 6776SOL    HW231962   1.629   0.895   2.371  3.3058 -1.0132 -2.7144
 6777SOL     OW31963   3.913   3.755   2.128  0.2292 -0.2507 -0.2719
 6777SOL    HW131964   3.928   3.699   2.204 -1.8103  0.5707  0.7300
 6777SOL    HW231965   3.978   3.824   2.134  0.2255 -0.1340 -1.5255
 6778SOL     OW31966   3.800   2.844   2.716  0.2880 -0.1834 -0.2173
 6778SOL    HW131967   3.740   2.899   2.664  0.9247  2.2922  1.6382
 6778SOL    HW231968   3.874   2.840   2.656  0.1569  1.6455 -0.5259
 6779SOL     OW31969   3.532   3.434   7.831 -0.1105  0.7160 -0.0874
 6779SOL    HW131970   3.603   3.393   7.781  0.7527  1.1229  0.8059
 6779SOL    HW231971   3.515   3.362   7.891 -2.2057  0.9878 -0.3813
 6780SOL     OW31972   4.282   2.298  15.341 -0.0424  0.0698  0.7051
 6780SOL    HW131973   4.268   2.289  15.247 -0.2977 -0.4659  0.7926
 6780SOL    HW231974   4.225   2.368  15.373 -2.3817 -0.7026 -1.7554
 6781SOL     OW31975   4.262   3.334   7.187 -0.1996 -0.2507  0.3355
 6781SOL    HW131976   4.308   3.338   7.271  0.4923  1.2783 -0.1130
 6781SOL    HW231977   4.210   3.414   7.190 -0.0739 -0.1325 -0.7369
 6782SOL     OW31978   0.495   3.753   9.462  0.0078 -0.2502 -0.2196
 6782SOL    HW131979   0.456   3.674   9.426 -0.7793 -0.2158  0.5836
 6782SOL    HW231980   0.589   3.741   9.447 -0.1184  0.8466 -2.0063
 6783SOL     OW31981   1.545   0.762   3.616  0.2817  0.2132  0.2442
 6783SOL    HW131982   1.456   0.757   3.579  0.4664 -1.7430  0.1012
 6783SOL    HW231983   1.543   0.706   3.693  1.0754  2.5133  1.9482
 6784SOL     OW31984   4.488   2.599   0.529  0.2175 -0.0902  0.0985
 6784SOL    HW131985   4.577   2.610   0.561 -0.8667  0.3894  2.9455
 6784SOL    HW231986   4.446   2.570   0.610  0.1989  1.4274  0.6155
 6785SOL     OW31987   3.764   3.699   4.521 -0.3816 -0.1689 -0.0850
 6785SOL    HW131988   3.700   3.696   4.449 -0.1911  0.8253 -0.2988
 6785SOL    HW231989   3.844   3.687   4.470 -0.9157 -0.2567 -0.9182
 6786SOL     OW31990   1.148   3.441   6.739 -0.4451  0.4842  0.0715
 6786SOL    HW131991   1.098   3.507   6.787 -0.0687 -0.0264  1.1568
 6786SOL    HW231992   1.135   3.365   6.796  0.3755 -0.1978 -0.6626
 6787SOL     OW31993   4.073   1.404   2.219  0.2248 -0.9634 -0.2695
 6787SOL    HW131994   4.149   1.463   2.217  0.5445 -1.4034 -1.3055
 6787SOL    HW231995   4.057   1.392   2.312  0.6160  2.3519  0.2440
 6788SOL     OW31996   1.066   4.355   4.667 -0.3117  0.5785 -0.1639
 6788SOL    HW131997   1.011   4.337   4.744  0.5221  4.8265  1.4303
 6788SOL    HW231998   1.057   4.450   4.658  0.5905  0.7165  0.3920
 6789SOL     OW31999   3.774   1.064   8.136  0.0875  0.3460 -0.3503
 6789SOL    HW132000   3.824   1.146   8.129  0.3228 -0.0875 -3.6409
 6789SOL    HW232001   3.690   1.102   8.163 -0.0756 -1.1319  1.1977
 6790SOL     OW32002   4.291   2.145   1.219 -0.4661  0.2330  0.2705
 6790SOL    HW132003   4.218   2.124   1.277 -0.4678 -0.0367  0.1703
 6790SOL    HW232004   4.251   2.116   1.137 -1.1660 -1.8129  1.3509
 6791SOL     OW32005   0.097   3.314  17.520  0.0497  0.1609 -0.2616
 6791SOL    HW132006   0.124   3.277  17.605  1.2184  1.9723  0.1450
 6791SOL    HW232007   0.044   3.386  17.554 -3.9263 -2.2034 -1.4468
 6792SOL     OW32008   3.451   0.126   4.456  0.5131 -0.2694 -0.0332
 6792SOL    HW132009   3.378   0.166   4.409  2.1778  0.0237 -2.3590
 6792SOL    HW232010   3.456   0.039   4.416 -1.5884 -1.0667  1.4150
 6793SOL     OW32011   4.434   4.545   3.195  0.2632 -0.6798  0.1971
 6793SOL    HW132012   4.340   4.554   3.184  0.4110  0.1532 -0.4098
 6793SOL    HW232013   4.445   4.459   3.236  0.9553 -0.0727  1.2824
 6794SOL     OW32014   1.838   0.093   2.525  0.1620  0.2300  0.1888
 6794SOL    HW132015   1.765   0.046   2.565 -0.1708  0.6561  0.0883
 6794SOL    HW232016   1.796   0.126   2.445  0.2210  1.2370  0.5768
 6795SOL     OW32017   3.968   2.534   8.040  0.9271 -0.1006 -0.0389
 6795SOL    HW132018   3.952   2.541   7.946  0.4729  0.8978  0.1091
 6795SOL    HW232019   3.880   2.509   8.067  0.4984  0.4867 -0.9255
 6796SOL     OW32020   3.736   2.560   7.644  0.1198 -0.5721  0.3925
 6796SOL    HW132021   3.778   2.500   7.583  1.4364 -0.2084  0.9314
 6796SOL    HW232022   3.645   2.531   7.636  0.6771 -3.0630  3.0337
 6797SOL     OW32023   4.109   0.450   6.658 -0.0161  0.1295  0.1224
 6797SOL    HW132024   4.035   0.434   6.599  0.0410  0.0445  0.0749
 6797SOL    HW232025   4.066   0.528   6.693  1.1523  0.0429  1.7383
 6798SOL     OW32026   4.537   1.691   6.558  0.0939 -0.3836  0.0534
 6798SOL    HW132027   4.448   1.686   6.594  0.4135 -1.3192  0.7358
 6798SOL    HW232028   4.524   1.622   6.493 -0.4775 -0.1140 -0.1169
 6799SOL     OW32029   1.980   2.328   8.467  0.4890 -0.4844  0.3838
 6799SOL    HW132030   2.048   2.266   8.442  2.4826  0.4834  3.3564
 6799SOL    HW232031   2.036   2.405   8.468 -1.4148  0.9112  0.1700
 6800SOL     OW32032   0.811   4.402   5.366 -0.0657  0.2454 -0.2760
 6800SOL    HW132033   0.758   4.460   5.420 -1.2199 -2.1729  1.1847
 6800SOL    HW232034   0.756   4.323   5.367  0.3174 -0.0037  0.4451
 6801SOL     OW32035   0.147   2.362   8.042  0.1272  0.3015  0.7224
 6801SOL    HW132036   0.129   2.439   8.095  1.6748  2.7177 -2.3049
 6801SOL    HW232037   0.227   2.328   8.082 -0.8660 -1.5912  1.1206
 6802SOL     OW32038   2.650   4.128  15.300 -0.1944 -0.1091  0.1267
 6802SOL    HW132039   2.715   4.058  15.305  3.7619  3.5045 -0.6706
 6802SOL    HW232040   2.572   4.093  15.342  0.7186 -1.1269  1.0020
 6803SOL     OW32041   0.085   2.746   5.971  0.8967  0.0656 -0.2155
 6803SOL    HW132042   4.736   2.719   5.938 -0.7806  3.6653  1.1108
 6803SOL    HW232043   0.054   2.815   6.030  0.6401 -0.6446  0.4673
 6804SOL     OW32044   3.627   0.817   1.373  0.4925  0.1946 -0.0246
 6804SOL    HW132045   3.613   0.863   1.290  2.6425  2.4447  0.8803
 6804SOL    HW232046   3.642   0.894   1.428  1.0735  1.0161 -1.3237
 6805SOL     OW32047   1.054   3.964  15.816 -0.0713 -0.0482 -0.1717
 6805SOL    HW132048   1.095   4.039  15.773 -0.9983 -0.0752 -1.0785
 6805SOL    HW232049   0.967   4.003  15.825 -0.7683 -1.6514 -0.1251
 6806SOL     OW32050   3.031   3.122  11.305 -0.1298  0.3579  0.1086
 6806SOL    HW132051   2.996   3.184  11.369 -1.6817 -2.2978  1.8099
 6806SOL    HW232052   3.125   3.141  11.313 -0.1049  0.2308  0.1203
 6807SOL     OW32053   1.558   4.223  16.802  0.0389  0.1621  0.3993
 6807SOL    HW132054   1.621   4.246  16.733 -0.0389  1.4011  0.7414
 6807SOL    HW232055   1.537   4.133  16.777  1.6758  0.3568 -1.6696
 6808SOL     OW32056   0.360   2.484   3.508  0.7974 -0.1239 -0.1260
 6808SOL    HW132057   0.442   2.447   3.539  1.5229  1.7484  0.2140
 6808SOL    HW232058   0.306   2.416   3.550  0.7760 -0.2042 -0.2851
 6809SOL     OW32059   1.502   0.131  12.808 -0.3957 -0.1074 -0.1564
 6809SOL    HW132060   1.494   0.074  12.885 -2.2760  0.4220  0.0431
 6809SOL    HW232061   1.584   0.174  12.830  0.3477 -1.7654  0.3769
 6810SOL     OW32062   2.000   1.547   5.554 -0.2373  0.0375  0.6396
 6810SOL    HW132063   1.929   1.518   5.611  0.1745 -1.6790  0.2803
 6810SOL    HW232064   2.060   1.473   5.560 -1.2630 -0.8155  0.2385
 6811SOL     OW32065   0.679   0.305   2.063 -0.1272 -0.0708  0.0028
 6811SOL    HW132066   0.744   0.363   2.102  1.2504 -1.1753 -0.6206
 6811SOL    HW232067   0.604   0.316   2.120 -0.2872  0.4019 -0.2969
 6812SOL     OW32068   0.269   2.271   5.128 -0.3729 -0.0897 -0.0364
 6812SOL    HW132069   0.294   2.198   5.071  0.0929 -0.5072  0.7000
 6812SOL    HW232070   0.334   2.334   5.098 -0.3250 -0.7521 -1.3337
 6813SOL     OW32071   4.031   3.826   0.001  0.2102  0.1543 -0.0578
 6813SOL    HW132072   4.005   3.887  17.678  2.5440 -1.3653 -2.2862
 6813SOL    HW232073   4.041   3.886   0.074  1.5548 -0.2744  0.1043
 6814SOL     OW32074   0.455   1.343   8.762  0.7368  0.6423 -0.3557
 6814SOL    HW132075   0.409   1.416   8.802  0.8329  0.2398  0.4972
 6814SOL    HW232076   0.443   1.271   8.824  1.8874  1.3964  0.7539
 6815SOL     OW32077   2.763   1.311  12.490 -0.4005  0.2202  0.5430
 6815SOL    HW132078   2.685   1.366  12.479 -1.4069 -1.0705  1.2267
 6815SOL    HW232079   2.766   1.302  12.585 -0.4174 -1.3573  0.3856
 6816SOL     OW32080   4.544   3.121   2.743  0.1508  0.2677 -0.4557
 6816SOL    HW132081   4.612   3.155   2.684 -0.9376  1.5948 -0.9515
 6816SOL    HW232082   4.593   3.040   2.756 -0.3146 -0.2535 -1.8569
 6817SOL     OW32083   0.420   1.617   5.299 -0.5822 -0.0425  0.2042
 6817SOL    HW132084   0.399   1.531   5.333  0.5397 -0.3908  0.0192
 6817SOL    HW232085   0.438   1.671   5.376  0.7919  1.1663 -0.9692
 6818SOL     OW32086   4.062   0.975   4.678 -0.9022 -0.7709  0.0934
 6818SOL    HW132087   4.129   1.041   4.693 -1.3048 -0.9180  2.5986
 6818SOL    HW232088   4.101   0.915   4.615  1.2894  0.0132  0.7017
 6819SOL     OW32089   3.854   2.925   8.273  0.1365 -0.0670 -0.1085
 6819SOL    HW132090   3.827   2.867   8.345 -0.1105  1.4320  1.0124
 6819SOL    HW232091   3.766   2.919   8.235  0.2703 -0.8405 -0.2979
 6820SOL     OW32092   2.889   4.079   7.353 -0.2498  0.4713 -1.2888
 6820SOL    HW132093   2.817   4.138   7.376  0.3037  0.5279  0.2904
 6820SOL    HW232094   2.959   4.132   7.390 -1.3964  1.3277 -0.3363
 6821SOL     OW32095   2.232   0.387  17.044  0.9302 -0.0489 -0.5897
 6821SOL    HW132096   2.299   0.320  17.054  1.5182  0.8048  1.1754
 6821SOL    HW232097   2.275   0.462  17.003 -1.9470  1.6785 -0.4558
 6822SOL     OW32098   4.573   2.605   7.701  0.2313 -0.2871  0.0949
 6822SOL    HW132099   4.637   2.538   7.678 -0.4300 -0.8218 -0.2071
 6822SOL    HW232100   4.607   2.614   7.790 -0.4498 -1.7337  0.5133
 6823SOL     OW32101   4.026   1.719   3.753  0.4092  0.4789  0.2172
 6823SOL    HW132102   4.109   1.674   3.743 -0.1432 -0.3418 -0.6952
 6823SOL    HW232103   4.018   1.722   3.849  1.0375 -0.9018  0.2991
 6824SOL     OW32104   1.561   2.718   8.549  0.3807 -0.3242  0.2101
 6824SOL    HW132105   1.600   2.795   8.589  0.1914 -0.8121  1.3166
 6824SOL    HW232106   1.632   2.685   8.493  0.4638 -1.1741  0.8176
 6825SOL     OW32107   3.802   1.369  12.519 -0.5023 -0.2085  0.2911
 6825SOL    HW132108   3.729   1.336  12.572 -1.3379  0.9876 -0.1174
 6825SOL    HW232109   3.875   1.312  12.543  1.0011  1.4115 -0.4756
 6826SOL     OW32110   4.065   0.087   3.678  0.0843  0.2117 -0.7707
 6826SOL    HW132111   3.982   0.084   3.726  0.5941 -2.5129 -0.0042
 6826SOL    HW232112   4.110   0.153   3.731 -0.0373  0.0954 -0.5216
 6827SOL     OW32113   3.412   3.512   7.486  0.2574 -0.4253  0.1729
 6827SOL    HW132114   3.445   3.559   7.563  1.0508 -1.0366  0.2056
 6827SOL    HW232115   3.346   3.452   7.520  0.0638 -0.2592  0.0886
 6828SOL     OW32116   3.763   3.527   9.185  0.0925 -0.6861  0.1809
 6828SOL    HW132117   3.823   3.453   9.177 -0.5879 -0.9633 -2.2195
 6828SOL    HW232118   3.800   3.592   9.125  0.3500 -1.3892 -0.4171
 6829SOL     OW32119   0.026   4.684   2.669  0.1928 -0.2616  0.3714
 6829SOL    HW132120   0.104   4.629   2.667 -0.9622 -1.8564 -0.5373
 6829SOL    HW232121   4.720   4.645   2.745  0.6241  1.6704  1.6038
 6830SOL     OW32122   3.326   1.578   6.351 -0.0765  0.5130 -0.2510
 6830SOL    HW132123   3.388   1.509   6.327 -1.0889 -0.0690 -1.1428
 6830SOL    HW232124   3.378   1.620   6.420 -0.8467  0.1535  0.5537
 6831SOL     OW32125   3.389   1.959   6.471 -0.5293  0.3915  0.0491
 6831SOL    HW132126   3.451   2.001   6.531  0.1408 -0.5121 -0.0116
 6831SOL    HW232127   3.392   1.868   6.502 -1.7997  0.9644  1.8538
 6832SOL     OW32128   4.049   1.790   2.497 -0.5388  0.5559  0.1625
 6832SOL    HW132129   4.042   1.748   2.411  2.6209 -0.3990  0.3727
 6832SOL    HW232130   4.126   1.744   2.531 -1.3778  0.8953  2.4842
 6833SOL     OW32131   1.637   1.598   8.381  0.1124 -0.1842  0.1420
 6833SOL    HW132132   1.679   1.581   8.296 -1.2753 -0.0272 -0.5705
 6833SOL    HW232133   1.566   1.655   8.350 -0.7022 -0.2829  1.8417
 6834SOL     OW32134   0.743   3.523   5.002 -0.2394 -0.4772  0.2185
 6834SOL    HW132135   0.802   3.588   5.039 -0.1544 -0.2743 -0.2776
 6834SOL    HW232136   0.780   3.440   5.032  0.4326 -0.4653 -0.6199
 6835SOL     OW32137   0.422   3.655   4.151 -0.1293  0.1149  0.2282
 6835SOL    HW132138   0.428   3.570   4.109 -0.1793  0.3002 -0.1522
 6835SOL    HW232139   0.507   3.699   4.147 -0.0722  0.0500  0.7850
 6836SOL     OW32140   1.310   3.577  11.608  0.1155  0.1556 -0.3626
 6836SOL    HW132141   1.262   3.530  11.677 -0.6089  2.3086  0.5865
 6836SOL    HW232142   1.247   3.572  11.537  1.5138  0.2101 -1.6173
 6837SOL     OW32143   2.689   0.096  15.998  0.2426 -0.2281  0.3235
 6837SOL    HW132144   2.606   0.086  16.045  0.8303 -0.8640  1.2321
 6837SOL    HW232145   2.753   0.043  16.047  0.1224 -0.1677  0.5477
 6838SOL     OW32146   1.085   4.027   8.382 -0.6132  0.0338  0.3988
 6838SOL    HW132147   1.123   4.060   8.464  0.5036 -0.1591 -0.0444
 6838SOL    HW232148   1.126   3.941   8.386 -0.6298 -0.0900 -2.3816
 6839SOL     OW32149   3.333   2.900   5.828  0.5246 -0.0809 -0.9627
 6839SOL    HW132150   3.300   2.955   5.757 -0.4684 -1.9710 -1.9563
 6839SOL    HW232151   3.278   2.824   5.811 -1.5441  0.9850  0.9314
 6840SOL     OW32152   4.153   3.734   1.963 -0.1120  0.0530  0.5898
 6840SOL    HW132153   4.073   3.769   1.925 -1.8455 -2.4176  2.0125
 6840SOL    HW232154   4.167   3.807   2.024 -2.9708  0.7111  0.4351
 6841SOL     OW32155   1.223   3.002   7.901 -0.3244 -0.2743  0.0009
 6841SOL    HW132156   1.225   3.070   7.969  0.4503 -1.0435  0.7399
 6841SOL    HW232157   1.147   3.033   7.851 -1.2222 -3.8111 -0.8251
 6842SOL     OW32158   2.644   1.330   6.548 -0.0068 -0.6539  0.7194
 6842SOL    HW132159   2.626   1.252   6.600 -1.0327 -0.4147  0.7382
 6842SOL    HW232160   2.589   1.312   6.471  0.0111  0.8771  0.3395
 6843SOL     OW32161   0.368   2.209   8.670 -0.5085 -0.2592  0.2031
 6843SOL    HW132162   0.359   2.254   8.754 -1.9679 -1.2401  0.5598
 6843SOL    HW232163   0.305   2.138   8.676  1.1619 -1.8417 -1.1864
 6844SOL     OW32164   1.970   4.586   2.574 -0.1956  0.2778  0.1615
 6844SOL    HW132165   2.062   4.604   2.556 -0.3480 -0.6626 -1.4967
 6844SOL    HW232166   1.940   4.676   2.585  0.1806  0.5392 -1.0158
 6845SOL     OW32167   4.463   0.375   6.359  0.4514 -0.1703 -0.3319
 6845SOL    HW132168   4.513   0.295   6.371 -1.2892 -1.0778  0.9492
 6845SOL    HW232169   4.485   0.414   6.444 -1.8174  1.6386 -0.5530
 6846SOL     OW32170   3.829   4.410   9.267  0.4195 -0.1777 -0.3492
 6846SOL    HW132171   3.847   4.416   9.173 -2.0085 -1.7212 -0.9097
 6846SOL    HW232172   3.774   4.487   9.257  1.0475  0.2683 -0.3380
 6847SOL     OW32173   3.359   2.019   9.617 -0.5764  0.2818 -0.1700
 6847SOL    HW132174   3.350   2.098   9.670 -1.0578  0.2890 -0.2682
 6847SOL    HW232175   3.364   1.959   9.691  1.5982  0.4393 -0.1692
 6848SOL     OW32176   4.663   3.563  10.777  0.0922  0.3650 -0.1171
 6848SOL    HW132177   4.627   3.482  10.814  1.8406 -1.4348 -2.3553
 6848SOL    HW232178   4.723   3.580  10.850  0.4839  1.7356 -0.7588
 6849SOL     OW32179   1.416   2.707   5.573 -0.1223 -0.3739  0.4297
 6849SOL    HW132180   1.403   2.779   5.635 -1.0036  0.6520 -0.9642
 6849SOL    HW232181   1.328   2.712   5.535  0.2368  0.5788 -0.2700
 6850SOL     OW32182   4.588   2.779  17.075  0.5842 -0.4565 -0.2376
 6850SOL    HW132183   4.602   2.705  17.134 -1.6440  0.7505  1.8075
 6850SOL    HW232184   4.674   2.800  17.039 -0.0801  0.6791 -1.1826
 6851SOL     OW32185   1.020   0.847   4.289  0.3742  0.2314 -0.1840
 6851SOL    HW132186   1.033   0.879   4.199  4.7353 -0.6219  0.1330
 6851SOL    HW232187   1.002   0.754   4.282 -0.1294  0.3578 -0.5759
 6852SOL     OW32188   0.058   1.482   7.001  0.0673  0.1800 -0.2736
 6852SOL    HW132189   0.124   1.471   7.070  0.4178  1.1202 -0.4558
 6852SOL    HW232190   0.026   1.392   6.992  0.4967 -0.0955  0.9718
 6853SOL     OW32191   3.017   3.290   9.725  0.0269  0.3247  0.2787
 6853SOL    HW132192   2.966   3.352   9.672 -0.5841 -0.9417 -0.6264
 6853SOL    HW232193   2.952   3.244   9.778  0.3970 -0.1740  0.3001
 6854SOL     OW32194   1.881   0.052  11.385 -0.3788 -0.2490 -0.1668
 6854SOL    HW132195   1.965   0.029  11.426 -1.8553 -3.2127  1.1522
 6854SOL    HW232196   1.925   0.120  11.334  0.5194 -0.6964  0.0041
 6855SOL     OW32197   3.528   0.392   2.228  0.5377  0.0832  0.0092
 6855SOL    HW132198   3.525   0.459   2.160  0.7329  0.6314  0.5385
 6855SOL    HW232199   3.477   0.325   2.184 -0.6113  1.3334 -0.5814
 6856SOL     OW32200   4.554   4.006   7.284  0.4324 -0.3930 -0.0562
 6856SOL    HW132201   4.528   4.086   7.238 -0.6932  0.5095  2.1483
 6856SOL    HW232202   4.527   3.941   7.219 -1.5366 -0.3465  0.7021
 6857SOL     OW32203   2.684   3.038   7.822 -0.1532  0.4992  0.7578
 6857SOL    HW132204   2.661   3.010   7.733 -0.6855  1.1401  0.6961
 6857SOL    HW232205   2.691   3.133   7.815 -0.6547  0.3640 -1.5278
 6858SOL     OW32206   1.076   0.035   6.122 -0.0102 -0.1448  0.3004
 6858SOL    HW132207   1.171   0.048   6.112 -0.0469  0.3286  0.5677
 6858SOL    HW232208   1.059   4.719   6.044 -2.4925  1.3335 -0.1678
 6859SOL     OW32209   3.229   3.671   5.984 -0.0319  0.9094 -0.2973
 6859SOL    HW132210   3.214   3.685   5.891 -0.1574 -0.1143 -0.4271
 6859SOL    HW232211   3.238   3.576   5.989  0.0987  1.0556  2.3593
 6860SOL     OW32212   1.628   3.581  16.776 -0.6017  0.3062 -0.1701
 6860SOL    HW132213   1.602   3.502  16.823  0.3257  1.8339  2.9416
 6860SOL    HW232214   1.556   3.642  16.796 -0.4161  0.1637  0.9408
 6861SOL     OW32215   1.761   0.538  13.532  0.1394 -0.3558  0.4803
 6861SOL    HW132216   1.704   0.462  13.521  1.4078 -1.5622  2.2736
 6861SOL    HW232217   1.810   0.548  13.450  0.9867 -1.2019  0.8915
 6862SOL     OW32218   2.986   1.309   6.749  0.1358 -0.2035  0.1742
 6862SOL    HW132219   2.985   1.213   6.744 -0.6369 -0.0948 -1.9462
 6862SOL    HW232220   3.074   1.329   6.780 -0.7395  3.3481  0.3377
 6863SOL     OW32221   3.927   3.784  11.203  0.2148  0.4404 -0.5220
 6863SOL    HW132222   3.889   3.785  11.115 -2.1794 -1.5116  0.5002
 6863SOL    HW232223   4.004   3.841  11.198 -0.3640  1.2819  0.2307
 6864SOL     OW32224   1.360   3.524   3.950  0.1086 -0.6858  0.5462
 6864SOL    HW132225   1.309   3.513   4.030 -0.1509 -1.2043  0.3060
 6864SOL    HW232226   1.303   3.483   3.885 -0.5147 -0.4304  0.9398
 6865SOL     OW32227   0.324   0.692   2.154  0.2040  0.2907  0.0192
 6865SOL    HW132228   0.346   0.656   2.068 -2.0452 -1.7862  0.2840
 6865SOL    HW232229   0.275   0.769   2.126 -1.1041 -0.3601  0.5368
 6866SOL     OW32230   1.762   2.785   6.881 -0.6540  0.1355 -0.7245
 6866SOL    HW132231   1.701   2.818   6.814  1.0589 -1.4214 -3.0470
 6866SOL    HW232232   1.698   2.767   6.950  0.7160  2.4889  1.1386
 6867SOL     OW32233   2.834   0.255   5.832 -0.3680 -0.4171 -0.3692
 6867SOL    HW132234   2.826   0.168   5.794 -0.3061 -0.2232 -0.8342
 6867SOL    HW232235   2.887   0.241   5.910 -1.0235  0.4854  0.2503
 6868SOL     OW32236   2.094   1.612   6.025 -0.0631  0.1883  0.4200
 6868SOL    HW132237   2.038   1.679   6.063  0.4455  1.2524 -0.7158
 6868SOL    HW232238   2.156   1.662   5.972 -0.0327  0.3134  0.5728
 6869SOL     OW32239   2.232   2.273  15.931 -1.1700 -0.0394 -0.0730
 6869SOL    HW132240   2.201   2.322  16.007 -0.2090 -2.7465  2.0898
 6869SOL    HW232241   2.268   2.341  15.874 -2.8553  0.1932 -0.8650
 6870SOL     OW32242   3.755   2.347   2.686  0.4172  0.2892 -0.0920
 6870SOL    HW132243   3.688   2.402   2.727  0.2308  0.7364 -0.9925
 6870SOL    HW232244   3.761   2.284   2.757 -2.7306  1.8396  1.5100
 6871SOL     OW32245   1.805   1.815   8.767  0.1960 -0.5904 -0.3823
 6871SOL    HW132246   1.771   1.882   8.708 -1.0610  0.2630  1.3043
 6871SOL    HW232247   1.805   1.734   8.717 -0.1911 -0.5337 -0.4718
 6872SOL     OW32248   0.894   0.305  15.062  0.2160  0.0118 -0.1330
 6872SOL    HW132249   0.970   0.311  15.003  0.4188 -1.8005 -0.0640
 6872SOL    HW232250   0.841   0.376  15.026 -0.2616  0.3362  1.2178
 6873SOL     OW32251   0.978   0.936   2.465  0.1553 -0.3926 -0.4769
 6873SOL    HW132252   0.977   0.954   2.371 -1.2300  2.2876  0.0535
 6873SOL    HW232253   0.911   0.995   2.499  0.8821 -1.1109  2.1921
 6874SOL     OW32254   1.635   2.787   6.577  0.1223 -0.3505  0.7497
 6874SOL    HW132255   1.584   2.838   6.641  0.2201  1.0705 -0.3084
 6874SOL    HW232256   1.600   2.698   6.587  0.0728 -0.4654 -0.4390
 6875SOL     OW32257   1.268   3.778   1.753 -0.1196 -0.0085 -0.9436
 6875SOL    HW132258   1.324   3.850   1.724  2.5515 -0.7625  2.3814
 6875SOL    HW232259   1.252   3.814   1.840 -4.6025 -1.6745 -1.0843
 6876SOL     OW32260   4.201   1.118   5.189 -0.2471  0.3091  0.1106
 6876SOL    HW132261   4.218   1.028   5.161  1.6237  0.9652 -0.9053
 6876SOL    HW232262   4.148   1.099   5.266 -1.3560  2.0356 -0.2240
 6877SOL     OW32263   1.997   3.923   3.498 -0.2117  0.3500 -0.0758
 6877SOL    HW132264   1.907   3.948   3.481 -1.1779 -1.7597  1.9097
 6877SOL    HW232265   2.043   4.007   3.501 -0.7043  0.6016  0.4370
 6878SOL     OW32266   2.891   1.423  13.459  0.5523 -0.1346  0.3765
 6878SOL    HW132267   2.958   1.358  13.481  0.1154 -1.3025 -1.7183
 6878SOL    HW232268   2.916   1.501  13.508  0.9920 -0.0165 -0.0444
 6879SOL     OW32269   1.888   4.334  17.334  0.0900 -0.3036 -0.1889
 6879SOL    HW132270   1.875   4.386  17.414 -0.0750  2.6933 -2.1884
 6879SOL    HW232271   1.982   4.312  17.336 -0.1402 -1.3640 -1.1049
 6880SOL     OW32272   1.380   4.333  12.558  0.7511 -0.5317 -0.1984
 6880SOL    HW132273   1.382   4.375  12.472  3.6523  2.0841  1.1346
 6880SOL    HW232274   1.397   4.411  12.611  3.4641  0.5801 -2.7291
 6881SOL     OW32275   3.731   3.980   6.511  0.2654 -0.2471 -0.1146
 6881SOL    HW132276   3.806   3.995   6.568  0.3537 -0.4263 -0.1848
 6881SOL    HW232277   3.695   4.068   6.522 -0.1631 -0.5037  0.5260
 6882SOL     OW32278   0.624   1.577   7.402  0.7495 -0.1147  0.9189
 6882SOL    HW132279   0.703   1.537   7.364  0.8219  1.6770 -0.8021
 6882SOL    HW232280   0.670   1.642   7.456  0.2130  1.0528 -0.0307
 6883SOL     OW32281   1.086   1.654  15.245  0.4154  0.6256 -0.2397
 6883SOL    HW132282   1.011   1.713  15.231  0.8200  0.2763 -3.9475
 6883SOL    HW232283   1.114   1.678  15.333  2.6305 -0.2478 -0.7330
 6884SOL     OW32284   2.494   4.596  16.105 -0.1428  0.7431 -0.0023
 6884SOL    HW132285   2.530   4.546  16.179  0.9548  1.7106  0.1093
 6884SOL    HW232286   2.471   4.522  16.049  2.2833 -0.2819  0.3241
 6885SOL     OW32287   1.856   2.759  17.269 -0.1464 -0.0570  0.7102
 6885SOL    HW132288   1.783   2.808  17.307  0.3188  0.4186  1.0009
 6885SOL    HW232289   1.831   2.771  17.178 -0.9299  0.7329  1.0249
 6886SOL     OW32290   1.656   2.883  17.052 -0.2213  0.1441 -0.2733
 6886SOL    HW132291   1.582   2.910  17.106  0.2396  1.2872 -0.2033
 6886SOL    HW232292   1.609   2.878  16.969  0.7139  0.9088 -0.8506
 6887SOL     OW32293   0.618   1.770   9.764 -0.3356 -0.1275  0.2039
 6887SOL    HW132294   0.591   1.706   9.830  1.1191  0.3374  1.2278
 6887SOL    HW232295   0.534   1.792   9.724 -0.1654 -0.5539 -0.3923
 6888SOL     OW32296   2.636   1.571   4.770  0.1196 -0.1694 -0.0362
 6888SOL    HW132297   2.572   1.583   4.841  0.8110 -0.7958  0.6883
 6888SOL    HW232298   2.623   1.649   4.716 -2.5387  0.7984  2.0300
 6889SOL     OW32299   0.233   3.848   2.330  0.5679 -0.4281  0.2000
 6889SOL    HW132300   0.255   3.789   2.258  1.1929  1.3041 -1.0402
 6889SOL    HW232301   0.168   3.804   2.386 -0.1439  0.5550  0.1458
 6890SOL     OW32302   3.697   0.076   3.541  0.0121  0.2139 -0.2346
 6890SOL    HW132303   3.697   0.171   3.526 -0.0438  0.2016 -0.3142
 6890SOL    HW232304   3.734   0.084   3.628 -1.6062  1.7164  0.3155
 6891SOL     OW32305   2.173   4.690   4.429 -0.1702 -0.2220  0.2030
 6891SOL    HW132306   2.202   0.038   4.462 -0.0265  0.8419 -2.6085
 6891SOL    HW232307   2.252   4.636   4.422 -0.6215 -0.7365 -0.8530
 6892SOL     OW32308   1.136   2.197  15.016 -0.8566  0.7454 -0.5817
 6892SOL    HW132309   1.191   2.187  14.939  0.1964  0.2382  0.2335
 6892SOL    HW232310   1.061   2.147  14.983  0.5761 -0.5776 -1.7960
 6893SOL     OW32311   1.038   2.892   6.891 -0.3351 -0.1965 -0.0108
 6893SOL    HW132312   1.071   2.887   6.801  1.5662 -2.2072  0.7935
 6893SOL    HW232313   1.034   2.799   6.914 -3.3559  0.6186  2.7510
 6894SOL     OW32314   0.264   0.728   4.763  0.5160  0.2753 -0.1282
 6894SOL    HW132315   0.202   0.728   4.836  1.0285  1.0729  0.3181
 6894SOL    HW232316   0.210   0.769   4.696 -0.7154 -2.1511 -0.5990
 6895SOL     OW32317   1.292   3.201   4.066  0.1788  0.3791  0.2075
 6895SOL    HW132318   1.284   3.220   4.159 -0.0736  1.1666  0.0209
 6895SOL    HW232319   1.203   3.221   4.036  0.0422 -1.7644 -0.8632
 6896SOL     OW32320   2.262   3.488   4.973  0.2412  0.2288 -0.0054
 6896SOL    HW132321   2.189   3.538   4.935  0.1519  0.7315  0.8211
 6896SOL    HW232322   2.295   3.441   4.896 -0.4087  0.3100 -0.3420
 6897SOL     OW32323   0.605   2.422   2.100  0.3653  0.4082 -0.0468
 6897SOL    HW132324   0.661   2.354   2.062 -0.4086 -0.7702  0.9137
 6897SOL    HW232325   0.594   2.481   2.025  2.7433  1.3272  0.3224
 6898SOL     OW32326   1.439   3.319   4.668 -0.4128  0.1300 -0.3657
 6898SOL    HW132327   1.438   3.392   4.605  0.8575  1.2726  0.9216
 6898SOL    HW232328   1.492   3.361   4.736 -1.4271  0.7361  0.0418
 6899SOL     OW32329   2.542   3.557   9.925 -0.3222  0.4453 -0.2677
 6899SOL    HW132330   2.616   3.561   9.985 -0.2165 -0.7188 -0.3264
 6899SOL    HW232331   2.589   3.520   9.850  0.6762  2.8225 -0.8185
 6900SOL     OW32332   2.855   0.494  12.904 -0.1444  0.7899 -0.1468
 6900SOL    HW132333   2.869   0.551  12.980 -2.1579  1.3373 -0.1915
 6900SOL    HW232334   2.905   0.527  12.829  0.6903 -1.4835 -0.5707
 6901SOL     OW32335   2.768   1.076   2.328  0.3899  0.1910  0.1942
 6901SOL    HW132336   2.709   1.126   2.272 -1.0548 -2.5962 -0.7588
 6901SOL    HW232337   2.853   1.115   2.304  0.2073  0.6927  0.3674
 6902SOL     OW32338   3.431   0.016   9.140 -0.3929 -0.7194  0.7961
 6902SOL    HW132339   3.363   4.705   9.188 -0.0990 -1.0907  0.8372
 6902SOL    HW232340   3.423   0.103   9.180  0.2006 -0.6352  0.7385
 6903SOL     OW32341   4.455   0.132   7.055 -0.0655  0.1192 -0.1349
 6903SOL    HW132342   4.474   0.212   7.006 -1.0103  1.4490  1.6749
 6903SOL    HW232343   4.528   0.144   7.115  1.4892 -0.6000 -1.8573
 6904SOL     OW32344   3.241   0.869  13.856 -0.2357  0.0593  0.0543
 6904SOL    HW132345   3.199   0.860  13.942  0.2355 -0.3303  0.2396
 6904SOL    HW232346   3.328   0.830  13.866 -0.7447 -1.1926 -0.3728
 6905SOL     OW32347   3.186   3.557   4.105 -0.2793 -0.4878  0.7672
 6905SOL    HW132348   3.140   3.637   4.129 -1.3359 -0.8602 -0.0037
 6905SOL    HW232349   3.203   3.522   4.192 -0.4872  0.5562  1.2196
 6906SOL     OW32350   1.935   3.284   0.987  0.0595  0.5593 -0.3334
 6906SOL    HW132351   1.866   3.218   0.992  1.2806 -0.8601 -2.4519
 6906SOL    HW232352   2.006   3.229   0.955 -0.5159 -0.2155 -0.2795
 6907SOL     OW32353   4.500   1.673  17.706  0.7902 -0.1320  0.1026
 6907SOL    HW132354   4.514   1.585  17.743  1.1239 -0.6981 -1.3642
 6907SOL    HW232355   4.493   1.723   0.041 -0.8952 -2.3044  1.3238
 6908SOL     OW32356   0.884   2.636   3.080  0.6378 -0.1955  0.0770
 6908SOL    HW132357   0.900   2.669   3.168  1.7140  1.3758 -0.7078
 6908SOL    HW232358   0.872   2.713   3.024  1.0470  0.2932  0.6740
 6909SOL     OW32359   4.656   1.100   1.509  0.3535 -0.0143 -0.1139
 6909SOL    HW132360   4.710   1.021   1.511 -0.4429 -0.5627 -0.0138
 6909SOL    HW232361   4.666   1.131   1.599  1.0210 -0.2259 -0.1165
 6910SOL     OW32362   2.111   1.708  17.400  0.8648  0.2246  0.3341
 6910SOL    HW132363   2.051   1.780  17.420  1.2713  0.4770  0.6426
 6910SOL    HW232364   2.180   1.735  17.460  2.1839 -1.9984 -0.2196
 6911SOL     OW32365   4.024   3.549   3.453  1.0411  0.0099  0.1070
 6911SOL    HW132366   4.069   3.530   3.371  3.4322 -1.1766  1.6942
 6911SOL    HW232367   4.007   3.467   3.500 -1.4352  1.5903  1.9543
 6912SOL     OW32368   1.870   0.926  16.601 -0.0005  0.4168  0.1646
 6912SOL    HW132369   1.833   1.010  16.630  0.6322  0.0248  2.0570
 6912SOL    HW232370   1.827   0.869  16.665  0.1121 -0.8219 -0.8649
 6913SOL     OW32371   0.405   3.226   2.856 -0.1229 -0.1489  0.1944
 6913SOL    HW132372   0.438   3.213   2.767 -2.1312 -0.5905 -0.4871
 6913SOL    HW232373   0.317   3.251   2.828  0.3342 -0.8897 -1.9260
 6914SOL     OW32374   2.454   3.236   9.276  0.9540  0.1677  0.1724
 6914SOL    HW132375   2.387   3.173   9.302  0.0480  2.7281  4.0845
 6914SOL    HW232376   2.527   3.177   9.259 -1.1322 -2.1259 -0.7853
 6915SOL     OW32377   1.699   3.947   4.768  0.3597  0.0258 -0.1211
 6915SOL    HW132378   1.624   3.951   4.708 -0.9369 -0.4782  1.5002
 6915SOL    HW232379   1.668   3.915   4.852  0.0583  1.1669  0.1953
 6916SOL     OW32380   2.300   4.526   7.161 -0.8871 -0.8805 -0.2096
 6916SOL    HW132381   2.218   4.529   7.210  0.7351  2.1052  2.3169
 6916SOL    HW232382   2.306   4.611   7.116  2.1184 -0.5384  0.7852
 6917SOL     OW32383   2.265   3.121   4.981 -0.5906  0.0034 -0.3410
 6917SOL    HW132384   2.266   3.118   4.885 -0.9738  1.3415 -0.3817
 6917SOL    HW232385   2.335   3.061   5.006 -0.0372  0.8360  0.1210
 6918SOL     OW32386   0.342   0.143  15.563 -0.6232 -0.0450  0.2949
 6918SOL    HW132387   0.263   0.189  15.588 -0.4814  0.0870  0.4983
 6918SOL    HW232388   0.407   0.207  15.536 -0.7801  0.1524  0.3869
 6919SOL     OW32389   4.389   2.886  10.036 -0.0257 -0.6526  0.2991
 6919SOL    HW132390   4.429   2.925  10.113 -1.8292 -0.0632  0.9381
 6919SOL    HW232391   4.307   2.934  10.049  0.2263 -0.5815  1.5753
 6920SOL     OW32392   0.070   0.656  14.754 -0.1339 -0.2842  0.1373
 6920SOL    HW132393   0.087   0.746  14.781  2.8762 -0.6207 -0.6751
 6920SOL    HW232394   0.152   0.628  14.714 -0.0414 -1.4710  1.1520
 6921SOL     OW32395   4.303   1.800   8.037  0.2261 -0.3068  0.1608
 6921SOL    HW132396   4.360   1.877   8.037 -2.2063  1.5084 -1.3337
 6921SOL    HW232397   4.238   1.823   7.970  0.1733 -1.2811 -0.1131
 6922SOL     OW32398   3.864   2.697   4.995  0.0169 -0.5680  0.5871
 6922SOL    HW132399   3.784   2.723   5.042 -0.8659  1.3822 -1.9823
 6922SOL    HW232400   3.900   2.776   4.954  1.2874 -0.9864  0.9002
 6923SOL     OW32401   4.051   4.671  15.306 -0.2350  0.3707 -0.1394
 6923SOL    HW132402   4.030   4.610  15.235 -0.5724 -0.8875  1.0289
 6923SOL    HW232403   4.115   4.733  15.271 -0.2591 -0.3025 -1.3826
 6924SOL     OW32404   2.021   2.664   1.760 -0.0655  0.7903 -0.7103
 6924SOL    HW132405   1.958   2.645   1.829  0.8774 -1.2081 -0.4125
 6924SOL    HW232406   2.012   2.759   1.763 -1.5738  0.6021  0.5374
 6925SOL     OW32407   1.841   1.262   4.724 -0.1707 -0.6315 -0.7462
 6925SOL    HW132408   1.793   1.345   4.728 -2.6723 -1.9262 -3.7598
 6925SOL    HW232409   1.858   1.237   4.814  1.3433  1.0394 -0.5428
 6926SOL     OW32410   4.368   0.722   1.648  0.1818  0.1511  0.3132
 6926SOL    HW132411   4.310   0.649   1.668  0.6138 -0.4490 -0.6673
 6926SOL    HW232412   4.335   0.744   1.561  0.0137 -0.5300  0.2086
 6927SOL     OW32413   0.181   3.269   6.006 -0.2218 -0.6439 -0.1216
 6927SOL    HW132414   0.215   3.180   6.004  1.2992 -0.1073  1.3953
 6927SOL    HW232415   0.213   3.287   6.094 -0.2413 -3.3926  0.4259
 6928SOL     OW32416   1.030   2.046   6.843 -0.1936  0.3298 -0.3366
 6928SOL    HW132417   0.976   2.124   6.831 -0.0535  0.8693  2.4771
 6928SOL    HW232418   1.060   2.028   6.754  1.1599  1.0541 -0.0342
 6929SOL     OW32419   3.747   1.584   2.566  0.6580 -0.0931  0.8153
 6929SOL    HW132420   3.740   1.658   2.627 -0.5534  0.2142  0.3027
 6929SOL    HW232421   3.658   1.549   2.566  0.8441 -0.5656  1.7589
 6930SOL     OW32422   2.356   0.711   5.741  0.3064 -0.6170  0.5968
 6930SOL    HW132423   2.282   0.719   5.802  0.4998  0.5384  0.6844
 6930SOL    HW232424   2.433   0.697   5.797  0.2268  2.3181  1.4440
 6931SOL     OW32425   4.164   0.196   7.517  0.0472  0.2152  0.4155
 6931SOL    HW132426   4.248   0.242   7.515 -0.1857  0.5430 -1.8492
 6931SOL    HW232427   4.172   0.137   7.442  1.3467  0.0104  0.7118
 6932SOL     OW32428   0.697   3.818  16.670  0.3751 -0.2904  0.2632
 6932SOL    HW132429   0.652   3.903  16.674 -1.8983 -1.5996  1.9729
 6932SOL    HW232430   0.727   3.821  16.579  1.6620  2.0244  0.7606
 6933SOL     OW32431   0.679   0.609   5.326  0.1665  0.1048  0.0345
 6933SOL    HW132432   0.613   0.650   5.382 -1.6084 -2.7213  0.0240
 6933SOL    HW232433   0.630   0.592   5.245  1.9256  0.8536 -1.1683
 6934SOL     OW32434   3.730   1.150   5.825  0.6483 -0.3195  0.4754
 6934SOL    HW132435   3.727   1.238   5.786 -3.6325 -0.8586 -0.4003
 6934SOL    HW232436   3.808   1.118   5.780  1.3804  0.9601  0.8210
 6935SOL     OW32437   2.237   1.556   6.768  0.3447  0.4616  0.0198
 6935SOL    HW132438   2.205   1.548   6.858  0.9157 -2.4776 -0.0599
 6935SOL    HW232439   2.329   1.574   6.786  0.6005 -0.4317 -0.4061
 6936SOL     OW32440   0.723   0.845   2.254 -0.1459 -0.6501 -0.2179
 6936SOL    HW132441   0.646   0.870   2.204  0.4940 -0.0769 -0.9216
 6936SOL    HW232442   0.788   0.835   2.184 -2.1638 -1.6587 -1.9374
 6937SOL     OW32443   0.277   0.055   7.605 -0.4413  0.2561  0.2261
 6937SOL    HW132444   0.296   0.140   7.565 -0.2128  0.5580  0.9911
 6937SOL    HW232445   0.208   0.027   7.544  0.8355  1.1761 -1.6442
 6938SOL     OW32446   2.533   3.121   3.687 -0.5269 -0.2633  0.0402
 6938SOL    HW132447   2.508   3.202   3.643 -0.1113 -0.0659  0.1669
 6938SOL    HW232448   2.460   3.067   3.659 -1.6547 -0.0744  2.5995
 6939SOL     OW32449   0.918   0.040  17.393 -0.2968  1.2146 -0.3986
 6939SOL    HW132450   0.997   0.055  17.445 -0.2075  0.0299 -0.1806
 6939SOL    HW232451   0.851   0.059  17.459 -0.7507  2.0674 -1.1174
 6940SOL     OW32452   3.313   4.404   8.166  0.1327 -0.0117 -0.3094
 6940SOL    HW132453   3.228   4.429   8.129  0.4362 -0.4202 -1.2844
 6940SOL    HW232454   3.345   4.351   8.093 -2.9234 -2.2090 -0.0758
 6941SOL     OW32455   2.760   4.708   2.605  0.1460  0.4657  0.2809
 6941SOL    HW132456   2.732   0.055   2.643  0.7068  0.6194  0.3488
 6941SOL    HW232457   2.800   4.676   2.686  0.6603 -2.1363 -0.9952
 6942SOL     OW32458   3.471   2.859   3.064  0.4522 -0.3132  0.5230
 6942SOL    HW132459   3.526   2.799   3.015  1.1743  1.6891 -1.1197
 6942SOL    HW232460   3.468   2.936   3.008  1.4275 -1.2534 -0.8098
 6943SOL     OW32461   4.618   2.999   5.036 -0.1698 -0.3397 -0.0165
 6943SOL    HW132462   4.551   3.016   5.103 -1.1539 -1.2208 -0.7819
 6943SOL    HW232463   4.621   3.091   5.008  1.0650 -0.8481 -1.4936
 6944SOL     OW32464   2.700   3.800   7.124 -0.2906 -0.2217  0.2881
 6944SOL    HW132465   2.670   3.710   7.139 -0.5927 -0.6140 -2.7096
 6944SOL    HW232466   2.701   3.811   7.029 -0.4485 -1.7550  0.1131
 6945SOL     OW32467   2.188   4.107   7.888  0.2007  0.1190  0.6574
 6945SOL    HW132468   2.216   4.193   7.858  0.0151 -0.8893 -2.4581
 6945SOL    HW232469   2.143   4.128   7.970 -2.1745 -1.5808 -0.1923
 6946SOL     OW32470   3.034   1.487   0.913 -0.7282  0.2254  0.1054
 6946SOL    HW132471   3.114   1.443   0.884 -0.2198  0.7817  0.6724
 6946SOL    HW232472   3.059   1.580   0.918 -2.2283  0.6727 -0.5285
 6947SOL     OW32473   2.920   1.489   1.922  0.5609  0.4653  0.6573
 6947SOL    HW132474   2.874   1.573   1.915 -0.2659 -0.1482 -1.3295
 6947SOL    HW232475   2.947   1.504   2.013 -2.9555  3.4041  1.2280
 6948SOL     OW32476   2.154   0.636   7.242 -0.0552  0.0452  0.2965
 6948SOL    HW132477   2.201   0.554   7.259  1.3430  0.9682  0.9403
 6948SOL    HW232478   2.210   0.695   7.294  1.7063 -1.5044  0.1819
 6949SOL     OW32479   4.602   3.700  14.617  0.4166  0.3872  0.1956
 6949SOL    HW132480   4.659   3.720  14.691 -0.4004 -0.4266  1.0456
 6949SOL    HW232481   4.521   3.747  14.632 -0.6845 -0.8292 -1.8443
 6950SOL     OW32482   2.194   0.605   2.323  1.2109  0.2232 -0.2791
 6950SOL    HW132483   2.120   0.561   2.280  0.4128 -1.2719  2.5928
 6950SOL    HW232484   2.146   0.629   2.402  0.5843 -1.0719 -0.2557
 6951SOL     OW32485   2.781   1.875  13.082 -0.0262 -0.0542 -0.4119
 6951SOL    HW132486   2.800   1.797  13.134  0.5763  0.5281  0.2467
 6951SOL    HW232487   2.723   1.848  13.011 -0.3554 -0.2279 -0.0779
 6952SOL     OW32488   1.916   2.612   2.695 -0.0248 -0.6574  0.0403
 6952SOL    HW132489   1.919   2.531   2.644  0.4566  0.0209 -1.0302
 6952SOL    HW232490   1.832   2.612   2.739  0.6373 -0.8233  1.3003
 6953SOL     OW32491   2.794   1.877   2.653 -0.1719 -0.0418 -0.2795
 6953SOL    HW132492   2.776   1.783   2.655  1.3790 -0.3468 -0.3534
 6953SOL    HW232493   2.743   1.905   2.578  1.9715  1.9435 -0.9939
 6954SOL     OW32494   3.360   0.183   2.148 -0.0542 -0.1058  0.0320
 6954SOL    HW132495   3.382   0.112   2.088 -0.1556 -0.8605  0.8939
 6954SOL    HW232496   3.331   0.123   2.217 -2.7286  0.1264 -0.9038
 6955SOL     OW32497   0.532   1.733   2.917  0.8611 -0.3512  0.6677
 6955SOL    HW132498   0.448   1.722   2.963  1.8666  2.4753  3.1920
 6955SOL    HW232499   0.511   1.809   2.863 -0.1183 -0.2411  1.1939
 6956SOL     OW32500   3.560   4.337   9.080  0.0307 -0.1125 -0.2665
 6956SOL    HW132501   3.474   4.296   9.080 -0.1695  0.3382  1.7597
 6956SOL    HW232502   3.559   4.381   9.165  1.8709  0.9499 -0.7846
 6957SOL     OW32503   1.947   0.664  12.704  0.2117  0.5183 -0.0099
 6957SOL    HW132504   2.008   0.641  12.635 -1.9689 -1.8367 -1.1490
 6957SOL    HW232505   1.944   0.760  12.701 -0.3235  0.5379  0.9405
 6958SOL     OW32506   1.379   2.118   5.400 -0.0449 -0.1617 -0.0529
 6958SOL    HW132507   1.469   2.087   5.387  0.4638  2.3235 -2.6276
 6958SOL    HW232508   1.370   2.188   5.336 -0.1728  0.1523  0.3138
 6959SOL     OW32509   3.149   1.187   2.017  0.8365 -0.0699  0.1986
 6959SOL    HW132510   3.222   1.141   1.976  2.2516 -0.4964  3.1516
 6959SOL    HW232511   3.188   1.266   2.055  1.3782 -0.6471  0.8550
 6960SOL     OW32512   3.484   2.743   1.135  0.1100 -0.4190  0.0321
 6960SOL    HW132513   3.445   2.714   1.217  1.1617 -1.9168 -0.0131
 6960SOL    HW232514   3.512   2.831   1.161 -0.9164 -0.5857  1.7191
 6961SOL     OW32515   4.487   2.592   3.144 -0.1052 -0.2733 -0.2452
 6961SOL    HW132516   4.515   2.525   3.206 -0.9184  1.9431  2.4848
 6961SOL    HW232517   4.445   2.660   3.196 -2.6645 -2.9480  1.2210
 6962SOL     OW32518   2.876   2.040   9.105 -0.2677 -0.0706 -0.0900
 6962SOL    HW132519   2.814   2.053   9.034  0.0815 -0.1367 -0.4109
 6962SOL    HW232520   2.884   2.132   9.130  1.9566 -0.1945 -0.3217
 6963SOL     OW32521   0.716   3.349   1.733 -0.9650 -0.3195 -0.0316
 6963SOL    HW132522   0.707   3.285   1.662 -0.6199 -1.1215  0.6513
 6963SOL    HW232523   0.637   3.402   1.722  0.0418  1.2160 -0.0042
 6964SOL     OW32524   4.193   3.113   1.957  0.0687  0.1506 -0.4803
 6964SOL    HW132525   4.197   3.018   1.955  1.2477  0.1554  1.1502
 6964SOL    HW232526   4.233   3.111   2.045 -1.7998 -0.9158  0.3302
 6965SOL     OW32527   0.176   1.696   3.142 -0.6270  0.0003 -0.0524
 6965SOL    HW132528   0.243   1.662   3.200  0.7243  0.9548 -1.0565
 6965SOL    HW232529   0.181   1.791   3.155  1.7920 -0.0290 -0.9012
 6966SOL     OW32530   4.062   3.677  10.495  0.7031 -0.0700  0.3409
 6966SOL    HW132531   4.152   3.648  10.485  0.7259  0.8868 -2.0870
 6966SOL    HW232532   4.050   3.673  10.590  0.1126  3.3298  0.4055
 6967SOL     OW32533   2.740   1.764   4.001 -0.0763 -0.0245 -0.7110
 6967SOL    HW132534   2.710   1.854   3.987 -2.7667 -0.7265  0.5094
 6967SOL    HW232535   2.670   1.727   4.055 -0.4469  0.3819 -0.9038
 6968SOL     OW32536   1.703   3.592  12.079 -0.5888 -0.8250 -0.0146
 6968SOL    HW132537   1.758   3.624  12.151 -1.8020  1.6588 -0.1920
 6968SOL    HW232538   1.696   3.664  12.016 -0.3938 -0.4077  0.4411
 6969SOL     OW32539   2.993   3.531  17.739 -0.1732  0.0363 -0.4971
 6969SOL    HW132540   3.078   3.574  17.732 -0.1564  0.3662  1.7113
 6969SOL    HW232541   3.020   3.443   0.015  1.2354  0.4259 -0.6843
 6970SOL     OW32542   0.496   2.843   2.593 -0.1908  0.3210  0.0331
 6970SOL    HW132543   0.411   2.859   2.554 -0.4051 -3.5971 -1.0690
 6970SOL    HW232544   0.476   2.809   2.680  0.3482 -1.0885 -0.3911
 6971SOL     OW32545   2.845   1.028   6.405 -0.3089  0.1237  0.5118
 6971SOL    HW132546   2.924   1.072   6.375 -0.9261 -1.3142 -3.2474
 6971SOL    HW232547   2.796   1.105   6.432 -1.6745 -0.4018 -0.4165
 6972SOL     OW32548   1.210   4.005   1.971 -0.5386  0.2611 -0.4493
 6972SOL    HW132549   1.274   4.049   1.914 -0.0432  0.8756  0.5759
 6972SOL    HW232550   1.231   4.042   2.057  0.9883 -1.2439 -0.1709
 6973SOL     OW32551   2.125   2.124   8.103  0.4559 -0.5753 -0.1027
 6973SOL    HW132552   2.147   2.031   8.094  0.4440 -0.5793 -0.0895
 6973SOL    HW232553   2.189   2.164   8.044 -2.1588  1.0980 -1.8056
 6974SOL     OW32554   2.931   2.527   5.665 -0.4880 -0.3191  0.4135
 6974SOL    HW132555   2.836   2.535   5.670 -0.5550 -2.8683  3.2477
 6974SOL    HW232556   2.939   2.441   5.707 -0.5550 -0.8073 -0.5680
 6975SOL     OW32557   4.723   2.935   8.954 -0.6500  0.0335  0.1824
 6975SOL    HW132558   4.632   2.912   8.937  0.1229 -2.4750 -0.5484
 6975SOL    HW232559   4.713   2.947   9.048 -2.9799 -1.4594  0.1295
 6976SOL     OW32560   2.031   2.650  16.160 -0.0102 -0.5941  0.3690
 6976SOL    HW132561   2.115   2.665  16.117 -0.0694 -1.0126  0.1151
 6976SOL    HW232562   2.058   2.659  16.252  2.9358 -2.2905 -0.3132
 6977SOL     OW32563   2.885   2.350  15.528  0.0248  0.3278  0.1156
 6977SOL    HW132564   2.972   2.352  15.569  1.0855  0.6237 -2.1649
 6977SOL    HW232565   2.904   2.386  15.442  0.0991  0.2340  0.0918
 6978SOL     OW32566   3.952   1.673   8.768 -0.3516 -0.1934 -0.0864
 6978SOL    HW132567   3.873   1.710   8.727 -0.9458 -2.5961 -1.0582
 6978SOL    HW232568   4.019   1.729   8.729 -1.7104  1.7692  0.3819
 6979SOL     OW32569   1.506   2.905   1.929  0.2384  0.6211 -0.3028
 6979SOL    HW132570   1.464   2.841   1.871  2.0494 -1.0142  0.1994
 6979SOL    HW232571   1.588   2.917   1.882  0.2313 -0.2160 -0.5277
 6980SOL     OW32572   1.618   0.619   4.899 -0.4477 -0.6947 -0.2553
 6980SOL    HW132573   1.662   0.549   4.852  0.3990  0.2211 -0.8169
 6980SOL    HW232574   1.601   0.689   4.836  0.6863 -1.5333 -1.4640
 6981SOL     OW32575   0.872   3.037  15.466  0.3899  0.6776  0.3690
 6981SOL    HW132576   0.934   3.039  15.539  0.4384 -2.8853  0.4312
 6981SOL    HW232577   0.797   3.009  15.519 -2.2305 -1.3386 -4.4091
 6982SOL     OW32578   2.275   1.474  12.075 -0.2811 -0.2897 -0.4074
 6982SOL    HW132579   2.291   1.553  12.024 -1.9528 -0.5943 -1.3938
 6982SOL    HW232580   2.251   1.511  12.160  2.0183  0.0370  0.0976
 6983SOL     OW32581   0.345   3.646   7.153  0.3702  0.3060  0.3499
 6983SOL    HW132582   0.329   3.725   7.206  1.1689  2.2217 -2.2550
 6983SOL    HW232583   0.342   3.675   7.062  0.6300  1.3838  0.6854
 6984SOL     OW32584   3.572   2.070   8.068  0.2242  0.1718  0.5491
 6984SOL    HW132585   3.530   2.089   8.152 -0.1403  2.4971 -0.1509
 6984SOL    HW232586   3.622   2.150   8.051  0.9635 -0.2995  0.5107
 6985SOL     OW32587   3.576   3.600  10.167  0.0162 -0.2993  0.5202
 6985SOL    HW132588   3.519   3.578  10.240 -1.1623  0.3952 -0.1916
 6985SOL    HW232589   3.527   3.664  10.115 -1.9758 -1.3664  1.0896
 6986SOL     OW32590   3.753   2.207   4.080  0.0982  0.2053 -0.9639
 6986SOL    HW132591   3.675   2.205   4.026 -1.6158 -2.4844  1.5891
 6986SOL    HW232592   3.734   2.271   4.150  0.5974 -1.4250  0.6694
 6987SOL     OW32593   3.905   3.477   2.941  0.3663  0.1713 -0.2600
 6987SOL    HW132594   3.957   3.556   2.952  0.6902 -0.0343 -0.3288
 6987SOL    HW232595   3.856   3.487   3.022 -1.3616  1.5281 -1.4560
 6988SOL     OW32596   3.798   2.285   4.709 -0.1799 -0.3854  0.0569
 6988SOL    HW132597   3.874   2.265   4.763 -0.1789  1.2229  0.6406
 6988SOL    HW232598   3.728   2.274   4.774 -0.4992  0.1149 -0.2003
 6989SOL     OW32599   4.131   3.417  14.986  0.3748  0.1642  0.4313
 6989SOL    HW132600   4.086   3.385  15.065 -0.5623  1.6929  0.5168
 6989SOL    HW232601   4.176   3.487  15.034 -0.6908  1.8582 -1.0348
 6990SOL     OW32602   4.090   3.803   2.437  0.5711 -0.3883  0.0547
 6990SOL    HW132603   4.087   3.794   2.532 -0.3405 -3.7476 -0.3095
 6990SOL    HW232604   4.061   3.719   2.403  0.8550  0.1557 -1.5528
 6991SOL     OW32605   4.046   4.276  15.168 -0.1473  0.3348  0.0791
 6991SOL    HW132606   4.029   4.220  15.244  2.0078  0.1076  0.3813
 6991SOL    HW232607   4.125   4.236  15.132  0.8632 -0.1211  2.7702
 6992SOL     OW32608   3.193   2.103   1.418 -0.1221  0.0148 -0.5766
 6992SOL    HW132609   3.231   2.160   1.484  0.3004 -0.0607 -0.7529
 6992SOL    HW232610   3.252   2.027   1.414 -0.3839 -0.2302  0.3179
 6993SOL     OW32611   1.651   2.863  17.484  0.6222 -0.1062  0.4859
 6993SOL    HW132612   1.701   2.929  17.533 -0.5660 -1.5334  3.6167
 6993SOL    HW232613   1.570   2.848  17.532  0.0307  1.1405 -0.1033
 6994SOL     OW32614   2.055   0.628  14.315 -0.0529 -0.4918 -0.2172
 6994SOL    HW132615   1.980   0.619  14.374 -0.5899 -1.3369 -1.0233
 6994SOL    HW232616   2.014   0.591  14.237 -2.3616 -0.2663  0.8916
 6995SOL     OW32617   4.259   2.969   8.591  0.2697  0.3318  0.2451
 6995SOL    HW132618   4.312   2.889   8.598  1.3027  1.0379  0.5288
 6995SOL    HW232619   4.231   2.966   8.500  0.5208 -1.4452  0.2286
 6996SOL     OW32620   0.296   1.542   8.456  0.2899  0.2989  0.0068
 6996SOL    HW132621   0.373   1.529   8.402  0.2755  0.7980 -0.1332
 6996SOL    HW232622   0.262   1.619   8.410  1.3473  0.3869 -0.6153
 6997SOL     OW32623   2.083   3.159   6.691  0.7583 -0.6141  0.5790
 6997SOL    HW132624   2.028   3.081   6.679 -0.3052  0.2687 -0.3074
 6997SOL    HW232625   2.035   3.212   6.627  1.3176  0.3791  0.9816
 6998SOL     OW32626   0.569   1.205   7.155 -0.3737  0.1626 -0.2995
 6998SOL    HW132627   0.611   1.289   7.138 -0.0800  0.3926  1.5950
 6998SOL    HW232628   0.633   1.155   7.206 -2.1543  0.2352  1.9943
 6999SOL     OW32629   0.512   2.187   5.646 -0.1609  0.6516  0.2061
 6999SOL    HW132630   0.463   2.188   5.564  1.1291 -1.2590 -0.6020
 6999SOL    HW232631   0.566   2.109   5.627  0.2393  1.5588 -2.3987
 7000SOL     OW32632   0.415   2.606   8.192  0.2171  0.6787  0.6080
 7000SOL    HW132633   0.320   2.612   8.194  0.0872 -1.6827  1.3809
 7000SOL    HW232634   0.434   2.559   8.112 -1.6143 -1.4273  1.4167
 7001SOL     OW32635   4.149   2.530   7.638 -0.2562 -0.1252 -0.3936
 7001SOL    HW132636   4.211   2.559   7.706  1.9299 -2.8259 -1.2257
 7001SOL    HW232637   4.141   2.610   7.585  2.1836 -0.7291 -1.6715
 7002SOL     OW32638   0.856   0.051   5.064  0.1874 -0.3178  0.4047
 7002SOL    HW132639   0.779   0.094   5.102  2.2898  2.7424  1.1916
 7002SOL    HW232640   0.849   4.704   5.108 -0.7288 -0.3354  0.2186
 7003SOL     OW32641   2.286   0.056   7.528  0.2952 -0.0449 -0.3775
 7003SOL    HW132642   2.272   4.699   7.537  0.2609  0.1903  1.9593
 7003SOL    HW232643   2.220   0.083   7.592  0.3572 -0.7625 -0.0112
 7004SOL     OW32644   2.883   3.040   3.462  0.3026 -0.2504  0.3529
 7004SOL    HW132645   2.978   3.030   3.466  0.4994  2.4575  1.9696
 7004SOL    HW232646   2.872   3.127   3.425  0.3246 -0.8469 -1.0545
 7005SOL     OW32647   2.183   1.690   3.867  0.9069 -0.1391 -0.2690
 7005SOL    HW132648   2.231   1.763   3.906  0.4739  0.6996 -1.2994
 7005SOL    HW232649   2.185   1.643   3.950  2.3200  1.8202  0.8156
 7006SOL     OW32650   1.141   0.939   9.386 -0.5988  0.0481 -0.2333
 7006SOL    HW132651   1.066   0.981   9.429  0.3154  1.8619 -0.4135
 7006SOL    HW232652   1.110   0.932   9.296 -0.0705 -0.5290 -0.3706
 7007SOL     OW32653   0.207   4.191   2.221 -0.1141 -0.1738 -0.4862
 7007SOL    HW132654   0.277   4.129   2.241  2.1069  1.5242 -2.8690
 7007SOL    HW232655   0.228   4.209   2.129  1.9521 -0.7893 -0.1483
 7008SOL     OW32656   1.506   1.592   6.391 -0.0604 -0.1873 -0.1890
 7008SOL    HW132657   1.446   1.531   6.348  1.2001 -1.6632  0.1255
 7008SOL    HW232658   1.582   1.577   6.335 -1.6881  2.2125 -3.0194
 7009SOL     OW32659   4.009   3.962   4.416 -0.4320  0.7241  0.8488
 7009SOL    HW132660   4.065   3.934   4.488  0.2049 -2.4205 -0.8481
 7009SOL    HW232661   3.923   3.952   4.457 -0.3563 -1.8917  0.3686
 7010SOL     OW32662   0.385   3.539  16.335 -0.5384 -0.1027  0.4245
 7010SOL    HW132663   0.467   3.492  16.324 -1.8172 -2.0331 -0.8183
 7010SOL    HW232664   0.424   3.617  16.375  1.7215 -1.2600  0.4963
 7011SOL     OW32665   0.061   0.843   4.380  0.2947  0.1702 -0.2210
 7011SOL    HW132666   0.151   0.812   4.384 -0.2674 -1.6336 -1.4286
 7011SOL    HW232667   0.019   0.767   4.421 -0.3689  1.2939  1.1920
 7012SOL     OW32668   0.665   3.449   2.966  0.1065  0.3802  0.0117
 7012SOL    HW132669   0.706   3.380   2.913 -3.0169 -1.0378 -0.5872
 7012SOL    HW232670   0.742   3.494   2.999 -0.5013  0.2319  1.6155
 7013SOL     OW32671   3.866   1.005  10.901  0.1168 -0.6803 -0.1499
 7013SOL    HW132672   3.795   1.064  10.927 -0.1248 -1.6674  1.4567
 7013SOL    HW232673   3.928   1.026  10.971  3.3118  1.5552 -3.6289
 7014SOL     OW32674   4.451   3.184   8.664  0.4254  0.1701 -0.0914
 7014SOL    HW132675   4.363   3.146   8.655  1.0647 -1.0654 -1.2642
 7014SOL    HW232676   4.507   3.106   8.661  0.0763 -0.0480 -1.2132
 7015SOL     OW32677   1.748   2.570  17.505  0.0678  0.5386  0.1280
 7015SOL    HW132678   1.789   2.616  17.578 -0.7254  0.8513  0.3708
 7015SOL    HW232679   1.789   2.606  17.427 -0.4553 -0.3026 -0.5285
 7016SOL     OW32680   4.343   1.806   3.430  0.0873  0.2346  0.2527
 7016SOL    HW132681   4.312   1.853   3.508  0.0894 -2.4674  1.9001
 7016SOL    HW232682   4.259   1.760   3.419  0.0304  0.4849 -0.3197
 7017SOL     OW32683   3.941   3.583   2.336  0.0082  0.1067  0.3309
 7017SOL    HW132684   3.987   3.499   2.325  0.0495  0.4922 -2.6193
 7017SOL    HW232685   3.853   3.570   2.371  0.0004 -1.9542 -0.4185
 7018SOL     OW32686   0.418   0.174   6.368 -0.7939 -0.2432 -0.0193
 7018SOL    HW132687   0.394   0.082   6.381  2.7466 -1.0096  1.1290
 7018SOL    HW232688   0.448   0.177   6.277  1.8535 -0.3089  0.8556
 7019SOL     OW32689   3.516   2.256  13.929  0.2750 -0.4091  0.3169
 7019SOL    HW132690   3.455   2.288  13.862 -0.3093 -0.9010  0.6058
 7019SOL    HW232691   3.557   2.183  13.884 -0.9923 -0.7547 -0.2911
 7020SOL     OW32692   3.494   3.601   4.089 -0.4193  0.2556  0.1464
 7020SOL    HW132693   3.514   3.546   4.013 -1.3791  0.0617  0.0289
 7020SOL    HW232694   3.400   3.584   4.092 -0.4359  0.3061 -0.0403
 7021SOL     OW32695   0.252   4.507   4.291 -0.5235  0.0982 -0.1357
 7021SOL    HW132696   0.311   4.457   4.235  1.2842  0.6109  1.3168
 7021SOL    HW232697   0.175   4.453   4.273 -1.2090  0.8330  0.5992
 7022SOL     OW32698   4.090   2.968   2.157  0.0821  0.2242 -0.1690
 7022SOL    HW132699   4.049   3.045   2.117  0.9609  0.2303 -1.0695
 7022SOL    HW232700   4.019   2.904   2.150  1.3900 -1.5850  2.9627
 7023SOL     OW32701   2.995   0.652  13.632 -0.1513  0.0572 -0.1986
 7023SOL    HW132702   2.911   0.685  13.665 -0.2734  0.6203 -1.0704
 7023SOL    HW232703   3.033   0.622  13.715 -0.4088 -1.1673 -0.5190
 7024SOL     OW32704   1.633   2.652   7.125  0.5576 -0.1914  0.4963
 7024SOL    HW132705   1.603   2.659   7.215 -5.3172  0.5067 -1.4682
 7024SOL    HW232706   1.685   2.572   7.123 -0.4679 -0.8985  2.0829
 7025SOL     OW32707   0.648   0.044   2.271 -0.7469  0.3494  0.3183
 7025SOL    HW132708   0.602   4.704   2.305  1.2026 -1.5627 -1.3698
 7025SOL    HW232709   0.655   0.013   2.181  0.0071  0.3003  0.3942
 7026SOL     OW32710   3.970   1.097  11.436  0.5277  0.1269 -0.3623
 7026SOL    HW132711   3.892   1.116  11.384  1.4018  0.1174 -1.6814
 7026SOL    HW232712   3.994   1.007  11.412  0.4500  0.3823 -1.4105
 7027SOL     OW32713   0.129   0.857   8.334 -0.2336 -0.1405 -0.6735
 7027SOL    HW132714   0.132   0.862   8.429  0.5202  0.7923 -0.7581
 7027SOL    HW232715   0.152   0.945   8.305 -2.9781  0.6844 -0.3389
 7028SOL     OW32716   4.663   3.079  17.085  0.0954  0.3770 -0.7627
 7028SOL    HW132717   4.635   3.164  17.119  0.7919  0.6888 -0.9812
 7028SOL    HW232718   4.713   3.097  17.006 -0.2640  2.0461 -0.6123
 7029SOL     OW32719   3.379   1.959   3.006 -0.2627  0.2717 -0.5200
 7029SOL    HW132720   3.371   2.054   3.003  0.7146  0.2571 -3.1622
 7029SOL    HW232721   3.471   1.941   3.028  0.1833  1.6072 -1.2898
 7030SOL     OW32722   3.060   1.779   6.688 -0.6860  0.3626  0.3224
 7030SOL    HW132723   3.103   1.712   6.634  2.2397  0.1743  2.8550
 7030SOL    HW232724   2.993   1.729   6.735 -1.0206  0.6696  0.1652
 7031SOL     OW32725   4.628   0.385   6.996  0.8237  0.6637  0.5131
 7031SOL    HW132726   4.596   0.420   7.079 -0.9884 -2.6745  1.2129
 7031SOL    HW232727   4.640   0.459   6.936  0.5882  1.3911  1.3630
 7032SOL     OW32728   3.642   2.985   0.049  0.5873 -0.0902 -0.4352
 7032SOL    HW132729   3.617   2.912   0.105 -1.5054 -0.4043 -1.7850
 7032SOL    HW232730   3.717   3.008   0.103 -0.2787  0.8659  0.3690
 7033SOL     OW32731   4.234   3.881   1.558  0.2470  0.2629  1.1436
 7033SOL    HW132732   4.293   3.839   1.621 -1.4657 -0.0880  2.5016
 7033SOL    HW232733   4.285   3.962   1.549  2.3243 -1.3643 -1.8204
 7034SOL     OW32734   1.024   2.400  13.984  0.3633  0.1595  0.1127
 7034SOL    HW132735   0.935   2.432  13.973  0.2909  0.4366  1.4264
 7034SOL    HW232736   1.034   2.337  13.914  0.9501 -0.4422  0.7363
 7035SOL     OW32737   0.760   0.786   4.609  0.0908 -0.1251  0.3316
 7035SOL    HW132738   0.771   0.865   4.662  2.0038 -1.8308  2.4972
 7035SOL    HW232739   0.712   0.730   4.671  1.5574 -1.7690 -0.0369
 7036SOL     OW32740   1.773   1.097   2.148 -0.0923  0.0629  0.5295
 7036SOL    HW132741   1.699   1.089   2.088 -0.2009 -2.3970  0.9621
 7036SOL    HW232742   1.745   1.058   2.231 -0.6670 -2.2649 -0.7374
 7037SOL     OW32743   4.648   2.333   9.008 -0.1579 -0.5331  0.2386
 7037SOL    HW132744   4.692   2.388   9.073  1.1743 -2.9485  1.3644
 7037SOL    HW232745   4.650   2.248   9.050 -1.6645 -0.0747  1.2281
 7038SOL     OW32746   0.585   1.690   9.160  0.3765 -0.9360  0.6531
 7038SOL    HW132747   0.490   1.704   9.152  0.5698 -0.1136 -0.0771
 7038SOL    HW232748   0.610   1.743   9.085 -0.0782  2.6261  3.0481
 7039SOL     OW32749   2.318   2.652   3.415  0.1099  0.0712  0.6552
 7039SOL    HW132750   2.225   2.674   3.413  0.7622  2.8608  1.3045
 7039SOL    HW232751   2.348   2.708   3.344 -0.0702 -1.0404 -0.3112
 7040SOL     OW32752   0.273   1.109   2.518  0.2635 -0.3077  0.2154
 7040SOL    HW132753   0.350   1.052   2.511  0.5272  0.1810 -0.9862
 7040SOL    HW232754   0.243   1.072   2.600 -2.0414  2.6776  0.6946
 7041SOL     OW32755   2.086   2.705   0.864 -0.1323 -0.2988 -0.2587
 7041SOL    HW132756   2.068   2.731   0.954 -0.5379  1.2561 -0.7980
 7041SOL    HW232757   2.160   2.646   0.884 -2.2589 -2.8999 -0.1179
 7042SOL     OW32758   4.073   2.258   6.527  0.0765 -0.2368  0.3334
 7042SOL    HW132759   4.028   2.237   6.446  1.1095 -0.4754 -0.1734
 7042SOL    HW232760   4.010   2.305   6.582 -2.3080 -1.5791 -1.2967
 7043SOL     OW32761   3.387   1.492  13.065 -0.3460 -0.7217 -0.4128
 7043SOL    HW132762   3.469   1.508  13.018 -0.0028  0.5680  0.6543
 7043SOL    HW232763   3.338   1.573  13.066  0.7369 -0.0716 -0.1162
 7044SOL     OW32764   0.830   3.611   4.074 -0.2005  0.1603  0.3037
 7044SOL    HW132765   0.796   3.600   3.986  1.0104 -0.4230 -0.0852
 7044SOL    HW232766   0.854   3.521   4.096  1.1615 -0.7385 -5.0338
 7045SOL     OW32767   3.319   3.535   4.442 -0.1139 -0.6083 -0.4559
 7045SOL    HW132768   3.226   3.518   4.455  0.2545 -0.9715  1.7528
 7045SOL    HW232769   3.331   3.601   4.511 -2.0040  1.3858 -2.0293
 7046SOL     OW32770   1.333   3.438   8.390 -0.2491 -0.4668 -0.6199
 7046SOL    HW132771   1.305   3.352   8.358 -1.4421 -0.7200  1.1493
 7046SOL    HW232772   1.382   3.411   8.468 -0.5899  0.3894 -0.1176
 7047SOL     OW32773   0.748   4.663  12.305 -0.4782  0.6150 -0.2894
 7047SOL    HW132774   0.658   4.636  12.288 -0.5220  0.2115  0.6245
 7047SOL    HW232775   0.795   4.588  12.269 -0.5855  0.5773 -0.3486
 7048SOL     OW32776   3.236   4.384   8.432  0.1673 -0.4393  0.0543
 7048SOL    HW132777   3.271   4.379   8.343  1.2360  0.6630  0.4160
 7048SOL    HW232778   3.298   4.327   8.477 -0.6992 -1.4893 -0.0841
 7049SOL     OW32779   1.310   3.379   0.980 -0.3558 -0.3593 -0.2654
 7049SOL    HW132780   1.402   3.355   0.986 -0.5355 -0.5934  1.6209
 7049SOL    HW232781   1.265   3.316   1.037  0.2903  1.3584  2.1215
 7050SOL     OW32782   0.029   1.132   6.661 -0.2249  0.2796  0.1586
 7050SOL    HW132783   0.039   1.127   6.566  1.3506 -1.3591  0.4084
 7050SOL    HW232784   0.035   1.039   6.682  2.1321  0.7648  1.5883
 7051SOL     OW32785   4.272   0.143   5.410 -0.3436  0.3697 -0.2329
 7051SOL    HW132786   4.335   0.161   5.479  0.1775 -0.2776 -0.5378
 7051SOL    HW232787   4.205   0.200   5.447  0.6883  0.7578  1.0243
 7052SOL     OW32788   1.439   3.428   0.239 -0.1596  0.6283 -0.2648
 7052SOL    HW132789   1.377   3.359   0.260  0.7681  0.0537  0.5649
 7052SOL    HW232790   1.523   3.385   0.255 -0.0885  1.7411  2.4659
 7053SOL     OW32791   2.260   1.525   7.988 -0.3080  0.1162  0.3520
 7053SOL    HW132792   2.275   1.574   8.069 -0.2495 -0.1361  0.4937
 7053SOL    HW232793   2.203   1.457   8.024  0.1299 -0.0468  0.7337
 7054SOL     OW32794   3.998   3.701   5.898 -0.2238  0.0714 -0.3622
 7054SOL    HW132795   3.933   3.633   5.880 -0.4806 -0.2714  1.9190
 7054SOL    HW232796   4.034   3.722   5.812 -0.5015  1.4967 -0.1437
 7055SOL     OW32797   3.438   3.912  10.921 -0.5516 -0.1505 -0.2737
 7055SOL    HW132798   3.345   3.907  10.900 -0.5678 -1.8855  0.2084
 7055SOL    HW232799   3.459   3.820  10.903  0.7154 -0.1699  1.2779
 7056SOL     OW32800   3.935   0.019   6.845  0.0881  0.2189  0.0417
 7056SOL    HW132801   3.933   0.023   6.750  0.8864 -0.5804 -0.0214
 7056SOL    HW232802   3.982   0.099   6.867 -0.1318  0.2647  0.3327
 7057SOL     OW32803   4.731   2.866  10.052  0.6810  0.4863  0.0048
 7057SOL    HW132804   0.016   2.940  10.108  0.2179 -0.0366  0.8989
 7057SOL    HW232805   4.715   2.915   9.971 -1.2352 -0.6899 -0.3357
 7058SOL     OW32806   1.493   4.501  12.753 -0.5411  0.3488 -0.3270
 7058SOL    HW132807   1.572   4.530  12.708 -0.9205  0.2818 -1.0256
 7058SOL    HW232808   1.543   4.481  12.833 -1.5764 -1.9770 -0.2813
 7059SOL     OW32809   2.787   4.038   6.864  0.1246 -0.4533  0.0795
 7059SOL    HW132810   2.770   3.945   6.876 -1.0664  0.1045  2.8508
 7059SOL    HW232811   2.699   4.075   6.860  0.8700  1.1408 -1.4487
 7060SOL     OW32812   4.113   2.789   6.085 -0.0015 -0.3851  0.7260
 7060SOL    HW132813   4.094   2.796   5.992 -1.1385 -0.9214  0.9225
 7060SOL    HW232814   4.168   2.711   6.086 -0.3949 -0.6795 -0.8290
 7061SOL     OW32815   2.978   0.579   7.165 -0.6624 -0.5397  0.2046
 7061SOL    HW132816   2.900   0.598   7.114  0.3741 -1.7558 -1.8457
 7061SOL    HW232817   2.969   0.487   7.190  2.3031 -0.6860  0.7557
 7062SOL     OW32818   1.763   4.407  17.111 -0.1755 -0.2291  0.3479
 7062SOL    HW132819   1.731   4.497  17.109 -0.8467 -0.4622  0.5987
 7062SOL    HW232820   1.805   4.399  17.196 -0.1272  2.1296  0.5283
 7063SOL     OW32821   3.637   4.450   5.592 -0.1493  0.2062  0.4075
 7063SOL    HW132822   3.560   4.469   5.647  1.5965  2.6594  1.9950
 7063SOL    HW232823   3.682   4.534   5.587 -0.2996  0.1697 -1.5457
 7064SOL     OW32824   2.702   2.184   2.889  0.0331  0.3736  0.4669
 7064SOL    HW132825   2.780   2.132   2.907  0.6205  0.4684 -1.8838
 7064SOL    HW232826   2.744   2.248   2.831  1.3422 -1.1856 -0.2880
 7065SOL     OW32827   1.206   4.050   7.265  0.0034  0.2525 -0.0435
 7065SOL    HW132828   1.121   4.088   7.246 -0.5541 -0.9404  0.1057
 7065SOL    HW232829   1.227   4.123   7.323 -0.6956  0.4311 -0.0160
 7066SOL     OW32830   2.993   2.638   4.422 -0.2058  0.2504 -0.3802
 7066SOL    HW132831   2.978   2.666   4.513 -1.2635 -3.8512  0.6942
 7066SOL    HW232832   3.075   2.682   4.400 -0.0495 -0.2544 -0.7967
 7067SOL     OW32833   3.843   4.002   4.027 -0.3889 -0.0921 -0.3355
 7067SOL    HW132834   3.751   4.024   4.043  0.3021  1.4905  1.4889
 7067SOL    HW232835   3.860   3.963   4.113 -0.7005 -1.3432 -0.8383
 7068SOL     OW32836   1.083   3.116  11.732  0.1993  0.0408  0.5105
 7068SOL    HW132837   1.119   3.204  11.731 -1.8013  0.8616  0.2007
 7068SOL    HW232838   1.164   3.066  11.723  0.7653  1.1984 -0.8101
 7069SOL     OW32839   2.099   1.368   7.642  0.1673  0.4532  0.7312
 7069SOL    HW132840   2.146   1.451   7.645  1.0795 -0.0319 -0.4148
 7069SOL    HW232841   2.167   1.302   7.630  0.1791  0.2718  1.8011
 7070SOL     OW32842   1.270   2.210   1.351  0.9587  0.3924  0.3483
 7070SOL    HW132843   1.344   2.271   1.355  0.8615  0.5444 -0.1751
 7070SOL    HW232844   1.296   2.127   1.390  0.7855 -0.3814 -1.2139
 7071SOL     OW32845   1.205   0.457   7.549  0.3034  0.4126  0.3975
 7071SOL    HW132846   1.219   0.369   7.584  1.8505  0.5348  0.0999
 7071SOL    HW232847   1.112   0.477   7.560  0.0269 -1.8698  2.1092
 7072SOL     OW32848   0.398   3.584   8.939 -0.3340 -0.2080 -0.3514
 7072SOL    HW132849   0.376   3.677   8.949  0.0630  0.2113 -3.3950
 7072SOL    HW232850   0.433   3.554   9.022  0.0571 -0.9275 -0.7808
 7073SOL     OW32851   1.783   0.660   3.728 -0.2918  0.3231 -0.4802
 7073SOL    HW132852   1.738   0.575   3.724  0.5027 -0.1850  1.2189
 7073SOL    HW232853   1.716   0.707   3.678 -0.2621 -1.4820 -2.2097
 7074SOL     OW32854   0.724   3.384   8.584  0.0645  0.2661  0.3834
 7074SOL    HW132855   0.743   3.303   8.537  0.5136  0.7878 -0.3135
 7074SOL    HW232856   0.656   3.424   8.531  1.9086  2.0290 -0.6178
 7075SOL     OW32857   3.062   3.622   1.377  0.0525 -0.2716  0.3014
 7075SOL    HW132858   2.972   3.590   1.386  0.2214 -0.8250  0.0622
 7075SOL    HW232859   3.112   3.551   1.417 -1.4967  0.5019  3.6590
 7076SOL     OW32860   3.142   1.079  16.786 -0.4055  0.0944 -0.2029
 7076SOL    HW132861   3.191   1.051  16.864  0.0170  0.3181 -0.3923
 7076SOL    HW232862   3.171   1.022  16.715 -1.3828  1.3171 -1.5813
 7077SOL     OW32863   2.796   1.063   5.992  0.1084 -0.1919 -0.1590
 7077SOL    HW132864   2.872   1.112   6.023 -0.0530 -1.2155  1.7895
 7077SOL    HW232865   2.731   1.133   5.981 -0.7436 -0.8351  0.8225
 7078SOL     OW32866   1.543   4.067   6.719 -0.8922  0.3316  0.7382
 7078SOL    HW132867   1.588   4.130   6.775  0.5776 -0.0207 -0.0453
 7078SOL    HW232868   1.450   4.080   6.739 -0.8759  0.6175  0.6337
 7079SOL     OW32869   2.428   3.894   9.970  0.2995  0.0171 -0.6204
 7079SOL    HW132870   2.396   3.847  10.047  2.1968 -1.5810 -0.8023
 7079SOL    HW232871   2.398   3.834   9.902  0.2251 -1.3010  0.5945
 7080SOL     OW32872   1.548   1.961   4.790  0.1105  0.5315  0.1257
 7080SOL    HW132873   1.591   1.939   4.707 -2.4669 -1.0751 -0.7812
 7080SOL    HW232874   1.595   1.894   4.840  0.8669 -0.1049 -1.4269
 7081SOL     OW32875   0.468   3.828  13.184  0.4379  0.0556 -0.1814
 7081SOL    HW132876   0.476   3.839  13.090  1.3996  1.2031  0.0356
 7081SOL    HW232877   0.414   3.906  13.193  0.6720  0.0932  0.9880
 7082SOL     OW32878   3.940   1.194  16.569  0.5760  0.4224  0.5648
 7082SOL    HW132879   3.981   1.217  16.652  2.4654  0.1395 -0.2806
 7082SOL    HW232880   3.976   1.108  16.547  0.7983  0.9204 -1.0010
 7083SOL     OW32881   4.064   2.896  16.760  0.8430 -0.0160 -0.2465
 7083SOL    HW132882   4.129   2.964  16.745  0.5252 -0.5112 -4.0768
 7083SOL    HW232883   3.982   2.944  16.763  1.4772  1.2116 -2.9091
 7084SOL     OW32884   1.589   1.514   8.723 -0.1313  0.5551 -0.0229
 7084SOL    HW132885   1.677   1.527   8.686  0.4491 -1.3545  0.7015
 7084SOL    HW232886   1.564   1.607   8.723 -1.6908  0.1352 -1.3673
 7085SOL     OW32887   0.576   0.851   6.230 -0.3265 -0.0758 -0.5329
 7085SOL    HW132888   0.509   0.786   6.207 -0.1587 -0.1371 -0.8369
 7085SOL    HW232889   0.651   0.795   6.249 -1.3610 -2.7238 -4.2613
 7086SOL     OW32890   0.776   2.237   3.127  0.9328 -0.0646 -0.6387
 7086SOL    HW132891   0.832   2.293   3.073  0.9962  0.7389  0.2654
 7086SOL    HW232892   0.765   2.163   3.067  0.1931  0.3219 -0.9806
 7087SOL     OW32893   2.849   3.012   8.029  0.0719  0.1427 -0.4016
 7087SOL    HW132894   2.915   2.956   7.988 -0.2528 -0.1950 -0.4615
 7087SOL    HW232895   2.790   3.038   7.959 -2.5484 -1.4228  1.2212
 7088SOL     OW32896   2.077   1.378  15.126  0.1903  0.1834 -0.1030
 7088SOL    HW132897   2.064   1.291  15.164 -0.5123  0.5813  0.5555
 7088SOL    HW232898   2.149   1.405  15.184 -0.2563  1.8578 -0.3345
 7089SOL     OW32899   1.376   2.761   3.558 -0.1851 -0.6119 -0.1842
 7089SOL    HW132900   1.343   2.799   3.477 -2.8648  0.3166  1.3485
 7089SOL    HW232901   1.333   2.807   3.630  2.6579  1.4545  0.1882
 7090SOL     OW32902   0.865   1.876   2.640  0.0711  0.1552 -0.0173
 7090SOL    HW132903   0.915   1.878   2.558  0.9931  1.0947  0.5608
 7090SOL    HW232904   0.934   1.870   2.707 -0.8665  0.2945  0.9650
 7091SOL     OW32905   3.756   2.983   5.701  0.4598 -0.6084  0.4784
 7091SOL    HW132906   3.671   3.023   5.682  0.9581 -0.0574 -0.5391
 7091SOL    HW232907   3.731   2.904   5.750 -0.8961 -1.6292 -1.8862
 7092SOL     OW32908   1.412   4.630   5.279 -0.0808 -0.3052  0.0704
 7092SOL    HW132909   1.475   4.678   5.225 -1.0662  1.4333  0.4374
 7092SOL    HW232910   1.394   4.696   5.346  1.3292  0.2686 -0.1069
 7093SOL     OW32911   3.139   1.406   9.197 -0.2092  0.0540  0.3494
 7093SOL    HW132912   3.060   1.396   9.251 -0.5653 -0.7861 -0.3120
 7093SOL    HW232913   3.096   1.460   9.130 -2.4648 -0.2122  1.5731
 7094SOL     OW32914   4.515   0.712   0.393  0.5013 -0.3465  0.4488
 7094SOL    HW132915   4.604   0.698   0.361 -0.1954 -1.0951 -1.1366
 7094SOL    HW232916   4.525   0.664   0.475 -0.8344 -1.2536  0.0871
 7095SOL     OW32917   0.046   1.676   4.352  0.0682 -0.3931 -0.1169
 7095SOL    HW132918   0.109   1.744   4.374 -0.4508  0.6328 -1.7840
 7095SOL    HW232919   0.084   1.604   4.401 -0.0909 -1.3361 -1.3590
 7096SOL     OW32920   1.665   4.671  17.089  0.8483 -0.0282  0.2899
 7096SOL    HW132921   1.668   0.029  17.097 -1.5292  0.1084 -0.3843
 7096SOL    HW232922   1.656   4.654  16.995  0.6051  1.6049  0.0230
 7097SOL     OW32923   1.642   0.437   3.782  0.1003  0.1060 -0.3518
 7097SOL    HW132924   1.557   0.477   3.766 -0.8357 -0.9297  2.0357
 7097SOL    HW232925   1.623   0.344   3.771 -1.3958  0.5354 -1.4225
 7098SOL     OW32926   0.156   2.616   6.573 -0.2179  0.3463  0.7270
 7098SOL    HW132927   0.133   2.524   6.586  1.0374  0.2374  2.1490
 7098SOL    HW232928   0.156   2.643   6.665  0.0980  1.4000  0.4183
 7099SOL     OW32929   4.303   3.354   6.885 -0.5197 -0.8333  0.5795
 7099SOL    HW132930   4.381   3.316   6.927  0.5770  0.0717 -0.6504
 7099SOL    HW232931   4.231   3.303   6.922  0.3070 -2.4012  0.0334
 7100SOL     OW32932   2.667   2.126   6.926 -0.4226 -0.4918 -0.0581
 7100SOL    HW132933   2.698   2.035   6.928 -0.7152 -0.5779  0.6446
 7100SOL    HW232934   2.669   2.148   6.833  0.8956  0.6041  0.2323
 7101SOL     OW32935   0.649   2.525   9.189  0.5271  0.2462 -0.0707
 7101SOL    HW132936   0.735   2.537   9.228  0.5859 -0.7810  0.0992
 7101SOL    HW232937   0.668   2.568   9.106  4.4085  1.1456  1.2729
 7102SOL     OW32938   3.167   2.260  14.922 -0.0384  0.2378  0.0163
 7102SOL    HW132939   3.188   2.331  14.983  2.0894 -0.4190  0.0636
 7102SOL    HW232940   3.134   2.311  14.849 -0.8713 -1.9782 -1.1460
 7103SOL     OW32941   4.695   0.236  16.803 -0.0595 -0.8731 -0.3550
 7103SOL    HW132942   0.010   0.162  16.771  1.1749  0.4057 -1.2994
 7103SOL    HW232943   4.727   0.242  16.894  0.0167  0.7992 -0.5039
 7104SOL     OW32944   4.391   3.132   2.425  0.2197  0.0661  0.3872
 7104SOL    HW132945   4.362   3.162   2.512 -2.0217  1.4124 -0.8218
 7104SOL    HW232946   4.485   3.147   2.433  0.6205 -2.2954  0.1098
 7105SOL     OW32947   1.413   4.520   6.495  0.1981 -0.0516  0.1031
 7105SOL    HW132948   1.320   4.497   6.500 -0.3624  2.2247  0.1686
 7105SOL    HW232949   1.440   4.438   6.454 -1.2038 -0.5005  0.0867
 7106SOL     OW32950   0.781   2.257   6.429  0.6964 -0.0089  0.2370
 7106SOL    HW132951   0.702   2.289   6.472 -0.8545 -1.9811 -1.1612
 7106SOL    HW232952   0.770   2.285   6.338 -0.7301 -1.3788  0.0015
 7107SOL     OW32953   4.635   1.113   3.690 -0.9867  0.3440 -0.3167
 7107SOL    HW132954   4.668   1.199   3.663 -2.5454  0.5705 -1.5248
 7107SOL    HW232955   4.555   1.133   3.738 -1.0296 -0.4769 -0.0559
 7108SOL     OW32956   1.134   1.811   8.326  0.3613  0.4930 -0.4634
 7108SOL    HW132957   1.174   1.877   8.269 -2.8530 -0.4231 -3.8009
 7108SOL    HW232958   1.185   1.732   8.306 -0.1166  0.2432 -0.7181
 7109SOL     OW32959   3.773   4.602   0.660  0.4167 -0.2654 -0.3152
 7109SOL    HW132960   3.815   4.667   0.603  1.8173  1.2318  2.4379
 7109SOL    HW232961   3.823   4.612   0.740 -0.2466 -1.1226  0.2032
 7110SOL     OW32962   2.747   3.710   4.978  0.0903 -0.2694  0.5666
 7110SOL    HW132963   2.748   3.777   5.046  0.2306  0.2869  0.0133
 7110SOL    HW232964   2.777   3.629   5.018 -1.0134 -0.8775  0.1602
 7111SOL     OW32965   2.956   1.547   1.575 -0.4091  0.4683  0.4271
 7111SOL    HW132966   2.982   1.455   1.568 -0.4562  0.2643  2.8874
 7111SOL    HW232967   2.910   1.545   1.658 -0.9611  1.0457  0.1300
 7112SOL     OW32968   0.380   3.288   5.588  0.0117 -0.2963  0.5137
 7112SOL    HW132969   0.341   3.354   5.531 -0.5751 -1.4952 -0.4703
 7112SOL    HW232970   0.346   3.327   5.669 -0.6449 -1.1493  0.6546
 7113SOL     OW32971   2.235   2.711   2.476  0.2156  0.2088 -0.1090
 7113SOL    HW132972   2.286   2.752   2.407  0.9813  2.8259  2.0132
 7113SOL    HW232973   2.147   2.744   2.457  0.0159  0.6380  1.5828
 7114SOL     OW32974   3.824   3.353  12.366 -0.0613 -0.6065 -0.2027
 7114SOL    HW132975   3.818   3.446  12.343  0.3527  0.1490  2.7615
 7114SOL    HW232976   3.858   3.348  12.455  0.5532 -1.0463 -0.4634
 7115SOL     OW32977   1.578   1.674   7.113  0.4217 -0.0805 -0.2225
 7115SOL    HW132978   1.512   1.739   7.138 -0.6543 -0.3977 -2.2760
 7115SOL    HW232979   1.541   1.591   7.144 -0.9487  1.0638  1.2131
 7116SOL     OW32980   0.032   2.769  10.375  0.0882  0.2133 -0.3876
 7116SOL    HW132981   0.015   2.718  10.296  0.3087 -0.5684  0.0689
 7116SOL    HW232982   0.072   2.850  10.344  0.6424 -1.0213 -2.9475
 7117SOL     OW32983   1.786   3.828   2.378 -0.2565 -0.3898  0.1383
 7117SOL    HW132984   1.830   3.749   2.410  0.0806 -0.5401 -0.6959
 7117SOL    HW232985   1.807   3.884   2.454 -0.3622  0.6488 -0.5986
 7118SOL     OW32986   3.451   0.894  11.029 -0.7345 -0.0810 -0.1320
 7118SOL    HW132987   3.423   0.813  11.072  1.4065 -1.1306 -0.7112
 7118SOL    HW232988   3.382   0.946  11.070  1.3827  3.1023 -0.5699
 7119SOL     OW32989   2.026   4.566   8.152  0.7714  0.3009 -0.0289
 7119SOL    HW132990   2.104   4.545   8.204 -0.3202  0.5615  1.6950
 7119SOL    HW232991   2.057   4.648   8.112  0.9807  0.6873  0.9360
 7120SOL     OW32992   0.253   1.103   4.083  0.1141 -0.3111  0.2063
 7120SOL    HW132993   0.279   1.165   4.015  0.6333  0.2331  0.9088
 7120SOL    HW232994   0.167   1.074   4.052 -0.4534  0.6274  0.8985
 7121SOL     OW32995   3.185   2.662   8.773  0.4335 -0.9374  0.0593
 7121SOL    HW132996   3.218   2.709   8.849 -1.6974  0.9739 -0.2272
 7121SOL    HW232997   3.202   2.574   8.806  0.8962 -0.9164 -0.1119
 7122SOL     OW32998   2.755   0.191  12.284  0.5857  0.1073 -0.5474
 7122SOL    HW132999   2.810   0.217  12.357  0.8418 -1.1637 -0.2891
 7122SOL    HW233000   2.680   0.251  12.283 -1.0038 -1.8655  0.8273
 7123SOL     OW33001   2.579   1.824  12.890  0.1467 -0.2073  0.2971
 7123SOL    HW133002   2.491   1.852  12.865  0.4506  0.9117  0.4692
 7123SOL    HW233003   2.583   1.736  12.854 -1.2349 -0.3474  0.4911
 7124SOL     OW33004   3.252   3.243   4.231  0.4577 -0.2314  0.2059
 7124SOL    HW133005   3.163   3.274   4.242  0.5592  0.2725 -0.4105
 7124SOL    HW233006   3.237   3.151   4.209  0.1543 -0.5342  1.6679
 7125SOL     OW33007   4.115   0.130   4.040  0.6113  0.0362  1.0044
 7125SOL    HW133008   4.201   0.143   3.999  0.1205  0.6489  0.1725
 7125SOL    HW233009   4.060   0.196   3.999 -0.7166 -1.8098 -0.1080
 7126SOL     OW33010   1.086   1.081   0.465 -0.5681 -1.0245 -0.2299
 7126SOL    HW133011   1.178   1.056   0.467  0.0017  1.1229  0.0753
 7126SOL    HW233012   1.074   1.150   0.400 -0.2777  0.5091  1.3528
 7127SOL     OW33013   4.463   3.835   7.089  0.2759 -0.3708 -0.1544
 7127SOL    HW133014   4.452   3.886   7.008  0.3091  1.4802  1.0078
 7127SOL    HW233015   4.452   3.749   7.049  0.2782 -0.7252  0.6163
 7128SOL     OW33016   0.625   0.163   3.649 -0.3636  0.2299  0.0493
 7128SOL    HW133017   0.567   0.173   3.573 -1.9835  1.5183  1.4361
 7128SOL    HW233018   0.657   0.252   3.661  0.7025 -0.0183 -0.9282
 7129SOL     OW33019   4.019   1.977  15.237 -0.0777  0.4294 -0.4316
 7129SOL    HW133020   4.010   2.012  15.326 -2.0616  0.3487 -0.5987
 7129SOL    HW233021   4.078   1.906  15.263  0.8437  1.1222 -0.6341
 7130SOL     OW33022   3.116   2.930   6.572 -0.0968 -0.0746 -0.0552
 7130SOL    HW133023   3.057   2.986   6.521  0.9256  0.9101 -0.1446
 7130SOL    HW233024   3.121   2.966   6.661  0.0579 -1.3193  0.4516
 7131SOL     OW33025   3.862   3.660   0.172  0.0463  0.2751 -0.0702
 7131SOL    HW133026   3.811   3.708   0.106 -0.3378 -0.9313 -0.6496
 7131SOL    HW233027   3.943   3.679   0.124 -1.0957  1.4887 -1.5008
 7132SOL     OW33028   3.470   4.085   8.831  0.2813 -0.5720  0.4250
 7132SOL    HW133029   3.541   4.145   8.853  0.7781 -0.6485 -0.9693
 7132SOL    HW233030   3.446   4.050   8.917  1.2268  1.0621  1.3467
 7133SOL     OW33031   2.470   0.372   2.999  0.1004  0.1507  0.2506
 7133SOL    HW133032   2.424   0.447   2.963 -0.8042  0.3432  1.8075
 7133SOL    HW233033   2.510   0.413   3.076 -0.8446  3.7745 -1.2489
 7134SOL     OW33034   3.979   1.445   1.952  0.3851 -0.1686  0.2150
 7134SOL    HW133035   3.961   1.539   1.950 -5.1335 -1.2721 -1.8013
 7134SOL    HW233036   3.972   1.438   2.047 -0.0056  2.2579  0.3668
 7135SOL     OW33037   0.776   0.057   7.656 -0.7164  0.5734 -0.2277
 7135SOL    HW133038   0.718   4.719   7.642 -1.4781  1.5488 -2.3799
 7135SOL    HW233039   0.755   0.091   7.743 -2.1366 -2.0441  0.4494
 7136SOL     OW33040   3.994   1.261   7.027 -0.1571  0.1026 -0.1303
 7136SOL    HW133041   4.086   1.278   7.006 -0.0067 -1.2713 -0.5231
 7136SOL    HW233042   3.969   1.210   6.951 -1.5448 -1.5380  1.4469
 7137SOL     OW33043   0.803   0.473  10.296 -0.0420  0.0152 -0.5623
 7137SOL    HW133044   0.836   0.397  10.249 -0.0545 -0.4298  0.1497
 7137SOL    HW233045   0.716   0.485  10.258 -0.1963  1.3633  0.2001
 7138SOL     OW33046   3.431   2.175  16.132  0.1930 -0.2951 -0.3489
 7138SOL    HW133047   3.403   2.211  16.215  1.7684  0.0397  0.0444
 7138SOL    HW233048   3.384   2.229  16.068 -0.0521 -1.0162 -0.7783
 7139SOL     OW33049   3.136   4.133   2.044 -0.1676  0.1495 -0.7811
 7139SOL    HW133050   3.116   4.135   1.950 -0.9275 -0.0312 -0.6159
 7139SOL    HW233051   3.131   4.040   2.063 -1.3504  0.5432  0.7421
 7140SOL     OW33052   0.933   2.268  10.006  0.1864 -0.0762 -0.4333
 7140SOL    HW133053   0.838   2.266   9.991 -0.3107  2.2557  2.4719
 7140SOL    HW233054   0.938   2.209  10.081 -2.0725 -0.1327 -0.3153
 7141SOL     OW33055   2.311   1.692   8.249  0.6959  0.1061  0.4553
 7141SOL    HW133056   2.388   1.675   8.303  0.2219  1.3685  1.4958
 7141SOL    HW233057   2.250   1.691   8.322 -1.2763 -1.2940 -1.2040
 7142SOL     OW33058   0.842   2.800   4.635 -0.0261 -0.8058 -0.0797
 7142SOL    HW133059   0.836   2.727   4.697  0.6690  0.9579  2.0465
 7142SOL    HW233060   0.852   2.877   4.690 -0.3487 -1.3531  0.7446
 7143SOL     OW33061   3.380   1.532   1.308  0.1849 -0.5876  0.3070
 7143SOL    HW133062   3.468   1.538   1.271  0.5069 -2.1063  0.8302
 7143SOL    HW233063   3.397   1.494   1.394  3.0609 -0.3760 -0.1787
 7144SOL     OW33064   3.625   0.449   8.162  0.6843  0.0133 -0.1370
 7144SOL    HW133065   3.532   0.469   8.154  0.6875 -0.4678 -1.2631
 7144SOL    HW233066   3.658   0.450   8.072  2.3019 -0.5198  0.4444
 7145SOL     OW33067   3.015   1.634   4.352  0.3362 -0.2247  0.2794
 7145SOL    HW133068   2.927   1.596   4.352  0.6084 -0.8566 -1.4481
 7145SOL    HW233069   3.029   1.626   4.258 -1.8366  2.1024 -0.2535
 7146SOL     OW33070   1.100   1.519   6.733  0.7925  0.1364 -0.2583
 7146SOL    HW133071   1.143   1.600   6.704  0.1737  0.3064 -0.6938
 7146SOL    HW233072   1.148   1.502   6.814 -0.2448 -1.7969 -0.0448
 7147SOL     OW33073   1.813   2.041   2.226 -0.4086  0.3536  0.3190
 7147SOL    HW133074   1.752   1.984   2.273  0.4470 -1.1496 -0.4115
 7147SOL    HW233075   1.747   2.086   2.173  0.3271  0.3457 -0.6033
 7148SOL     OW33076   0.887   4.714   6.900  0.5214  0.1566 -0.0817
 7148SOL    HW133077   0.811   0.029   6.926  0.6169 -0.4805  1.4750
 7148SOL    HW233078   0.860   4.625   6.922 -1.2507  1.0285  1.2911
 7149SOL     OW33079   3.113   2.723   1.443  0.0599  0.1103  0.9106
 7149SOL    HW133080   3.146   2.743   1.531 -0.4886 -1.6091  1.5282
 7149SOL    HW233081   3.134   2.803   1.396 -1.6537  0.1687  0.2358
 7150SOL     OW33082   4.135   2.065   7.913 -0.5488 -0.1440  0.1650
 7150SOL    HW133083   4.169   2.102   7.832 -0.2554 -0.7650  0.0076
 7150SOL    HW233084   4.093   1.982   7.893 -3.7795  1.3718  0.5844
 7151SOL     OW33085   4.184   1.860   6.564  0.0629  0.2242  0.2950
 7151SOL    HW133086   4.267   1.886   6.524 -0.6892  1.2857 -0.5520
 7151SOL    HW233087   4.189   1.764   6.562 -0.7285  0.1682  0.8611
 7152SOL     OW33088   4.111   0.923   9.712 -0.1015 -0.2492 -0.5473
 7152SOL    HW133089   4.036   0.961   9.758 -0.4195 -0.2078 -1.1034
 7152SOL    HW233090   4.105   0.829   9.732 -1.6326  0.4026  2.1413
 7153SOL     OW33091   0.671   3.846   3.266  0.0044  0.0407 -0.1788
 7153SOL    HW133092   0.594   3.871   3.214  0.5989  0.4592 -0.8481
 7153SOL    HW233093   0.707   3.931   3.291 -0.6720  0.6658 -1.3148
 7154SOL     OW33094   0.343   1.964  11.932  0.1852  0.5009  0.1281
 7154SOL    HW133095   0.371   2.005  11.851  0.3660 -1.7226 -0.9488
 7154SOL    HW233096   0.260   1.924  11.904 -0.2018  0.2025  1.7051
 7155SOL     OW33097   3.438   0.806   3.145  0.0726 -0.0935 -0.3441
 7155SOL    HW133098   3.437   0.893   3.184 -1.0962 -0.7222  1.0498
 7155SOL    HW233099   3.358   0.769   3.182  1.2047 -3.7021 -1.4775
 7156SOL     OW33100   4.577   1.445   1.473 -0.9749 -0.0452 -0.1721
 7156SOL    HW133101   4.651   1.410   1.423 -1.6879 -0.9967 -0.5614
 7156SOL    HW233102   4.515   1.469   1.404  1.2176 -1.3180 -2.5635
 7157SOL     OW33103   0.422   2.940   5.274 -0.1769 -0.2700  0.0567
 7157SOL    HW133104   0.405   2.851   5.244 -0.5616 -0.6056  1.2486
 7157SOL    HW233105   0.393   2.987   5.196 -3.3195 -0.4987  1.0891
 7158SOL     OW33106   3.986   1.982   0.060 -0.7900 -0.3295  0.1228
 7158SOL    HW133107   4.015   1.893   0.037 -0.7533 -0.0845 -0.7622
 7158SOL    HW233108   3.917   1.959   0.122 -1.4156 -1.5621 -1.0165
 7159SOL     OW33109   3.791   1.798   8.563  0.2829 -0.4828 -0.1331
 7159SOL    HW133110   3.728   1.774   8.495 -0.9136 -0.1532  0.8673
 7159SOL    HW233111   3.741   1.865   8.609  0.7829 -1.5336  1.9476
 7160SOL     OW33112   2.225   1.658   2.758 -0.0968  0.0169  0.0795
 7160SOL    HW133113   2.156   1.606   2.717  0.2951 -0.7467  0.3778
 7160SOL    HW233114   2.170   1.702   2.822 -0.5129  0.4953 -0.6177
 7161SOL     OW33115   0.438   0.615   2.967 -0.1353  0.5618 -0.4422
 7161SOL    HW133116   0.447   0.519   2.969  1.1417  0.7063  0.4725
 7161SOL    HW233117   0.343   0.626   2.953 -0.0658 -0.9628 -2.1963
 7162SOL     OW33118   3.248   1.698  15.896 -0.0930 -0.4374  0.0845
 7162SOL    HW133119   3.296   1.774  15.862 -1.9747  1.4403  1.6006
 7162SOL    HW233120   3.309   1.652  15.953  2.0820  1.3617 -0.8185
 7163SOL     OW33121   1.736   4.023   3.397  0.1161 -0.1761  0.1850
 7163SOL    HW133122   1.660   4.030   3.455 -0.9200 -2.0986 -0.9401
 7163SOL    HW233123   1.716   3.955   3.332  1.0219 -0.8187  0.5861
 7164SOL     OW33124   3.558   0.019   3.231 -0.5060 -0.1751 -0.4939
 7164SOL    HW133125   3.509   0.007   3.312  0.0937 -1.1757 -0.2805
 7164SOL    HW233126   3.574   0.113   3.224  1.3257 -0.5652 -1.4289
 7165SOL     OW33127   0.811   1.729   7.537 -0.1785 -0.5007  0.1931
 7165SOL    HW133128   0.822   1.706   7.629  2.0171  1.0216  0.2952
 7165SOL    HW233129   0.896   1.707   7.499  0.0683  0.5888  0.1285
 7166SOL     OW33130   1.410   2.083  17.539 -0.1324 -0.5494 -0.0753
 7166SOL    HW133131   1.424   2.012  17.477 -0.6707  0.7074 -1.6167
 7166SOL    HW233132   1.368   2.035  17.610 -1.4264  0.1884 -0.3489
 7167SOL     OW33133   2.477   4.019   5.121  0.5492 -0.0161 -0.3016
 7167SOL    HW133134   2.550   3.966   5.152  0.1459 -1.1760 -1.3076
 7167SOL    HW233135   2.508   4.104   5.151 -1.1984  0.2877  0.6375
 7168SOL     OW33136   1.041   3.384   6.475  0.0882 -0.5213  1.0019
 7168SOL    HW133137   1.071   3.385   6.566 -0.6230 -0.6645  1.2328
 7168SOL    HW233138   1.015   3.475   6.463 -0.1520 -1.1128 -2.9465
 7169SOL     OW33139   0.895   0.221   2.605 -0.1656 -0.8869  0.4553
 7169SOL    HW133140   0.923   0.195   2.518  0.7166  0.3751  0.3646
 7169SOL    HW233141   0.802   0.235   2.589  0.1296  0.2973 -0.2508
 7170SOL     OW33142   1.833   1.171   8.543 -0.3989 -0.4392  0.2529
 7170SOL    HW133143   1.738   1.172   8.531 -0.7111  0.6188  2.7589
 7170SOL    HW233144   1.863   1.153   8.454  0.8821 -1.3407  0.8720
 7171SOL     OW33145   2.401   3.990   2.173 -0.5810  0.7353 -0.2026
 7171SOL    HW133146   2.464   4.061   2.156 -1.4213  1.2212 -1.2600
 7171SOL    HW233147   2.466   3.921   2.181  0.0938  1.3902 -0.0317
 7172SOL     OW33148   1.820   3.572   2.496  0.5593  0.4990  0.3300
 7172SOL    HW133149   1.801   3.519   2.419  0.6440 -0.1908  0.7792
 7172SOL    HW233150   1.769   3.523   2.561 -0.7520 -0.4097 -1.3771
 7173SOL     OW33151   3.091   3.397   4.463  0.4382  0.3799 -0.0953
 7173SOL    HW133152   3.162   3.333   4.469 -1.4559 -1.6884  0.1767
 7173SOL    HW233153   3.033   3.354   4.400  1.1937  0.1723 -0.6493
 7174SOL     OW33154   3.926   0.554   8.512 -0.1270 -0.4948  0.3332
 7174SOL    HW133155   3.938   0.459   8.508 -1.2768 -0.5909 -0.9701
 7174SOL    HW233156   3.907   0.569   8.419 -0.6154 -0.1471  0.4904
 7175SOL     OW33157   3.092   0.839  11.062 -0.1209 -0.3395 -0.1936
 7175SOL    HW133158   3.132   0.824  10.976 -0.4266 -1.0601 -0.2114
 7175SOL    HW233159   3.148   0.908  11.098 -0.3377 -0.5531  0.5381
 7176SOL     OW33160   4.373   1.224  10.667  0.4395 -0.1618 -0.2362
 7176SOL    HW133161   4.455   1.268  10.689  1.0237 -0.7107 -1.3395
 7176SOL    HW233162   4.351   1.169  10.743  0.2112  0.6766  0.3044
 7177SOL     OW33163   4.196   4.463   3.438  0.5777  0.2028  0.1189
 7177SOL    HW133164   4.191   4.469   3.343 -0.4115 -2.1802  0.0385
 7177SOL    HW233165   4.246   4.541   3.464  0.1851  0.9121 -1.2884
 7178SOL     OW33166   2.598   3.917   7.532 -0.2867  0.1105  0.3063
 7178SOL    HW133167   2.575   3.916   7.439 -3.5125  2.4681  1.0859
 7178SOL    HW233168   2.631   4.005   7.548  1.0461 -0.3780  0.2004
 7179SOL     OW33169   4.697   1.567   8.470 -0.7463  0.4164  0.1464
 7179SOL    HW133170   4.720   1.614   8.390  0.4731 -0.8897 -0.2489
 7179SOL    HW233171   0.012   1.613   8.537  0.6631 -1.0350  0.0437
 7180SOL     OW33172   0.362   2.752   0.929 -0.1992 -0.2894  0.1548
 7180SOL    HW133173   0.300   2.822   0.907  1.0575  0.6003 -0.5828
 7180SOL    HW233174   0.327   2.726   1.014  1.7681  2.8816  1.9740
 7181SOL     OW33175   2.269   2.233   7.711 -0.0461  0.1660 -0.0763
 7181SOL    HW133176   2.317   2.157   7.680  0.9123  1.2832 -1.3154
 7181SOL    HW233177   2.299   2.231   7.802  1.9463 -0.9857 -0.7662
 7182SOL     OW33178   2.801   2.477   3.802 -0.4277  0.6031  0.1221
 7182SOL    HW133179   2.707   2.462   3.815 -0.7074  1.0684 -1.4026
 7182SOL    HW233180   2.802   2.567   3.834  1.7806  0.6209 -0.0212
 7183SOL     OW33181   4.209   3.011   7.753  0.1421  0.0277  0.2914
 7183SOL    HW133182   4.177   2.939   7.807 -0.2777  0.8936  1.2104
 7183SOL    HW233183   4.234   3.068   7.826 -2.5056 -0.5416  1.6669
 7184SOL     OW33184   0.742   2.443  13.133  0.7451 -0.0552  0.0323
 7184SOL    HW133185   0.744   2.521  13.188  1.0615  0.3771 -0.5973
 7184SOL    HW233186   0.737   2.379  13.204  1.1053  1.0409  1.0329
 7185SOL     OW33187   4.451   2.224  15.560 -0.1567  0.2401 -0.4662
 7185SOL    HW133188   4.410   2.177  15.487 -2.9777  0.3703  1.0497
 7185SOL    HW233189   4.454   2.310  15.518  1.1909  0.2221 -0.3946
 7186SOL     OW33190   1.715   3.930  13.858  0.3263  0.0621 -0.0659
 7186SOL    HW133191   1.789   3.987  13.838 -0.3289  0.9405 -0.0317
 7186SOL    HW233192   1.669   3.920  13.775  0.3651  1.5231 -0.2650
 7187SOL     OW33193   2.367   4.369   7.819  0.1851  0.4722  0.3829
 7187SOL    HW133194   2.421   4.291   7.834 -0.7052 -0.1078  0.5712
 7187SOL    HW233195   2.436   4.432   7.796 -0.1275  0.9766  0.8591
 7188SOL     OW33196   4.002   2.922   3.850 -0.5200 -0.1123  0.5763
 7188SOL    HW133197   3.938   2.854   3.830 -1.3617  0.2615  1.9760
 7188SOL    HW233198   4.056   2.921   3.771 -2.5689 -3.0963 -0.7781
 7189SOL     OW33199   1.162   0.651   7.323 -0.4915 -0.3972  0.2745
 7189SOL    HW133200   1.236   0.711   7.323 -0.9518  0.1768  2.1634
 7189SOL    HW233201   1.193   0.592   7.392  1.1135  0.7534  0.5305
 7190SOL     OW33202   3.391   2.789   8.538  0.8162 -0.2234 -0.7321
 7190SOL    HW133203   3.358   2.876   8.563  0.2053 -0.2161 -1.5524
 7190SOL    HW233204   3.312   2.739   8.517  0.8269 -0.6585  0.2405
 7191SOL     OW33205   3.650   1.808   6.329  0.1405  0.2100  0.0786
 7191SOL    HW133206   3.713   1.852   6.386  0.6577  0.4463 -0.6775
 7191SOL    HW233207   3.630   1.886   6.278  1.9837 -1.0667 -2.5458
 7192SOL     OW33208   1.656   1.201   3.023  0.0292  0.6094 -0.1602
 7192SOL    HW133209   1.652   1.141   3.097 -1.8215 -0.6178 -1.2179
 7192SOL    HW233210   1.630   1.138   2.955 -0.7891  1.6001 -0.7791
 7193SOL     OW33211   1.429   2.163   1.714 -0.4881 -0.1986 -0.5115
 7193SOL    HW133212   1.447   2.121   1.630 -1.7551  0.2224 -0.9977
 7193SOL    HW233213   1.434   2.084   1.769 -0.5857  0.2441  0.1352
 7194SOL     OW33214   4.158   3.367   5.056 -0.3605  0.4148 -0.1733
 7194SOL    HW133215   4.067   3.360   5.084  0.2132 -0.9930  1.3353
 7194SOL    HW233216   4.166   3.452   5.014  2.5814  0.4462  0.4870
 7195SOL     OW33217   3.376   2.490   5.665  0.0446 -0.7046  0.0270
 7195SOL    HW133218   3.304   2.472   5.725 -1.2268 -0.2055 -1.3462
 7195SOL    HW233219   3.334   2.495   5.579 -0.9708  0.1721  0.5874
 7196SOL     OW33220   3.277   2.263   6.007  0.4084 -0.1873 -0.0478
 7196SOL    HW133221   3.264   2.171   5.981  2.6156 -1.0278  1.8849
 7196SOL    HW233222   3.332   2.260   6.084  0.0636  2.2915  0.2803
 7197SOL     OW33223   0.698   1.740   6.844 -0.1376  0.4353  0.0245
 7197SOL    HW133224   0.789   1.764   6.825  0.1221  0.7584  1.6925
 7197SOL    HW233225   0.706   1.655   6.888 -1.2490 -1.1336 -2.7595
 7198SOL     OW33226   0.531   3.838   9.099  0.5788 -0.2068  0.1766
 7198SOL    HW133227   0.525   3.754   9.144 -0.0971 -0.1420  0.2045
 7198SOL    HW233228   0.453   3.882   9.135  1.1444  0.4225  0.6410
 7199SOL     OW33229   3.740   2.472  13.751  0.1866  0.3922  0.0501
 7199SOL    HW133230   3.798   2.508  13.684  1.3076 -1.7704 -0.1372
 7199SOL    HW233231   3.654   2.480  13.709  1.3764  0.8410 -2.2651
 7200SOL     OW33232   3.202   0.891   2.766  0.1751  0.0949 -0.4191
 7200SOL    HW133233   3.164   0.918   2.683 -0.8947  0.6663  0.2652
 7200SOL    HW233234   3.131   0.872   2.827 -0.7679  1.2088 -1.1741
 7201SOL     OW33235   2.349   4.287  12.233  0.3769 -0.1802  0.5818
 7201SOL    HW133236   2.287   4.259  12.165 -0.9016  0.4847  1.4896
 7201SOL    HW233237   2.432   4.260  12.193  1.5185  1.6485  1.7494
 7202SOL     OW33238   3.424   3.883  13.635 -0.5826  0.1868 -0.0195
 7202SOL    HW133239   3.329   3.895  13.643 -0.9156 -1.8089 -0.9023
 7202SOL    HW233240   3.437   3.968  13.677 -0.8144 -1.1143  2.6745
 7203SOL     OW33241   1.591   3.974   6.178 -0.0279 -0.0561  0.3245
 7203SOL    HW133242   1.660   3.948   6.240  0.3968 -0.2912 -0.2415
 7203SOL    HW233243   1.513   3.947   6.225  0.3763  0.5882  1.3587
 7204SOL     OW33244   4.122   2.005   6.787 -0.1707 -0.1662 -0.1758
 7204SOL    HW133245   4.119   1.947   6.710 -0.3663 -0.5859  0.1491
 7204SOL    HW233246   4.183   2.071   6.757  1.3345 -1.2147  0.5937
 7205SOL     OW33247   4.517   3.823   1.415 -0.4529 -0.9899  0.3426
 7205SOL    HW133248   4.526   3.850   1.324 -0.4659 -1.6930  0.1295
 7205SOL    HW233249   4.431   3.781   1.416 -0.8885 -0.0530  1.9048
 7206SOL     OW33250   4.355   0.587   6.739  0.7290 -0.6520  0.1066
 7206SOL    HW133251   4.339   0.681   6.743 -2.7294 -1.2918  0.7323
 7206SOL    HW233252   4.270   0.556   6.708  0.8786  0.8460 -1.8436
 7207SOL     OW33253   0.164   4.612   3.765 -0.0172  0.3385  0.2395
 7207SOL    HW133254   0.194   4.583   3.679  0.0811 -0.8454  0.6742
 7207SOL    HW233255   0.152   4.705   3.742  0.8010  0.7800  1.5541
 7208SOL     OW33256   1.206   3.833   3.573 -0.2916  0.0230 -0.3530
 7208SOL    HW133257   1.184   3.808   3.483  1.9355  1.5760 -1.3297
 7208SOL    HW233258   1.134   3.790   3.619 -0.5398  1.7479  0.8782
 7209SOL     OW33259   1.805   0.458   9.295  0.0289  0.8316  0.1197
 7209SOL    HW133260   1.832   0.368   9.277 -0.8780  0.7056 -0.6459
 7209SOL    HW233261   1.729   0.440   9.352 -0.5852  3.3006  0.1014
 7210SOL     OW33262   2.362   3.199   6.588  0.1928 -0.4965  0.1927
 7210SOL    HW133263   2.281   3.197   6.638  0.7643  1.4790  1.2338
 7210SOL    HW233264   2.341   3.161   6.503 -0.1434 -0.9698  0.4931
 7211SOL     OW33265   1.520   4.589   6.078  0.3855 -0.4342 -0.1000
 7211SOL    HW133266   1.485   4.517   6.131  0.9023 -0.2606  0.4839
 7211SOL    HW233267   1.549   4.539   6.002 -0.4159 -0.9246 -0.0803
 7212SOL     OW33268   0.178   3.784   4.194 -0.3472 -0.0862 -0.1411
 7212SOL    HW133269   0.252   3.727   4.175 -0.8400 -0.3635 -1.1769
 7212SOL    HW233270   0.146   3.750   4.278  0.5356  0.7825  0.5444
 7213SOL     OW33271   0.422   4.305  13.316 -0.5460 -0.4074  0.1478
 7213SOL    HW133272   0.483   4.317  13.389  2.6617 -1.1953 -2.4181
 7213SOL    HW233273   0.339   4.306  13.363 -1.4315  1.4019 -1.4719
 7214SOL     OW33274   4.202   0.713  16.369 -0.1554 -0.0399  0.2152
 7214SOL    HW133275   4.222   0.620  16.363 -0.1790 -0.0263 -0.0652
 7214SOL    HW233276   4.145   0.715  16.447 -0.7314 -0.8185 -0.1889
 7215SOL     OW33277   2.885   0.361   4.655 -0.4757  0.0852  0.2168
 7215SOL    HW133278   2.870   0.456   4.659  2.4507  0.5538  0.0268
 7215SOL    HW233279   2.895   0.330   4.745 -1.1829  0.7827  0.5434
 7216SOL     OW33280   0.735   1.987  13.672 -0.2639 -0.0122 -0.5214
 7216SOL    HW133281   0.727   2.056  13.606  1.4665 -0.4782 -1.2280
 7216SOL    HW233282   0.759   1.913  13.617  1.7285  0.9055 -0.8873
 7217SOL     OW33283   1.638   3.882  13.614 -0.3375  0.4275 -0.3134
 7217SOL    HW133284   1.710   3.852  13.559 -1.0825 -0.0153 -1.0325
 7217SOL    HW233285   1.593   3.799  13.631  0.3434 -0.1782 -1.5214
 7218SOL     OW33286   2.750   1.313   8.442 -0.3030 -0.6970  0.1664
 7218SOL    HW133287   2.745   1.378   8.513 -0.5951 -0.4948 -0.0411
 7218SOL    HW233288   2.823   1.350   8.393 -1.6866  0.4304 -1.0263
 7219SOL     OW33289   2.272   2.386  10.092  0.4545  0.5259  0.2327
 7219SOL    HW133290   2.266   2.292  10.102 -1.3871  0.5199 -0.9171
 7219SOL    HW233291   2.303   2.406  10.181  0.2807 -1.4124  0.7121
 7220SOL     OW33292   1.768   0.225   4.083 -0.1679  0.1351 -0.0563
 7220SOL    HW133293   1.796   0.315   4.066 -1.3413  0.8377  1.7114
 7220SOL    HW233294   1.675   0.230   4.107 -0.4727 -0.4844 -1.1253
 7221SOL     OW33295   2.702   0.059   2.320  0.1192 -0.1379  0.1043
 7221SOL    HW133296   2.779   0.035   2.268 -0.9526 -2.3935 -0.4488
 7221SOL    HW233297   2.741   0.059   2.407  0.8268 -0.0937 -0.2123
 7222SOL     OW33298   2.350   2.772   1.090 -0.0448  0.4059  0.2617
 7222SOL    HW133299   2.405   2.801   1.162 -2.0799  2.1206  1.1246
 7222SOL    HW233300   2.281   2.729   1.140 -0.4308  0.0100 -0.6188
 7223SOL     OW33301   4.450   1.138  15.469 -0.1808 -0.0566  0.4999
 7223SOL    HW133302   4.425   1.095  15.387 -0.0236  0.0640  0.3877
 7223SOL    HW233303   4.460   1.231  15.449 -1.1869 -0.3283 -1.2637
 7224SOL     OW33304   1.972   3.000   3.227  0.2493  0.0853  0.0527
 7224SOL    HW133305   2.009   2.932   3.170  1.2736 -0.5027  1.4192
 7224SOL    HW233306   1.880   2.984   3.205 -0.5282  1.3801  2.4037
 7225SOL     OW33307   3.249   1.554   4.469 -0.6800  0.1952 -0.3431
 7225SOL    HW133308   3.299   1.539   4.389 -2.0455  0.9205 -1.3322
 7225SOL    HW233309   3.163   1.576   4.432 -0.3057  2.5889  0.2316
 7226SOL     OW33310   3.672   2.425  16.025 -0.2115 -0.4108 -0.1007
 7226SOL    HW133311   3.605   2.424  16.092  1.5466 -0.4846  1.6488
 7226SOL    HW233312   3.695   2.517  16.038 -2.9064  0.3427 -0.7353
 7227SOL     OW33313   4.202   0.764   6.916  0.1065  0.1497  0.2464
 7227SOL    HW133314   4.147   0.782   6.839  1.4805  1.8243 -0.3382
 7227SOL    HW233315   4.133   0.770   6.981 -1.0548  0.1341 -0.9766
 7228SOL     OW33316   3.753   4.461  10.776  0.1140 -0.1208 -0.2478
 7228SOL    HW133317   3.795   4.527  10.721 -0.2072  0.5272  0.2860
 7228SOL    HW233318   3.828   4.427  10.826 -0.7348  1.2533  1.9229
 7229SOL     OW33319   3.295   1.146   4.230  0.1942 -0.4474 -0.2406
 7229SOL    HW133320   3.226   1.205   4.197  1.5474  1.4428  0.3371
 7229SOL    HW233321   3.370   1.186   4.186  0.5981 -1.3220 -0.3502
 7230SOL     OW33322   4.597   2.458   7.236  0.6048  0.1853 -0.1124
 7230SOL    HW133323   4.620   2.398   7.307  2.6647  1.9494  0.6815
 7230SOL    HW233324   4.549   2.533   7.273  1.6533  1.0579 -0.5350
 7231SOL     OW33325   3.621   3.481  13.040 -0.2498  0.5215 -0.0688
 7231SOL    HW133326   3.528   3.477  13.065 -0.0754  1.4513  0.7045
 7231SOL    HW233327   3.663   3.427  13.107 -2.4877  0.4981  1.3380
 7232SOL     OW33328   4.271   1.607   6.645  0.5415 -0.2334  0.3686
 7232SOL    HW133329   4.212   1.586   6.718 -0.0002 -3.5876 -1.0405
 7232SOL    HW233330   4.269   1.521   6.602  1.2336  0.5832 -1.2800
 7233SOL     OW33331   0.556   4.140  16.390 -0.5635  0.2652  0.0130
 7233SOL    HW133332   0.616   4.212  16.369 -1.8553  1.2085 -0.4242
 7233SOL    HW233333   0.470   4.177  16.371 -1.1945 -0.8352  0.7169
 7234SOL     OW33334   1.290   2.026   3.230 -0.5906 -0.0677  0.4597
 7234SOL    HW133335   1.380   2.058   3.236  0.0267 -1.9335  1.1154
 7234SOL    HW233336   1.251   2.083   3.296  0.2718 -0.8421  1.6411
 7235SOL     OW33337   0.057   4.005   7.643 -0.3534  0.0980 -0.7829
 7235SOL    HW133338   0.021   4.040   7.724 -0.6055 -0.5245 -0.6210
 7235SOL    HW233339   0.091   4.084   7.601  1.4581 -0.1086  0.3165
 7236SOL     OW33340   0.675   1.980   3.461  0.0487 -0.2794 -0.9436
 7236SOL    HW133341   0.626   2.047   3.509 -2.2991 -1.0269 -2.3266
 7236SOL    HW233342   0.755   1.971   3.513 -1.7580  0.3353  1.9870
 7237SOL     OW33343   4.249   1.759   7.577 -0.0475 -0.4724  0.1584
 7237SOL    HW133344   4.222   1.850   7.580  1.6306  0.0557 -0.7349
 7237SOL    HW233345   4.200   1.734   7.655  0.1237  1.6911  0.9385
 7238SOL     OW33346   0.288   1.752  16.504  0.4700 -0.1516  0.4466
 7238SOL    HW133347   0.238   1.779  16.581  0.6233 -1.7161  1.0842
 7238SOL    HW233348   0.224   1.775  16.437  0.6665 -0.3817  0.1798
 7239SOL     OW33349   1.107   4.417   2.313 -0.1114 -0.2439 -0.2773
 7239SOL    HW133350   1.063   4.337   2.285  0.7125  0.2487 -3.0372
 7239SOL    HW233351   1.190   4.419   2.264  0.8833 -0.4350  1.3983
 7240SOL     OW33352   3.076   0.684   8.003  0.1487 -0.2365  0.0964
 7240SOL    HW133353   3.144   0.718   7.945 -1.4950  2.2120 -0.3889
 7240SOL    HW233354   3.092   0.730   8.086  2.9823 -2.0518  0.5564
 7241SOL     OW33355   4.131   4.626  10.880  0.4049  0.1970  0.1801
 7241SOL    HW133356   4.106   4.678  10.804  2.2124 -1.7981 -1.7804
 7241SOL    HW233357   4.158   4.539  10.851 -0.1849 -0.4744  1.6255
 7242SOL     OW33358   1.993   3.001   8.085 -0.5167  0.1837  0.4018
 7242SOL    HW133359   1.972   2.939   8.016  0.2614  0.7732 -0.3642
 7242SOL    HW233360   2.079   3.024   8.049  0.2072  0.2206  2.1076
 7243SOL     OW33361   4.056   2.527   5.105  0.2954  0.6072 -0.0039
 7243SOL    HW133362   3.990   2.570   5.050  0.4069  3.1702  1.8784
 7243SOL    HW233363   4.107   2.603   5.133  1.3685  0.0142 -0.3641
 7244SOL     OW33364   0.210   1.918  10.718 -0.1723  0.2410  0.4046
 7244SOL    HW133365   0.155   1.911  10.796 -0.2156 -0.9672  0.2620
 7244SOL    HW233366   0.297   1.933  10.754  0.1308 -0.2845 -0.1096
 7245SOL     OW33367   3.588   3.012  11.750 -0.2866  0.2316  0.2246
 7245SOL    HW133368   3.513   3.029  11.693  0.6342  2.6048 -0.3113
 7245SOL    HW233369   3.534   3.010  11.829  2.1696  0.3555  1.9150
 7246SOL     OW33370   2.515   4.102  15.681  0.5770  0.2191  0.3545
 7246SOL    HW133371   2.550   4.017  15.706  0.8926  0.2899  0.1441
 7246SOL    HW233372   2.598   4.144  15.661 -0.6848  1.0794 -2.9969
 7247SOL     OW33373   1.894   4.522   9.174  0.2090 -0.0888  0.1594
 7247SOL    HW133374   1.931   4.442   9.139  1.3545  0.3003  0.4906
 7247SOL    HW233375   1.865   4.496   9.261 -0.8061  1.5136  0.3033
 7248SOL     OW33376   1.965   2.589   9.095  1.0827  0.1096  0.2676
 7248SOL    HW133377   2.030   2.520   9.105  1.6232  0.4798 -0.7233
 7248SOL    HW233378   1.903   2.543   9.039  0.7494  1.9955 -0.9070
 7249SOL     OW33379   4.431   2.209   2.200 -0.1019  0.4685 -0.0371
 7249SOL    HW133380   4.497   2.268   2.236 -0.4483  0.0043  1.3581
 7249SOL    HW233381   4.351   2.259   2.218 -1.5519 -2.0914  0.6666
 7250SOL     OW33382   4.586   2.220   1.812 -0.1453  0.0258  0.5034
 7250SOL    HW133383   4.557   2.311   1.816 -1.2471 -0.1833 -2.6258
 7250SOL    HW233384   4.504   2.178   1.838 -1.0296  1.9256  0.8114
 7251SOL     OW33385   1.780   0.901  10.105  0.0916  0.0378  0.1567
 7251SOL    HW133386   1.791   0.907  10.010  0.7098  0.6255  0.2625
 7251SOL    HW233387   1.861   0.944  10.134  0.6683 -1.0517  0.1774
 7252SOL     OW33388   3.072   3.259   6.830  0.4904 -0.1801  0.4775
 7252SOL    HW133389   3.013   3.187   6.856  0.5245 -0.6879 -0.8504
 7252SOL    HW233390   3.152   3.220   6.866 -0.0433 -2.2658 -0.5576
 7253SOL     OW33391   4.659   1.285  15.130 -0.0276  0.0057 -0.5762
 7253SOL    HW133392   4.629   1.296  15.220  0.4884  2.4599 -0.6994
 7253SOL    HW233393   4.609   1.352  15.083  1.3062 -0.2391 -2.3821
 7254SOL     OW33394   2.226   1.885   3.222  0.1493  0.4155 -0.7712
 7254SOL    HW133395   2.213   1.980   3.230 -0.6148  0.2904 -0.5263
 7254SOL    HW233396   2.302   1.870   3.166 -0.3471 -0.5927 -1.1669
 7255SOL     OW33397   2.927   0.310   7.222  0.1399  0.1326  0.0895
 7255SOL    HW133398   2.919   0.266   7.137  0.9047 -0.3069  0.2416
 7255SOL    HW233399   2.840   0.287   7.255  0.5841 -0.2748  0.9647
 7256SOL     OW33400   0.754   4.553   2.644  0.2263  0.1992  0.2684
 7256SOL    HW133401   0.678   4.591   2.687 -1.2835 -2.2048 -0.3010
 7256SOL    HW233402   0.821   4.579   2.708 -1.0657  1.3060  1.1654
 7257SOL     OW33403   2.081   0.760   3.608  0.0096 -0.2163 -0.0363
 7257SOL    HW133404   2.150   0.779   3.672 -1.0296  0.3262  0.9273
 7257SOL    HW233405   2.012   0.724   3.664  1.2965 -1.1362  0.9718
 7258SOL     OW33406   1.297   3.210   5.082 -0.1798 -0.0920  0.4873
 7258SOL    HW133407   1.285   3.177   4.993 -1.1102 -0.6207  0.8094
 7258SOL    HW233408   1.232   3.157   5.128 -0.1051  1.5857  2.5511
 7259SOL     OW33409   2.961   3.303   3.471 -0.0911  0.6281  0.2096
 7259SOL    HW133410   2.988   3.352   3.393  0.8020 -1.1685 -0.6100
 7259SOL    HW233411   3.004   3.342   3.547  2.4299 -0.8539 -0.4567
 7260SOL     OW33412   2.310   1.002   4.304  0.3783 -0.0804 -0.7988
 7260SOL    HW133413   2.241   0.937   4.318  0.9221 -0.4584  0.1424
 7260SOL    HW233414   2.286   1.019   4.213 -0.8792 -0.5696 -0.5595
 7261SOL     OW33415   0.990   2.581   0.633  0.1588  0.0790 -0.3042
 7261SOL    HW133416   0.896   2.598   0.625 -0.0225 -0.9884 -0.4541
 7261SOL    HW233417   1.021   2.602   0.545 -2.3329  0.7663 -1.0186
 7262SOL     OW33418   2.825   2.606   4.924 -0.3821 -0.0423  0.2006
 7262SOL    HW133419   2.756   2.603   4.990 -1.1572  0.7083 -0.5613
 7262SOL    HW233420   2.823   2.522   4.878 -0.4666  0.0678 -0.0000
 7263SOL     OW33421   2.579   4.376   2.813  0.1328  0.2142  0.2843
 7263SOL    HW133422   2.547   4.311   2.876  0.4945 -1.4787 -1.2535
 7263SOL    HW233423   2.614   4.445   2.868 -2.2504  2.5387 -1.0991
 7264SOL     OW33424   4.277   1.584  15.623 -0.0119 -0.3387  0.2820
 7264SOL    HW133425   4.253   1.498  15.660 -3.0892  0.6918  0.6949
 7264SOL    HW233426   4.193   1.629  15.634  0.2787 -0.0685  1.4292
 7265SOL     OW33427   3.311   3.167  16.204 -0.2013 -0.1004 -0.0425
 7265SOL    HW133428   3.299   3.261  16.191  2.0735  0.3403  1.0311
 7265SOL    HW233429   3.373   3.165  16.277 -0.5451  1.7431  0.3066
 7266SOL     OW33430   3.188   4.155  11.142  0.3274  0.5201 -0.1009
 7266SOL    HW133431   3.168   4.173  11.050 -1.8373  0.9827  0.4551
 7266SOL    HW233432   3.221   4.065  11.132  0.8684  0.7553 -0.4153
 7267SOL     OW33433   3.970   1.277   6.128  0.6196  0.2331  0.3500
 7267SOL    HW133434   3.985   1.365   6.164  1.0846  0.0322  0.6460
 7267SOL    HW233435   4.050   1.269   6.075  1.4109 -0.1372  1.6136
 7268SOL     OW33436   3.410   0.543   8.970  0.6102  0.8507 -0.1943
 7268SOL    HW133437   3.462   0.593   9.034  1.1765  1.5786 -1.2342
 7268SOL    HW233438   3.466   0.465   8.976 -1.2693 -0.4111  0.7337
 7269SOL     OW33439   1.548   1.003   7.471 -0.2882  0.1093  0.5463
 7269SOL    HW133440   1.550   1.027   7.564 -0.8118 -0.1259  0.6229
 7269SOL    HW233441   1.637   1.013   7.437 -0.8250  0.1331 -0.8638
 7270SOL     OW33442   0.926   1.280   7.018 -0.8101 -0.1915  0.1972
 7270SOL    HW133443   0.968   1.199   6.991 -1.4620 -0.9420  1.4464
 7270SOL    HW233444   0.983   1.309   7.090 -1.3778  1.9792 -0.2188
 7271SOL     OW33445   1.421   3.301  11.963  0.2782 -0.1704  0.1816
 7271SOL    HW133446   1.498   3.319  11.908 -2.5643  0.4116 -3.5492
 7271SOL    HW233447   1.470   3.288  12.045  1.5332 -0.2187 -0.5687
 7272SOL     OW33448   2.263   4.151   2.622 -0.1969 -0.0661  0.1331
 7272SOL    HW133449   2.281   4.180   2.532  0.3319  1.1909  0.6382
 7272SOL    HW233450   2.264   4.233   2.671  0.6755  1.3187 -2.1958
 7273SOL     OW33451   3.868   1.232  17.138 -0.0925 -0.0394 -0.3363
 7273SOL    HW133452   3.857   1.151  17.188  0.0746 -0.9588 -1.7711
 7273SOL    HW233453   3.817   1.220  17.058  1.6546 -1.0934 -1.2941
 7274SOL     OW33454   3.247   4.202  10.873  0.2323  0.4644  0.0844
 7274SOL    HW133455   3.340   4.181  10.877 -0.1641 -1.3668 -0.0934
 7274SOL    HW233456   3.246   4.271  10.807  0.4403  0.3106 -0.0802
 7275SOL     OW33457   2.714   3.653   7.475 -0.0451  0.4159  0.6122
 7275SOL    HW133458   2.744   3.701   7.397 -1.3547  0.5824  0.1996
 7275SOL    HW233459   2.621   3.676   7.474 -0.6471 -1.9638  2.0732
 7276SOL     OW33460   2.542   2.083   5.776  0.5135 -0.0509 -0.5143
 7276SOL    HW133461   2.595   2.130   5.712  1.6596 -1.1907 -0.4055
 7276SOL    HW233462   2.488   2.157   5.803 -0.4933 -2.0777  3.0763
 7277SOL     OW33463   3.602   2.491   3.169 -0.3468  0.0533  0.3127
 7277SOL    HW133464   3.565   2.409   3.203  1.1604 -0.2514  1.2307
 7277SOL    HW233465   3.548   2.549   3.223  0.5299  2.1314 -1.0806
 7278SOL     OW33466   2.934   1.203   3.543  0.6139 -1.0033  0.0266
 7278SOL    HW133467   2.937   1.253   3.625  1.2526  2.7535 -2.2555
 7278SOL    HW233468   2.874   1.264   3.499 -0.4593 -1.4958  0.8039
 7279SOL     OW33469   3.119   3.230  17.744  0.5964  0.2658  0.2349
 7279SOL    HW133470   3.100   3.148   0.044 -0.4847  1.0218  1.1180
 7279SOL    HW233471   3.198   3.197  17.701  1.4481  1.2937  1.0229
 7280SOL     OW33472   3.960   3.933  10.821  0.0021 -0.0728 -0.4584
 7280SOL    HW133473   4.006   4.011  10.851 -0.3530  0.1686 -0.5499
 7280SOL    HW233474   3.884   3.947  10.877  0.1486 -0.3067 -0.2026
 7281SOL     OW33475   4.461   1.766   0.532  0.0490 -0.6266 -0.0752
 7281SOL    HW133476   4.533   1.784   0.471  2.0527  0.3696  2.5883
 7281SOL    HW233477   4.422   1.853   0.530  0.6738 -0.3450 -0.0474
 7282SOL     OW33478   1.799   4.263  11.789  0.0372  0.1349 -0.5750
 7282SOL    HW133479   1.730   4.330  11.799 -0.0652  0.2931 -2.4192
 7282SOL    HW233480   1.867   4.317  11.749 -1.1201  2.3700  0.4712
 7283SOL     OW33481   0.794   0.502   2.205 -0.3387  0.4130  0.2902
 7283SOL    HW133482   0.759   0.544   2.284 -0.4396 -1.2310  1.1128
 7283SOL    HW233483   0.855   0.569   2.173 -2.6569  2.9504  1.1159
 7284SOL     OW33484   3.278   2.257   4.241 -0.4063  0.8288  0.1977
 7284SOL    HW133485   3.207   2.225   4.296 -1.7026 -1.3362 -2.7840
 7284SOL    HW233486   3.353   2.236   4.298  0.2950  0.8601 -0.7125
 7285SOL     OW33487   1.186   3.241   4.333  0.1338 -0.1822  0.0836
 7285SOL    HW133488   1.199   3.279   4.419 -0.0249 -0.8219  0.3895
 7285SOL    HW233489   1.120   3.176   4.358 -0.6299  1.0852  1.3079
 7286SOL     OW33490   3.740   1.617   1.486 -0.2135  0.0051  0.4179
 7286SOL    HW133491   3.821   1.640   1.440 -0.4672 -1.3904 -0.7409
 7286SOL    HW233492   3.681   1.679   1.442  0.5197 -0.1112 -0.7427
 7287SOL     OW33493   4.658   3.338   0.005  0.0376 -0.6574  0.0886
 7287SOL    HW133494   4.602   3.265   0.031  2.7512 -2.5178  0.7810
 7287SOL    HW233495   4.587   3.398  17.733 -0.1385 -1.0988 -0.6465
 7288SOL     OW33496   3.188   2.432   4.486 -0.3193 -0.0472 -0.4040
 7288SOL    HW133497   3.132   2.364   4.448 -0.0113  0.2610 -1.4082
 7288SOL    HW233498   3.133   2.510   4.482  0.2047  0.3104 -0.5884
 7289SOL     OW33499   3.685   4.361   2.777 -1.0265 -0.0554 -0.3466
 7289SOL    HW133500   3.611   4.359   2.839 -0.0278 -0.7731  0.8287
 7289SOL    HW233501   3.717   4.450   2.792  1.3964 -1.0315  0.1343
 7290SOL     OW33502   0.553   3.200  17.036 -0.1053  0.0820 -0.2142
 7290SOL    HW133503   0.458   3.195  17.041 -0.2094  1.1519 -1.0444
 7290SOL    HW233504   0.556   3.296  17.027  2.2345  0.0845  0.5639
 7291SOL     OW33505   2.562   0.379  12.243  0.2119 -0.0035  0.2355
 7291SOL    HW133506   2.519   0.385  12.158  3.2640  1.1288 -1.2029
 7291SOL    HW233507   2.496   0.426  12.294 -1.3545 -1.0261 -0.8722
 7292SOL     OW33508   0.745   3.550   6.985  0.3472 -0.2882  0.6044
 7292SOL    HW133509   0.762   3.455   6.989  1.6773 -0.0265  1.1572
 7292SOL    HW233510   0.825   3.584   6.945 -1.8205  0.5607 -2.9841
 7293SOL     OW33511   0.162   0.905  14.771  0.0134  0.1428 -0.0427
 7293SOL    HW133512   0.211   0.954  14.704  1.1391  2.1582  2.2593
 7293SOL    HW233513   0.133   0.978  14.826 -2.7300 -2.8588  2.4942
 7294SOL     OW33514   0.362   0.571   1.597 -0.0637 -0.5182 -0.1793
 7294SOL    HW133515   0.374   0.504   1.665  0.8923  0.8576  0.9941
 7294SOL    HW233516   0.286   0.535   1.550 -2.5663  0.4795  3.1304
 7295SOL     OW33517   2.993   3.021   3.891 -0.2529  0.0871  0.6255
 7295SOL    HW133518   2.950   3.090   3.840 -0.7830  0.3668  1.4521
 7295SOL    HW233519   2.956   2.946   3.844 -5.0050  3.3529 -0.8825
 7296SOL     OW33520   1.522   2.198  16.724 -0.0910  0.5015  0.2555
 7296SOL    HW133521   1.426   2.203  16.724 -0.1814 -1.1531  1.0516
 7296SOL    HW233522   1.539   2.250  16.802 -0.9441  2.1857 -0.6905
 7297SOL     OW33523   2.755   4.410  11.951 -0.4552 -0.5738  0.1970
 7297SOL    HW133524   2.751   4.485  11.891  3.8486 -1.5935 -1.3863
 7297SOL    HW233525   2.835   4.371  11.914 -1.0762 -0.0011 -1.7753
 7298SOL     OW33526   3.891   1.477   0.998  0.2552  0.0458 -0.9480
 7298SOL    HW133527   3.896   1.562   0.953  0.6673 -0.2804 -1.5204
 7298SOL    HW233528   3.818   1.444   0.945  1.0856  1.1888 -2.8032
 7299SOL     OW33529   0.237   4.706  15.046 -0.4699  0.1985  0.2915
 7299SOL    HW133530   0.312   4.733  15.099  0.3946  1.1673 -1.4472
 7299SOL    HW233531   0.167   4.710  15.111 -0.9170 -0.6796 -0.1338
 7300SOL     OW33532   2.342   1.175   4.994  0.3366  0.1585  0.1597
 7300SOL    HW133533   2.428   1.146   4.965  0.1325 -0.0102 -0.2860
 7300SOL    HW233534   2.360   1.262   5.029  1.2656 -0.8212  2.0767
 7301SOL     OW33535   3.190   4.430  17.001 -0.2558 -0.3787  0.2954
 7301SOL    HW133536   3.138   4.495  16.955 -1.5024 -0.7702  1.1448
 7301SOL    HW233537   3.176   4.433  17.096  0.1312 -1.3884  0.3843
 7302SOL     OW33538   1.400   4.439  17.473  0.0165 -0.2164 -0.4155
 7302SOL    HW133539   1.316   4.413  17.434 -0.1960 -0.4943  0.2307
 7302SOL    HW233540   1.386   4.411  17.564  2.4258  4.4868  1.3907
 7303SOL     OW33541   3.291   2.666   9.940  0.3516 -0.0612 -0.8017
 7303SOL    HW133542   3.277   2.663  10.034 -0.4109 -0.9359 -0.9493
 7303SOL    HW233543   3.304   2.573   9.924  0.8814 -0.2429  0.7603
 7304SOL     OW33544   1.790   3.968  16.697  0.0466 -0.3232  0.1070
 7304SOL    HW133545   1.701   3.997  16.680  0.1233 -0.5069 -0.6169
 7304SOL    HW233546   1.840   4.050  16.699 -0.1969 -0.1639 -0.4195
 7305SOL     OW33547   3.424   1.480  16.479 -0.6476  0.2499  0.4563
 7305SOL    HW133548   3.501   1.438  16.441 -1.3212 -0.5708 -0.0098
 7305SOL    HW233549   3.465   1.524  16.553 -1.9897  0.4986  1.0589
 7306SOL     OW33550   2.055   0.143   9.662  0.1652  0.3552  0.3655
 7306SOL    HW133551   2.053   0.117   9.754  0.5508  1.9877  0.8385
 7306SOL    HW233552   2.095   0.062   9.629  1.2488  1.0702 -0.0803
 7307SOL     OW33553   2.259   1.506  15.282  0.6066  0.2802  0.2712
 7307SOL    HW133554   2.354   1.513  15.270  0.3628  0.2725 -1.5875
 7307SOL    HW233555   2.245   1.518  15.376  1.2380  2.8945  0.0147
 7308SOL     OW33556   0.132   4.256   4.027  0.4520 -0.4031 -0.2375
 7308SOL    HW133557   0.077   4.289   3.956  0.7551  0.8483  0.1081
 7308SOL    HW233558   0.118   4.161   4.023 -2.4324  0.0168  0.0422
 7309SOL     OW33559   4.513   1.621  10.899  0.6083  0.1941  0.0125
 7309SOL    HW133560   4.566   1.557  10.852 -0.2059  0.1060 -0.7832
 7309SOL    HW233561   4.460   1.660  10.829  0.7070  0.2761 -0.0150
 7310SOL     OW33562   4.519   1.596  15.530 -0.8300  0.0515  0.0220
 7310SOL    HW133563   4.430   1.582  15.561 -0.7829  1.0743  0.6190
 7310SOL    HW233564   4.512   1.691  15.519  2.4164  0.3170  0.1269
 7311SOL     OW33565   2.310   1.568  17.041 -0.1380  0.4044 -0.1935
 7311SOL    HW133566   2.297   1.660  17.065 -0.5092  1.6443 -5.0709
 7311SOL    HW233567   2.293   1.570  16.946  0.1232 -0.0879 -0.2520
 7312SOL     OW33568   1.926   1.046   4.413  0.2180  0.2593 -0.2483
 7312SOL    HW133569   1.992   1.006   4.469  1.7857 -0.6051 -2.7193
 7312SOL    HW233570   1.928   0.991   4.335 -1.1983 -1.1319  0.6761
 7313SOL     OW33571   1.001   0.044  12.974 -0.2333 -0.0430 -0.2424
 7313SOL    HW133572   0.991   4.696  12.931 -1.4273  0.1553 -0.3667
 7313SOL    HW233573   1.080   0.069  12.927  0.6180  0.5847  1.5112
 7314SOL     OW33574   4.305   3.064   4.417 -0.3312  0.1713 -0.5779
 7314SOL    HW133575   4.385   3.085   4.369  0.9509  0.8514  1.8542
 7314SOL    HW233576   4.250   3.138   4.393  0.2015  0.7536  0.0025
 7315SOL     OW33577   0.221   2.945   2.873 -0.2766  0.6210  0.5581
 7315SOL    HW133578   0.248   3.029   2.835  1.1162 -0.4054 -0.6755
 7315SOL    HW233579   0.291   2.927   2.936 -1.4643 -0.0844  1.6852
 7316SOL     OW33580   1.185   0.145   2.392  0.7939  0.5671 -0.1638
 7316SOL    HW133581   1.093   0.158   2.370  0.2279 -1.0570  1.2659
 7316SOL    HW233582   1.214   0.079   2.328 -0.3356 -0.9630  0.9201
 7317SOL     OW33583   1.531   2.335   1.408 -0.3976  0.3554  0.1079
 7317SOL    HW133584   1.545   2.395   1.481 -0.5239  1.4724 -0.7707
 7317SOL    HW233585   1.583   2.260   1.437 -1.7820 -0.4382  0.5333
 7318SOL     OW33586   3.910   0.341   8.816  0.1873  0.4005 -0.2977
 7318SOL    HW133587   3.902   0.437   8.818 -1.3942  0.2665 -0.4374
 7318SOL    HW233588   3.979   0.334   8.883  0.1257  2.8787  0.0263
 7319SOL     OW33589   0.328   0.451   5.829 -0.2219 -0.1167  0.8560
 7319SOL    HW133590   0.266   0.524   5.822  2.4697  2.0196 -0.5328
 7319SOL    HW233591   0.392   0.483   5.766  0.0358 -1.4086  0.4802
 7320SOL     OW33592   3.690   4.485  16.062 -0.1513  0.0576  0.0098
 7320SOL    HW133593   3.629   4.505  15.991 -0.8858 -0.1304  0.5901
 7320SOL    HW233594   3.776   4.515  16.032 -0.2391  0.4867  0.1992
 7321SOL     OW33595   1.324   2.386   2.147  0.3118  0.7230  0.1978
 7321SOL    HW133596   1.258   2.450   2.171  1.4390  2.0905 -0.3288
 7321SOL    HW233597   1.387   2.448   2.109  0.2752  0.0758 -0.9322
 7322SOL     OW33598   3.603   4.285  17.213 -0.4124  0.1903 -0.1203
 7322SOL    HW133599   3.519   4.297  17.169 -0.3811  1.6230  0.2088
 7322SOL    HW233600   3.654   4.324  17.142 -0.6856 -1.8635 -1.4468
 7323SOL     OW33601   2.365   4.581   4.854 -0.6353  0.5206  0.4221
 7323SOL    HW133602   2.416   4.582   4.934 -1.2912 -0.5510  0.8608
 7323SOL    HW233603   2.329   4.670   4.857 -0.3145  0.7133 -1.5585
 7324SOL     OW33604   1.952   2.964   5.388 -0.3818  0.1240 -0.1873
 7324SOL    HW133605   2.034   2.986   5.432 -0.9552  2.5604 -0.3318
 7324SOL    HW233606   1.976   2.884   5.341 -1.4384  0.0229 -0.5462
 7325SOL     OW33607   4.286   3.375  12.786 -0.1728  0.1977  0.3505
 7325SOL    HW133608   4.359   3.437  12.781  1.7017 -2.2087 -2.0394
 7325SOL    HW233609   4.310   3.315  12.857  0.8264  1.6858  1.2848
 7326SOL     OW33610   0.151   4.389   5.185  0.7833 -0.4089  0.1228
 7326SOL    HW133611   0.234   4.357   5.221  1.7213  1.1202 -0.6824
 7326SOL    HW233612   0.091   4.349   5.247  1.5622  0.2752  1.3191
 7327SOL     OW33613   3.067   0.174   1.345  0.7110  0.2663 -0.8440
 7327SOL    HW133614   3.026   0.179   1.431  0.7076  1.5902 -0.9352
 7327SOL    HW233615   3.033   0.253   1.303 -2.0734 -1.0517 -1.1026
 7328SOL     OW33616   3.217   3.644   5.701  0.9505 -0.2925 -0.1112
 7328SOL    HW133617   3.190   3.693   5.624 -0.1720 -0.4653  0.1737
 7328SOL    HW233618   3.150   3.576   5.706 -1.3623  2.0859  0.8047
 7329SOL     OW33619   0.095   1.238   3.186 -0.0463 -0.1573 -0.1649
 7329SOL    HW133620   0.072   1.183   3.261 -0.0521  0.7110  0.4684
 7329SOL    HW233621   0.066   1.185   3.111 -0.5786  0.6570 -0.5316
 7330SOL     OW33622   2.164   1.335   5.465 -0.0555 -0.5078  0.2764
 7330SOL    HW133623   2.252   1.363   5.443 -0.3793 -0.0855 -0.4899
 7330SOL    HW233624   2.178   1.245   5.494  0.4976 -0.2388  0.8295
 7331SOL     OW33625   1.267   2.052   8.338  0.1735  0.0287 -0.2846
 7331SOL    HW133626   1.348   2.074   8.384 -1.3989  1.0100  2.0170
 7331SOL    HW233627   1.306   2.052   8.251 -1.6953 -2.0963 -1.1286
 7332SOL     OW33628   4.717   3.812   1.591 -0.4485  0.3917  0.2449
 7332SOL    HW133629   4.636   3.812   1.539 -1.1755 -2.7231  1.4027
 7332SOL    HW233630   4.684   3.749   1.655  0.7383  1.5788  2.0310
 7333SOL     OW33631   1.379   1.841  11.640 -0.4273 -0.3875 -0.2384
 7333SOL    HW133632   1.348   1.911  11.583 -0.8245 -1.0116 -0.7813
 7333SOL    HW233633   1.310   1.849  11.706  0.9183  3.5468  0.7100
 7334SOL     OW33634   4.145   2.189   5.252 -0.6446 -0.1340 -0.3129
 7334SOL    HW133635   4.180   2.196   5.163 -0.6094  0.5691 -0.2408
 7334SOL    HW233636   4.084   2.262   5.262  0.4870  0.6260  1.0144
 7335SOL     OW33637   0.206   2.040   3.461 -0.2264  0.2219  0.2784
 7335SOL    HW133638   0.130   2.020   3.406 -0.9047  0.3834  1.1404
 7335SOL    HW233639   0.272   1.976   3.438 -0.9905 -0.8943  1.1496
 7336SOL     OW33640   3.596   1.671   7.673 -0.0574  0.0022 -0.4440
 7336SOL    HW133641   3.598   1.607   7.602 -0.5395  1.1600 -1.5243
 7336SOL    HW233642   3.504   1.698   7.680  0.1904 -0.2737  3.7548
 7337SOL     OW33643   0.756   2.617  16.468  0.0707  0.4224  0.1990
 7337SOL    HW133644   0.816   2.678  16.510  1.1706 -1.4465  1.3536
 7337SOL    HW233645   0.751   2.666  16.386  0.5115 -0.3195 -0.2685
 7338SOL     OW33646   0.465   2.206   1.558  0.3177 -0.2474  0.8863
 7338SOL    HW133647   0.382   2.169   1.589  1.0944  0.2941  3.5817
 7338SOL    HW233648   0.431   2.292   1.532  1.3819 -0.0029  0.2932
 7339SOL     OW33649   0.900   2.991   1.857  0.0656 -0.5703  0.3116
 7339SOL    HW133650   0.914   3.058   1.924  1.0815  1.2385 -1.7069
 7339SOL    HW233651   0.926   3.038   1.778  0.1921 -0.2944  0.5179
 7340SOL     OW33652   2.814   2.155   2.368 -0.1459  0.1805  0.3597
 7340SOL    HW133653   2.793   2.231   2.315  2.0088 -1.1074 -2.3613
 7340SOL    HW233654   2.903   2.127   2.345 -0.1446  0.0615  0.5086
 7341SOL     OW33655   2.437   1.206   3.379 -0.3457 -0.2867  0.4674
 7341SOL    HW133656   2.481   1.132   3.422 -0.0803  0.0525  0.7745
 7341SOL    HW233657   2.429   1.175   3.289 -0.0368  3.3904 -0.8030
 7342SOL     OW33658   1.208   1.794   5.955 -0.0994 -0.2594 -0.5591
 7342SOL    HW133659   1.199   1.873   5.902 -2.0590  1.8259  2.8805
 7342SOL    HW233660   1.151   1.738   5.902 -0.7384 -0.6867  0.5738
 7343SOL     OW33661   3.535   3.512   6.455 -0.0328  0.2499 -0.4446
 7343SOL    HW133662   3.627   3.489   6.459 -0.5352 -1.5620  0.8126
 7343SOL    HW233663   3.531   3.587   6.515 -0.0529 -0.3942  0.3536
 7344SOL     OW33664   3.739   1.177  11.088 -0.0555 -0.1229 -0.5882
 7344SOL    HW133665   3.647   1.189  11.114  0.1650  2.1779 -0.8440
 7344SOL    HW233666   3.766   1.121  11.161 -0.8418 -1.1825 -1.1203
 7345SOL     OW33667   0.301   2.487   0.318 -0.5096 -0.6099 -0.2146
 7345SOL    HW133668   0.310   2.579   0.344  0.5152 -0.2794 -1.7770
 7345SOL    HW233669   0.214   2.461   0.350 -1.2081  1.6253 -0.2494
 7346SOL     OW33670   3.026   2.849   7.900 -0.2199  0.2024 -0.6287
 7346SOL    HW133671   3.096   2.905   7.868 -0.4491  0.0285 -1.4403
 7346SOL    HW233672   3.059   2.761   7.881 -1.8152  0.0698 -2.8246
 7347SOL     OW33673   1.250   3.619   1.472 -0.0926 -0.8218 -0.0147
 7347SOL    HW133674   1.336   3.632   1.512 -0.0768 -0.4463 -0.1686
 7347SOL    HW233675   1.264   3.538   1.424  0.9865 -0.3271 -0.5349
 7348SOL     OW33676   0.215   2.496   5.762  0.5319 -0.7899  0.2024
 7348SOL    HW133677   0.133   2.460   5.730  1.1225 -0.9269 -1.1466
 7348SOL    HW233678   0.256   2.524   5.680  0.4335  0.5605  0.6189
 7349SOL     OW33679   2.581   2.346   7.979 -0.3088 -0.3148  0.4506
 7349SOL    HW133680   2.663   2.316   8.017  0.4090 -0.3185 -1.1053
 7349SOL    HW233681   2.605   2.333   7.888  0.2823  0.7915  0.4464
 7350SOL     OW33682   0.714   3.530  14.608 -0.0425 -0.5008 -0.4173
 7350SOL    HW133683   0.763   3.588  14.550 -0.7783  0.8660  0.3119
 7350SOL    HW233684   0.728   3.569  14.694 -1.3813 -2.8622  0.8834
 7351SOL     OW33685   3.660   3.574   3.854  0.2656 -0.1198 -0.2679
 7351SOL    HW133686   3.718   3.544   3.924 -1.5446 -2.3982  0.2449
 7351SOL    HW233687   3.651   3.665   3.881  0.9219 -0.0735 -0.1967
 7352SOL     OW33688   2.386   1.096  11.597  0.1075  0.2282 -0.1123
 7352SOL    HW133689   2.448   1.030  11.567  0.3225  0.0160  0.8219
 7352SOL    HW233690   2.435   1.177  11.585  0.6296 -0.2273 -1.0370
 7353SOL     OW33691   2.087   1.486   8.635 -0.3062  0.0700 -0.4767
 7353SOL    HW133692   2.141   1.549   8.586  1.9547 -0.3244  1.5292
 7353SOL    HW233693   2.118   1.509   8.723 -0.4971  0.1092 -0.4209
 7354SOL     OW33694   2.698   1.107   8.162  0.1987  0.4639 -0.5084
 7354SOL    HW133695   2.644   1.030   8.148  1.6881 -0.8223  0.8528
 7354SOL    HW233696   2.642   1.154   8.224 -0.8271 -1.9153  0.3405
 7355SOL     OW33697   0.567   4.540   5.181 -0.0367  1.0457 -0.2756
 7355SOL    HW133698   0.662   4.540   5.185 -0.0304  0.2995 -0.3637
 7355SOL    HW233699   0.540   4.520   5.271 -1.2701  0.3807 -0.7791
 7356SOL     OW33700   0.412   1.959   5.249 -0.0161 -0.1840 -0.2111
 7356SOL    HW133701   0.475   1.911   5.302 -0.6231 -0.9379 -0.1783
 7356SOL    HW233702   0.460   2.038   5.223  0.2625 -0.6353 -1.0466
 7357SOL     OW33703   1.419   0.748   7.321 -0.4488 -0.2360  0.1078
 7357SOL    HW133704   1.487   0.807   7.354  1.1742 -1.4064 -1.1612
 7357SOL    HW233705   1.414   0.781   7.231  3.7408  1.9318  0.6338
 7358SOL     OW33706   1.583   3.157   4.434  0.6979 -0.0402 -0.2171
 7358SOL    HW133707   1.610   3.208   4.357 -2.6205 -1.1304 -2.0841
 7358SOL    HW233708   1.580   3.222   4.505 -0.8221  1.8345 -1.9928
 7359SOL     OW33709   2.963   1.693   3.556  0.3549  0.4250 -0.2993
 7359SOL    HW133710   3.042   1.674   3.505 -0.2186 -1.5804 -0.4463
 7359SOL    HW233711   2.895   1.692   3.489  0.2158 -1.2104 -0.1316
 7360SOL     OW33712   0.528   0.234  16.741  0.2859  0.0707 -0.0405
 7360SOL    HW133713   0.555   0.271  16.657  0.0287 -0.2583 -0.2637
 7360SOL    HW233714   0.561   0.304  16.798 -0.6415 -1.3769  2.2777
 7361SOL     OW33715   2.372   3.828   1.412 -0.2644 -0.4299  0.6805
 7361SOL    HW133716   2.404   3.775   1.486  1.9151  1.0838  0.8407
 7361SOL    HW233717   2.332   3.760   1.359 -0.6105  1.4109 -1.3936
 7362SOL     OW33718   2.998   3.846   3.849 -0.2576  0.3042 -0.2609
 7362SOL    HW133719   2.907   3.866   3.829 -0.6886 -0.9796  0.3918
 7362SOL    HW233720   2.997   3.763   3.801  0.1040 -0.3696  0.8770
 7363SOL     OW33721   1.182   2.882   0.656 -0.4789 -0.5896 -0.8007
 7363SOL    HW133722   1.190   2.966   0.701 -1.7266 -0.7766 -0.2283
 7363SOL    HW233723   1.087   2.874   0.642 -0.6985  0.4019  0.1080
 7364SOL     OW33724   0.612   3.695   5.654  0.3902  0.2802 -0.2938
 7364SOL    HW133725   0.685   3.679   5.713  0.4679  3.4709  0.5083
 7364SOL    HW233726   0.642   3.682   5.564  0.2530  0.3400 -0.3481
 7365SOL     OW33727   2.257   0.350   7.562 -0.8408  0.0652  0.1328
 7365SOL    HW133728   2.208   0.282   7.608  3.6716 -2.5485  1.0204
 7365SOL    HW233729   2.343   0.338   7.602 -0.1819  2.8764 -0.4397
 7366SOL     OW33730   1.813   3.605   9.350  0.0825  0.3187  0.3524
 7366SOL    HW133731   1.884   3.641   9.405 -0.7134  0.8152  1.0516
 7366SOL    HW233732   1.856   3.538   9.297 -1.1276  0.0946 -0.3222
 7367SOL     OW33733   3.610   3.334   6.752 -0.1713  0.4379  0.4316
 7367SOL    HW133734   3.660   3.355   6.831 -0.7427 -0.4392  1.0315
 7367SOL    HW233735   3.667   3.364   6.682 -1.4212 -2.5651 -1.8531
 7368SOL     OW33736   0.373   3.576  16.967 -0.2113 -0.3509  0.3718
 7368SOL    HW133737   0.353   3.594  16.874  1.4221  0.5723  0.1967
 7368SOL    HW233738   0.428   3.651  16.990  0.7234 -1.5020  1.8440
 7369SOL     OW33739   2.907   0.225   0.614  0.0037 -0.3456  0.2379
 7369SOL    HW133740   2.832   0.282   0.598  0.4622  0.3787  0.6924
 7369SOL    HW233741   2.979   0.281   0.584 -1.2547  0.5030 -1.2033
 7370SOL     OW33742   3.635   1.086   4.184 -0.0034  0.0592  0.2180
 7370SOL    HW133743   3.712   1.142   4.174  1.6945 -1.7738  2.7476
 7370SOL    HW233744   3.580   1.158   4.215  0.5350 -0.2742  1.9543
 7371SOL     OW33745   2.709   4.401   0.559  0.4816  0.1259  0.4439
 7371SOL    HW133746   2.742   4.345   0.629 -1.4543 -0.1064  1.1666
 7371SOL    HW233747   2.620   4.411   0.594  0.5656 -0.2681  0.7675
 7372SOL     OW33748   1.128   3.184  10.538  0.3888  0.3539 -0.7317
 7372SOL    HW133749   1.114   3.190  10.443 -1.7353 -1.9260 -0.5506
 7372SOL    HW233750   1.099   3.272  10.560 -0.4325 -0.7353  2.5063
 7373SOL     OW33751   3.157   1.305   9.665 -0.0774 -0.2103  0.9293
 7373SOL    HW133752   3.106   1.378   9.631 -0.0690 -0.2389  0.8551
 7373SOL    HW233753   3.099   1.229   9.665 -2.3535  1.5342  2.2382
 7374SOL     OW33754   3.289   3.571   8.726  0.2368  0.3034 -0.0137
 7374SOL    HW133755   3.261   3.639   8.787 -0.8689  1.5819 -1.9703
 7374SOL    HW233756   3.290   3.493   8.782 -0.4648 -0.9571 -1.7720
 7375SOL     OW33757   4.273   3.658   9.445  0.1147  0.2433  0.0620
 7375SOL    HW133758   4.313   3.707   9.374 -0.5013  0.6518 -0.0024
 7375SOL    HW233759   4.193   3.707   9.464  1.9309  2.7119  1.3223
 7376SOL     OW33760   1.360   4.485  11.583 -0.0460 -0.0565 -0.2385
 7376SOL    HW133761   1.371   4.564  11.531  1.1112 -1.1177 -1.5856
 7376SOL    HW233762   1.347   4.522  11.670 -0.0676 -3.5355  1.2525
 7377SOL     OW33763   1.239   2.573   8.922  0.2827 -0.1408  0.4333
 7377SOL    HW133764   1.146   2.577   8.903  1.0734  1.2951 -3.0909
 7377SOL    HW233765   1.276   2.645   8.870 -2.0768  1.5245  1.0360
 7378SOL     OW33766   4.181   1.913   7.050 -0.0783 -0.3807 -0.0201
 7378SOL    HW133767   4.262   1.878   7.011  0.8794  0.5798  1.0942
 7378SOL    HW233768   4.144   1.956   6.973  2.0522 -2.3306 -2.1302
 7379SOL     OW33769   0.217   1.421   1.920 -0.0174  0.0319  0.2087
 7379SOL    HW133770   0.219   1.492   1.985 -2.6478  1.2821 -1.0762
 7379SOL    HW233771   0.132   1.380   1.938 -0.8740  1.7844  0.1563
 7380SOL     OW33772   1.516   1.015   4.373  0.0699  0.4895  0.4186
 7380SOL    HW133773   1.504   1.037   4.465 -1.1813  0.9360  0.1437
 7380SOL    HW233774   1.585   1.072   4.337  2.3888 -1.5268  1.6228
 7381SOL     OW33775   0.405   1.693   3.768 -0.0715  0.4421  0.1714
 7381SOL    HW133776   0.442   1.779   3.750  1.2882 -0.3981 -1.0530
 7381SOL    HW233777   0.480   1.637   3.789  0.3232  0.4094 -1.3189
 7382SOL     OW33778   0.030   2.208   4.375 -0.3870 -0.1073  0.3479
 7382SOL    HW133779   0.041   2.285   4.319  1.1742  0.2901  1.2044
 7382SOL    HW233780   0.098   2.210   4.442 -3.4276 -0.4228  3.5099
 7383SOL     OW33781   3.873   2.664   7.259  0.1396  0.7556  0.0661
 7383SOL    HW133782   3.836   2.576   7.256  1.6523  0.1398 -0.0693
 7383SOL    HW233783   3.792   2.715   7.263  0.5242  1.2694  1.2915
 7384SOL     OW33784   1.654   4.712  11.219  0.2657 -0.1412 -0.0107
 7384SOL    HW133785   1.635   0.068  11.204 -1.0327 -0.3796  0.1655
 7384SOL    HW233786   1.718   4.703  11.148  0.8147  0.7151  0.3767
 7385SOL     OW33787   0.493   2.126  12.867 -0.3707  0.0015 -0.2816
 7385SOL    HW133788   0.407   2.158  12.841 -2.1906 -2.5312  2.6971
 7385SOL    HW233789   0.547   2.184  12.813 -0.0413  0.9933  1.1171
 7386SOL     OW33790   3.996   2.279  12.395 -0.6185 -0.4961 -0.2860
 7386SOL    HW133791   4.010   2.235  12.311 -0.4763  0.9388 -1.0120
 7386SOL    HW233792   4.032   2.211  12.452  2.1362 -0.0366 -1.4777
 7387SOL     OW33793   3.008   0.916   6.998 -0.4755 -0.1442 -0.1253
 7387SOL    HW133794   3.056   0.950   7.073  0.0474 -0.9003 -0.1263
 7387SOL    HW233795   3.000   0.823   7.017 -0.9795  0.1734  1.1933
 7388SOL     OW33796   2.415   2.008   7.159 -0.0007 -0.0534  0.0330
 7388SOL    HW133797   2.480   2.069   7.193  1.5984 -1.1673 -1.0100
 7388SOL    HW233798   2.339   2.050   7.199  0.7618  0.6859  0.7056
 7389SOL     OW33799   1.410   4.308   4.174  0.3532 -0.1989  0.3941
 7389SOL    HW133800   1.456   4.387   4.146 -0.7054  0.5073  0.6290
 7389SOL    HW233801   1.467   4.244   4.132 -0.0629 -0.5248  0.3278
 7390SOL     OW33802   2.190   0.409  11.902 -0.1579  0.5541  0.0710
 7390SOL    HW133803   2.150   0.445  11.981  0.8517 -1.6101  1.5424
 7390SOL    HW233804   2.134   0.337  11.872 -0.8783  0.7165  1.0067
 7391SOL     OW33805   0.372   3.248  11.899 -0.3227 -0.3884 -0.2527
 7391SOL    HW133806   0.343   3.224  11.987  0.7808 -0.5003  0.0717
 7391SOL    HW233807   0.289   3.256  11.852 -0.8000 -1.4416  0.4317
 7392SOL     OW33808   3.678   3.320   3.768  0.0568 -0.0800 -0.4013
 7392SOL    HW133809   3.655   3.380   3.838 -0.6239  0.5533 -1.1586
 7392SOL    HW233810   3.595   3.310   3.721 -0.7170  1.7416  0.5645
 7393SOL     OW33811   3.530   3.391   3.159  0.2972  0.5559 -0.2264
 7393SOL    HW133812   3.540   3.394   3.254 -1.8161 -0.8829  0.0282
 7393SOL    HW233813   3.623   3.401   3.136 -0.0179 -0.7505 -2.0516
 7394SOL     OW33814   2.018   4.347  13.440 -0.0417 -0.4815 -0.3461
 7394SOL    HW133815   2.008   4.338  13.345  1.1339  1.1528 -0.6336
 7394SOL    HW233816   2.050   4.437  13.442  1.1191 -0.8873 -0.4696
 7395SOL     OW33817   1.747   3.466   6.857 -0.2392 -0.0039  0.0470
 7395SOL    HW133818   1.785   3.446   6.943 -1.5838 -1.2189  0.3716
 7395SOL    HW233819   1.791   3.546   6.829 -0.2028 -0.2120 -0.4987
 7396SOL     OW33820   2.799   0.925   7.248 -0.2011  0.0223  0.1854
 7396SOL    HW133821   2.712   0.909   7.209  0.0920  2.0609 -1.3125
 7396SOL    HW233822   2.856   0.912   7.173  0.1357  1.3350  0.2249
 7397SOL     OW33823   2.836   4.626   0.444 -0.3902  1.0711 -0.0002
 7397SOL    HW133824   2.780   4.648   0.518 -1.2867 -1.1572 -0.0386
 7397SOL    HW233825   2.862   4.538   0.470 -0.7339  0.4042 -1.9327
 7398SOL     OW33826   1.753   2.887   3.729  0.4166 -0.2474  0.0490
 7398SOL    HW133827   1.691   2.825   3.767 -0.0170 -1.1137 -2.0998
 7398SOL    HW233828   1.837   2.841   3.738  0.9699  0.5834 -0.7695
 7399SOL     OW33829   1.873   3.378  11.529 -0.1387 -0.1882  0.2117
 7399SOL    HW133830   1.785   3.412  11.518  0.3000  0.9238  0.2084
 7399SOL    HW233831   1.873   3.347  11.620 -0.2295 -0.0424  0.2610
 7400SOL     OW33832   4.020   2.393   4.115  0.2501  0.0167  0.3387
 7400SOL    HW133833   3.942   2.404   4.061  0.1347 -0.7012  0.3599
 7400SOL    HW233834   4.008   2.471   4.169  0.4123 -1.5258  2.6142
 7401SOL     OW33835   3.485   1.507   2.532 -0.0902 -0.1384 -0.3036
 7401SOL    HW133836   3.433   1.497   2.452  0.6020  1.1709 -0.9139
 7401SOL    HW233837   3.413   1.526   2.591 -1.0789 -2.4241 -0.7758
 7402SOL     OW33838   2.136   2.347   1.636  0.6896  0.3782  0.4961
 7402SOL    HW133839   2.085   2.305   1.705 -0.0348  2.4963  1.2742
 7402SOL    HW233840   2.126   2.275   1.575 -1.6649  1.8676 -0.8565
 7403SOL     OW33841   3.564   3.426   7.281 -0.6246 -0.0344 -0.2140
 7403SOL    HW133842   3.627   3.496   7.262 -0.6346  0.5723  1.9679
 7403SOL    HW233843   3.507   3.455   7.352 -0.4050  0.7212 -0.3497
 7404SOL     OW33844   0.956   4.408  16.419 -0.5422 -0.0201  0.7308
 7404SOL    HW133845   0.965   4.500  16.395  0.0286 -0.2196  0.1950
 7404SOL    HW233846   1.031   4.413  16.478 -2.2536 -0.2674  2.9090
 7405SOL     OW33847   3.793   1.915   9.799  0.0807  0.3657  0.7635
 7405SOL    HW133848   3.737   1.937   9.873 -1.9460  3.3341 -1.6665
 7405SOL    HW233849   3.803   1.820   9.801 -0.3608  0.2896 -0.6867
 7406SOL     OW33850   3.187   2.133   1.754 -0.2391  0.0485 -0.2007
 7406SOL    HW133851   3.229   2.190   1.690 -0.6926  2.7900  1.9441
 7406SOL    HW233852   3.259   2.072   1.772 -1.3322  0.2624  4.7545
 7407SOL     OW33853   2.133   1.238  15.453  0.2600 -0.4210 -0.8092
 7407SOL    HW133854   2.110   1.182  15.379 -0.5799  0.7256 -1.4155
 7407SOL    HW233855   2.227   1.247  15.434  0.4473 -2.8021 -1.0150
 7408SOL     OW33856   0.481   4.727  16.790 -0.4491 -0.0775 -0.1512
 7408SOL    HW133857   0.502   0.081  16.813 -0.6924  0.1374 -0.7803
 7408SOL    HW233858   0.443   4.736  16.702  0.4956  1.3972 -0.4248
 7409SOL     OW33859   3.109   3.116   6.274  0.5021 -0.0514  0.1228
 7409SOL    HW133860   3.038   3.136   6.335  0.5264 -2.3520  0.8969
 7409SOL    HW233861   3.183   3.148   6.326 -1.3831  1.6253  1.7439
 7410SOL     OW33862   2.383   2.884   5.717 -0.1580  0.4067 -0.3325
 7410SOL    HW133863   2.462   2.832   5.733 -1.5457 -1.2665  1.1503
 7410SOL    HW233864   2.376   2.940   5.794  2.4587 -0.7606  0.7387
 7411SOL     OW33865   1.282   2.172  16.568 -0.2480  0.3208 -0.0106
 7411SOL    HW133866   1.241   2.224  16.499  1.2228  1.0158 -0.3551
 7411SOL    HW233867   1.213   2.111  16.594  0.5337 -1.0821 -1.2154
 7412SOL     OW33868   3.598   2.627   1.967 -0.0402 -0.2851 -0.1229
 7412SOL    HW133869   3.519   2.577   1.949  0.5584 -0.1673 -3.0831
 7412SOL    HW233870   3.644   2.577   2.035  0.8371 -1.3095 -1.4715
 7413SOL     OW33871   4.208   0.406  16.339 -0.4708  0.0241  0.2823
 7413SOL    HW133872   4.133   0.438  16.288  1.0333  0.9233 -1.3912
 7413SOL    HW233873   4.275   0.403  16.270 -0.0570 -1.3573  0.7459
 7414SOL     OW33874   2.350   2.197   7.977  0.6602  0.1466  0.2495
 7414SOL    HW133875   2.435   2.238   7.959  0.3033  0.6393 -0.3359
 7414SOL    HW233876   2.381   2.119   8.023  3.0321  0.1443 -1.3505
 7415SOL     OW33877   2.741   0.838   6.235  0.0687 -0.1819 -0.3278
 7415SOL    HW133878   2.819   0.783   6.231 -0.2657 -0.5224 -2.1761
 7415SOL    HW233879   2.768   0.918   6.281 -0.7255  1.0222 -1.9290
 7416SOL     OW33880   0.617   4.441   2.001 -0.3958  0.4544  0.1031
 7416SOL    HW133881   0.643   4.349   1.999 -0.9709  0.3505 -2.6125
 7416SOL    HW233882   0.583   4.449   1.912 -0.3665 -2.0379 -0.1482
 7417SOL     OW33883   2.997   1.346  12.360 -0.2380  0.4397 -0.0154
 7417SOL    HW133884   3.007   1.440  12.375  0.1583  0.5757 -1.2109
 7417SOL    HW233885   2.907   1.341  12.394  0.4997 -0.4175  1.8179
 7418SOL     OW33886   2.736   2.261   2.109  0.5604  0.0933  0.3202
 7418SOL    HW133887   2.760   2.183   2.059 -0.3617  0.3652 -0.5276
 7418SOL    HW233888   2.642   2.261   2.096  0.7260 -3.2361 -0.7362
 7419SOL     OW33889   1.159   0.475   3.687 -0.1629 -0.9294  0.2716
 7419SOL    HW133890   1.148   0.486   3.593  1.1703  1.4031  0.3817
 7419SOL    HW233891   1.139   0.384   3.706 -1.7509 -0.5715  0.3134
 7420SOL     OW33892   2.721   0.894   6.733 -0.1338  0.7675  0.0373
 7420SOL    HW133893   2.679   0.810   6.752  1.1344 -0.4313 -2.4706
 7420SOL    HW233894   2.788   0.870   6.669  1.1733 -0.4430  1.8760
 7421SOL     OW33895   1.470   1.152   2.514  0.6102 -0.3308  0.3860
 7421SOL    HW133896   1.432   1.193   2.436 -0.7595  0.6214  1.5404
 7421SOL    HW233897   1.510   1.230   2.552 -0.3570 -0.0481  0.8423
 7422SOL     OW33898   1.653   4.721   4.324  0.0036  0.6103  0.1877
 7422SOL    HW133899   1.600   4.671   4.387 -0.2219  2.5015  1.5125
 7422SOL    HW233900   1.596   0.061   4.318 -0.6232  0.1426  0.0589
 7423SOL     OW33901   2.649   0.580   3.514  0.7166  0.0035 -0.2043
 7423SOL    HW133902   2.650   0.524   3.592 -1.2559 -1.5948 -1.3399
 7423SOL    HW233903   2.557   0.604   3.515  0.8466  0.4048  1.6534
 7424SOL     OW33904   3.616   3.591   8.904  0.0029 -0.5605 -0.1501
 7424SOL    HW133905   3.637   3.658   8.839 -0.5474 -0.1619  0.0844
 7424SOL    HW233906   3.681   3.524   8.882  0.8154 -0.2682  1.4123
 7425SOL     OW33907   1.694   1.143  11.734  0.3979  0.4969  0.7427
 7425SOL    HW133908   1.667   1.052  11.746 -0.3093  0.6406  0.2903
 7425SOL    HW233909   1.754   1.153  11.808 -1.3980  1.0134  2.1521
 7426SOL     OW33910   4.484   1.414   8.538 -0.2352 -0.4075 -0.1022
 7426SOL    HW133911   4.427   1.466   8.594 -0.0007  0.6740 -0.8698
 7426SOL    HW233912   4.544   1.483   8.510  0.8960 -1.8373 -1.2157
 7427SOL     OW33913   2.519   0.513   6.262 -0.1823  0.3337  0.3118
 7427SOL    HW133914   2.479   0.457   6.328  2.8919 -0.9395  1.0937
 7427SOL    HW233915   2.602   0.470   6.242 -0.9442 -0.7441 -0.5333
 7428SOL     OW33916   4.563   2.457   4.313 -0.5835  0.3314 -0.2587
 7428SOL    HW133917   4.503   2.458   4.388 -2.0819  2.7842 -1.5065
 7428SOL    HW233918   4.519   2.523   4.259 -2.5675  2.2623  3.7089
 7429SOL     OW33919   2.125   1.022  14.478 -0.0896 -0.6214 -0.5232
 7429SOL    HW133920   2.056   1.033  14.544 -0.8433  1.0636 -1.5746
 7429SOL    HW233921   2.080   1.024  14.393  0.4345 -1.0481 -0.8101
 7430SOL     OW33922   3.325   0.470   3.554 -0.1564  0.0918  0.2613
 7430SOL    HW133923   3.335   0.402   3.620 -0.0559 -0.3522 -0.2061
 7430SOL    HW233924   3.298   0.540   3.612 -0.1036  0.7429 -0.5032
 7431SOL     OW33925   0.332   0.710   6.107 -0.7775  0.4361 -0.1166
 7431SOL    HW133926   0.263   0.736   6.046 -0.4976 -0.1169 -0.6798
 7431SOL    HW233927   0.283   0.653   6.167 -0.0484  1.5866  1.5755
 7432SOL     OW33928   3.574   3.360   3.429  0.1944  0.2966  0.0544
 7432SOL    HW133929   3.596   3.283   3.481  1.0861 -0.2643 -1.1335
 7432SOL    HW233930   3.573   3.430   3.494 -1.9435  0.0598  0.2651
 7433SOL     OW33931   2.213   1.706   4.565  0.1210 -0.7212 -0.7312
 7433SOL    HW133932   2.226   1.611   4.567  0.6399 -0.6931 -2.4919
 7433SOL    HW233933   2.118   1.697   4.568 -0.0719  0.8103 -2.1098
 7434SOL     OW33934   1.102   1.454  15.049  0.1104 -0.7169 -0.3990
 7434SOL    HW133935   1.180   1.457  14.993 -0.5897  1.3346 -1.2615
 7434SOL    HW233936   1.126   1.528  15.105 -1.3251 -0.9751  0.5449
 7435SOL     OW33937   3.522   2.455   6.667 -0.2366 -0.6713  0.3162
 7435SOL    HW133938   3.598   2.448   6.726  0.5724  1.8710 -0.4215
 7435SOL    HW233939   3.563   2.517   6.607 -0.0473 -0.1357  0.9884
 7436SOL     OW33940   2.843   0.787   2.604  0.0949 -0.0447 -0.3552
 7436SOL    HW133941   2.767   0.730   2.593 -0.7204  0.5262  2.2312
 7436SOL    HW233942   2.792   0.867   2.592 -1.8721 -1.6499 -2.6904
 7437SOL     OW33943   1.871   4.241  12.066  0.1196  0.2793  0.6253
 7437SOL    HW133944   1.832   4.321  12.100 -2.7466  0.8812 -4.0405
 7437SOL    HW233945   1.824   4.233  11.983 -3.1245  0.6551  2.4508
 7438SOL     OW33946   1.226   1.162   0.798  0.0865  0.3148 -0.0238
 7438SOL    HW133947   1.144   1.188   0.756 -1.0215 -0.2372  1.8030
 7438SOL    HW233948   1.246   1.084   0.747 -0.1125 -0.1759  0.6536
 7439SOL     OW33949   3.022   1.607   6.261  0.6864  0.2738 -0.1848
 7439SOL    HW133950   2.974   1.640   6.337  0.8857 -4.0136  1.7976
 7439SOL    HW233951   3.102   1.585   6.309 -0.3175 -1.7578  0.5646
 7440SOL     OW33952   3.357   1.456   1.990  0.6941  0.1453  0.0366
 7440SOL    HW133953   3.439   1.482   1.948  0.5200 -1.2479 -1.1549
 7440SOL    HW233954   3.309   1.447   1.908  2.2302 -0.7393 -0.7523
 7441SOL     OW33955   0.601   4.254   7.732  0.1431  0.3191  0.4297
 7441SOL    HW133956   0.552   4.185   7.687  1.3436  0.9143 -1.8195
 7441SOL    HW233957   0.549   4.265   7.811  1.1001 -1.3938  1.2986
 7442SOL     OW33958   1.187   4.095   3.713  0.6071 -0.1385 -0.3317
 7442SOL    HW133959   1.179   4.071   3.805  0.4205  1.6167  0.1004
 7442SOL    HW233960   1.201   4.007   3.677  0.8562 -0.5782  0.8261
 7443SOL     OW33961   2.961   1.333   3.167  0.4307  0.9495  0.3382
 7443SOL    HW133962   3.028   1.293   3.223  1.8737  0.8576 -1.4717
 7443SOL    HW233963   2.888   1.305   3.222  0.9066 -1.2455 -0.1476
 7444SOL     OW33964   0.066   3.592   2.815  0.5668 -0.5197  0.1017
 7444SOL    HW133965   0.002   3.663   2.824 -0.7266 -1.6538 -0.1584
 7444SOL    HW233966   0.146   3.643   2.832 -0.5789  1.8863 -1.7337
 7445SOL     OW33967   0.724   0.617   6.229  0.1333 -0.0449  0.7401
 7445SOL    HW133968   0.684   0.581   6.150 -3.1360  1.5275  1.7090
 7445SOL    HW233969   0.711   0.538   6.282  1.3894  0.1008  1.2557
 7446SOL     OW33970   2.120   1.502  11.121  0.2915  0.1168 -0.8475
 7446SOL    HW133971   2.063   1.531  11.050 -1.2527  0.6246  0.6087
 7446SOL    HW233972   2.166   1.583  11.144 -1.0378  0.3439  1.0019
 7447SOL     OW33973   2.450   1.955   8.154  0.2747  0.2309 -0.4337
 7447SOL    HW133974   2.463   1.907   8.072  2.1500  0.6261 -0.3781
 7447SOL    HW233975   2.390   1.897   8.202 -2.3676  1.5999 -2.0755
 7448SOL     OW33976   3.451   4.403   7.174  0.1182  0.0944  0.2972
 7448SOL    HW133977   3.522   4.339   7.180  1.0050  0.9579 -1.1937
 7448SOL    HW233978   3.387   4.352   7.224 -1.7638  0.9155 -1.2909
 7449SOL     OW33979   0.479   4.279   7.965  0.1668  0.1131 -0.9114
 7449SOL    HW133980   0.429   4.359   7.950  0.6439  0.4906 -0.4911
 7449SOL    HW233981   0.566   4.315   7.982 -0.0346 -1.1395  2.6130
 7450SOL     OW33982   2.372   3.793   8.853 -0.2232  0.0115  0.2327
 7450SOL    HW133983   2.292   3.816   8.900 -0.7854  2.0882 -1.7215
 7450SOL    HW233984   2.341   3.716   8.805 -2.5210  1.7923 -1.1146
 7451SOL     OW33985   3.168   3.079   9.174 -0.5343  0.5609  0.5109
 7451SOL    HW133986   3.079   3.093   9.205 -0.4890  2.1729 -0.0702
 7451SOL    HW233987   3.143   3.121   9.092 -0.6360 -1.8426 -0.6660
 7452SOL     OW33988   2.448   1.749   3.426 -0.6630 -0.1750 -0.3907
 7452SOL    HW133989   2.384   1.704   3.482  0.3529 -0.7770  0.2710
 7452SOL    HW233990   2.409   1.779   3.344  0.6546  1.4959 -0.3867
 7453SOL     OW33991   3.136   2.148  10.831 -0.2432  0.4594  0.0671
 7453SOL    HW133992   3.174   2.165  10.917 -0.2507  0.2855  0.1056
 7453SOL    HW233993   3.069   2.216  10.829  0.2913  1.0018  0.9933
 7454SOL     OW33994   0.204   1.250   4.291 -0.4716 -0.5163 -0.1437
 7454SOL    HW133995   0.206   1.332   4.242 -1.3560 -0.2922  0.1938
 7454SOL    HW233996   0.207   1.185   4.221 -0.8883  0.2064 -0.8181
 7455SOL     OW33997   3.367   2.819   3.561  0.1147 -0.1742  0.0197
 7455SOL    HW133998   3.412   2.902   3.574  0.4601 -0.1973 -0.9561
 7455SOL    HW233999   3.444   2.762   3.553 -0.4695 -1.5021  3.8337
 7456SOL     OW34000   3.105   4.435   2.716 -0.4871 -0.3764  0.2906
 7456SOL    HW134001   3.096   4.520   2.673 -3.8882 -0.8766  0.0272
 7456SOL    HW234002   3.106   4.380   2.638  1.9351 -0.2050  0.2067
 7457SOL     OW34003   4.379   0.386   7.626  0.2384 -0.1118 -0.2343
 7457SOL    HW134004   4.398   0.406   7.717  2.7103  0.3667 -0.8533
 7457SOL    HW234005   4.467   0.378   7.589  0.3212  1.7053 -0.4449
 7458SOL     OW34006   4.070   4.655   6.369 -0.3469 -0.0561  0.3720
 7458SOL    HW134007   4.045   4.643   6.278  1.4520 -1.3596  0.0458
 7458SOL    HW234008   4.149   4.601   6.362 -0.0993  0.6684 -2.1085
 7459SOL     OW34009   3.770   3.824  12.035  0.1385 -0.6243  0.0775
 7459SOL    HW134010   3.824   3.902  12.021  0.5631 -1.0050 -0.3972
 7459SOL    HW234011   3.703   3.862  12.091 -1.1227  0.6329 -2.3131
 7460SOL     OW34012   3.825   3.412  14.996 -0.0558  0.0925 -0.2497
 7460SOL    HW134013   3.844   3.319  14.981  0.0729 -0.2734  2.3051
 7460SOL    HW234014   3.890   3.441  15.060 -0.3874  0.8392 -0.2426
 7461SOL     OW34015   3.308   3.275   3.056 -0.3081 -0.3819 -0.2168
 7461SOL    HW134016   3.279   3.263   3.147 -2.1239 -0.6926 -0.8440
 7461SOL    HW234017   3.369   3.349   3.055 -0.1176 -0.5493 -0.7804
 7462SOL     OW34018   1.370   3.775   2.038 -0.2206 -0.4386 -0.6480
 7462SOL    HW134019   1.295   3.825   2.071  0.5897  0.2994  0.0749
 7462SOL    HW234020   1.439   3.841   2.040 -0.0549 -0.6650  1.2913
 7463SOL     OW34021   2.107   0.017  16.071 -0.2126  0.6123 -0.1769
 7463SOL    HW134022   2.052   0.092  16.050 -0.6723  0.0338 -1.0271
 7463SOL    HW234023   2.140   0.044  16.157  3.1062 -1.3992 -0.8112
 7464SOL     OW34024   2.566   0.033   5.316 -0.3450  0.0636 -0.2175
 7464SOL    HW134025   2.508   0.103   5.346  1.8931  1.3167  1.2468
 7464SOL    HW234026   2.590   4.732   5.400 -0.0223 -0.9166 -0.7595
 7465SOL     OW34027   3.411   0.082   3.861 -0.3145 -0.7068  0.5962
 7465SOL    HW134028   3.351   0.121   3.925  0.1124  0.0354  0.5498
 7465SOL    HW234029   3.493   0.130   3.874  0.0732 -0.6412 -2.2328
 7466SOL     OW34030   2.122   1.272  10.959  0.4951 -0.2337 -0.3911
 7466SOL    HW134031   2.052   1.224  11.004  0.7418 -2.1938 -2.1033
 7466SOL    HW234032   2.120   1.357  11.001 -0.1451  0.6133 -2.1577
 7467SOL     OW34033   1.695   0.182   6.786  0.5477 -0.0135  0.5856
 7467SOL    HW134034   1.692   0.210   6.878  0.2901 -4.2111  1.8537
 7467SOL    HW234035   1.623   0.119   6.780  0.7572 -0.2996  1.0133
 7468SOL     OW34036   3.862   4.457   2.088 -0.8969  0.2063 -0.1731
 7468SOL    HW134037   3.823   4.539   2.118 -1.9773  0.3561 -1.9760
 7468SOL    HW234038   3.865   4.405   2.169  1.4934  3.7683  2.0293
 7469SOL     OW34039   1.813   1.615   8.578  0.5047  0.7887 -0.3868
 7469SOL    HW134040   1.762   1.633   8.499 -3.1726  0.9461  2.0787
 7469SOL    HW234041   1.887   1.582   8.526  1.7221 -0.5173  2.1970
 7470SOL     OW34042   3.098   2.462   4.804  0.1965 -0.1188 -0.1073
 7470SOL    HW134043   3.027   2.421   4.753  0.4670 -0.4604 -0.2095
 7470SOL    HW234044   3.097   2.402   4.878  0.3175 -1.2454 -1.0124
 7471SOL     OW34045   1.770   0.481  12.795 -0.2513 -0.2368  0.0377
 7471SOL    HW134046   1.841   0.544  12.799 -1.3256  0.9397  0.5165
 7471SOL    HW234047   1.714   0.505  12.722 -1.4823  0.6264  1.2508
 7472SOL     OW34048   4.604   3.477   3.220 -0.5694 -0.6224 -0.1586
 7472SOL    HW134049   4.651   3.418   3.279  0.0154 -1.6381 -1.6353
 7472SOL    HW234050   4.668   3.506   3.154 -0.0268  2.0829  1.5454
 7473SOL     OW34051   4.319   0.960  10.347 -0.0416 -0.5090 -0.0237
 7473SOL    HW134052   4.233   0.940  10.386 -0.0455  0.2191  0.3259
 7473SOL    HW234053   4.289   0.965  10.256  0.3527  0.6176 -0.0812
 7474SOL     OW34054   2.863   2.008   5.809  0.1869  0.3482 -0.3068
 7474SOL    HW134055   2.951   1.975   5.788  0.5375  0.6170  0.7279
 7474SOL    HW234056   2.810   1.929   5.811  0.7160  0.0197  1.0299
 7475SOL     OW34057   3.002   4.222   8.228 -0.2289 -0.7723  0.1984
 7475SOL    HW134058   3.087   4.182   8.249  0.0103 -1.0235 -1.2437
 7475SOL    HW234059   3.018   4.241   8.136  1.1379  1.1308  0.8120
 7476SOL     OW34060   3.904   1.797   8.284  0.3140 -0.2845 -0.0055
 7476SOL    HW134061   3.851   1.805   8.363  1.6989  0.0661  0.8861
 7476SOL    HW234062   3.961   1.870   8.309 -2.5842  2.1664 -0.5797
 7477SOL     OW34063   3.829   1.143   7.315  0.1830 -0.6920 -0.2019
 7477SOL    HW134064   3.861   1.060   7.280  2.8565  0.0062  0.6005
 7477SOL    HW234065   3.896   1.186   7.368  0.2845 -2.7807  1.3491
 7478SOL     OW34066   3.501   3.658  13.523  0.4867 -0.0135 -0.3171
 7478SOL    HW134067   3.576   3.642  13.581  0.1294 -0.3533  0.0525
 7478SOL    HW234068   3.457   3.730  13.567  0.9114 -0.7942  1.4161
 7479SOL     OW34069   1.602   2.512   9.016 -0.2288  0.1895  0.7411
 7479SOL    HW134070   1.574   2.598   9.047  2.6913  1.4559 -0.0859
 7479SOL    HW234071   1.616   2.478   9.104 -1.8088  0.6037  1.1517
 7480SOL     OW34072   2.662   3.181   0.308  0.2256  0.1012  0.3417
 7480SOL    HW134073   2.603   3.252   0.282  1.1854  1.3544  1.6187
 7480SOL    HW234074   2.720   3.235   0.362  1.0389 -0.9046  0.4736
 7481SOL     OW34075   3.270   2.447   1.363  0.5625 -0.1483 -0.3139
 7481SOL    HW134076   3.341   2.394   1.325  0.3629  0.3121 -1.3319
 7481SOL    HW234077   3.314   2.532   1.359  0.5659 -0.1747 -0.8530
 7482SOL     OW34078   2.433   3.184   8.760 -0.2251  0.0386 -0.6905
 7482SOL    HW134079   2.497   3.254   8.768 -2.3224  1.8842 -0.0208
 7482SOL    HW234080   2.492   3.117   8.725  2.4657  2.3080 -0.4992
 7483SOL     OW34081   1.574   1.317   4.041  0.6884 -0.0537 -0.4510
 7483SOL    HW134082   1.648   1.311   3.981  1.6735 -0.1437  0.7950
 7483SOL    HW234083   1.608   1.285   4.124  1.3280  1.6273 -0.0693
 7484SOL     OW34084   3.183   1.243  13.489 -0.2706  0.5260 -0.4877
 7484SOL    HW134085   3.173   1.184  13.563  0.8710 -0.1413 -0.8556
 7484SOL    HW234086   3.233   1.314  13.530 -0.6019 -0.0705  0.9450
 7485SOL     OW34087   2.945   1.707   5.066 -0.8462 -0.3469  0.3495
 7485SOL    HW134088   3.016   1.681   5.007 -2.1367 -0.0683 -1.3206
 7485SOL    HW234089   2.978   1.779   5.119 -1.2085 -0.0793  0.2108
 7486SOL     OW34090   1.924   4.194  12.931  0.1270  0.3019 -0.4042
 7486SOL    HW134091   1.894   4.241  12.854 -0.4017  1.5718  0.5795
 7486SOL    HW234092   1.849   4.134  12.935  0.6480 -0.2616  0.8711
 7487SOL     OW34093   4.732   0.426   1.669  0.0879 -0.4144  0.0561
 7487SOL    HW134094   0.055   0.414   1.595 -1.0335 -2.2703 -0.5384
 7487SOL    HW234095   0.001   0.338   1.706  2.4617  0.1379  1.0346
 7488SOL     OW34096   3.046   2.133   0.211 -0.0976 -0.0149  0.2937
 7488SOL    HW134097   3.023   2.171   0.295  0.4734  0.2133  0.3466
 7488SOL    HW234098   2.956   2.125   0.178  0.2609  2.8287 -1.4184
 7489SOL     OW34099   2.276   1.545   5.736  0.1526  0.2330  0.5495
 7489SOL    HW134100   2.287   1.611   5.804 -2.5712  1.5548 -0.2778
 7489SOL    HW234101   2.271   1.600   5.658  0.0869  2.7737  2.3596
 7490SOL     OW34102   3.831   3.123   5.333  0.1561  0.0375  0.2954
 7490SOL    HW134103   3.841   3.034   5.299  1.9200  0.1433  0.4975
 7490SOL    HW234104   3.760   3.097   5.391 -1.7769  0.6084 -1.8258
 7491SOL     OW34105   0.714   3.992  14.567 -0.1936 -0.5337  0.9004
 7491SOL    HW134106   0.642   4.026  14.620 -1.0575 -0.5876 -0.2382
 7491SOL    HW234107   0.778   4.024  14.630  2.6751 -2.7603 -0.8578
 7492SOL     OW34108   2.845   4.713   5.760  0.8025  0.3757 -0.2853
 7492SOL    HW134109   2.819   4.632   5.804  0.8353 -0.4482 -1.7793
 7492SOL    HW234110   2.910   4.681   5.698 -0.4480 -0.4293 -1.1836
 7493SOL     OW34111   1.534   2.370   0.903  0.0651 -0.2548  0.3204
 7493SOL    HW134112   1.460   2.316   0.930  0.9105 -1.6293 -0.1642
 7493SOL    HW234113   1.577   2.372   0.989 -2.0108 -1.3221  1.3877
 7494SOL     OW34114   1.707   2.282   4.836  0.6440  0.5991 -0.0931
 7494SOL    HW134115   1.782   2.240   4.878 -0.5050 -3.3572 -1.9609
 7494SOL    HW234116   1.699   2.238   4.751  0.1430 -1.8636  1.2277
 7495SOL     OW34117   1.069   3.406  12.001  0.1273  0.1775 -0.1901
 7495SOL    HW134118   1.046   3.333  12.058 -2.3122  2.8102  2.1883
 7495SOL    HW234119   1.136   3.441  12.059 -0.8610  0.3198  0.8537
 7496SOL     OW34120   0.001   2.322  16.374  0.4764 -0.4952  0.0179
 7496SOL    HW134121   4.643   2.325  16.362  0.6143 -0.5297 -1.0611
 7496SOL    HW234122   0.021   2.415  16.378 -1.3641 -0.1308  0.8914
 7497SOL     OW34123   3.778   1.549  14.161  0.2209  0.0640  0.2333
 7497SOL    HW134124   3.841   1.588  14.221  0.3441 -0.7857  0.6620
 7497SOL    HW234125   3.701   1.591  14.200  0.3833  0.3198  0.2781
 7498SOL     OW34126   2.886   3.095   6.442 -0.3716  0.4525 -0.2662
 7498SOL    HW134127   2.823   3.024   6.456 -0.8646  1.3080  1.7689
 7498SOL    HW234128   2.826   3.162   6.474  0.6532  1.8848 -1.3908
 7499SOL     OW34129   1.832   3.564   2.089 -0.2413  0.0850  0.1309
 7499SOL    HW134130   1.772   3.579   2.016  1.1879  3.3622 -0.3639
 7499SOL    HW234131   1.773   3.518   2.149  0.4308 -0.1891  0.5738
 7500SOL     OW34132   0.333   4.601   0.049 -0.3133  0.5967 -0.2593
 7500SOL    HW134133   0.397   4.611   0.119 -0.0657 -2.0161 -0.1094
 7500SOL    HW234134   0.261   4.654   0.083 -0.5780 -0.5923  1.0488
 7501SOL     OW34135   2.288   3.860   6.809 -0.3868 -0.3028  0.0510
 7501SOL    HW134136   2.329   3.793   6.864 -2.5891 -1.8004 -0.1356
 7501SOL    HW234137   2.256   3.912   6.883  2.3317 -1.7750  2.2725
 7502SOL     OW34138   3.518   1.704   3.832  0.0639  0.3670 -0.0796
 7502SOL    HW134139   3.466   1.752   3.767 -0.2414 -2.2293 -1.7434
 7502SOL    HW234140   3.455   1.640   3.864  0.3633  0.5332  0.8376
 7503SOL     OW34141   4.605   3.199   1.839  0.0532 -0.7833  0.1490
 7503SOL    HW134142   4.600   3.104   1.850 -0.0459 -0.7406  0.4668
 7503SOL    HW234143   4.583   3.237   1.924  2.2295 -1.4846  1.0219
 7504SOL     OW34144   1.926   2.951  16.931  0.3513 -0.3056  0.1566
 7504SOL    HW134145   1.841   2.942  16.976 -0.2612  1.4109 -0.6366
 7504SOL    HW234146   1.903   2.917  16.845  4.2690 -1.0469 -0.5575
 7505SOL     OW34147   3.854   2.251  15.984  0.2083 -0.4069  0.5021
 7505SOL    HW134148   3.869   2.200  16.064 -1.3321 -1.0331  0.4016
 7505SOL    HW234149   3.770   2.292  16.002  1.0963  1.3859  0.4851
 7506SOL     OW34150   0.733   4.494   7.332  0.1127  0.8394  0.4449
 7506SOL    HW134151   0.660   4.555   7.335 -1.2171 -0.7056 -0.2426
 7506SOL    HW234152   0.766   4.489   7.422 -0.5188 -0.4148  0.6102
 7507SOL     OW34153   4.600   3.405  12.644 -0.0623 -0.2945  0.4791
 7507SOL    HW134154   4.594   3.316  12.609  0.8599 -0.0185 -0.3640
 7507SOL    HW234155   4.656   3.452  12.582  1.2757  0.9572  2.6320
 7508SOL     OW34156   4.448   2.341   3.873  0.3416  0.6422  0.6663
 7508SOL    HW134157   4.410   2.361   3.958  0.2940 -2.6080  1.4303
 7508SOL    HW234158   4.455   2.246   3.880 -0.6847  0.6948  2.3226
 7509SOL     OW34159   2.105   1.953   0.686 -0.0207  0.2939 -0.4893
 7509SOL    HW134160   2.056   1.885   0.732 -0.9822  2.2064  1.2650
 7509SOL    HW234161   2.116   2.013   0.759  1.4914 -0.0784 -0.4008
 7510SOL     OW34162   4.181   2.219   6.077  0.2504  0.3764  0.1193
 7510SOL    HW134163   4.257   2.165   6.054 -0.0697 -0.2402  0.4944
 7510SOL    HW234164   4.149   2.246   5.991 -1.0537 -0.2376  0.4177
 7511SOL     OW34165   4.675   0.891   9.787 -0.0484 -0.2691  0.2817
 7511SOL    HW134166   4.634   0.859   9.707 -2.0383 -1.1549  1.6265
 7511SOL    HW234167   4.596   0.932   9.824 -0.1283 -1.0295  0.9465
 7512SOL     OW34168   1.711   2.884   4.199 -0.2045 -0.9224 -0.1548
 7512SOL    HW134169   1.666   2.800   4.184  2.0257 -2.0044 -0.8125
 7512SOL    HW234170   1.658   2.948   4.152  1.9949  0.9927  0.0045
 7513SOL     OW34171   3.659   2.064   7.073 -0.3148  0.0686  0.1882
 7513SOL    HW134172   3.702   1.978   7.074  0.6425  0.5760  2.7352
 7513SOL    HW234173   3.664   2.099   6.984 -0.0014  0.8271  0.5052
 7514SOL     OW34174   2.480   2.343  12.971 -0.1993  0.5196  0.1139
 7514SOL    HW134175   2.568   2.351  12.935 -0.4259  2.3429 -0.0542
 7514SOL    HW234176   2.503   2.341  13.064  0.7600  1.8033 -0.1007
 7515SOL     OW34177   1.056   1.908   0.159 -0.0663  0.0152  0.4192
 7515SOL    HW134178   0.982   1.919   0.220  1.7357 -1.0019  2.7718
 7515SOL    HW234179   1.125   1.937   0.218 -0.0502  0.1514  0.3346
 7516SOL     OW34180   0.908   2.847   5.425 -0.1354 -0.3570  0.5873
 7516SOL    HW134181   0.838   2.823   5.364  1.9809  0.1181 -2.0481
 7516SOL    HW234182   0.869   2.926   5.461  0.9507  0.3031  0.3284
 7517SOL     OW34183   0.940   2.505   8.882 -0.4708 -0.0052  0.2344
 7517SOL    HW134184   0.851   2.541   8.886 -0.5825 -0.3715  1.1851
 7517SOL    HW234185   0.924   2.446   8.808 -3.5521  2.1926 -0.8687
 7518SOL     OW34186   1.164   0.048   7.643  0.1004 -0.3832  0.1741
 7518SOL    HW134187   1.138   4.733   7.719  0.9905 -2.2026 -0.7798
 7518SOL    HW234188   1.092   0.028   7.584  2.3259 -1.3632 -2.2218
 7519SOL     OW34189   0.749   1.239   7.396 -0.7020  0.5720 -0.8257
 7519SOL    HW134190   0.749   1.144   7.410 -1.2196  0.2705 -2.7755
 7519SOL    HW234191   0.692   1.261   7.469  1.6332  1.9707  0.5843
 7520SOL     OW34192   3.042   1.147  16.487  0.2728  0.0447  0.3144
 7520SOL    HW134193   3.020   1.207  16.415 -1.1264 -1.6021 -0.6366
 7520SOL    HW234194   2.984   1.177  16.557  0.2830  0.5737  0.0938
 7521SOL     OW34195   1.511   3.830  11.505  0.1748  0.1042 -0.3392
 7521SOL    HW134196   1.542   3.916  11.535 -2.2891  0.3513  1.5779
 7521SOL    HW234197   1.513   3.782  11.588  0.2788  0.7060  0.0117
 7522SOL     OW34198   0.446   3.185   0.643  0.3415 -0.6487 -0.0730
 7522SOL    HW134199   0.461   3.279   0.634 -0.4728 -0.6279 -1.3083
 7522SOL    HW234200   0.401   3.171   0.727 -0.6574  0.5363 -0.4019
 7523SOL     OW34201   1.431   4.102  11.966 -0.5998  0.1874 -0.2802
 7523SOL    HW134202   1.409   4.163  11.896  0.2105 -1.4040 -1.9411
 7523SOL    HW234203   1.474   4.027  11.924 -0.6822  0.7340 -1.3531
 7524SOL     OW34204   4.506   0.938   1.796  0.1602 -1.1544  0.4642
 7524SOL    HW134205   4.576   0.877   1.774  2.9226  2.4280 -0.8451
 7524SOL    HW234206   4.435   0.903   1.742  0.3754 -1.6683  0.5180
 7525SOL     OW34207   2.097   1.350  11.913  0.2120 -0.4188  0.0368
 7525SOL    HW134208   2.159   1.282  11.886  0.6831 -0.0575  0.1982
 7525SOL    HW234209   2.151   1.401  11.974  0.0827 -0.9665  0.6135
 7526SOL     OW34210   0.361   1.228   0.240  0.0466  0.1139  0.3571
 7526SOL    HW134211   0.301   1.268   0.303 -0.2967  0.0801  0.0451
 7526SOL    HW234212   0.428   1.297   0.236 -1.1226  1.1145 -1.9238
 7527SOL     OW34213   0.708   0.855   2.856  0.2174 -0.0248  0.5133
 7527SOL    HW134214   0.782   0.796   2.862 -0.7507 -1.3983 -0.9138
 7527SOL    HW234215   0.685   0.847   2.763  3.6721 -0.0362 -0.3189
 7528SOL     OW34216   3.479   1.484   8.104  0.2410  0.4176 -0.8054
 7528SOL    HW134217   3.420   1.420   8.144  2.0716 -0.5603  0.3311
 7528SOL    HW234218   3.420   1.546   8.062 -0.2284 -0.8405 -2.0070
 7529SOL     OW34219   0.742   3.264   4.595 -0.3051 -0.0150  0.2151
 7529SOL    HW134220   0.795   3.286   4.518 -1.8033  0.1614 -0.7535
 7529SOL    HW234221   0.698   3.195   4.545 -0.7079 -1.5389  2.6883
 7530SOL     OW34222   3.010   1.897   1.725  0.3834  0.3356 -0.3245
 7530SOL    HW134223   3.067   1.972   1.742 -0.0739  0.0020  2.6229
 7530SOL    HW234224   2.976   1.927   1.641  1.7268 -1.9091 -1.6768
 7531SOL     OW34225   2.756   3.981   1.086 -0.3924 -0.3683 -0.8092
 7531SOL    HW134226   2.715   4.000   1.002 -2.7765  1.7481  0.7999
 7531SOL    HW234227   2.674   3.974   1.135 -1.3770 -0.1977 -2.4513
 7532SOL     OW34228   0.667   4.511   8.228  0.1390 -0.3081 -0.2732
 7532SOL    HW134229   0.746   4.560   8.252  1.0364 -1.8054 -0.1256
 7532SOL    HW234230   0.590   4.562   8.252  1.0588  0.8356  0.2488
 7533SOL     OW34231   3.682   4.125  11.744  0.5369 -0.3551  0.4507
 7533SOL    HW134232   3.659   4.033  11.733 -0.0613 -0.0992 -0.3905
 7533SOL    HW234233   3.768   4.125  11.702  0.2318 -1.0850 -0.1832
 7534SOL     OW34234   3.347   1.057   6.208  0.3009 -0.3077 -0.1549
 7534SOL    HW134235   3.307   1.019   6.130 -0.5527 -1.8287  1.0362
 7534SOL    HW234236   3.276   1.106   6.249 -1.4212 -1.2291 -2.0485
 7535SOL     OW34237   2.308   1.741   4.294 -0.2589  0.0858 -0.4252
 7535SOL    HW134238   2.217   1.727   4.266 -0.4814 -0.1979  0.4504
 7535SOL    HW234239   2.293   1.718   4.385 -0.2610  0.5315 -0.3166
 7536SOL     OW34240   2.055   3.312   4.118 -0.2964 -0.2592 -0.1588
 7536SOL    HW134241   2.002   3.376   4.071 -0.6229  0.6117  1.3900
 7536SOL    HW234242   2.080   3.367   4.193  4.2491 -0.8044 -1.3119
 7537SOL     OW34243   4.546   0.891  13.486  0.8072 -0.4369  0.6049
 7537SOL    HW134244   4.560   0.796  13.495  2.0965 -0.2032  0.9721
 7537SOL    HW234245   4.480   0.903  13.555 -0.5816  0.2079 -0.8300
 7538SOL     OW34246   0.690   3.682   3.701  0.0608  0.3321 -0.8200
 7538SOL    HW134247   0.752   3.753   3.683 -0.9021  0.9552 -1.6221
 7538SOL    HW234248   0.607   3.725   3.721 -0.2880 -0.6237 -0.2059
 7539SOL     OW34249   4.040   3.082   6.606 -0.2088 -0.3936 -0.1204
 7539SOL    HW134250   4.069   3.005   6.557  1.2233  0.7180 -1.0186
 7539SOL    HW234251   4.114   3.083   6.667 -0.5991  3.8639  0.3217
 7540SOL     OW34252   2.618   4.431   4.687 -0.0203 -0.3070  0.7255
 7540SOL    HW134253   2.631   4.346   4.644  1.0848  0.3143 -0.1644
 7540SOL    HW234254   2.567   4.401   4.762  0.8424 -0.6910  1.1569
 7541SOL     OW34255   4.160   2.506   6.107  0.0176 -0.4873 -0.4387
 7541SOL    HW134256   4.163   2.469   6.195 -0.8632  2.0450  0.6551
 7541SOL    HW234257   4.191   2.434   6.051 -1.2631 -0.7992 -0.7478
 7542SOL     OW34258   2.859   4.700  12.148  0.7440 -0.2590  0.2503
 7542SOL    HW134259   2.819   0.024  12.209 -0.4382 -0.2862 -0.4991
 7542SOL    HW234260   2.815   4.728  12.068  0.7035 -1.7577 -0.2508
 7543SOL     OW34261   4.303   1.705   5.358  0.9958 -0.6299 -0.5837
 7543SOL    HW134262   4.292   1.693   5.263  1.3122 -1.1244 -0.5595
 7543SOL    HW234263   4.276   1.796   5.365  1.2733 -0.6346  0.4596
 7544SOL     OW34264   4.274   1.802  11.564  0.5966 -0.2572  0.3094
 7544SOL    HW134265   4.268   1.775  11.472 -0.3199 -0.6357  0.4822
 7544SOL    HW234266   4.209   1.736  11.589 -0.2983  1.1634  1.7215
 7545SOL     OW34267   1.247   4.709  14.748 -0.4583 -0.2492  0.4395
 7545SOL    HW134268   1.262   4.622  14.712  1.1576  0.2098 -0.0093
 7545SOL    HW234269   1.328   0.021  14.733 -1.3674  1.2589  0.3694
 7546SOL     OW34270   3.880   3.431  12.855 -0.2058 -0.5578 -0.5629
 7546SOL    HW134271   3.806   3.427  12.915 -0.1638  1.4164 -0.3748
 7546SOL    HW234272   3.930   3.502  12.896 -0.7443 -0.8045  0.5286
 7547SOL     OW34273   2.973   2.245   3.123  0.2508 -0.0769  0.4953
 7547SOL    HW134274   3.015   2.292   3.051 -2.3908  3.1552  1.0647
 7547SOL    HW234275   2.941   2.161   3.088  3.2129 -0.4479 -1.3320
 7548SOL     OW34276   1.437   3.716   6.007  0.0833  0.0222 -0.7494
 7548SOL    HW134277   1.485   3.636   6.029  1.6902  0.9040 -1.0543
 7548SOL    HW234278   1.403   3.693   5.920  0.5457 -2.2646 -0.3317
 7549SOL     OW34279   2.023   4.025   9.797 -0.2058 -0.3313 -0.8805
 7549SOL    HW134280   2.052   3.935   9.812 -0.5926  0.1783  2.7523
 7549SOL    HW234281   1.943   4.034   9.849  1.6089 -0.3386  1.8703
 7550SOL     OW34282   0.062   3.082   2.348 -0.3993 -0.1130  0.4871
 7550SOL    HW134283   0.001   3.147   2.384 -0.3400  0.1829  0.0472
 7550SOL    HW234284   0.127   3.143   2.311  0.9035 -1.4500  0.5963
 7551SOL     OW34285   2.398   0.490   0.632 -0.4783 -0.2610 -0.5788
 7551SOL    HW134286   2.438   0.404   0.619  0.4805  0.3514 -1.6971
 7551SOL    HW234287   2.339   0.504   0.558 -1.1450  0.4462  0.0885
 7552SOL     OW34288   1.540   0.177   2.954 -0.0180 -0.5489  0.3774
 7552SOL    HW134289   1.602   0.124   2.904 -0.0720 -0.9499  0.7376
 7552SOL    HW234290   1.584   0.173   3.039 -0.6132 -1.9397  0.6092
 7553SOL     OW34291   1.347   3.951  12.180  0.3820 -0.0742  0.6151
 7553SOL    HW134292   1.262   3.995  12.166  0.7616  0.8472  1.1767
 7553SOL    HW234293   1.398   4.017  12.132  0.4413  0.1498  0.9807
 7554SOL     OW34294   0.554   1.700   4.313  0.0877  0.0927 -0.3736
 7554SOL    HW134295   0.506   1.624   4.345 -0.8071 -0.7776 -3.7633
 7554SOL    HW234296   0.637   1.692   4.361 -0.2719 -1.9664 -0.1065
 7555SOL     OW34297   2.093   3.953   7.464 -0.0952 -0.1732 -0.2033
 7555SOL    HW134298   2.171   3.989   7.506  1.0086 -2.3859 -0.3072
 7555SOL    HW234299   2.025   4.017   7.482 -0.3707 -0.4473 -0.2743
 7556SOL     OW34300   0.104   0.125   5.086  0.2611 -0.0316  0.0417
 7556SOL    HW134301   0.072   0.212   5.107  0.9283 -0.2647  2.0634
 7556SOL    HW234302   0.145   0.135   5.000 -1.6332 -1.2599 -0.9947
 7557SOL     OW34303   3.233   4.722  17.322  0.2894  0.3760  0.7485
 7557SOL    HW134304   3.161   4.709  17.260  0.1384 -0.0580  1.0103
 7557SOL    HW234305   3.279   0.049  17.268  2.5553 -1.5590  0.4069
 7558SOL     OW34306   0.737   0.133  12.889  0.1799  0.6837  0.4481
 7558SOL    HW134307   0.664   0.081  12.922  0.5324  0.3454  0.6853
 7558SOL    HW234308   0.814   0.081  12.910 -1.9493 -1.2328  3.4120
 7559SOL     OW34309   1.014   2.621  10.225  0.1469 -0.2947 -0.1129
 7559SOL    HW134310   0.934   2.669  10.246 -0.8259 -0.9078 -2.5061
 7559SOL    HW234311   1.076   2.678  10.179  0.9693 -0.6261  0.5765
 7560SOL     OW34312   0.379   2.961   8.651 -0.1296 -0.5668  0.3599
 7560SOL    HW134313   0.356   2.985   8.561  0.0758  1.6757  0.9213
 7560SOL    HW234314   0.291   2.940   8.684 -1.6751  1.6304 -2.2870
 7561SOL     OW34315   0.100   2.491   6.046  0.0331  0.1272  0.1682
 7561SOL    HW134316   0.160   2.459   5.979  2.0555  0.0197  2.0307
 7561SOL    HW234317   0.079   2.578   6.014  1.4864 -0.0318 -1.2240
 7562SOL     OW34318   3.642   0.893   2.959 -0.0136 -0.3111 -0.7623
 7562SOL    HW134319   3.579   0.828   2.989 -1.2988  1.2335 -0.0800
 7562SOL    HW234320   3.584   0.967   2.943 -0.6377 -1.0470 -1.9115
 7563SOL     OW34321   0.030   2.708   0.554 -0.5581 -0.1156  0.0376
 7563SOL    HW134322   0.093   2.713   0.482 -0.1613  0.3705  0.4181
 7563SOL    HW234323   0.027   2.802   0.572  0.9675 -0.2288  0.8963
 7564SOL     OW34324   0.214   3.996   1.048 -0.0247  0.4050  0.7746
 7564SOL    HW134325   0.136   3.945   1.026  0.1939 -0.0046  0.9488
 7564SOL    HW234326   0.250   4.033   0.968  1.9371 -1.2654  0.9173
 7565SOL     OW34327   0.108   1.939  14.161 -0.5236 -0.3361 -0.3617
 7565SOL    HW134328   0.058   2.011  14.200 -0.8266 -0.6142 -0.2401
 7565SOL    HW234329   0.118   1.892  14.244 -0.0918  1.1665  0.4564
 7566SOL     OW34330   4.021   4.504   4.245  0.2091 -0.4881  0.0934
 7566SOL    HW134331   4.116   4.505   4.231  0.3362 -0.9241  0.9337
 7566SOL    HW234332   4.008   4.542   4.332  0.9587 -0.8955  0.3855
 7567SOL     OW34333   1.995   1.220   2.126  0.5552 -0.1976  0.2231
 7567SOL    HW134334   2.022   1.229   2.218 -1.5189 -1.8293  0.9990
 7567SOL    HW234335   1.916   1.167   2.129  0.3694 -0.0228 -2.2898
 7568SOL     OW34336   0.236   0.938   7.344  0.3256 -0.3507  0.4482
 7568SOL    HW134337   0.314   0.981   7.378  1.1433 -1.9573  0.6050
 7568SOL    HW234338   0.211   1.005   7.280  0.0328  0.2087  1.1425
 7569SOL     OW34339   0.957   1.904   5.634  0.4768 -0.1220 -0.8354
 7569SOL    HW134340   0.933   1.826   5.686 -1.5130 -0.2080 -1.8931
 7569SOL    HW234341   0.974   1.968   5.703  0.1557  0.7259 -1.5501
 7570SOL     OW34342   4.357   2.157   1.949  0.1380 -0.3401  0.4204
 7570SOL    HW134343   4.291   2.088   1.952 -1.1060  0.7901 -1.0382
 7570SOL    HW234344   4.394   2.165   2.037  1.0493 -2.3376  0.2366
 7571SOL     OW34345   2.307   4.446   8.145 -0.4890 -0.3459 -0.7675
 7571SOL    HW134346   2.350   4.503   8.081 -0.1170  0.8652  0.5505
 7571SOL    HW234347   2.314   4.510   8.216 -2.5666 -0.2030 -0.6888
 7572SOL     OW34348   3.188   3.324   3.297 -0.6359  0.4067  0.3593
 7572SOL    HW134349   3.247   3.399   3.302  0.4995 -0.5044  0.5604
 7572SOL    HW234350   3.215   3.263   3.365  0.7782 -1.2953 -1.7529
 7573SOL     OW34351   2.516   0.503   8.440  0.4821 -0.0488 -0.2413
 7573SOL    HW134352   2.489   0.423   8.486  1.0709 -0.2844 -0.3071
 7573SOL    HW234353   2.559   0.553   8.509 -0.1265  0.0049  0.1007
 7574SOL     OW34354   4.065   0.680  12.861  0.0308 -0.0195 -0.0235
 7574SOL    HW134355   4.160   0.670  12.854 -0.1310 -0.6422 -1.3029
 7574SOL    HW234356   4.047   0.680  12.955 -1.9275  0.6441 -0.4059
 7575SOL     OW34357   2.915   3.903  12.604 -0.0079  0.0367 -0.5082
 7575SOL    HW134358   2.934   3.984  12.557 -0.6493  0.1072 -0.6451
 7575SOL    HW234359   2.819   3.899  12.613  0.0092 -2.0468 -1.3576
 7576SOL     OW34360   1.620   3.089   9.124  1.0634 -0.1254 -0.0856
 7576SOL    HW134361   1.575   3.125   9.200  0.2804 -0.9202 -0.1739
 7576SOL    HW234362   1.660   3.008   9.156  0.5943  0.5094  2.0923
 7577SOL     OW34363   4.169   4.658  17.175  0.1884 -0.0771 -0.3714
 7577SOL    HW134364   4.170   4.659  17.079 -2.0895  2.2512 -0.3593
 7577SOL    HW234365   4.136   0.008  17.196 -1.2542 -1.1222  1.6156
 7578SOL     OW34366   2.766   4.520   8.021 -0.7841  0.4622  0.0142
 7578SOL    HW134367   2.683   4.473   8.013 -0.7076  0.4520 -0.7640
 7578SOL    HW234368   2.802   4.530   7.933 -3.9632  2.3913 -1.0587
 7579SOL     OW34369   3.682   2.710   8.012 -0.4683  0.6352 -0.0208
 7579SOL    HW134370   3.659   2.640   8.073 -0.0424 -0.8689 -1.5792
 7579SOL    HW234371   3.749   2.672   7.955 -1.8507  0.0732 -1.2763
 7580SOL     OW34372   3.615   0.248   3.969 -0.1468 -0.1961  0.3540
 7580SOL    HW134373   3.577   0.334   3.949 -0.0212  0.3135  2.2740
 7580SOL    HW234374   3.670   0.261   4.046  0.7783 -0.8734 -0.1903
 7581SOL     OW34375   3.915   4.035   2.947  0.1395 -0.3543  0.3333
 7581SOL    HW134376   3.822   4.029   2.925  0.2691 -2.2019  0.3013
 7581SOL    HW234377   3.903   4.078   3.031 -0.8626  1.1681 -0.5893
 7582SOL     OW34378   0.745   1.948   5.279 -0.4427  0.6792 -0.0289
 7582SOL    HW134379   0.703   2.031   5.254 -1.5508  0.0097 -0.4153
 7582SOL    HW234380   0.837   1.967   5.261 -0.1205 -1.4161 -0.5687
 7583SOL     OW34381   2.994   4.102   2.672 -0.4921  0.2188 -0.2750
 7583SOL    HW134382   2.914   4.069   2.631  0.0033 -0.9652 -0.2757
 7583SOL    HW234383   2.964   4.159   2.744  3.1167  1.3161  0.3487
 7584SOL     OW34384   2.104   4.551  11.446 -0.3016  0.2882 -0.0507
 7584SOL    HW134385   2.109   4.632  11.496  1.6786  0.8859 -1.2150
 7584SOL    HW234386   2.183   4.542  11.393 -1.3117  0.0005 -1.5202
 7585SOL     OW34387   4.244   0.630   3.178 -0.4255 -0.1100  0.8428
 7585SOL    HW134388   4.270   0.561   3.238  2.0056 -0.0292 -0.1292
 7585SOL    HW234389   4.286   0.612   3.094 -0.3406  0.7767  0.6916
 7586SOL     OW34390   0.207   3.182   1.272  0.2399  0.7096  0.3361
 7586SOL    HW134391   0.239   3.179   1.362  0.2460 -2.6444  0.2518
 7586SOL    HW234392   0.281   3.142   1.227  1.1540  2.0204  0.6954
 7587SOL     OW34393   4.177   3.244  12.561  0.2724 -0.7773  0.8071
 7587SOL    HW134394   4.083   3.256  12.575  0.3462  0.2959  0.4083
 7587SOL    HW234395   4.215   3.297  12.631  0.0997 -0.1614  0.4388
 7588SOL     OW34396   1.621   3.961   7.243  0.1773  0.4377 -0.4707
 7588SOL    HW134397   1.647   4.051   7.227 -0.5828  1.5171  4.3781
 7588SOL    HW234398   1.649   3.937   7.331  0.7591 -0.5131 -0.9071
 7589SOL     OW34399   3.867   2.409  12.653 -0.0463 -0.5597  0.2940
 7589SOL    HW134400   3.908   2.366  12.577  0.9781  0.3861  0.3175
 7589SOL    HW234401   3.910   2.494  12.650  0.9859 -1.0964 -0.4899
 7590SOL     OW34402   0.446   0.575   3.805 -0.1628 -0.2269  0.1604
 7590SOL    HW134403   0.450   0.586   3.710 -2.7643 -0.0104  0.0953
 7590SOL    HW234404   0.536   0.601   3.824  0.8559 -2.0127 -2.1604
 7591SOL     OW34405   3.360   1.899  15.773 -0.3392 -0.1201  0.0961
 7591SOL    HW134406   3.436   1.955  15.790 -0.0277  0.5724 -3.6410
 7591SOL    HW234407   3.311   1.958  15.716  1.0560 -0.3742 -1.3839
 7592SOL     OW34408   1.491   3.480   6.444  0.5521  0.3119 -0.2148
 7592SOL    HW134409   1.449   3.457   6.361  1.0190  2.5285 -1.0499
 7592SOL    HW234410   1.435   3.551   6.477 -1.0544 -0.8182 -0.4876
 7593SOL     OW34411   4.078   2.360   8.251 -0.2019  0.4642  0.2016
 7593SOL    HW134412   4.001   2.315   8.217  0.5714  0.4911 -1.6190
 7593SOL    HW234413   4.073   2.437   8.194  0.2645  0.4768  0.1706
 7594SOL     OW34414   1.300   0.478  16.669  0.2933 -0.1185  0.6583
 7594SOL    HW134415   1.223   0.464  16.724  2.8641 -3.1681  3.5033
 7594SOL    HW234416   1.317   0.571  16.684  1.9245 -0.1269 -1.1154
 7595SOL     OW34417   3.672   1.222  13.916 -0.2537  0.1253 -0.4543
 7595SOL    HW134418   3.611   1.293  13.938  1.4260  1.0596  1.1357
 7595SOL    HW234419   3.627   1.190  13.837  1.6029 -0.7757 -1.1510
 7596SOL     OW34420   2.640   2.019  10.691  0.0845  0.4525  0.2925
 7596SOL    HW134421   2.575   2.088  10.701  0.7328  1.5892 -3.4531
 7596SOL    HW234422   2.606   1.970  10.617  0.2348  1.0176 -0.1491
 7597SOL     OW34423   3.543   4.144  16.847  0.0799  0.1666 -0.5997
 7597SOL    HW134424   3.459   4.147  16.801  0.0961 -1.6001 -0.7523
 7597SOL    HW234425   3.539   4.067  16.903  0.4196 -0.3727 -1.3242
 7598SOL     OW34426   1.794   2.206   1.700  0.0410  0.2275 -0.2959
 7598SOL    HW134427   1.763   2.149   1.771 -0.9502  0.4826 -0.5284
 7598SOL    HW234428   1.886   2.188   1.720 -0.2465  0.6076  1.3546
 7599SOL     OW34429   2.070   0.088   8.063 -0.4148  0.2499 -0.0379
 7599SOL    HW134430   1.989   0.136   8.044  0.2712  1.4274  0.0529
 7599SOL    HW234431   2.084   0.099   8.157  1.8602  2.0438 -0.5946
 7600SOL     OW34432   0.323   1.103   9.988  0.1856 -0.2018  0.0495
 7600SOL    HW134433   0.258   1.098   9.918 -0.5756  0.7680  0.7081
 7600SOL    HW234434   0.303   1.018  10.027  0.6904 -0.6333 -0.6101
 7601SOL     OW34435   4.108   1.694   9.843  0.0963  0.5153  0.5883
 7601SOL    HW134436   4.085   1.713   9.934 -2.0006 -1.5381  0.4868
 7601SOL    HW234437   4.187   1.642   9.857 -0.4076 -0.1914  0.8260
 7602SOL     OW34438   3.977   2.238  11.493  0.1744 -0.0308  0.4659
 7602SOL    HW134439   3.897   2.231  11.544 -0.3267 -0.4337 -0.3676
 7602SOL    HW234440   4.039   2.207  11.559  1.9008  1.7562 -0.3136
 7603SOL     OW34441   2.100   1.241   8.552  0.0575 -0.0983  0.5830
 7603SOL    HW134442   2.010   1.210   8.563  0.2195 -0.8899 -0.2385
 7603SOL    HW234443   2.087   1.333   8.576 -0.7826 -0.1031  0.1561
 7604SOL     OW34444   1.519   4.554   8.508  0.0641  0.4044  0.1626
 7604SOL    HW134445   1.544   4.610   8.582  0.9598  0.0628  0.1245
 7604SOL    HW234446   1.449   4.609   8.473  1.3485  1.2903 -1.0531
 7605SOL     OW34447   0.687   1.861  16.189  0.2378  0.2801  0.2304
 7605SOL    HW134448   0.629   1.936  16.204 -0.8112 -0.3765 -0.4697
 7605SOL    HW234449   0.683   1.804  16.265  1.2975  0.0746  0.1292
 7606SOL     OW34450   3.365   1.779   8.584 -0.2358 -0.4291  0.0754
 7606SOL    HW134451   3.303   1.831   8.636  0.4336 -1.4515  1.8876
 7606SOL    HW234452   3.439   1.793   8.642 -0.9342 -0.6153  1.0095
 7607SOL     OW34453   4.671   1.551   0.374 -0.5937  0.0059 -0.4316
 7607SOL    HW134454   4.649   1.605   0.298  0.0799 -0.3960 -0.9163
 7607SOL    HW234455   4.718   1.614   0.429 -0.7658  0.6922 -1.0696
 7608SOL     OW34456   0.814   0.944   9.555 -0.9424  0.3216  0.2398
 7608SOL    HW134457   0.864   0.970   9.632 -2.4781  0.2100  1.2654
 7608SOL    HW234458   0.783   1.030   9.526  2.7287  1.0635 -1.4610
 7609SOL     OW34459   0.896   1.714   3.262  0.1735  0.5841 -0.6289
 7609SOL    HW134460   0.866   1.801   3.288 -1.4770 -0.0829 -0.3103
 7609SOL    HW234461   0.863   1.724   3.173  0.2398  2.4460 -0.4418
 7610SOL     OW34462   3.632   2.947   3.729  0.6669 -0.3477 -0.5459
 7610SOL    HW134463   3.682   2.866   3.720  0.5031 -0.6878  1.5128
 7610SOL    HW234464   3.660   2.988   3.647 -1.3917 -1.3108 -1.7425
 7611SOL     OW34465   1.003   0.154  17.712 -0.3840 -0.3815 -0.3810
 7611SOL    HW134466   1.058   0.134   0.041 -0.8309 -0.1750  0.0023
 7611SOL    HW234467   1.054   0.115  17.641  1.7819  0.1111  0.8903
 7612SOL     OW34468   1.694   1.421  11.560 -0.2594  0.6841  0.4912
 7612SOL    HW134469   1.721   1.489  11.498  2.0022 -0.4264  0.2603
 7612SOL    HW234470   1.780   1.395  11.592 -0.2549  0.0937  0.0045
 7613SOL     OW34471   2.192   4.514   9.063  0.1019  0.3279  0.2078
 7613SOL    HW134472   2.279   4.480   9.040 -1.2297 -1.8134 -1.6088
 7613SOL    HW234473   2.173   4.585   9.001 -0.8604 -1.8389 -1.9434
 7614SOL     OW34474   4.650   4.426   7.950 -0.3367  0.1264 -0.1455
 7614SOL    HW134475   4.729   4.426   8.003 -0.0942  2.1381 -0.5129
 7614SOL    HW234476   4.577   4.425   8.012  1.3717  0.8071  1.8643
 7615SOL     OW34477   1.707   2.149  14.600 -0.5275  0.5955 -0.3078
 7615SOL    HW134478   1.751   2.139  14.684 -1.1640  1.4507  0.1242
 7615SOL    HW234479   1.664   2.233  14.618  1.3537  1.4316  0.3079
 7616SOL     OW34480   0.889   4.523   5.130 -0.0895  0.1646  0.1638
 7616SOL    HW134481   0.909   4.441   5.084  0.8990  0.4583  0.0782
 7616SOL    HW234482   0.875   4.493   5.220 -0.4731  1.7209  0.6126
 7617SOL     OW34483   1.126   4.718   5.359 -0.4036 -0.1276  0.3036
 7617SOL    HW134484   1.153   4.651   5.422  4.3114  2.4988  1.0651
 7617SOL    HW234485   1.043   4.735   5.403  0.2942  0.3237  1.4470
 7618SOL     OW34486   2.286   0.662  10.247  0.1733 -0.4684 -0.1497
 7618SOL    HW134487   2.211   0.658  10.306 -0.8379  0.8982 -1.3186
 7618SOL    HW234488   2.350   0.721  10.287 -2.0761  1.1429  1.1289
 7619SOL     OW34489   3.980   0.300   3.903  1.3996  0.1763 -0.3131
 7619SOL    HW134490   3.888   0.299   3.877  0.6039 -1.6362  2.5251
 7619SOL    HW234491   4.012   0.379   3.859 -0.9609  0.2289 -1.9390
 7620SOL     OW34492   0.852   1.017   1.833  0.0634  0.2133 -0.0699
 7620SOL    HW134493   0.871   0.953   1.901  2.2759  0.2695 -0.6399
 7620SOL    HW234494   0.762   1.035   1.863  1.4125  0.1782  4.0294
 7621SOL     OW34495   0.949   3.969   2.010  0.3185 -0.1563  0.2160
 7621SOL    HW134496   0.950   3.873   2.010 -2.1674 -0.1915 -0.3349
 7621SOL    HW234497   1.043   3.983   1.999  0.4421 -1.3486 -0.3250
 7622SOL     OW34498   3.442   0.922   3.586 -0.4567  0.1154 -0.6865
 7622SOL    HW134499   3.454   0.937   3.493  1.9437 -0.6112 -0.4939
 7622SOL    HW234500   3.402   1.006   3.606  3.4909  1.8823 -0.2168
 7623SOL     OW34501   4.142   1.661   3.385  0.3815  0.3747 -0.2357
 7623SOL    HW134502   4.141   1.581   3.438  1.0036  2.3312  2.7336
 7623SOL    HW234503   4.108   1.636   3.299 -1.8158 -2.1635  1.3685
 7624SOL     OW34504   0.937   4.241   4.876 -0.1395 -0.4222  0.4711
 7624SOL    HW134505   0.877   4.202   4.940 -0.3955 -0.4009  0.2447
 7624SOL    HW234506   1.020   4.235   4.922 -0.0861  1.1258  0.5850
 7625SOL     OW34507   2.838   4.474  12.325  0.3492 -0.8531 -0.8736
 7625SOL    HW134508   2.864   4.545  12.266 -1.0549 -0.1267 -0.6192
 7625SOL    HW234509   2.799   4.518  12.401  1.1200 -0.2125 -0.8375
 7626SOL     OW34510   1.751   1.970   6.191 -0.2702 -0.1153  0.4421
 7626SOL    HW134511   1.663   1.939   6.210  0.0593 -0.6275  1.1469
 7626SOL    HW234512   1.754   2.060   6.223 -0.3204 -0.2130  0.7246
 7627SOL     OW34513   4.445   3.857   4.915 -0.0007 -0.1267  0.7573
 7627SOL    HW134514   4.460   3.866   4.820  1.6515  0.3301  1.0656
 7627SOL    HW234515   4.382   3.929   4.919  0.3525  0.3276 -1.5080
 7628SOL     OW34516   0.717   4.565  13.521 -0.4662  0.4615 -0.3165
 7628SOL    HW134517   0.798   4.595  13.562 -0.8522 -2.2326  2.4741
 7628SOL    HW234518   0.668   4.538  13.599 -1.6471  2.3625 -0.4162
 7629SOL     OW34519   3.143   4.673  11.607  0.5099 -0.3565  0.6894
 7629SOL    HW134520   3.198   0.014  11.600 -0.7247  0.2589 -2.0944
 7629SOL    HW234521   3.185   4.633  11.531 -0.9699 -3.2265  1.3895
 7630SOL     OW34522   1.479   4.439   7.161 -0.0653 -0.0579 -0.7733
 7630SOL    HW134523   1.440   4.525   7.172  0.8990  0.5066 -1.8286
 7630SOL    HW234524   1.400   4.386   7.157  0.2773 -0.5967 -0.4254
 7631SOL     OW34525   0.242   0.121   2.843 -0.1056 -0.0825 -0.0741
 7631SOL    HW134526   0.152   0.141   2.867 -0.4492 -3.4241  1.3243
 7631SOL    HW234527   0.250   0.164   2.758  2.7204  0.7058  0.5962
 7632SOL     OW34528   2.945   3.788   1.773 -0.0799 -0.5095 -0.0635
 7632SOL    HW134529   2.884   3.758   1.840 -1.0474  1.6811  0.0420
 7632SOL    HW234530   3.025   3.738   1.788  0.9082  0.1200 -3.3785
 7633SOL     OW34531   1.694   4.543   4.786 -0.2078  0.3472 -0.1167
 7633SOL    HW134532   1.747   4.598   4.729 -1.8613 -0.3722 -2.3294
 7633SOL    HW234533   1.630   4.495   4.734 -0.3664 -1.4330  1.7332
 7634SOL     OW34534   2.399   0.000  16.504  0.0665  0.7396  0.5268
 7634SOL    HW134535   2.487   0.001  16.465  0.6078 -1.2668  1.7222
 7634SOL    HW234536   2.406   4.722  16.598  0.0007  0.6313  0.5131
 7635SOL     OW34537   3.423   1.209   7.038  0.3045  0.1460 -0.2935
 7635SOL    HW134538   3.489   1.238   6.976 -1.0512 -0.6936 -2.1300
 7635SOL    HW234539   3.474   1.223   7.118  1.4690 -1.0471 -0.8303
 7636SOL     OW34540   2.369   2.183   8.872  0.0690 -0.2907 -0.1077
 7636SOL    HW134541   2.281   2.217   8.854 -0.0142  0.6102  2.0445
 7636SOL    HW234542   2.414   2.242   8.811  0.7222 -0.0605  0.6076
 7637SOL     OW34543   0.929   1.604   6.064  0.4449  0.5734 -0.4042
 7637SOL    HW134544   0.899   1.566   6.147  0.1933 -0.3926 -0.9337
 7637SOL    HW234545   0.893   1.692   6.075  0.1716  0.8945 -3.8462
 7638SOL     OW34546   0.940   0.470   6.469 -0.2387  0.5074 -0.7774
 7638SOL    HW134547   0.943   0.465   6.374  2.6925  0.9838 -0.7198
 7638SOL    HW234548   0.927   0.377   6.489  2.9139  0.5712  1.4946
 7639SOL     OW34549   2.271   3.446   9.492 -0.0552  0.0854  0.1428
 7639SOL    HW134550   2.320   3.496   9.427 -0.5564  0.7360  0.2556
 7639SOL    HW234551   2.202   3.413   9.435 -0.1946  0.1635  0.2656
 7640SOL     OW34552   1.032   2.613   6.338 -0.3971 -0.3378 -0.0309
 7640SOL    HW134553   1.127   2.599   6.347 -0.1494  0.3541 -1.5949
 7640SOL    HW234554   1.027   2.706   6.358  1.1920  0.2994 -2.5096
 7641SOL     OW34555   3.602   0.107   5.742 -0.4636 -0.4366 -0.3056
 7641SOL    HW134556   3.542   0.112   5.668  0.5718 -0.3178 -1.1338
 7641SOL    HW234557   3.633   0.197   5.751 -1.2999 -0.4068  2.2379
 7642SOL     OW34558   0.005   1.123   6.118 -0.2026 -0.5920 -0.4604
 7642SOL    HW134559   4.691   1.043   6.129 -4.6088  2.3854  0.5125
 7642SOL    HW234560   0.020   1.141   6.211 -1.4705  1.2733 -0.6311
 7643SOL     OW34561   0.692   2.754   5.272 -0.1320  0.0431  0.1797
 7643SOL    HW134562   0.652   2.703   5.342 -1.2225  2.5784  1.3815
 7643SOL    HW234563   0.623   2.764   5.206  0.1241 -0.1144 -0.1162
 7644SOL     OW34564   2.533   1.417   5.615  0.4167  0.3193 -0.3726
 7644SOL    HW134565   2.581   1.464   5.683  3.0296 -3.0082  0.0803
 7644SOL    HW234566   2.448   1.420   5.660  0.5393  0.2286 -0.1334
 7645SOL     OW34567   1.328   1.684   1.917 -0.2250 -0.2909 -0.0176
 7645SOL    HW134568   1.380   1.640   1.849  0.4517  0.6223 -0.0861
 7645SOL    HW234569   1.266   1.618   1.946  0.8454 -2.0251 -1.6138
 7646SOL     OW34570   1.510   3.018  12.514  0.3769 -0.0879 -0.3882
 7646SOL    HW134571   1.549   2.936  12.541  1.8500  0.4741 -0.8301
 7646SOL    HW234572   1.570   3.089  12.537  1.2143 -0.7918 -0.4266
 7647SOL     OW34573   3.429   4.635   4.313  0.2440  0.0241 -0.0507
 7647SOL    HW134574   3.351   4.580   4.300  0.7486 -0.7807  0.2733
 7647SOL    HW234575   3.468   4.613   4.229 -0.4533 -1.8131  0.0905
 7648SOL     OW34576   0.674   0.671   3.170 -0.8673  0.2163  0.4301
 7648SOL    HW134577   0.584   0.637   3.180  0.5065 -2.4439  3.6600
 7648SOL    HW234578   0.670   0.701   3.079  3.6094  3.6158  1.3597
 7649SOL     OW34579   0.823   2.469   6.116 -0.2525 -0.1883  0.2794
 7649SOL    HW134580   0.864   2.547   6.154 -0.1117  0.5561 -1.4240
 7649SOL    HW234581   0.730   2.489   6.129 -0.2854 -1.5494  2.1797
 7650SOL     OW34582   3.304   3.292   7.037  0.6186 -0.0116 -0.1048
 7650SOL    HW134583   3.244   3.345   7.089 -0.4218 -0.2121 -1.0854
 7650SOL    HW234584   3.318   3.348   6.960 -0.6071 -1.0730 -1.0965
 7651SOL     OW34585   1.168   2.445   8.452  0.1971  0.5195 -0.5170
 7651SOL    HW134586   1.227   2.511   8.415  0.7838 -0.7553 -1.8918
 7651SOL    HW234587   1.218   2.369   8.481 -0.9298 -0.9548 -2.3627
 7652SOL     OW34588   2.770   3.440   8.609 -0.0398  0.5197 -0.4477
 7652SOL    HW134589   2.855   3.399   8.628 -0.2769  0.3434  0.2113
 7652SOL    HW234590   2.786   3.520   8.659  2.1275 -0.2989  0.2006
 7653SOL     OW34591   4.614   2.492  16.775  0.1319  0.2885 -0.1199
 7653SOL    HW134592   4.566   2.486  16.692  1.4221 -0.1294 -0.8397
 7653SOL    HW234593   4.624   2.586  16.788  0.8608  0.5015 -2.2116
 7654SOL     OW34594   3.964   3.827   7.058 -0.3156  0.3205  0.2171
 7654SOL    HW134595   4.024   3.857   7.126  2.4958  0.5997 -2.4146
 7654SOL    HW234596   4.017   3.829   6.979 -0.6023  1.1469  0.0532
 7655SOL     OW34597   0.733   3.100   8.484 -0.2772 -0.3396  0.0470
 7655SOL    HW134598   0.780   3.108   8.401  0.4107 -0.9282  0.3783
 7655SOL    HW234599   0.773   3.030   8.536  2.9593  0.2418 -1.6724
 7656SOL     OW34600   4.604   2.938   8.541 -0.6135  0.0352  0.0021
 7656SOL    HW134601   4.623   2.934   8.447 -0.3375  1.3100  0.0011
 7656SOL    HW234602   4.551   2.858   8.545 -1.7966  0.9396  2.0704
 7657SOL     OW34603   0.529   3.474  11.888 -0.3690  0.3553 -0.2534
 7657SOL    HW134604   0.503   3.536  11.956 -2.8228 -0.2476 -0.6513
 7657SOL    HW234605   0.488   3.395  11.922 -1.3360  0.7828 -0.4433
 7658SOL     OW34606   3.286   1.952   2.327  0.3345  0.9874  0.5040
 7658SOL    HW134607   3.370   1.992   2.351  1.8550 -0.9895 -1.5275
 7658SOL    HW234608   3.315   1.882   2.269 -1.0371  0.6094  0.2897
 7659SOL     OW34609   3.784   0.304   9.249  0.5351 -0.3538  1.0266
 7659SOL    HW134610   3.726   0.264   9.184  2.0550  0.1523 -0.6717
 7659SOL    HW234611   3.723   0.348   9.308 -0.2950  0.8217 -0.7182
 7660SOL     OW34612   2.418   1.348   1.650 -0.3922  0.5110  0.0150
 7660SOL    HW134613   2.457   1.428   1.616  0.1453 -0.6659 -2.1396
 7660SOL    HW234614   2.446   1.281   1.588 -1.9659  0.9920 -1.2111
 7661SOL     OW34615   3.571   2.479  10.013 -0.2585 -0.2461 -0.1888
 7661SOL    HW134616   3.585   2.489   9.919 -1.6289 -0.3731 -0.4000
 7661SOL    HW234617   3.655   2.437  10.032 -0.1631  0.2060  0.4004
 7662SOL     OW34618   2.665   0.515   3.186 -0.4236 -0.1362  0.2094
 7662SOL    HW134619   2.713   0.584   3.233  1.5428 -1.6991  0.5190
 7662SOL    HW234620   2.584   0.503   3.235  0.3394 -2.3742  0.9275
 7663SOL     OW34621   0.847   2.985   1.360 -0.2408 -0.1102 -0.0536
 7663SOL    HW134622   0.901   2.915   1.397 -0.0283 -0.2851 -0.6889
 7663SOL    HW234623   0.886   3.001   1.275 -0.3448  0.3315 -0.0210
 7664SOL     OW34624   3.207   4.648   4.613 -0.2107 -0.2227  0.1524
 7664SOL    HW134625   3.163   4.729   4.588 -2.7708 -1.6779  0.0201
 7664SOL    HW234626   3.221   4.658   4.707 -0.9334  0.3093  0.1973
 7665SOL     OW34627   0.274   1.683   1.021 -0.8369  0.0988 -0.5047
 7665SOL    HW134628   0.289   1.589   1.008 -0.4155  0.1472 -0.3482
 7665SOL    HW234629   0.318   1.695   1.105 -0.0935 -1.4492 -0.6691
 7666SOL     OW34630   0.557   0.750   7.307 -0.1746 -0.1489  0.0733
 7666SOL    HW134631   0.620   0.688   7.345 -0.2376 -0.9586 -1.1078
 7666SOL    HW234632   0.479   0.729   7.358 -0.0993  0.6500  0.5071
 7667SOL     OW34633   3.139   3.852   2.095  0.3024  0.0227 -0.3657
 7667SOL    HW134634   3.231   3.827   2.107  0.9594  2.6750  0.1820
 7667SOL    HW234635   3.103   3.773   2.054  0.5192 -1.0234  1.4823
 7668SOL     OW34636   0.320   0.810   4.456  0.0176 -0.6110  0.2606
 7668SOL    HW134637   0.341   0.844   4.369 -0.7358  1.4716  0.8937
 7668SOL    HW234638   0.383   0.859   4.510 -0.0695  0.5272 -0.6681
 7669SOL     OW34639   2.965   4.556   2.498 -0.2465  0.0717 -0.2861
 7669SOL    HW134640   2.905   4.482   2.489  0.4108 -0.4683 -0.2077
 7669SOL    HW234641   2.911   4.619   2.546 -0.3546 -0.4321  0.2493
 7670SOL     OW34642   1.254   0.495  15.705  0.3573  1.0252  0.1718
 7670SOL    HW134643   1.183   0.553  15.677  1.1474  1.1573 -1.5957
 7670SOL    HW234644   1.329   0.554  15.713 -0.1168  1.6182  0.2512
 7671SOL     OW34645   2.156   1.062   7.862 -0.0006 -0.1560  0.6048
 7671SOL    HW134646   2.223   1.095   7.803 -0.6379 -0.8110 -0.4753
 7671SOL    HW234647   2.203   1.045   7.944 -1.8548  1.0018  1.9153
 7672SOL     OW34648   4.663   0.131   7.216 -0.0594  0.8959  0.5692
 7672SOL    HW134649   4.713   0.052   7.200  3.9029  3.4942  0.1949
 7672SOL    HW234650   4.734   0.178   7.259  0.9671 -0.7965  0.7179
 7673SOL     OW34651   0.079   3.136  12.955 -0.5274 -0.1450  0.4402
 7673SOL    HW134652   0.101   3.056  12.907 -1.3172 -0.0992  0.0122
 7673SOL    HW234653   0.141   3.118  13.026 -0.5890 -0.7675  0.3365
 7674SOL     OW34654   4.706   4.206   8.490  0.4510 -0.2340  0.1144
 7674SOL    HW134655   4.689   4.300   8.503  0.8442 -0.5713  2.9692
 7674SOL    HW234656   0.018   4.206   8.407 -1.0583  1.9272 -0.7828
 7675SOL     OW34657   1.828   0.856   7.703 -0.4346 -0.2433 -0.6040
 7675SOL    HW134658   1.907   0.804   7.686 -1.4215 -2.2888  1.0667
 7675SOL    HW234659   1.858   0.886   7.788 -0.4365  0.6405 -0.9122
 7676SOL     OW34660   2.192   1.063   5.428 -0.3879  0.1103 -0.3090
 7676SOL    HW134661   2.118   1.002   5.434 -1.1094  0.9490 -0.6712
 7676SOL    HW234662   2.224   1.057   5.518  0.5827 -1.3386 -0.7438
 7677SOL     OW34663   0.985   4.080   9.025 -0.1489 -0.8358 -0.4603
 7677SOL    HW134664   1.058   4.021   9.008  1.1384  0.8425 -0.7151
 7677SOL    HW234665   0.921   4.020   9.064  0.4907 -0.7670  0.7020
 7678SOL     OW34666   3.844   4.451   4.756 -0.3953 -0.1132  0.7901
 7678SOL    HW134667   3.757   4.411   4.754 -0.0075 -0.9120 -0.2961
 7678SOL    HW234668   3.893   4.379   4.715 -3.6954 -0.7702 -2.0191
 7679SOL     OW34669   1.571   2.159   2.975 -0.6287 -0.7160 -0.3861
 7679SOL    HW134670   1.529   2.236   2.937 -2.9815 -0.5846  2.5082
 7679SOL    HW234671   1.660   2.191   2.959 -0.8082 -0.0761 -0.1092
 7680SOL     OW34672   3.037   3.611  16.247 -0.0729  0.0384 -0.6809
 7680SOL    HW134673   2.961   3.564  16.213 -1.4249  0.4959  1.6894
 7680SOL    HW234674   3.010   3.675  16.312 -1.0087  0.0721 -1.1031
 7681SOL     OW34675   4.052   0.582  16.723 -0.1671  0.0906  0.1933
 7681SOL    HW134676   4.010   0.593  16.638 -1.0537  0.0315  0.6221
 7681SOL    HW234677   4.020   0.494  16.743 -0.9629  0.5558  0.9654
 7682SOL     OW34678   2.980   0.229  12.490  0.4856  0.0822  0.4496
 7682SOL    HW134679   2.970   0.137  12.517 -2.8157  0.7052  1.2472
 7682SOL    HW234680   3.056   0.218  12.432 -0.9315 -2.4973 -0.9299
 7683SOL     OW34681   4.511   3.190   1.130 -0.3760 -0.0855 -0.5008
 7683SOL    HW134682   4.494   3.109   1.177 -1.1805 -0.2429 -1.0589
 7683SOL    HW234683   4.422   3.214   1.103  0.1640  1.8975 -0.5510
 7684SOL     OW34684   2.268   4.025  15.582  0.2191 -0.1050  0.2201
 7684SOL    HW134685   2.266   3.930  15.593  3.8087 -0.1386  0.5301
 7684SOL    HW234686   2.352   4.050  15.620  0.1540  0.6569 -0.1152
 7685SOL     OW34687   1.529   3.926   5.368 -0.2678  0.3840 -0.1873
 7685SOL    HW134688   1.553   3.987   5.298  0.0581 -1.6311 -1.8253
 7685SOL    HW234689   1.597   3.859   5.357  1.3416  2.0632 -0.6548
 7686SOL     OW34690   1.978   3.587   8.879 -0.2033  0.0122  0.0165
 7686SOL    HW134691   1.968   3.673   8.840 -1.1514 -0.1759 -0.1644
 7686SOL    HW234692   1.972   3.529   8.803  1.9976  1.6181 -1.3457
 7687SOL     OW34693   1.639   4.242   2.497 -0.1908  0.5196 -0.2927
 7687SOL    HW134694   1.619   4.333   2.475 -1.3302  0.5358  0.8020
 7687SOL    HW234695   1.709   4.222   2.435 -1.6288  2.2972 -2.4885
 7688SOL     OW34696   1.095   1.313   7.272 -0.1270 -0.7106 -0.0602
 7688SOL    HW134697   1.177   1.297   7.318 -0.5257  0.0760  0.9415
 7688SOL    HW234698   1.054   1.227   7.261  1.6084 -1.4101 -1.1167
 7689SOL     OW34699   4.389   1.592   0.218  0.4649  0.4318 -0.0147
 7689SOL    HW134700   4.376   1.585   0.312  1.2494  0.1353  0.0727
 7689SOL    HW234701   4.325   1.524   0.197  0.7058  0.3548 -0.5044
 7690SOL     OW34702   3.550   3.262  12.879 -0.3222 -0.1578 -0.1615
 7690SOL    HW134703   3.524   3.217  12.960  0.8649 -1.3316 -0.4376
 7690SOL    HW234704   3.575   3.350  12.907  0.4759 -0.3732 -0.1942
 7691SOL     OW34705   2.496   0.069   3.687 -0.2720  0.2399 -0.3405
 7691SOL    HW134706   2.457   0.075   3.775 -0.3854  0.0761 -0.3802
 7691SOL    HW234707   2.419   0.108   3.645 -1.1225  0.0797  1.0583
 7692SOL     OW34708   2.678   2.543   7.218 -0.1604  0.1050 -0.3449
 7692SOL    HW134709   2.643   2.631   7.234  0.8650  0.7882 -1.8912
 7692SOL    HW234710   2.761   2.540   7.266 -0.4345  1.2765  0.2042
 7693SOL     OW34711   1.614   4.322   7.726 -1.2921  0.0281 -0.0968
 7693SOL    HW134712   1.592   4.407   7.762  1.5355  1.1880 -1.1003
 7693SOL    HW234713   1.698   4.314   7.772 -0.5493 -0.0183 -1.4583
 7694SOL     OW34714   2.221   0.540   9.098  0.0582 -0.1092  0.7169
 7694SOL    HW134715   2.310   0.504   9.102 -0.3345 -1.3516 -2.0527
 7694SOL    HW234716   2.180   0.467   9.144  0.8746  0.1817  1.9004
 7695SOL     OW34717   2.411   2.850   1.372 -0.8659  0.2594 -0.0667
 7695SOL    HW134718   2.383   2.794   1.445 -0.9194  0.3731 -0.0011
 7695SOL    HW234719   2.419   2.936   1.412 -3.2592  1.6381 -2.6084
 7696SOL     OW34720   0.396   1.156   9.029 -0.5801 -0.5841 -0.6073
 7696SOL    HW134721   0.431   1.241   9.053 -0.3233 -1.2537  1.3825
 7696SOL    HW234722   0.326   1.155   9.094 -2.3919 -1.6597 -2.5564
 7697SOL     OW34723   4.153   1.524   1.578 -0.4487  0.4079 -0.3446
 7697SOL    HW134724   4.074   1.576   1.586 -0.2064  0.9776 -1.6593
 7697SOL    HW234725   4.203   1.559   1.651 -2.2421 -3.0900  2.5989
 7698SOL     OW34726   4.235   1.230   6.036 -0.7060 -0.0949 -0.3114
 7698SOL    HW134727   4.251   1.153   5.981 -2.1662 -0.1412 -0.6504
 7698SOL    HW234728   4.302   1.290   6.002 -0.5103  0.2584  0.6963
 7699SOL     OW34729   3.701   3.325   1.913  0.2252  0.0136 -0.1649
 7699SOL    HW134730   3.658   3.327   1.827  0.1121 -0.6977 -0.1234
 7699SOL    HW234731   3.780   3.379   1.909 -0.5285  1.0141 -1.6204
 7700SOL     OW34732   0.183   1.117   7.915  0.2817  0.4159 -0.1517
 7700SOL    HW134733   0.218   1.093   8.001 -1.2624  0.0126  0.3506
 7700SOL    HW234734   0.092   1.106   7.941  0.1573  1.7092 -0.0210
 7701SOL     OW34735   4.377   1.594   7.410 -0.5542 -0.3730  0.5960
 7701SOL    HW134736   4.341   1.647   7.481  0.6669 -1.7594  2.2379
 7701SOL    HW234737   4.309   1.527   7.404  0.5793 -1.3024 -1.7743
 7702SOL     OW34738   1.877   0.642   8.117  0.9617 -0.0852 -0.3642
 7702SOL    HW134739   1.812   0.573   8.128  1.1912 -0.0976  0.8968
 7702SOL    HW234740   1.827   0.714   8.078  0.3537 -0.1212  0.3407
 7703SOL     OW34741   0.745   2.524   5.104 -0.1889 -0.4217 -0.3291
 7703SOL    HW134742   0.760   2.589   5.173 -0.5471 -1.0390  0.3385
 7703SOL    HW234743   0.837   2.499   5.100  0.2540  1.5154 -2.1843
 7704SOL     OW34744   0.716   4.588   4.677  0.4270  0.3966  0.0711
 7704SOL    HW134745   0.678   4.607   4.591 -0.9922 -1.7758  0.2211
 7704SOL    HW234746   0.803   4.612   4.647  0.1302  1.3346 -0.0447
 7705SOL     OW34747   2.587   3.063   5.400 -0.3946  0.1837  0.1806
 7705SOL    HW134748   2.493   3.054   5.416 -0.6438  0.2899 -1.2066
 7705SOL    HW234749   2.588   2.995   5.333  2.1033  1.2430 -0.8791
 7706SOL     OW34750   3.191   2.632   3.303 -0.8002  0.1549  1.0212
 7706SOL    HW134751   3.139   2.662   3.377 -2.0662  1.3751 -0.3561
 7706SOL    HW234752   3.120   2.631   3.239 -0.3885 -0.1045  0.5712
 7707SOL     OW34753   2.963   2.912  14.339  0.1139  0.5111 -0.1731
 7707SOL    HW134754   2.871   2.894  14.320  0.4714 -3.2763  1.5968
 7707SOL    HW234755   3.002   2.911  14.252  1.4188 -1.9279  0.4248
 7708SOL     OW34756   1.576   2.855   2.593  0.1313 -0.2545  0.0364
 7708SOL    HW134757   1.545   2.926   2.537 -0.3379  0.4004  1.1335
 7708SOL    HW234758   1.550   2.779   2.540  0.5447  0.7178 -1.5596
 7709SOL     OW34759   3.563   2.091   5.875  0.4881 -0.1698 -0.5041
 7709SOL    HW134760   3.593   2.155   5.811  0.0615  0.8976  0.3580
 7709SOL    HW234761   3.468   2.103   5.880  0.4544 -0.8089  0.4867
 7710SOL     OW34762   1.696   0.718   5.815  0.0730  0.6024  0.0161
 7710SOL    HW134763   1.602   0.720   5.795  0.4552  0.7933 -1.7887
 7710SOL    HW234764   1.684   0.754   5.903 -0.0249  0.6234 -0.0053
 7711SOL     OW34765   1.878   1.876   3.343 -0.9439  0.8251 -0.4803
 7711SOL    HW134766   1.941   1.851   3.410 -1.8563 -2.3377 -0.7639
 7711SOL    HW234767   1.835   1.952   3.382 -0.7068  1.3375 -1.2161
 7712SOL     OW34768   1.053   3.136   3.681  0.0689 -0.3200 -0.6330
 7712SOL    HW134769   1.040   3.190   3.603 -0.9719 -1.8318 -1.5035
 7712SOL    HW234770   1.008   3.058   3.649  0.7509 -2.3794  3.4267
 7713SOL     OW34771   4.261   4.645   4.110 -0.0359 -0.1831 -0.1476
 7713SOL    HW134772   4.287   4.642   4.018 -1.7275 -0.8872 -0.5901
 7713SOL    HW234773   4.208   4.724   4.107 -1.4489 -1.0885  0.9953
 7714SOL     OW34774   3.991   3.423   7.480  0.1675 -0.0290 -0.1460
 7714SOL    HW134775   4.049   3.349   7.496  0.0214  0.2932  1.8034
 7714SOL    HW234776   3.987   3.465   7.566  1.4297 -0.5396  0.1531
 7715SOL     OW34777   4.145   1.193  13.924 -0.5597 -0.3898 -0.2684
 7715SOL    HW134778   4.110   1.266  13.975 -1.8124 -2.4158  1.7678
 7715SOL    HW234779   4.062   1.146  13.927 -0.1074 -1.1131  1.1235
 7716SOL     OW34780   0.924   2.615   6.931 -0.2727 -0.4656 -0.0087
 7716SOL    HW134781   0.832   2.586   6.931 -0.4804  0.1860  0.1777
 7716SOL    HW234782   0.927   2.629   7.025 -0.0362 -1.3429  0.1067
 7717SOL     OW34783   2.548   1.718   1.165 -0.1916  0.2964  0.3652
 7717SOL    HW134784   2.466   1.678   1.135 -0.2242  0.5766  0.0836
 7717SOL    HW234785   2.517   1.782   1.229 -1.5843 -0.6861  0.6848
 7718SOL     OW34786   0.136   2.496  15.432  0.7415 -0.3287  0.4998
 7718SOL    HW134787   0.169   2.571  15.382  1.9114 -1.2918 -0.1596
 7718SOL    HW234788   0.046   2.490  15.399  1.1148  0.2344 -0.6326
 7719SOL     OW34789   2.555   4.716  10.539  0.5220  0.1283  0.1321
 7719SOL    HW134790   2.507   0.038  10.481 -1.9111 -2.1218 -0.1641
 7719SOL    HW234791   2.555   0.034  10.617  1.3352 -0.9642  0.9012
 7720SOL     OW34792   4.073   1.189   4.045 -0.6989 -0.2559  0.5707
 7720SOL    HW134793   4.065   1.182   3.949  0.6792 -1.6346  0.5542
 7720SOL    HW234794   3.983   1.215   4.066 -0.3506 -0.3264  2.1507
 7721SOL     OW34795   1.209   2.690   7.923  0.2800 -0.0808  0.5422
 7721SOL    HW134796   1.164   2.674   8.007 -0.8330  0.6295  0.0832
 7721SOL    HW234797   1.224   2.783   7.913  0.2694  0.1045  2.1781
 7722SOL     OW34798   0.674   4.654   8.754  0.0635  0.3504 -0.3491
 7722SOL    HW134799   0.681   4.673   8.848 -0.8204 -1.0321 -0.0000
 7722SOL    HW234800   0.642   4.564   8.759 -2.0199  1.0993 -0.1846
 7723SOL     OW34801   4.715   3.063   7.119  0.2903 -0.0465  0.2021
 7723SOL    HW134802   0.017   3.101   7.197  3.5539 -1.0831 -0.9096
 7723SOL    HW234803   0.048   3.047   7.056  1.3473  0.7132  1.2069
 7724SOL     OW34804   0.209   2.106  13.876 -0.4936  0.6849 -0.4051
 7724SOL    HW134805   0.170   2.161  13.944 -0.0645  0.1774  0.2482
 7724SOL    HW234806   0.295   2.148  13.877  0.5835 -1.5377  0.4369
 7725SOL     OW34807   0.049   3.941   8.516  0.0798  0.2861 -0.5912
 7725SOL    HW134808   0.081   3.932   8.606 -0.1069  0.9670 -0.4564
 7725SOL    HW234809   4.736   4.023   8.521 -1.7047 -0.8246 -0.0098
 7726SOL     OW34810   1.065   3.300   3.909 -0.8222  0.5865 -0.0139
 7726SOL    HW134811   1.064   3.245   3.830 -0.2400 -0.3323  0.6144
 7726SOL    HW234812   1.015   3.374   3.875  0.4589  1.6614  0.4600
 7727SOL     OW34813   1.937   0.359  10.702 -0.2784 -0.2704 -0.7110
 7727SOL    HW134814   2.015   0.348  10.649 -1.0146  0.9204 -2.0550
 7727SOL    HW234815   1.908   0.445  10.672  1.9051  1.0947  1.1308
 7728SOL     OW34816   2.514   1.920  11.755  0.9086  0.4258  0.3088
 7728SOL    HW134817   2.565   1.991  11.794 -1.1310  2.2082 -0.3082
 7728SOL    HW234818   2.429   1.958  11.737  0.2981 -0.0653  2.0974
 7729SOL     OW34819   3.458   3.257   4.002  0.5032  0.0077  0.9283
 7729SOL    HW134820   3.437   3.227   4.090  0.3612 -0.8751  0.5882
 7729SOL    HW234821   3.542   3.213   3.986 -0.1452 -1.5525  1.8688
 7730SOL     OW34822   2.870   3.051   2.588 -0.4927  0.0821 -0.3389
 7730SOL    HW134823   2.789   3.032   2.635 -0.5504 -0.5153 -0.6821
 7730SOL    HW234824   2.841   3.094   2.508  1.3689  1.0356 -0.5001
 7731SOL     OW34825   1.218   3.885  15.004 -0.2576 -0.1461  0.3761
 7731SOL    HW134826   1.269   3.937  15.067  2.2822 -0.0075 -1.7948
 7731SOL    HW234827   1.289   3.829  14.973 -1.3658 -1.1858 -0.3113
 7732SOL     OW34828   2.990   4.561  11.306  0.3412  0.0531  0.3029
 7732SOL    HW134829   2.990   4.556  11.210  1.5107 -0.3490  0.3244
 7732SOL    HW234830   3.025   4.473  11.319 -0.9772 -0.4049  0.6787
 7733SOL     OW34831   1.711   0.670  16.945  0.0897 -0.4334 -0.1816
 7733SOL    HW134832   1.768   0.702  17.015  1.8030  1.3210 -2.4109
 7733SOL    HW234833   1.639   0.634  16.997  0.0385 -1.4629 -0.9747
 7734SOL     OW34834   4.141   1.269   2.681  0.5507  0.2626  0.0658
 7734SOL    HW134835   4.113   1.342   2.626  2.4262 -0.5463 -1.9757
 7734SOL    HW234836   4.198   1.227   2.616 -1.3997 -2.3390  0.0408
 7735SOL     OW34837   3.189   3.120  15.619  0.1505 -0.6976 -0.0185
 7735SOL    HW134838   3.183   3.134  15.524 -0.9588  0.1771  0.1755
 7735SOL    HW234839   3.100   3.146  15.645 -0.3802 -2.0642 -0.4274
 7736SOL     OW34840   3.371   1.403  15.645  0.5435  0.3718 -0.1992
 7736SOL    HW134841   3.408   1.419  15.732  0.1376  1.0460 -0.1513
 7736SOL    HW234842   3.326   1.485  15.624  3.4643  1.6768 -1.4827
 7737SOL     OW34843   3.255   3.379   7.695 -0.2557  0.2138  0.0095
 7737SOL    HW134844   3.189   3.334   7.746  0.3071 -1.7946 -1.0245
 7737SOL    HW234845   3.268   3.445   7.762 -3.8932  0.7931  0.1115
 7738SOL     OW34846   2.396   2.009   7.555  0.2906  0.2207  0.1034
 7738SOL    HW134847   2.474   2.018   7.501  0.9896  0.4047  1.1509
 7738SOL    HW234848   2.359   1.925   7.529  0.5892  0.2060 -0.2731
 7739SOL     OW34849   2.211   1.165  13.032  0.0994  0.4812  0.1392
 7739SOL    HW134850   2.237   1.091  12.977  1.7558  1.8945 -1.0053
 7739SOL    HW234851   2.276   1.233  13.013 -0.8618  1.2660 -0.3117
 7740SOL     OW34852   3.182   2.970   1.338  0.0778  1.1915  0.3099
 7740SOL    HW134853   3.113   2.966   1.272  1.6408 -0.0934 -1.2125
 7740SOL    HW234854   3.132   3.001   1.414 -1.2854  1.7084 -0.7788
 7741SOL     OW34855   0.100   3.632  16.293  0.2471 -0.2414  0.7203
 7741SOL    HW134856   0.146   3.714  16.275  1.3180 -0.7677  1.0521
 7741SOL    HW234857   0.163   3.575  16.337 -0.5140 -1.0996  0.7180
 7742SOL     OW34858   0.001   1.397   4.862 -0.1139  0.3705 -0.0314
 7742SOL    HW134859   0.039   1.310   4.849 -1.6936 -0.4741  0.9572
 7742SOL    HW234860   4.651   1.359   4.871 -0.1470  0.0936 -1.5146
 7743SOL     OW34861   1.193   1.569   5.454  0.3002  0.1983  0.2632
 7743SOL    HW134862   1.152   1.576   5.541  2.0280  1.8180  0.9303
 7743SOL    HW234863   1.275   1.616   5.466 -0.1084  0.8002  0.6679
 7744SOL     OW34864   2.289   0.414   5.599 -0.1762 -0.3054 -0.0123
 7744SOL    HW134865   2.262   0.406   5.691 -0.0459  0.5896  0.1023
 7744SOL    HW234866   2.231   0.485   5.573  1.0390  0.0126 -1.8139
 7745SOL     OW34867   1.416   3.111   3.578  1.0162  0.1281 -0.2380
 7745SOL    HW134868   1.360   3.079   3.649  2.2083 -0.9416  0.2258
 7745SOL    HW234869   1.364   3.076   3.506  1.0565 -1.3738  0.4560
 7746SOL     OW34870   2.514   3.559   7.165 -0.2889  0.5913 -0.1288
 7746SOL    HW134871   2.471   3.606   7.237  1.3476  3.0351 -0.7397
 7746SOL    HW234872   2.436   3.544   7.112 -0.9005 -1.2108  1.3145
 7747SOL     OW34873   3.889   0.958  15.606 -0.0431 -0.1715 -0.8141
 7747SOL    HW134874   3.801   0.938  15.574 -0.2216 -1.8381  0.7100
 7747SOL    HW234875   3.882   1.054  15.598  0.0493 -0.2222 -1.4777
 7748SOL     OW34876   2.607   3.448   3.675  0.0401 -0.0435  0.5960
 7748SOL    HW134877   2.522   3.456   3.720 -0.4726  0.9487 -0.5611
 7748SOL    HW234878   2.575   3.431   3.587 -0.4980  1.3599  0.5202
 7749SOL     OW34879   0.047   3.517  16.600  0.1444  0.2232 -0.1193
 7749SOL    HW134880   4.715   3.547  16.659  1.6897  2.0744  0.7559
 7749SOL    HW234881   0.119   3.578  16.616  0.8305 -0.0972 -2.0325
 7750SOL     OW34882   2.275   1.012   6.698 -0.1440  0.1757  0.0728
 7750SOL    HW134883   2.236   1.099   6.710  1.7175  0.9162  0.8552
 7750SOL    HW234884   2.234   0.966   6.625 -1.2401 -1.4520  1.7132
 7751SOL     OW34885   1.973   4.623  13.500 -0.3602  0.6865 -0.1679
 7751SOL    HW134886   1.947   4.699  13.448  0.1876  2.5139  2.2163
 7751SOL    HW234887   1.887   4.580  13.506 -0.5186  1.1029  0.4866
 7752SOL     OW34888   1.317   4.690  16.821  0.2407  0.2627  0.5445
 7752SOL    HW134889   1.231   4.697  16.781 -0.4447 -0.6763  1.8607
 7752SOL    HW234890   1.361   0.031  16.785  1.3167  0.0756  1.4312
 7753SOL     OW34891   0.341   1.761   9.700  0.1590  0.1494  0.0791
 7753SOL    HW134892   0.270   1.824   9.708 -0.3860 -0.4545  0.0219
 7753SOL    HW234893   0.310   1.697   9.765 -2.2852  0.1350 -1.1034
 7754SOL     OW34894   4.690   2.176   3.687  0.4258 -0.1374  0.2451
 7754SOL    HW134895   4.650   2.107   3.635  0.0368  1.1075 -1.1127
 7754SOL    HW234896   4.698   2.126   3.768 -0.6643  1.1922  1.1721
 7755SOL     OW34897   2.213   4.055   5.363 -0.0836 -0.4571 -0.0292
 7755SOL    HW134898   2.174   4.016   5.441  0.2934 -2.9180 -1.0745
 7755SOL    HW234899   2.141   4.033   5.304  0.1193 -0.7480 -0.1651
 7756SOL     OW34900   4.421   4.634   2.758 -0.0526 -0.3435 -0.0908
 7756SOL    HW134901   4.337   4.679   2.770 -0.0063 -0.3076  0.0982
 7756SOL    HW234902   4.406   4.564   2.821 -1.4040  1.0922  1.1863
 7757SOL     OW34903   0.101   4.583  13.097 -0.0714 -0.0221  0.3539
 7757SOL    HW134904   0.159   4.633  13.154 -0.1277 -1.3232  1.5621
 7757SOL    HW234905   0.101   4.636  13.018  0.7741 -0.7923 -0.1507
 7758SOL     OW34906   1.727   3.767   3.926 -0.9201 -0.7798 -0.4443
 7758SOL    HW134907   1.690   3.847   3.890  1.0926  0.8084  1.0365
 7758SOL    HW234908   1.652   3.708   3.926 -2.0243  0.6431 -2.0790
 7759SOL     OW34909   1.161   2.264   7.322  0.1201  0.0875  0.4410
 7759SOL    HW134910   1.185   2.182   7.366  3.3096  1.1023  0.5701
 7759SOL    HW234911   1.109   2.224   7.252 -1.2673  1.2685  0.8091
 7760SOL     OW34912   2.036   1.058   5.929  0.0604  0.1245 -0.2572
 7760SOL    HW134913   2.072   1.147   5.923  1.2823 -0.2999  0.8386
 7760SOL    HW234914   2.027   1.046   6.023  0.6623  0.4611 -0.1554
 7761SOL     OW34915   3.989   1.383   3.507 -0.1239  0.2279 -0.3343
 7761SOL    HW134916   3.968   1.293   3.532 -0.4922  0.9795  2.1479
 7761SOL    HW234917   4.045   1.357   3.434 -0.3247  2.4922 -1.2983
 7762SOL     OW34918   0.870   0.663   6.954 -0.1145 -0.0736  0.1092
 7762SOL    HW134919   0.819   0.745   6.953  1.2742  0.7976  1.1830
 7762SOL    HW234920   0.880   0.649   6.860 -0.0786  0.6701 -0.0010
 7763SOL     OW34921   2.746   3.078   5.595 -0.3749  0.0530  0.2794
 7763SOL    HW134922   2.683   3.083   5.523  0.6823 -0.9071 -0.7032
 7763SOL    HW234923   2.829   3.092   5.550  0.1414 -0.7962  0.9772
 7764SOL     OW34924   0.991   2.296   8.182 -0.1239  0.2863 -0.4169
 7764SOL    HW134925   0.924   2.308   8.250 -0.3183 -0.8876 -0.4042
 7764SOL    HW234926   1.073   2.311   8.229 -0.8052 -1.4873  1.3178
 7765SOL     OW34927   0.898   1.363   8.025  0.3914  0.3175 -0.3321
 7765SOL    HW134928   0.836   1.303   7.983 -0.1481  0.4690  0.2531
 7765SOL    HW234929   0.922   1.313   8.103  0.7033  0.4005 -0.3752
 7766SOL     OW34930   2.750   0.821   3.644 -0.3156 -0.2195  0.0867
 7766SOL    HW134931   2.694   0.891   3.609 -0.8854 -2.1910 -2.9393
 7766SOL    HW234932   2.708   0.740   3.615 -0.4000 -0.3704  0.6262
 7767SOL     OW34933   1.702   3.034  11.895 -0.5355  0.2229 -0.0670
 7767SOL    HW134934   1.717   2.940  11.906  1.0624  0.2962 -1.6249
 7767SOL    HW234935   1.678   3.071  11.980  2.7234  2.4106 -0.1229
 7768SOL     OW34936   0.417   0.725   5.443 -0.2481  0.4680 -0.4713
 7768SOL    HW134937   0.330   0.765   5.440  0.3098  1.7045  0.3918
 7768SOL    HW234938   0.409   0.660   5.513 -2.4408 -0.9016 -1.9686
 7769SOL     OW34939   1.129   3.446   0.745 -0.0019  0.0912 -0.2827
 7769SOL    HW134940   1.177   3.460   0.826 -0.6895  1.3964 -0.0987
 7769SOL    HW234941   1.186   3.471   0.673  0.6517  0.4761  0.3720
 7770SOL     OW34942   2.757   0.388   4.412  0.1688 -0.1815 -0.1207
 7770SOL    HW134943   2.786   0.370   4.502  0.5228 -1.0163 -0.3926
 7770SOL    HW234944   2.738   0.298   4.384 -0.5607 -0.8200  2.4682
 7771SOL     OW34945   3.436   2.452   2.674 -0.4462 -0.0163 -0.2013
 7771SOL    HW134946   3.472   2.469   2.761  0.0541  0.5685 -0.5230
 7771SOL    HW234947   3.389   2.531   2.647  1.6388  1.4774  0.5673
 7772SOL     OW34948   3.031   1.497   9.478 -0.0223 -0.5098  0.3629
 7772SOL    HW134949   3.011   1.568   9.538 -1.6975 -1.6777  1.1769
 7772SOL    HW234950   3.085   1.528   9.405 -0.6112  0.9551  0.5596
 7773SOL     OW34951   1.231   4.378   7.751  0.7038 -0.5089  0.4042
 7773SOL    HW134952   1.248   4.295   7.705 -0.4822 -0.8858  0.6331
 7773SOL    HW234953   1.187   4.340   7.827 -1.6637 -0.1343 -0.7758
 7774SOL     OW34954   0.571   0.585   5.995  0.0334  0.0639 -0.0858
 7774SOL    HW134955   0.589   0.625   5.909 -0.9739  0.9908  0.1324
 7774SOL    HW234956   0.481   0.607   6.018 -0.2375  1.7182 -2.6382
 7775SOL     OW34957   0.825   3.402   5.331 -0.0558  0.5496  0.4984
 7775SOL    HW134958   0.897   3.442   5.380  2.0392 -0.0141 -2.1654
 7775SOL    HW234959   0.866   3.383   5.247 -0.1019  1.2068  0.3273
 7776SOL     OW34960   2.818   2.543  10.785  0.2061  0.3413 -0.0247
 7776SOL    HW134961   2.748   2.594  10.826  0.9632  0.6950  0.8057
 7776SOL    HW234962   2.800   2.565  10.694  0.3459 -0.3239 -0.2187
 7777SOL     OW34963   1.848   3.750  16.831  0.1592  0.6444  0.1930
 7777SOL    HW134964   1.843   3.834  16.785  2.3194 -0.3787 -1.9679
 7777SOL    HW234965   1.772   3.707  16.793  1.3881  1.0812 -2.7849
 7778SOL     OW34966   0.660   0.404  10.984 -0.3919 -0.2592 -0.1832
 7778SOL    HW134967   0.647   0.473  11.049 -0.6173 -1.3973  0.9920
 7778SOL    HW234968   0.569   0.372  10.984 -0.5125  0.0608  0.9794
 7779SOL     OW34969   3.308   3.824   5.102  0.0680  0.3586 -0.5465
 7779SOL    HW134970   3.360   3.779   5.035  1.0762  1.4834 -0.5086
 7779SOL    HW234971   3.232   3.766   5.106  1.9007 -1.8207  2.1071
 7780SOL     OW34972   1.449   4.069   8.862 -0.1721  0.2749 -0.2930
 7780SOL    HW134973   1.366   4.117   8.857 -0.3060  0.3419  2.6249
 7780SOL    HW234974   1.450   4.047   8.955  1.2235  3.7877  0.5083
 7781SOL     OW34975   2.074   3.394  14.395  0.3696 -0.5993 -0.3935
 7781SOL    HW134976   2.122   3.311  14.399  3.3460  1.1469  0.7357
 7781SOL    HW234977   2.054   3.401  14.488  2.8169  2.7983 -0.1063
 7782SOL     OW34978   1.715   4.542   0.701  0.0056 -0.2985  0.1730
 7782SOL    HW134979   1.686   4.632   0.717  0.8181  0.2613 -1.4748
 7782SOL    HW234980   1.730   4.516   0.792 -0.1328 -1.0432 -0.0132
 7783SOL     OW34981   0.675   0.073   8.431 -0.2177  0.0628 -0.2208
 7783SOL    HW134982   0.669   0.169   8.431 -3.1438 -0.1070  2.6175
 7783SOL    HW234983   0.600   0.039   8.480 -0.4574 -0.0538 -0.6739
 7784SOL     OW34984   1.749   2.270  11.968  0.3242 -0.0216  0.3528
 7784SOL    HW134985   1.738   2.259  12.063 -0.3115 -2.9192 -0.0452
 7784SOL    HW234986   1.728   2.362  11.955  1.2744  0.0260 -0.7831
 7785SOL     OW34987   1.653   1.805  11.647 -0.4505 -0.1202 -0.6194
 7785SOL    HW134988   1.561   1.816  11.671  1.0040  3.9747  2.9828
 7785SOL    HW234989   1.645   1.794  11.552  1.4246  0.7688 -0.8835
 7786SOL     OW34990   4.350   0.959   1.165 -0.1272 -0.1467 -0.2487
 7786SOL    HW134991   4.309   0.910   1.236 -3.0126  0.2742 -1.6328
 7786SOL    HW234992   4.370   1.031   1.225 -0.4308  1.9193 -2.6314
 7787SOL     OW34993   2.223   1.801  15.813 -0.1677 -0.4021 -0.5247
 7787SOL    HW134994   2.136   1.799  15.774 -1.0744  0.6723  1.4509
 7787SOL    HW234995   2.279   1.768  15.743 -1.0896  0.6939 -1.7702
 7788SOL     OW34996   3.101   1.596   1.257  0.2242 -0.1130  0.3546
 7788SOL    HW134997   3.194   1.570   1.262 -0.3920 -2.6902 -1.4311
 7788SOL    HW234998   3.098   1.637   1.343  1.2108 -0.0135  0.3448
 7789SOL     OW34999   4.086   0.957   8.093 -0.3183 -0.0784  0.2742
 7789SOL    HW135000   4.103   0.983   8.184  1.4111 -0.5888  0.1056
 7789SOL    HW235001   3.994   0.979   8.081  0.8214  2.5034 -3.5732
 7790SOL     OW35002   3.050   1.936   5.244 -0.4398 -0.1112 -0.3799
 7790SOL    HW135003   3.138   1.973   5.234  0.4202 -2.2015 -0.6354
 7790SOL    HW235004   3.047   1.876   5.319 -0.1532  1.5659  0.9546
 7791SOL     OW35005   1.355   2.880   2.780 -0.0584 -0.3779 -0.4111
 7791SOL    HW135006   1.415   2.838   2.718  1.3095  2.3743 -0.9617
 7791SOL    HW235007   1.308   2.935   2.717 -1.2527 -0.2445  0.5962
 7792SOL     OW35008   1.480   0.776   4.696  0.6612 -0.3047 -0.1892
 7792SOL    HW135009   1.430   0.858   4.694 -1.9618 -1.9120 -0.7033
 7792SOL    HW235010   1.417   0.704   4.694 -1.0683  1.1749  0.5956
 7793SOL     OW35011   3.983   1.484   4.114 -0.0145 -0.0291  0.0297
 7793SOL    HW135012   4.038   1.469   4.191 -1.0713 -4.1963 -0.0826
 7793SOL    HW235013   4.046   1.544   4.072  0.9052 -0.9893  0.0310
 7794SOL     OW35014   1.652   2.273   6.496 -0.7291 -0.1638  0.0222
 7794SOL    HW135015   1.611   2.342   6.548 -0.2645  0.5341 -0.5353
 7794SOL    HW235016   1.576   2.230   6.458  0.5108 -1.2577 -1.2607
 7795SOL     OW35017   3.327   1.020   5.042  0.0658  0.4307  0.1081
 7795SOL    HW135018   3.367   1.105   5.026  2.0691 -0.4681  0.3368
 7795SOL    HW235019   3.268   1.035   5.117  2.1676  0.9595  1.6468
 7796SOL     OW35020   1.940   3.390  14.727 -0.0410  0.0413  0.4311
 7796SOL    HW135021   1.889   3.379  14.807 -1.4961 -1.2339 -0.6832
 7796SOL    HW235022   2.018   3.421  14.773  1.2049 -1.1624 -0.8454
 7797SOL     OW35023   1.631   0.582   6.087  0.2877 -0.3377 -0.4071
 7797SOL    HW135024   1.626   0.504   6.033 -1.9615  0.5412 -1.4724
 7797SOL    HW235025   1.539   0.607   6.102 -0.3356 -1.9713 -1.5229
 7798SOL     OW35026   3.370   4.283   2.087  0.8526 -0.4682 -0.0690
 7798SOL    HW135027   3.300   4.219   2.077  1.7786 -1.0630 -2.6914
 7798SOL    HW235028   3.326   4.353   2.135  1.2605 -0.2224 -0.0539
 7799SOL     OW35029   0.046   1.210   9.085 -0.8252 -0.6703 -0.2473
 7799SOL    HW135030   0.105   1.199   9.160 -0.8147  0.9408 -0.0100
 7799SOL    HW235031   0.036   1.305   9.089 -0.8956 -0.7275  0.9536
 7800SOL     OW35032   4.116   2.262  16.790  0.1170 -0.1286 -0.5372
 7800SOL    HW135033   4.128   2.354  16.767 -0.0561 -0.2327 -1.0445
 7800SOL    HW235034   4.189   2.222  16.743  0.6379  0.2297 -0.0210
 7801SOL     OW35035   3.153   0.167   2.562 -0.2292 -0.1880  0.0312
 7801SOL    HW135036   3.115   0.093   2.609  2.5760 -2.4822 -1.3017
 7801SOL    HW235037   3.067   0.209   2.553 -0.0951  0.2898  1.0269
 7802SOL     OW35038   3.203   2.243  10.365 -0.4011 -0.2372  0.5929
 7802SOL    HW135039   3.219   2.180  10.436  2.9834  0.0631  0.0997
 7802SOL    HW235040   3.113   2.220  10.344 -0.2527  0.4674 -0.7763
 7803SOL     OW35041   3.458   3.100  17.263 -0.1365  0.1869  0.5595
 7803SOL    HW135042   3.512   3.076  17.338 -1.3724 -0.4683  1.2341
 7803SOL    HW235043   3.495   3.185  17.241 -0.6635  0.9151  2.5353
 7804SOL     OW35044   2.179   0.466  16.152  0.2366 -0.1143  0.0617
 7804SOL    HW135045   2.197   0.559  16.161 -0.1555 -0.1108  0.8288
 7804SOL    HW235046   2.205   0.432  16.238  0.7967  2.4558  0.9063
 7805SOL     OW35047   4.176   3.734   0.347  0.6418 -0.3486  0.5916
 7805SOL    HW135048   4.237   3.742   0.421 -0.7980 -4.1212  2.2108
 7805SOL    HW235049   4.098   3.744   0.402  1.4704 -1.4362  1.9701
 7806SOL     OW35050   2.922   4.050   4.482  0.4432 -0.0076  0.1067
 7806SOL    HW135051   2.900   4.050   4.388  0.4726 -0.5402  0.1016
 7806SOL    HW235052   2.885   4.132   4.514  2.4074  0.7344  0.4854
 7807SOL     OW35053   1.950   2.500   3.021 -0.0063  0.2872 -0.1138
 7807SOL    HW135054   2.033   2.544   3.038 -0.3768  1.1899 -0.6272
 7807SOL    HW235055   1.904   2.531   3.099  1.2575 -1.2646  1.2420
 7808SOL     OW35056   2.972   2.017   7.893 -0.1704 -0.0365  0.3846
 7808SOL    HW135057   2.972   2.036   7.799 -2.3454  2.3657  0.8736
 7808SOL    HW235058   2.920   1.937   7.896  1.4459 -1.1415 -0.8174
 7809SOL     OW35059   4.598   4.009   5.447 -0.0319 -1.1148 -0.3727
 7809SOL    HW135060   4.590   4.093   5.493 -1.3000 -0.6680 -1.3967
 7809SOL    HW235061   4.660   3.956   5.496  0.4090 -1.8700 -1.7341
 7810SOL     OW35062   3.764   3.214   4.883 -0.5993 -0.1002 -0.2105
 7810SOL    HW135063   3.716   3.231   4.803  1.5445  1.2788 -1.1992
 7810SOL    HW235064   3.825   3.287   4.876 -0.6241 -0.2092 -1.4003
 7811SOL     OW35065   3.538   0.924   7.689 -0.3361 -0.0924  0.4025
 7811SOL    HW135066   3.539   0.828   7.690  0.2342 -0.0650  2.3326
 7811SOL    HW235067   3.585   0.942   7.770 -0.7071 -0.5307  0.7194
 7812SOL     OW35068   0.495   1.850   4.076 -0.7563  0.1976  0.4045
 7812SOL    HW135069   0.556   1.806   4.017 -0.4993 -0.5734  1.2421
 7812SOL    HW235070   0.504   1.794   4.153 -4.2625 -0.2892  0.4408
 7813SOL     OW35071   1.368   1.581  12.172  0.2921 -0.2900  0.0693
 7813SOL    HW135072   1.457   1.615  12.164  0.4309 -0.1809  2.1184
 7813SOL    HW235073   1.341   1.621  12.254 -0.2393 -3.9160  1.6463
 7814SOL     OW35074   0.550   2.604   5.455  0.3964  0.1626  0.2482
 7814SOL    HW135075   0.543   2.670   5.523  1.2759  0.3835  0.1342
 7814SOL    HW235076   0.586   2.528   5.501 -0.5945  1.7422  3.5560
 7815SOL     OW35077   1.012   0.255   4.970  0.3187 -0.0615  0.0841
 7815SOL    HW135078   1.102   0.272   4.997  0.3132  1.3262 -0.7733
 7815SOL    HW235079   0.993   0.186   5.034 -2.1476 -1.8001 -2.4882
 7816SOL     OW35080   0.101   4.139   7.051  0.0259 -0.2331 -0.2274
 7816SOL    HW135081   0.021   4.161   7.099  0.1625 -2.0339  0.8614
 7816SOL    HW235082   0.081   4.049   7.023  3.6247 -0.7318 -1.2502
 7817SOL     OW35083   0.603   2.433  13.613 -0.1427  1.0788 -0.5220
 7817SOL    HW135084   0.622   2.352  13.567  0.1054  0.1076  1.2951
 7817SOL    HW235085   0.606   2.495  13.540  0.0235  2.2626  0.4952
 7818SOL     OW35086   1.810   0.537   6.284  0.3044 -0.0256  0.3592
 7818SOL    HW135087   1.738   0.549   6.222  1.0924 -0.4723 -0.6411
 7818SOL    HW235088   1.784   0.453   6.321  1.6161 -0.3457  0.5568
 7819SOL     OW35089   4.641   3.012   5.954 -0.5495 -0.6808  0.2235
 7819SOL    HW135090   4.553   2.990   5.983 -0.4680  0.1477  1.1153
 7819SOL    HW235091   4.688   2.999   6.036 -2.4671 -1.5898  1.1655
 7820SOL     OW35092   1.538   0.214   5.065  0.0661 -0.0067  0.5390
 7820SOL    HW135093   1.538   0.279   5.134 -0.2569 -0.1463  0.6698
 7820SOL    HW235094   1.612   0.161   5.097  0.3640  0.2419  0.2610
 7821SOL     OW35095   1.315   0.162   5.330 -0.3853  0.3887  0.8964
 7821SOL    HW135096   1.280   0.197   5.248 -0.0134 -0.2584  0.4566
 7821SOL    HW235097   1.239   0.107   5.350  0.5546  0.0023  3.4298
 7822SOL     OW35098   3.159   2.436   7.363 -0.4322  0.2335 -1.0053
 7822SOL    HW135099   3.231   2.377   7.384  0.9523  2.6560  1.0738
 7822SOL    HW235100   3.175   2.511   7.421 -0.6833 -2.3011  2.3558
 7823SOL     OW35101   0.142   3.980   4.982 -0.0568  0.3513  0.1497
 7823SOL    HW135102   0.140   3.963   4.887  0.3158 -0.3760  0.2716
 7823SOL    HW235103   0.217   3.924   5.002  0.3865  0.7238 -0.4603
 7824SOL     OW35104   2.396   2.593  15.034 -0.0459 -0.5689  0.0728
 7824SOL    HW135105   2.393   2.672  14.980 -0.0997 -1.1866 -0.8313
 7824SOL    HW235106   2.437   2.527  14.978 -0.7976 -2.0130  1.2388
 7825SOL     OW35107   2.087   0.275   2.399  0.4349  0.3400 -0.5470
 7825SOL    HW135108   2.051   0.363   2.392 -0.9775 -0.1578  0.4715
 7825SOL    HW235109   2.005   0.226   2.408  0.6632 -0.1643 -1.1996
 7826SOL     OW35110   1.166   2.342  16.386  0.0857  0.2710 -0.3758
 7826SOL    HW135111   1.082   2.339  16.339 -0.3764 -1.1045  0.5422
 7826SOL    HW235112   1.204   2.426  16.360 -0.4209  0.8659  0.7628
 7827SOL     OW35113   1.189   3.477   9.922 -0.1855  0.0465  0.3812
 7827SOL    HW135114   1.259   3.440   9.867 -1.3543 -0.0188 -1.0515
 7827SOL    HW235115   1.246   3.525   9.983  0.5364 -0.0714 -0.1988
 7828SOL     OW35116   2.007   3.748  17.183  0.3277  0.0671 -0.2375
 7828SOL    HW135117   1.959   3.829  17.201  1.6304  1.2326 -2.0174
 7828SOL    HW235118   2.061   3.784  17.113  1.3231  0.8575  0.9599
 7829SOL     OW35119   4.613   4.028   0.951  0.6526 -0.3438  0.2140
 7829SOL    HW135120   4.626   3.946   0.998  0.1513  0.0183  0.9963
 7829SOL    HW235121   4.611   4.093   1.021  2.7987 -1.7811  1.6057
 7830SOL     OW35122   0.332   4.113   3.586 -0.1819  0.2596  0.0747
 7830SOL    HW135123   0.244   4.147   3.598  0.2392  0.7462  1.6978
 7830SOL    HW235124   0.371   4.158   3.660 -0.4358  0.1659  0.2648
 7831SOL     OW35125   3.820   3.450   6.939 -0.7906 -0.4590  0.3025
 7831SOL    HW135126   3.778   3.488   7.016 -0.1472  0.0983  0.3840
 7831SOL    HW235127   3.891   3.398   6.978  0.0725  0.7014  0.2931
 7832SOL     OW35128   1.734   2.052   3.500  0.5176  0.3825 -0.3312
 7832SOL    HW135129   1.660   2.027   3.555  1.7059 -0.9490  0.6491
 7832SOL    HW235130   1.738   2.144   3.526 -0.0930  0.8887 -2.0158
 7833SOL     OW35131   2.519   1.884  15.592  0.6656 -0.6340  0.0780
 7833SOL    HW135132   2.501   1.899  15.499 -0.8487  2.0948  0.7949
 7833SOL    HW235133   2.461   1.809  15.600 -1.1138  0.6623 -0.5035
 7834SOL     OW35134   2.185   0.353   0.265  0.4805  0.3016 -0.0680
 7834SOL    HW135135   2.229   0.431   0.300 -0.5992  1.6921 -1.7858
 7834SOL    HW235136   2.095   0.383   0.260 -0.0713 -1.2288  0.8860
 7835SOL     OW35137   4.324   4.168   7.910 -0.6076 -0.8203 -0.3101
 7835SOL    HW135138   4.247   4.153   7.965 -1.4265  0.1136 -1.2141
 7835SOL    HW235139   4.383   4.094   7.924 -0.7827 -0.6234  1.4551
 7836SOL     OW35140   1.011   0.167  16.225 -0.8809 -0.1787  0.2872
 7836SOL    HW135141   1.020   0.262  16.223  0.3074 -0.3385 -2.4388
 7836SOL    HW235142   1.027   0.148  16.132 -0.7802 -0.9898  0.4686
 7837SOL     OW35143   1.507   2.007   3.686 -0.0570  0.3041  0.3948
 7837SOL    HW135144   1.532   1.975   3.773 -3.2545 -2.3354  0.3157
 7837SOL    HW235145   1.440   2.071   3.710 -1.0833 -0.2152 -1.1036
 7838SOL     OW35146   0.620   0.964  17.487  0.2037 -0.7066  0.3265
 7838SOL    HW135147   0.694   0.934  17.539 -1.7814 -3.5979  1.5037
 7838SOL    HW235148   0.617   1.056  17.513 -0.9806 -0.8362  0.6821
 7839SOL     OW35149   1.787   4.436   6.634  0.0059  0.4391  0.3053
 7839SOL    HW135150   1.853   4.381   6.591  0.5623  1.9637 -0.7857
 7839SOL    HW235151   1.799   4.513   6.579  1.5596  0.4036  0.5858
 7840SOL     OW35152   3.781   3.350  14.184 -0.0315  0.7970  0.1056
 7840SOL    HW135153   3.744   3.269  14.219  1.8699 -0.2898 -0.3738
 7840SOL    HW235154   3.738   3.370  14.101  0.7237 -0.5962 -0.6216
 7841SOL     OW35155   2.690   3.454   9.740 -0.1274 -0.0191 -0.3788
 7841SOL    HW135156   2.654   3.381   9.689  0.9359 -0.7570 -0.0712
 7841SOL    HW235157   2.761   3.485   9.683 -1.2068  1.1315 -1.1002
 7842SOL     OW35158   3.298   1.352   1.132 -0.3805  0.0049  0.7800
 7842SOL    HW135159   3.335   1.388   1.213 -2.5556  0.7161  1.4470
 7842SOL    HW235160   3.366   1.373   1.068 -0.5726  0.9654  0.8854
 7843SOL     OW35161   3.929   4.304   2.326  0.4066 -0.0149 -0.1875
 7843SOL    HW135162   3.974   4.222   2.347  0.0973  0.4278  2.1646
 7843SOL    HW235163   3.840   4.275   2.304  0.5405  0.2486 -1.0808
 7844SOL     OW35164   1.761   0.433  11.245  0.3894  0.1200 -0.3537
 7844SOL    HW135165   1.735   0.407  11.157 -1.1200 -1.0529  0.4412
 7844SOL    HW235166   1.857   0.431  11.240  0.3349 -1.4049 -0.8151
 7845SOL     OW35167   0.101   0.192   6.393 -0.1666 -0.3136 -0.2426
 7845SOL    HW135168   0.076   0.254   6.461 -0.5452 -2.8795  1.9727
 7845SOL    HW235169   0.196   0.178   6.399  0.0216  0.5575 -1.2544
 7846SOL     OW35170   4.396   4.224  14.480  0.1349  0.4999 -0.1446
 7846SOL    HW135171   4.304   4.202  14.498  0.3726 -0.4677 -0.1315
 7846SOL    HW235172   4.445   4.169  14.540 -0.1198  0.7658  0.3118
 7847SOL     OW35173   4.220   0.860   5.630 -0.3552 -0.2594  0.0449
 7847SOL    HW135174   4.296   0.872   5.574 -0.8245  2.1309 -0.1031
 7847SOL    HW235175   4.148   0.852   5.568 -0.6592 -1.1046  0.5004
 7848SOL     OW35176   0.842   3.035   4.777  0.4145  0.1649 -0.3161
 7848SOL    HW135177   0.886   3.067   4.698  0.0206  1.5022 -0.0051
 7848SOL    HW235178   0.780   3.108   4.787  0.2438 -0.0237 -0.0294
 7849SOL     OW35179   3.047   3.237   5.068  0.0832 -0.2381  0.1800
 7849SOL    HW135180   3.079   3.218   5.157 -0.8389 -0.5768  0.4366
 7849SOL    HW235181   3.123   3.281   5.030  0.9582 -0.8534  1.2289
 7850SOL     OW35182   1.709   2.030  16.922  0.0715 -0.2723  0.5739
 7850SOL    HW135183   1.755   2.091  16.980 -1.0698 -0.5461  1.7691
 7850SOL    HW235184   1.781   1.978  16.886 -1.7872 -4.0919  2.3819
 7851SOL     OW35185   0.715   3.488   6.426 -0.0062  0.6079 -0.0396
 7851SOL    HW135186   0.758   3.572   6.412 -2.7202  2.1789  0.9169
 7851SOL    HW235187   0.707   3.494   6.521 -0.5653  0.4438 -0.0743
 7852SOL     OW35188   4.072   3.665  14.622 -0.5825  0.0080  0.3182
 7852SOL    HW135189   4.043   3.586  14.667 -0.4832 -0.8074 -1.0853
 7852SOL    HW235190   4.080   3.728  14.694  1.5065 -1.2938  1.2228
 7853SOL     OW35191   1.016   3.915   2.774  0.0448  0.1779  0.1015
 7853SOL    HW135192   0.954   3.959   2.833 -1.7455 -0.4412 -1.3437
 7853SOL    HW235193   1.054   3.989   2.726 -0.5890  0.8622  0.6654
 7854SOL     OW35194   0.898   0.312   4.732  0.2740 -0.2601  0.1191
 7854SOL    HW135195   0.924   0.316   4.824 -0.2045  2.3014  0.1486
 7854SOL    HW235196   0.825   0.251   4.744  0.7045 -0.5348  1.3194
 7855SOL     OW35197   0.061   3.510  12.467  0.1349 -0.2566  0.3444
 7855SOL    HW135198   0.032   3.495  12.376 -1.9438  0.7247  0.8505
 7855SOL    HW235199   0.146   3.464  12.468  0.6595  0.6678 -0.9764
 7856SOL     OW35200   4.576   2.438   2.908 -0.1026 -0.2002  0.0968
 7856SOL    HW135201   4.531   2.441   2.824 -1.5428 -1.6154  0.8073
 7856SOL    HW235202   4.520   2.504   2.949  2.6257  2.0853  0.0910
 7857SOL     OW35203   0.136   1.111  11.461  0.1368  0.0852 -0.3466
 7857SOL    HW135204   0.184   1.118  11.379  2.4770  0.4935  1.0430
 7857SOL    HW235205   0.124   1.206  11.463  1.9562  0.3778 -3.0423
 7858SOL     OW35206   2.779   3.600  11.235  0.0937  0.0542  0.2240
 7858SOL    HW135207   2.736   3.667  11.182 -0.8622  1.4979  2.7915
 7858SOL    HW235208   2.754   3.621  11.325 -0.4960 -1.0560  0.3129
 7859SOL     OW35209   2.909   2.554   8.004 -0.5254 -0.0849 -0.0289
 7859SOL    HW135210   2.964   2.578   7.929 -0.9069 -0.6267 -0.4873
 7859SOL    HW235211   2.828   2.600   7.980  1.3867  3.4085  0.2357
 7860SOL     OW35212   2.789   3.551   0.983  0.1844 -0.3439 -0.4334
 7860SOL    HW135213   2.721   3.568   1.048  0.2083 -1.8820  0.0036
 7860SOL    HW235214   2.844   3.485   1.025  1.7853  0.0995 -1.8210
 7861SOL     OW35215   2.504   0.809   1.910  0.3559 -0.2281  0.2436
 7861SOL    HW135216   2.567   0.877   1.888  0.0454 -0.1430 -0.3714
 7861SOL    HW235217   2.426   0.855   1.880 -0.1814 -1.2158  0.1157
 7862SOL     OW35218   0.355   3.061   9.676 -0.0428 -0.2447 -0.3016
 7862SOL    HW135219   0.321   2.972   9.665 -1.3299  0.4464 -2.0372
 7862SOL    HW235220   0.358   3.069   9.771  0.3640  1.0882 -0.4238
 7863SOL     OW35221   4.268   4.667  17.425 -1.1459 -0.4339  0.7308
 7863SOL    HW135222   4.248   4.656  17.332 -0.1936 -0.5092  0.5389
 7863SOL    HW235223   4.353   4.710  17.428  0.3195 -3.1462 -1.3040
 7864SOL     OW35224   1.126   4.070  12.016  0.3827 -0.1891  0.5132
 7864SOL    HW135225   1.144   4.163  12.033 -0.4242  0.4410 -2.1691
 7864SOL    HW235226   1.175   4.054  11.936 -0.2672  1.1825 -0.1514
 7865SOL     OW35227   0.513   1.953   3.752 -0.0337  0.4557  0.0842
 7865SOL    HW135228   0.509   2.041   3.713 -0.1090  0.5266  0.2541
 7865SOL    HW235229   0.594   1.955   3.802 -0.6136  1.6713  0.9653
 7866SOL     OW35230   2.474   2.221   3.596 -0.3272 -0.6310  0.1793
 7866SOL    HW135231   2.485   2.144   3.540 -1.6029 -0.7698  0.1210
 7866SOL    HW235232   2.564   2.248   3.612 -0.0725 -0.9317 -0.7732
 7867SOL     OW35233   4.713   3.222   1.492  0.2355  0.1672  0.3400
 7867SOL    HW135234   0.002   3.242   1.402 -1.9027 -2.4794 -0.8657
 7867SOL    HW235235   0.052   3.176   1.529 -1.1847 -1.8619  0.7180
 7868SOL     OW35236   1.058   2.824   1.449  0.2533 -0.3459  0.1355
 7868SOL    HW135237   1.098   2.771   1.518 -1.8338 -2.1328 -0.0469
 7868SOL    HW235238   1.080   2.770   1.374  0.7632 -0.2122  0.1816
 7869SOL     OW35239   1.313   1.180   5.037  0.2165  0.0006  0.3206
 7869SOL    HW135240   1.400   1.141   5.035  0.1040 -0.2356 -0.2166
 7869SOL    HW235241   1.252   1.107   5.028 -1.0515  0.9668  0.9857
 7870SOL     OW35242   1.181   0.295  13.381 -0.1399  0.1411  0.5242
 7870SOL    HW135243   1.263   0.315  13.336  0.3497  0.2872  1.4773
 7870SOL    HW235244   1.115   0.326  13.318 -1.0343  0.9980  1.8805
 7871SOL     OW35245   1.074   3.031  12.349 -0.0055 -0.2886 -0.3414
 7871SOL    HW135246   1.160   2.987  12.347  0.6855  1.0550  0.1631
 7871SOL    HW235247   1.066   3.059  12.440 -0.6921 -0.2064 -0.4333
 7872SOL     OW35248   0.428   1.779   6.926 -0.3859 -0.1285  0.0502
 7872SOL    HW135249   0.487   1.761   6.853  1.4402  1.9221  0.9950
 7872SOL    HW235250   0.456   1.868   6.949 -0.3615 -0.2035  0.3200
 7873SOL     OW35251   0.120   1.951   9.747  0.0323 -0.0058  0.4701
 7873SOL    HW135252   0.120   2.032   9.798 -0.6885  1.4162 -1.8025
 7873SOL    HW235253   0.027   1.941   9.728 -0.1298  0.1334  1.2091
 7874SOL     OW35254   3.562   3.164   5.044 -0.0271 -0.7578 -0.0543
 7874SOL    HW135255   3.644   3.174   4.995  1.0610 -0.7042  1.7951
 7874SOL    HW235256   3.515   3.102   4.988 -0.5695 -0.0871 -0.3390
 7875SOL     OW35257   1.807   0.911   8.969 -0.1556 -0.3639 -0.0881
 7875SOL    HW135258   1.805   0.999   9.007  1.8765 -0.1236 -0.5346
 7875SOL    HW235259   1.865   0.863   9.028 -0.3953 -0.8277 -0.2277
 7876SOL     OW35260   3.894   4.673   3.336 -0.1875  0.0463 -0.4074
 7876SOL    HW135261   3.811   4.717   3.353 -0.7737 -0.8958 -0.8250
 7876SOL    HW235262   3.911   4.695   3.244  2.8840 -0.4085  0.0360
 7877SOL     OW35263   0.097   4.146   2.768 -0.4956  0.2215  0.0394
 7877SOL    HW135264   0.005   4.134   2.793 -0.0827 -0.7998  1.0281
 7877SOL    HW235265   0.127   4.057   2.783  0.4335  0.7412  1.2395
 7878SOL     OW35266   4.516   2.910   0.728 -0.0827  0.6652 -0.1292
 7878SOL    HW135267   4.565   2.902   0.646  0.5105  0.3451  0.2592
 7878SOL    HW235268   4.524   3.004   0.745  2.3748  0.6235 -1.0388
 7879SOL     OW35269   1.684   0.599   2.761 -0.2044  0.4598  0.5406
 7879SOL    HW135270   1.718   0.519   2.721  1.6620  1.0094  1.0238
 7879SOL    HW235271   1.646   0.645   2.686 -0.0634  0.4728  0.4776
 7880SOL     OW35272   2.583   3.617   1.164 -0.7123  0.1739  0.2608
 7880SOL    HW135273   2.595   3.698   1.214 -1.2309  0.3744  0.0628
 7880SOL    HW235274   2.585   3.556   1.237 -0.1237 -1.2710 -0.9707
 7881SOL     OW35275   3.797   2.090   3.243  0.4230 -0.7366  0.0380
 7881SOL    HW135276   3.835   2.020   3.295  0.9309 -1.0668 -0.7879
 7881SOL    HW235277   3.850   2.166   3.266  0.8803 -0.6453 -1.3075
 7882SOL     OW35278   1.937   2.318  11.751  0.0587  0.1681 -0.2392
 7882SOL    HW135279   1.908   2.394  11.700  0.2339  0.5708  0.2635
 7882SOL    HW235280   1.873   2.316  11.823 -0.1576  0.4677 -0.4225
 7883SOL     OW35281   4.228   0.770   2.507  0.3594 -0.0699 -0.5262
 7883SOL    HW135282   4.302   0.712   2.493  2.5062  2.3287  0.9371
 7883SOL    HW235283   4.173   0.729   2.440 -0.0873 -0.0305 -0.1878
 7884SOL     OW35284   0.471   4.281   3.730 -0.1557 -0.3783 -0.2367
 7884SOL    HW135285   0.521   4.337   3.789  0.5099 -1.2661  0.0497
 7884SOL    HW235286   0.516   4.303   3.649 -0.1837  1.1033  0.1510
 7885SOL     OW35287   4.554   3.374  17.271  0.2502 -0.6781 -0.4760
 7885SOL    HW135288   4.528   3.374  17.179 -1.6496 -0.0750  0.0534
 7885SOL    HW235289   4.469   3.377  17.316  0.5504  3.9624 -0.1996
 7886SOL     OW35290   1.328   3.749  14.794  0.5359  0.0840 -0.2300
 7886SOL    HW135291   1.277   3.743  14.713  0.1212 -1.2938  0.1380
 7886SOL    HW235292   1.341   3.656  14.812  1.9135  0.4975  0.9584
 7887SOL     OW35293   1.976   0.486   2.239  0.2621 -0.3595 -0.8220
 7887SOL    HW135294   1.997   0.401   2.199  1.6153  1.3329 -3.6674
 7887SOL    HW235295   1.930   0.520   2.162  0.3816 -0.1772 -0.8124
 7888SOL     OW35296   3.420   2.612   6.034 -0.1040 -0.8751  0.1103
 7888SOL    HW135297   3.479   2.575   6.099  3.4121 -1.2936 -3.2922
 7888SOL    HW235298   3.358   2.539   6.029 -0.8047 -0.1688 -1.4599
 7889SOL     OW35299   2.473   4.013   4.400  0.1292 -0.6292 -0.5187
 7889SOL    HW135300   2.523   3.974   4.471  1.3074 -1.3621 -1.7433
 7889SOL    HW235301   2.398   4.041   4.452  1.2264 -1.1919  1.3528
 7890SOL     OW35302   3.154   0.637   4.693  0.5070 -0.2056 -0.4332
 7890SOL    HW135303   3.188   0.726   4.691  1.3923 -0.5147  0.6874
 7890SOL    HW235304   3.175   0.593   4.610  2.2582  0.2068 -0.2080
 7891SOL     OW35305   4.481   1.533   4.710  0.1303  0.4439  0.4550
 7891SOL    HW135306   4.507   1.485   4.631  0.2846  2.2584 -0.6058
 7891SOL    HW235307   4.470   1.618   4.667  1.3806 -1.4876 -3.6819
 7892SOL     OW35308   2.209   4.283   5.024 -0.1449  0.6618  0.1104
 7892SOL    HW135309   2.264   4.306   5.099  0.7995  0.4921 -0.5408
 7892SOL    HW235310   2.222   4.348   4.955  0.6053 -0.8111 -1.1321
 7893SOL     OW35311   1.082   3.788   7.755  0.2584  0.1308 -0.5847
 7893SOL    HW135312   1.057   3.855   7.691 -0.7684 -0.0063 -0.3242
 7893SOL    HW235313   1.012   3.786   7.821  0.7815 -0.1894 -0.0409
 7894SOL     OW35314   2.920   1.499   8.335  0.4870  0.2258  0.2942
 7894SOL    HW135315   2.885   1.539   8.415  0.5968  0.8297  0.0367
 7894SOL    HW235316   2.872   1.556   8.275 -0.1528 -1.5675 -0.8745
 7895SOL     OW35317   0.923   1.348   9.640  0.0066  0.4901 -0.0351
 7895SOL    HW135318   0.885   1.428   9.603  0.2034  1.3389  1.5636
 7895SOL    HW235319   0.891   1.368   9.728  0.8335  2.9357 -0.2822
 7896SOL     OW35320   3.649   1.410   2.191  0.8721 -0.0471 -0.1936
 7896SOL    HW135321   3.638   1.502   2.216  0.0073 -0.3347  0.5213
 7896SOL    HW235322   3.591   1.412   2.115  0.8654 -0.1479 -0.1909
 7897SOL     OW35323   1.091   4.659   8.468 -0.0127 -0.4217  0.0556
 7897SOL    HW135324   1.024   4.672   8.535  1.1075  2.5794  0.5762
 7897SOL    HW235325   1.072   4.570   8.437 -3.2680 -0.4121  1.9846
 7898SOL     OW35326   3.274   1.307   8.656  0.1887  0.4253  0.3607
 7898SOL    HW135327   3.275   1.363   8.578 -0.4089 -2.2644 -1.6010
 7898SOL    HW235328   3.278   1.221   8.613 -0.9710 -0.2315  1.5722
 7899SOL     OW35329   0.225   1.700   3.585 -0.3448 -0.4911 -0.7965
 7899SOL    HW135330   0.273   1.754   3.522  0.5506  1.4072  1.5483
 7899SOL    HW235331   0.286   1.689   3.658 -0.6376 -1.8820 -0.7550
 7900SOL     OW35332   1.764   2.502  14.377 -0.1413 -0.2103  0.0972
 7900SOL    HW135333   1.681   2.534  14.413 -0.2070  0.8065 -0.9594
 7900SOL    HW235334   1.751   2.511  14.283  0.8914  1.4294  0.1110
 7901SOL     OW35335   1.528   1.191  11.512 -0.1975 -0.2004 -0.1630
 7901SOL    HW135336   1.576   1.157  11.587  0.6121  1.1071 -0.0841
 7901SOL    HW235337   1.575   1.274  11.517 -0.4940 -0.1360  1.4243
 7902SOL     OW35338   0.023   1.058  14.992  0.5452 -0.4078 -0.7590
 7902SOL    HW135339   4.668   1.034  14.977  0.2643  1.4439 -2.0116
 7902SOL    HW235340   0.016   1.142  15.038 -2.4365 -0.1732 -1.5902
 7903SOL     OW35341   2.942   2.458   7.015  0.6194 -0.0397  0.3926
 7903SOL    HW135342   2.849   2.437   7.027  1.1814 -2.4965  0.4945
 7903SOL    HW235343   2.958   2.441   6.922 -1.2282 -0.6016  0.1709
 7904SOL     OW35344   3.234   1.830  14.748  0.0768  0.2041  0.2307
 7904SOL    HW135345   3.187   1.749  14.767  0.5412  0.2494  1.5479
 7904SOL    HW235346   3.198   1.887  14.816  0.3678  0.6835 -0.0126
 7905SOL     OW35347   4.548   3.406  16.400 -0.0596 -0.3879 -0.1141
 7905SOL    HW135348   4.622   3.433  16.455 -1.2234  0.7331  0.9086
 7905SOL    HW235349   4.572   3.454  16.321 -0.2659  0.4872  0.3440
 7906SOL     OW35350   4.272   2.802   0.802 -0.0710 -0.4425 -0.4611
 7906SOL    HW135351   4.365   2.809   0.783  0.0649 -1.3579 -0.1434
 7906SOL    HW235352   4.275   2.849   0.886 -2.9742 -2.1931  0.6225
 7907SOL     OW35353   4.134   2.391   8.493 -0.5075 -0.3198  0.2678
 7907SOL    HW135354   4.148   2.299   8.515  2.6812 -0.0197 -0.4444
 7907SOL    HW235355   4.071   2.384   8.421 -0.6990 -0.4150  0.4448
 7908SOL     OW35356   0.236   0.124   4.203  0.1732 -0.6818  0.3307
 7908SOL    HW135357   0.181   0.053   4.168 -0.7084 -0.0605  0.4542
 7908SOL    HW235358   0.225   0.125   4.298 -0.6628  1.6107  0.1954
 7909SOL     OW35359   3.694   0.634  11.611 -0.0224 -0.0023  0.5262
 7909SOL    HW135360   3.679   0.728  11.598 -2.5063 -0.3735  0.7430
 7909SOL    HW235361   3.668   0.609  11.522 -0.6157  0.5108  0.5550
 7910SOL     OW35362   4.461   2.933   4.072 -0.0722 -0.1058  0.0911
 7910SOL    HW135363   4.368   2.949   4.055  0.4133  3.3365  0.6194
 7910SOL    HW235364   4.480   3.022   4.101  2.1238 -0.1619 -1.1812
 7911SOL     OW35365   1.265   0.970   2.414  0.7092 -0.4081  0.6256
 7911SOL    HW135366   1.290   1.057   2.445 -0.1588 -0.0552  0.3242
 7911SOL    HW235367   1.170   0.980   2.410  0.6177 -1.4452  0.2630
 7912SOL     OW35368   0.530   4.049  16.894 -0.1698 -0.4311  0.4167
 7912SOL    HW135369   0.546   4.053  16.800  1.5237 -1.7805  0.6560
 7912SOL    HW235370   0.599   3.992  16.928  0.4955  0.2920  0.2658
 7913SOL     OW35371   0.649   0.153  12.169  0.3847  0.0723 -0.9285
 7913SOL    HW135372   0.692   0.086  12.220  0.1912 -0.7795 -1.8800
 7913SOL    HW235373   0.729   0.199  12.142 -0.4049  1.5717 -0.7324
 7914SOL     OW35374   2.737   0.642  10.510  0.0899  0.1638 -0.6186
 7914SOL    HW135375   2.701   0.578  10.572  1.9182 -1.2757 -1.0594
 7914SOL    HW235376   2.759   0.707  10.576  0.1769 -0.1193 -0.3671
 7915SOL     OW35377   1.699   0.051  11.678 -0.8309 -0.3827 -0.2996
 7915SOL    HW135378   1.670   0.124  11.733 -0.5939  0.2287 -0.9895
 7915SOL    HW235379   1.708   4.722  11.748 -2.4583 -0.1169  0.1560
 7916SOL     OW35380   3.328   3.211  11.240 -0.1053 -0.1661  0.0960
 7916SOL    HW135381   3.402   3.183  11.294  1.2905 -0.0205 -1.7438
 7916SOL    HW235382   3.358   3.301  11.223 -2.3958  1.3458  4.1835
 7917SOL     OW35383   3.843   1.714   0.837 -0.2207  0.3406 -0.3806
 7917SOL    HW135384   3.899   1.728   0.760 -0.3778  1.9944 -0.1848
 7917SOL    HW235385   3.768   1.770   0.819 -0.2643  0.2308 -0.5438
 7918SOL     OW35386   1.174   1.615   4.060  0.1775  0.0461 -0.0682
 7918SOL    HW135387   1.149   1.664   4.139  0.4718  1.3266 -0.7664
 7918SOL    HW235388   1.164   1.689   4.000 -1.3353  0.7059  0.9886
 7919SOL     OW35389   1.253   4.209   3.482  0.1070 -0.1060  0.3578
 7919SOL    HW135390   1.252   4.157   3.563  0.3701 -2.2887 -1.0420
 7919SOL    HW235391   1.315   4.278   3.505  1.2870 -0.4694 -1.6845
 7920SOL     OW35392   1.097   3.221   6.880  0.5510 -0.3654 -0.1626
 7920SOL    HW135393   1.008   3.192   6.859 -0.5724  1.9408  1.4976
 7920SOL    HW235394   1.109   3.149   6.942 -1.3002  0.7344  1.4612
 7921SOL     OW35395   3.664   1.735   4.545  0.0106  0.1281 -0.9351
 7921SOL    HW135396   3.696   1.689   4.467 -1.7004 -0.2092 -1.4238
 7921SOL    HW235397   3.640   1.664   4.605  0.3924  2.2928  1.7808
 7922SOL     OW35398   2.052   2.417   6.134  0.2446 -0.5121 -0.2294
 7922SOL    HW135399   1.973   2.383   6.176 -0.5224  1.1012 -0.3957
 7922SOL    HW235400   2.123   2.368   6.175 -1.3586 -0.5057  2.5705
 7923SOL     OW35401   0.905   3.863  15.081  0.2001 -0.6243  0.3176
 7923SOL    HW135402   0.967   3.876  15.010  0.3369 -2.1498  0.1618
 7923SOL    HW235403   0.903   3.768  15.095  0.2749 -0.6436  0.1985
 7924SOL     OW35404   3.054   0.902  16.595 -0.0493  0.3709 -0.6088
 7924SOL    HW135405   3.011   0.861  16.520  1.3414 -1.5601 -0.3387
 7924SOL    HW235406   3.045   0.993  16.566  3.2343 -0.1230 -3.1249
 7925SOL     OW35407   0.407   1.889   8.908  0.6623 -0.2570 -0.0072
 7925SOL    HW135408   0.464   1.966   8.902 -0.8876  1.0469  1.9875
 7925SOL    HW235409   0.417   1.860   8.818 -0.6648  2.1931 -0.9273
 7926SOL     OW35410   0.918   3.692   5.110 -0.2714 -0.1486  0.1802
 7926SOL    HW135411   0.988   3.656   5.164 -0.4832  0.4119  0.8299
 7926SOL    HW235412   0.965   3.775   5.106 -3.1780  1.6185  2.1740
 7927SOL     OW35413   1.852   2.995   1.967 -0.2325  0.2238  0.0843
 7927SOL    HW135414   1.938   3.014   1.929  0.3080 -1.7327  0.2907
 7927SOL    HW235415   1.803   3.067   1.929  0.6237  1.3640  1.1535
 7928SOL     OW35416   3.216   4.076   8.303  0.1917  0.7919  0.4744
 7928SOL    HW135417   3.303   4.093   8.337  0.3284 -1.5391  1.2813
 7928SOL    HW235418   3.189   3.999   8.354  1.4586 -1.5450 -2.3750
 7929SOL     OW35419   0.850   4.314  13.810  0.0878 -0.0377  0.3401
 7929SOL    HW135420   0.854   4.277  13.722 -2.4132 -0.9541  0.6174
 7929SOL    HW235421   0.782   4.380  13.799  0.2203  0.1223  0.4828
 7930SOL     OW35422   3.346   4.265   7.919  0.6124  0.0642  0.4452
 7930SOL    HW135423   3.318   4.246   7.830 -1.1668 -1.0435  1.2353
 7930SOL    HW235424   3.337   4.176   7.954 -0.8741  0.2767  0.5839
 7931SOL     OW35425   0.039   1.578   3.445 -0.0198 -1.1855 -0.0764
 7931SOL    HW135426   0.015   1.513   3.511  0.5128 -1.4942 -0.1877
 7931SOL    HW235427   0.101   1.627   3.500  0.4095 -0.7549 -0.9405
 7932SOL     OW35428   0.406   2.715  15.679  0.7727 -0.0934 -0.2760
 7932SOL    HW135429   0.379   2.734  15.589  1.8613 -2.2395 -1.0692
 7932SOL    HW235430   0.467   2.644  15.658  0.2936 -1.0905  1.6663
 7933SOL     OW35431   4.615   1.617   3.219 -0.2139 -0.0873 -0.1444
 7933SOL    HW135432   4.661   1.611   3.302 -2.3028  2.2632  1.1801
 7933SOL    HW235433   4.691   1.603   3.163  0.1751  1.0406  0.1141
 7934SOL     OW35434   2.482   1.516   7.107  0.0227 -0.3798  0.4153
 7934SOL    HW135435   2.463   1.593   7.161 -0.2697  0.3631 -0.7626
 7934SOL    HW235436   2.440   1.542   7.026 -1.5599 -0.2353  1.2940
 7935SOL     OW35437   4.596   3.222  10.376 -0.4639 -0.4410 -0.5373
 7935SOL    HW135438   4.617   3.243  10.285  1.5164 -0.0570 -0.0050
 7935SOL    HW235439   4.678   3.178  10.399  0.0141  0.7343 -0.0064
 7936SOL     OW35440   0.643   4.513   6.875 -0.7052 -0.5755  0.1380
 7936SOL    HW135441   0.706   4.484   6.941  0.7276  1.9991 -0.0645
 7936SOL    HW235442   0.589   4.579   6.918  0.6733  0.3005  0.5238
 7937SOL     OW35443   0.035   3.630  11.946 -0.6231 -0.0690  0.2000
 7937SOL    HW135444   0.022   3.696  11.878 -0.2784 -0.1892  0.0222
 7937SOL    HW235445   0.083   3.560  11.902  0.0281 -0.4193  1.4394
 7938SOL     OW35446   2.388   4.542   4.492 -0.0795 -0.3283  0.4022
 7938SOL    HW135447   2.359   4.508   4.576  1.8814 -0.1107  1.1714
 7938SOL    HW235448   2.483   4.546   4.508  0.1077  2.5502 -1.3598
 7939SOL     OW35449   0.095   3.733   2.545  0.2324 -0.2523 -0.0313
 7939SOL    HW135450   0.056   3.764   2.627 -0.7895 -1.5866 -0.0006
 7939SOL    HW235451   0.030   3.672   2.509 -0.1108  0.0483  0.0841
 7940SOL     OW35452   1.292   2.095   6.160 -0.1813  0.3499 -0.6513
 7940SOL    HW135453   1.201   2.120   6.172  0.6828  1.8785  2.8832
 7940SOL    HW235454   1.335   2.156   6.101  2.6698 -1.6340 -0.6931
 7941SOL     OW35455   0.354   1.135   6.719 -0.0872  0.5548  0.7701
 7941SOL    HW135456   0.332   1.228   6.723 -0.1867  0.5411  0.5816
 7941SOL    HW235457   0.343   1.120   6.625  0.6010 -0.5372  0.8761
 7942SOL     OW35458   4.472   1.838   9.189  0.6904  0.0154  0.0944
 7942SOL    HW135459   4.385   1.818   9.223  0.2084  0.1712 -1.0529
 7942SOL    HW235460   4.539   1.820   9.255 -0.1850  0.0421  0.9944
 7943SOL     OW35461   2.165   2.247   4.001  0.3599  0.4865 -0.4773
 7943SOL    HW135462   2.199   2.313   4.061  1.7152 -1.2699  0.6839
 7943SOL    HW235463   2.097   2.212   4.058  0.4713  0.9725 -0.0509
 7944SOL     OW35464   1.942   1.227   8.210  0.3330  0.3652  0.1430
 7944SOL    HW135465   1.944   1.136   8.240  0.5747  0.7218  1.2055
 7944SOL    HW235466   1.861   1.216   8.159  2.0258 -1.7679 -2.0578
 7945SOL     OW35467   1.931   4.632   8.472  0.2766 -0.1528  0.0168
 7945SOL    HW135468   1.887   4.667   8.549 -0.7081 -1.8083  0.2099
 7945SOL    HW235469   1.946   4.544   8.507  0.5531 -1.0668 -2.3722
 7946SOL     OW35470   0.774   1.354  15.195 -0.3080  0.0915  0.5133
 7946SOL    HW135471   0.724   1.312  15.266  1.1261 -1.0599  0.8310
 7946SOL    HW235472   0.798   1.278  15.142  1.1738  0.3115  0.8861
 7947SOL     OW35473   0.668   4.662   4.067 -0.7569 -0.4100  0.6111
 7947SOL    HW135474   0.669   0.017   4.041  1.2471 -0.4365  0.5783
 7947SOL    HW235475   0.577   4.645   4.091 -1.3439  2.7465  0.5639
 7948SOL     OW35476   0.543   0.752  12.444  0.0605  0.1620  0.6080
 7948SOL    HW135477   0.508   0.739  12.356 -0.9749 -1.6149  1.2977
 7948SOL    HW235478   0.637   0.769  12.434 -0.0338  1.6304  2.0979
 7949SOL     OW35479   0.920   0.660   3.305 -0.2282  0.2768 -0.5213
 7949SOL    HW135480   0.839   0.651   3.256 -0.1827  2.9270 -1.0972
 7949SOL    HW235481   0.975   0.703   3.239 -1.8407  1.6691 -0.9743
 7950SOL     OW35482   3.503   0.295   3.245 -0.0350  0.0934  0.1632
 7950SOL    HW135483   3.486   0.373   3.191  0.2612 -0.0976 -0.2073
 7950SOL    HW235484   3.416   0.291   3.285  0.7341  0.4234  1.8642
 7951SOL     OW35485   1.156   4.658   5.090  0.6134 -0.0229  0.1461
 7951SOL    HW135486   1.101   4.580   5.106  1.2396 -0.3315  0.7932
 7951SOL    HW235487   1.165   4.690   5.180  0.4655 -0.7134  0.4102
 7952SOL     OW35488   1.121   3.429   0.339 -0.4675 -0.3092 -0.0442
 7952SOL    HW135489   1.038   3.404   0.299 -0.2110  2.0862 -2.0498
 7952SOL    HW235490   1.173   3.348   0.336 -0.6908 -0.4040 -1.2405
 7953SOL     OW35491   1.289   3.508   0.543 -0.1078  0.3579  0.2118
 7953SOL    HW135492   1.364   3.464   0.503 -0.5705  0.0730 -0.3540
 7953SOL    HW235493   1.224   3.501   0.473 -1.1048  3.1514  0.8702
 7954SOL     OW35494   0.033   1.518   6.294  0.6296  0.2228  0.2233
 7954SOL    HW135495   4.692   1.513   6.350  1.8983 -2.2689  1.7960
 7954SOL    HW235496   0.099   1.484   6.354  0.5661  0.5910  0.5009
 7955SOL     OW35497   1.585   3.291   1.532 -0.3056 -0.1165  0.3217
 7955SOL    HW135498   1.493   3.285   1.558 -0.5206 -1.7112 -0.8244
 7955SOL    HW235499   1.607   3.198   1.534 -1.3532 -0.3542  0.8313
 7956SOL     OW35500   2.409   3.823  16.417 -0.2319  0.3178  0.9388
 7956SOL    HW135501   2.390   3.768  16.493 -0.0661 -2.2014 -0.8705
 7956SOL    HW235502   2.328   3.873  16.409  2.5095  4.5384 -0.7243
 7957SOL     OW35503   0.160   2.581   2.192 -0.2757  0.4592 -0.1882
 7957SOL    HW135504   0.207   2.664   2.189  3.4793 -1.5437  1.6823
 7957SOL    HW235505   0.229   2.514   2.197 -2.8922 -2.3504 -1.5708
 7958SOL     OW35506   0.966   1.922  15.589  0.6461 -0.2593  0.1343
 7958SOL    HW135507   1.013   1.842  15.567  0.2780 -0.3681 -0.2406
 7958SOL    HW235508   1.033   1.965  15.642  1.2079  1.7860 -2.2347
 7959SOL     OW35509   2.550   2.443   6.124  0.1282 -0.1340 -0.0095
 7959SOL    HW135510   2.506   2.512   6.074  0.5023  0.8947  1.0691
 7959SOL    HW235511   2.573   2.496   6.200  0.6455  0.1919 -0.3900
 7960SOL     OW35512   4.324   3.510   5.241 -0.0847 -0.4096  0.4068
 7960SOL    HW135513   4.357   3.422   5.255 -0.2474 -0.4852  0.3126
 7960SOL    HW235514   4.296   3.491   5.151  0.6233 -3.8707  0.9352
 7961SOL     OW35515   0.438   4.454   1.794 -0.1018  0.3747 -0.3092
 7961SOL    HW135516   0.402   4.411   1.717  0.3322  0.4777 -0.5687
 7961SOL    HW235517   0.366   4.515   1.812  0.2554  0.8037 -0.3297
 7962SOL     OW35518   4.177   0.362   2.123 -0.1432 -0.2133  0.2658
 7962SOL    HW135519   4.129   0.279   2.121  0.4720 -0.4874 -2.0923
 7962SOL    HW235520   4.169   0.399   2.035 -0.7906  2.4766  1.4433
 7963SOL     OW35521   3.714   1.022   1.542 -0.2383  0.5218 -0.3048
 7963SOL    HW135522   3.748   1.021   1.631 -1.1052  0.1127  0.0173
 7963SOL    HW235523   3.789   1.059   1.496  1.2978 -2.8432 -0.5262
 7964SOL     OW35524   1.426   1.359   8.578 -0.4549 -0.1401  0.2908
 7964SOL    HW135525   1.492   1.400   8.634  0.4523  0.7874 -1.4393
 7964SOL    HW235526   1.376   1.316   8.647 -0.4322 -0.9358 -0.1903
 7965SOL     OW35527   4.100   1.612  11.619 -0.3791  0.3807  0.5288
 7965SOL    HW135528   4.069   1.537  11.669  2.1457 -0.7990  0.3130
 7965SOL    HW235529   4.082   1.580  11.531 -2.8863  0.5279  0.9739
 7966SOL     OW35530   0.444   3.727  15.134  0.3998 -0.3738 -0.2971
 7966SOL    HW135531   0.501   3.653  15.151  0.6422  0.4004  2.2530
 7966SOL    HW235532   0.494   3.776  15.068 -1.1619  0.7222 -0.6793
 7967SOL     OW35533   1.216   3.336  14.957 -0.2204  0.4575 -1.1528
 7967SOL    HW135534   1.272   3.349  15.034  0.6306  1.6855 -1.9688
 7967SOL    HW235535   1.132   3.344  15.001 -0.6910 -0.1156 -1.9541
 7968SOL     OW35536   4.004   4.696   7.360 -0.2615 -0.8695 -0.0190
 7968SOL    HW135537   3.992   0.007   7.278 -0.6436 -2.3770 -0.8633
 7968SOL    HW235538   3.974   0.020   7.426 -0.0785  0.3989 -1.1102
 7969SOL     OW35539   2.364   3.067   0.010 -0.2124 -0.3149 -0.0008
 7969SOL    HW135540   2.343   3.052   0.102  0.7205  1.7352  0.5517
 7969SOL    HW235541   2.277   3.093  17.726  0.3509 -0.8440 -2.0686
 7970SOL     OW35542   3.644   4.599   7.092 -0.5135  0.2374 -0.1350
 7970SOL    HW135543   3.568   4.541   7.099 -0.3568 -0.0197 -0.5569
 7970SOL    HW235544   3.609   4.683   7.120  0.1999  0.4457  0.1422
 7971SOL     OW35545   4.736   0.614   7.681 -0.1630  0.1564  0.3161
 7971SOL    HW135546   4.683   0.689   7.651  0.9827  1.9648  2.8141
 7971SOL    HW235547   4.733   0.635   7.775 -1.2097 -1.3957  0.6359
 7972SOL     OW35548   3.193   2.922   9.641 -0.4235 -0.0898 -0.4382
 7972SOL    HW135549   3.144   2.947   9.720  4.1189  5.4661  0.5359
 7972SOL    HW235550   3.249   2.998   9.630  1.2133 -1.5265 -1.8613
 7973SOL     OW35551   3.095   0.256  17.219  0.0130 -0.2189 -0.1370
 7973SOL    HW135552   3.112   0.349  17.234  1.7470 -0.9229  2.2238
 7973SOL    HW235553   3.092   0.222  17.308 -3.6250 -0.7453 -0.4583
 7974SOL     OW35554   0.530   3.756  17.067 -0.0790 -0.3945  0.0254
 7974SOL    HW135555   0.519   3.814  17.142  1.0625 -0.1541  0.0011
 7974SOL    HW235556   0.602   3.802  17.026 -0.5209 -0.5802 -0.9469
 7975SOL     OW35557   0.466   3.036   3.314 -0.3858 -1.1067  0.2219
 7975SOL    HW135558   0.504   3.105   3.369  0.2161 -1.0838 -0.2200
 7975SOL    HW235559   0.374   3.052   3.334  0.0876  0.7872  0.9107
 7976SOL     OW35560   0.699   1.459   7.784 -0.6045  0.2255  0.2350
 7976SOL    HW135561   0.609   1.486   7.801 -0.4622  0.4572  0.6118
 7976SOL    HW235562   0.679   1.389   7.721 -2.1311  1.3710 -0.5394
 7977SOL     OW35563   3.820   3.802   1.892  0.1489 -0.3284  0.3528
 7977SOL    HW135564   3.841   3.894   1.910 -2.0960 -0.0660  1.7801
 7977SOL    HW235565   3.822   3.754   1.975 -0.9204 -1.3814 -0.2211
 7978SOL     OW35566   3.341   3.547   2.195 -0.7740  0.3740  0.2351
 7978SOL    HW135567   3.266   3.574   2.248  0.0929 -1.2360  2.3213
 7978SOL    HW235568   3.371   3.631   2.162  2.4859 -0.3577  1.2642
 7979SOL     OW35569   3.993   1.142   3.799 -0.4208  0.0475  0.3051
 7979SOL    HW135570   4.060   1.203   3.769 -0.5227  1.0767  2.1135
 7979SOL    HW235571   4.021   1.056   3.768  0.9629 -0.7833  3.7636
 7980SOL     OW35572   3.666   4.095   6.814  0.0903 -0.0840  0.1350
 7980SOL    HW135573   3.589   4.044   6.837 -0.2366  0.0908 -0.5862
 7980SOL    HW235574   3.632   4.185   6.812  1.2805  0.3758  0.5855
 7981SOL     OW35575   1.552   2.965  11.678 -0.1472  0.5622  0.6694
 7981SOL    HW135576   1.536   3.038  11.618  4.3154  1.2563  0.3718
 7981SOL    HW235577   1.614   3.004  11.739 -2.2615  1.6052  2.1337
 7982SOL     OW35578   0.990   1.259  11.012  0.3137  0.5863 -0.0484
 7982SOL    HW135579   0.982   1.266  11.107 -0.7394  0.0320 -0.0979
 7982SOL    HW235580   0.985   1.351  10.986  4.1544 -0.0524 -2.9716
 7983SOL     OW35581   0.811   3.653   5.843  0.4636 -0.3370  1.1818
 7983SOL    HW135582   0.830   3.559   5.837  0.0713 -0.3977  0.9264
 7983SOL    HW235583   0.836   3.672   5.934 -0.7328 -0.0631  1.4484
 7984SOL     OW35584   0.244   4.623   1.807  0.6068  0.4811 -0.2285
 7984SOL    HW135585   0.163   4.622   1.859  0.3808 -1.7124 -0.6247
 7984SOL    HW235586   0.281   4.711   1.815  2.0240 -0.2880  1.4801
 7985SOL     OW35587   3.528   2.546  12.764 -0.5626 -0.3761  0.3790
 7985SOL    HW135588   3.490   2.500  12.689  0.6458 -1.6597  0.5599
 7985SOL    HW235589   3.581   2.479  12.807  1.3391  1.3100  0.6848
 7986SOL     OW35590   0.403   1.824   0.085 -0.5726  0.0401 -0.1057
 7986SOL    HW135591   0.421   1.738   0.123 -0.2573  0.5760  0.9586
 7986SOL    HW235592   0.380   1.792  17.744 -0.5331 -1.2019  0.3327
 7987SOL     OW35593   4.131   1.325   7.918  0.5283  0.2332 -0.3430
 7987SOL    HW135594   4.073   1.307   7.992  0.1715  1.1435 -0.3978
 7987SOL    HW235595   4.067   1.364   7.858 -0.8586  0.8398  1.5152
 7988SOL     OW35596   1.859   1.022  15.062 -0.2206  0.0640 -0.4724
 7988SOL    HW135597   1.782   1.076  15.046  0.2385  0.6221 -0.8312
 7988SOL    HW235598   1.848   0.965  14.986  3.0723  0.2090 -1.0877
 7989SOL     OW35599   1.798   0.851  11.384  0.1917  0.0091 -0.0629
 7989SOL    HW135600   1.875   0.801  11.408 -0.5149 -0.9714  0.1620
 7989SOL    HW235601   1.817   0.936  11.424 -1.2504 -0.0094  0.6580
 7990SOL     OW35602   1.664   2.331   7.680  0.4056 -0.2524  0.2366
 7990SOL    HW135603   1.741   2.378   7.713 -0.6174  0.3648  1.7201
 7990SOL    HW235604   1.611   2.410   7.677  0.1910 -0.3387  1.6288
 7991SOL     OW35605   0.951   0.001  14.476  0.4219  0.2395 -0.0072
 7991SOL    HW135606   0.918   4.653  14.447  1.0322  0.4198 -1.2023
 7991SOL    HW235607   0.880   0.065  14.468 -1.4440 -1.7314  0.5313
 7992SOL     OW35608   4.141   2.817   5.812  0.0735 -0.4871  0.2272
 7992SOL    HW135609   4.151   2.731   5.772 -0.7771 -0.3987 -0.1860
 7992SOL    HW235610   4.097   2.852   5.734 -0.9379  0.9612  1.4368
 7993SOL     OW35611   1.915   0.984   8.312 -0.0617  0.5581  0.0537
 7993SOL    HW135612   1.850   0.914   8.306 -1.4131  1.7303  1.0108
 7993SOL    HW235613   1.996   0.934   8.325 -1.3338 -1.2980  0.7374
 7994SOL     OW35614   4.041   1.100   3.530  0.7605  0.5730 -0.1011
 7994SOL    HW135615   4.004   1.029   3.478  0.5755  0.0695  0.7156
 7994SOL    HW235616   4.089   1.053   3.599  2.2124  0.1650 -1.3931
 7995SOL     OW35617   0.442   0.219   4.074 -0.3997 -0.2635 -0.1660
 7995SOL    HW135618   0.403   0.166   4.004  1.3292 -0.6214 -0.8490
 7995SOL    HW235619   0.372   0.211   4.139  0.7916  1.1195  1.2761
 7996SOL     OW35620   4.460   2.769   2.436 -0.2607  0.2026 -0.1797
 7996SOL    HW135621   4.547   2.728   2.428 -0.6264 -0.3932 -1.0334
 7996SOL    HW235622   4.425   2.765   2.348  1.2476  0.2474 -0.7806
 7997SOL     OW35623   0.886   3.387   7.276  0.1398 -0.2062 -0.2965
 7997SOL    HW135624   0.812   3.445   7.292 -0.3289 -1.5179  2.2791
 7997SOL    HW235625   0.964   3.443   7.269  0.7511 -1.0190  0.0108
 7998SOL     OW35626   2.756   1.308  16.560 -0.2445  0.5900  0.3140
 7998SOL    HW135627   2.802   1.274  16.637  0.0254  0.4068  0.0683
 7998SOL    HW235628   2.691   1.370  16.594  0.4162  1.6810 -0.4178
 7999SOL     OW35629   1.594   2.365   1.805  0.1473 -0.3807 -0.3657
 7999SOL    HW135630   1.520   2.310   1.780  0.1804 -0.1087 -1.0752
 7999SOL    HW235631   1.666   2.318   1.761  3.1674  1.9333  2.1016
 8000SOL     OW35632   0.399   3.922   6.494 -0.1572  0.2315 -0.4169
 8000SOL    HW135633   0.325   3.941   6.551 -0.6656 -0.3505 -0.8794
 8000SOL    HW235634   0.367   3.924   6.404 -1.3220 -0.5526 -0.0212
 8001SOL     OW35635   1.056   3.321   3.466 -0.3983  0.1559  0.0333
 8001SOL    HW135636   1.003   3.272   3.404  1.2932 -1.5936 -0.0302
 8001SOL    HW235637   1.089   3.389   3.408 -1.8025  2.7509  2.2637
 8002SOL     OW35638   2.741   2.459   8.270 -0.3582 -0.2696  0.0203
 8002SOL    HW135639   2.760   2.553   8.277  0.8616 -0.2732 -3.1347
 8002SOL    HW235640   2.784   2.428   8.191  1.4582  4.2129 -0.7695
 8003SOL     OW35641   1.522   2.067  15.714 -0.0386  0.2236 -0.4383
 8003SOL    HW135642   1.607   2.060  15.757  0.5640 -1.1025 -1.8096
 8003SOL    HW235643   1.486   2.144  15.757 -2.1591 -0.3620 -1.1542
 8004SOL     OW35644   0.876   0.750   6.394 -0.5324 -0.1079  0.1209
 8004SOL    HW135645   0.885   0.679   6.458 -0.0445 -0.2514 -0.1095
 8004SOL    HW235646   0.833   0.714   6.317 -2.8759  1.4905  0.6871
 8005SOL     OW35647   0.896   4.711   8.306  0.3035 -0.3786 -0.2363
 8005SOL    HW135648   0.832   0.006   8.370  0.2574  1.9495 -1.4574
 8005SOL    HW235649   0.967   4.695   8.367 -1.6629  0.0237  2.1343
 8006SOL     OW35650   1.508   0.928   6.684 -0.0149 -0.0047 -0.3297
 8006SOL    HW135651   1.448   0.854   6.693 -1.6377  1.5428  1.5920
 8006SOL    HW235652   1.589   0.883   6.709 -0.9710 -1.9287 -0.7321
 8007SOL     OW35653   2.091   0.598  12.476 -0.6151  0.1799  0.8972
 8007SOL    HW135654   2.058   0.656  12.408  1.7190  0.6398  0.1528
 8007SOL    HW235655   2.178   0.566  12.453 -0.7937  0.3698 -0.0204
 8008SOL     OW35656   2.341   4.167   4.067 -0.0721  1.3111 -1.0303
 8008SOL    HW135657   2.256   4.200   4.039 -0.6077 -0.9205 -2.0758
 8008SOL    HW235658   2.352   4.221   4.145 -0.7578  1.0408 -0.7452
 8009SOL     OW35659   0.916   0.468   7.701 -0.6473  0.6359 -0.6536
 8009SOL    HW135660   0.903   0.559   7.727  0.4668  0.7985 -0.6880
 8009SOL    HW235661   0.922   0.430   7.789 -1.6992 -1.1275 -1.3368
 8010SOL     OW35662   2.952   3.503   4.907 -0.2445 -0.1265 -0.4667
 8010SOL    HW135663   3.039   3.464   4.894  0.6759  1.2768  1.5023
 8010SOL    HW235664   2.905   3.428   4.942 -0.3045 -0.7012 -1.7502
 8011SOL     OW35665   3.409   0.584   5.752  0.5720 -0.5014  0.4560
 8011SOL    HW135666   3.340   0.542   5.701  0.6084 -0.0573  0.0379
 8011SOL    HW235667   3.375   0.581   5.841 -1.0009  1.5358 -0.0642
 8012SOL     OW35668   0.619   2.130   9.449  0.0898  0.6505  0.1555
 8012SOL    HW135669   0.698   2.141   9.503 -1.5031  2.9921  2.0043
 8012SOL    HW235670   0.583   2.219   9.450  0.5629  0.8461 -0.1451
 8013SOL     OW35671   4.469   1.646   4.240  0.1716 -0.2857 -0.1572
 8013SOL    HW135672   4.428   1.716   4.190  2.5335  0.7574 -0.6163
 8013SOL    HW235673   4.544   1.690   4.279  1.2988 -0.8034 -1.7460
 8014SOL     OW35674   4.076   0.244  14.291 -0.4892 -0.2809 -0.1548
 8014SOL    HW135675   4.065   0.165  14.238  1.6976 -1.0498  0.5320
 8014SOL    HW235676   3.992   0.247  14.338  1.0830  1.7905  2.5285
 8015SOL     OW35677   4.241   3.880   3.829  0.3475 -0.2778  0.5448
 8015SOL    HW135678   4.256   3.793   3.792  1.3286  0.5619 -1.0467
 8015SOL    HW235679   4.191   3.929   3.763  2.5509  0.1558 -0.8205
 8016SOL     OW35680   4.401   4.174   8.279  0.0223  0.2650 -0.9943
 8016SOL    HW135681   4.485   4.129   8.263 -0.7228 -1.0865 -1.1440
 8016SOL    HW235682   4.382   4.222   8.199 -0.1460 -1.7640 -2.1877
 8017SOL     OW35683   0.006   1.962   4.577  0.5721  0.1039 -0.0107
 8017SOL    HW135684   0.022   1.954   4.483  1.0718 -1.1224  0.1761
 8017SOL    HW235685   4.668   2.021   4.569  1.7949  1.8122  1.0042
 8018SOL     OW35686   1.852   3.056   4.791 -0.4496  0.4900  0.2951
 8018SOL    HW135687   1.896   3.007   4.722 -2.5973  1.9766 -2.1543
 8018SOL    HW235688   1.899   3.039   4.872  0.8016 -0.4598 -0.6372
 8019SOL     OW35689   1.023   0.482   8.625  0.2567 -0.4474 -0.5623
 8019SOL    HW135690   1.017   0.387   8.634 -0.2163  0.0309  4.2369
 8019SOL    HW235691   0.931   0.492   8.602 -0.4231 -0.9319  1.9307
 8020SOL     OW35692   2.097   2.913   1.493 -0.5791 -0.3798  0.3152
 8020SOL    HW135693   2.132   2.995   1.459  1.9838 -1.5064  0.1697
 8020SOL    HW235694   2.169   2.851   1.480 -2.1531 -1.9596 -0.8569
 8021SOL     OW35695   4.674   2.979   1.298 -0.8084 -0.8341  0.2699
 8021SOL    HW135696   4.630   2.940   1.223 -0.7157  0.8312 -0.6482
 8021SOL    HW235697   4.605   3.038   1.329  0.1689  1.0367 -1.1169
 8022SOL     OW35698   0.648   3.865   4.521 -0.0488  0.0387  0.2801
 8022SOL    HW135699   0.634   3.771   4.530 -5.0748  0.8099  0.3731
 8022SOL    HW235700   0.718   3.869   4.456 -1.7214  0.5348 -1.5158
 8023SOL     OW35701   4.560   0.112   7.491  0.0661 -0.4810  0.4890
 8023SOL    HW135702   4.586   0.196   7.452 -1.2056  0.2541  1.2139
 8023SOL    HW235703   4.471   0.105   7.457  1.6822  1.1708 -3.9837
 8024SOL     OW35704   3.732   1.582   7.178  0.3492 -0.1734 -0.2610
 8024SOL    HW135705   3.817   1.543   7.159  2.0068  1.2422  4.1361
 8024SOL    HW235706   3.706   1.608   7.090 -0.0502  0.5629  0.0756
 8025SOL     OW35707   0.743   1.157  16.531 -0.4075  0.4658 -0.5511
 8025SOL    HW135708   0.782   1.128  16.613  1.1121  1.0416 -1.0771
 8025SOL    HW235709   0.785   1.098  16.469 -0.2539  1.0897 -1.0346
 8026SOL     OW35710   4.678   4.231   1.122 -0.8495 -0.5134 -0.2681
 8026SOL    HW135711   4.736   4.242   1.197  0.6779  0.4198 -1.5922
 8026SOL    HW235712   0.002   4.242   1.049  2.9304  0.0464  3.0103
 8027SOL     OW35713   2.938   3.464   3.965  0.5492 -0.3602  0.1950
 8027SOL    HW135714   2.874   3.528   3.933  3.3359  1.8465 -0.9941
 8027SOL    HW235715   3.004   3.526   3.994  0.7856 -0.9666  0.9249
 8028SOL     OW35716   0.246   1.194   9.261 -0.4993 -0.0951 -0.3177
 8028SOL    HW135717   0.244   1.275   9.312  1.6378 -2.6138  3.6853
 8028SOL    HW235718   0.319   1.150   9.305 -0.6752 -0.6552 -0.5861
 8029SOL     OW35719   1.522   2.918   6.767  0.5326  0.5788 -0.1167
 8029SOL    HW135720   1.434   2.937   6.735 -0.3736  1.9595  3.2067
 8029SOL    HW235721   1.523   2.974   6.845  0.4292  0.9855 -0.4157
 8030SOL     OW35722   3.479   2.351   1.243  0.1767 -0.8264 -0.1047
 8030SOL    HW135723   3.504   2.263   1.213  0.5417 -0.0136 -2.1920
 8030SOL    HW235724   3.545   2.386   1.303  1.2363 -0.7455 -1.3084
 8031SOL     OW35725   4.147   0.589   5.734 -0.1276  0.0327  0.4940
 8031SOL    HW135726   4.239   0.565   5.733 -0.3963 -0.8664 -1.6651
 8031SOL    HW235727   4.153   0.679   5.704  3.1422 -0.2323  0.3141
 8032SOL     OW35728   0.691   2.209   9.145 -0.6289 -0.1536  0.4071
 8032SOL    HW135729   0.688   2.153   9.223  0.4038 -0.7209  0.0502
 8032SOL    HW235730   0.782   2.237   9.158 -0.2265 -0.6262 -1.3931
 8033SOL     OW35731   3.128   1.552  16.591 -0.4976 -0.1152  0.0195
 8033SOL    HW135732   3.138   1.494  16.667  0.8202  1.6574  1.1920
 8033SOL    HW235733   3.208   1.509  16.560 -1.2000 -0.4399 -1.3176
 8034SOL     OW35734   0.226   3.226   7.066  0.3970  0.2697  0.0659
 8034SOL    HW135735   0.215   3.301   7.123 -1.3950  0.8020 -0.9861
 8034SOL    HW235736   0.288   3.175   7.119  1.0928  2.0454  0.9472
 8035SOL     OW35737   1.203   2.259   3.446  0.8376 -0.3056 -0.3213
 8035SOL    HW135738   1.156   2.305   3.377  0.7763  1.6140  0.9931
 8035SOL    HW235739   1.251   2.333   3.485  1.6205  0.4393 -2.7363
 8036SOL     OW35740   0.907   2.447  16.982  0.5637 -0.2967  0.2080
 8036SOL    HW135741   0.982   2.441  17.041 -0.0572  0.0507  1.0372
 8036SOL    HW235742   0.937   2.378  16.922  0.1638 -0.8352  0.6197
 8037SOL     OW35743   1.467   2.542  11.803  0.2314  0.4456  0.1543
 8037SOL    HW135744   1.493   2.452  11.822 -0.3001  0.1921 -0.3351
 8037SOL    HW235745   1.458   2.540  11.708  1.3883  2.0502  0.0052
 8038SOL     OW35746   3.754   1.786   3.928  0.4242 -0.0004 -0.2554
 8038SOL    HW135747   3.671   1.791   3.881 -0.4051 -2.5318  0.9606
 8038SOL    HW235748   3.791   1.870   3.901  1.1945 -0.2392  0.0742
 8039SOL     OW35749   2.132   0.650   5.872 -0.3723  0.1714  0.3554
 8039SOL    HW135750   2.112   0.694   5.955  1.3868 -1.3828  1.6106
 8039SOL    HW235751   2.090   0.717   5.818 -0.9667 -0.1861  0.3754
 8040SOL     OW35752   1.078   4.324   2.858 -0.2924 -0.5949  0.2693
 8040SOL    HW135753   1.120   4.308   2.942  1.0557  0.9088 -0.1228
 8040SOL    HW235754   0.989   4.333   2.892 -0.6441  1.3899 -1.1927
 8041SOL     OW35755   0.751   2.075  15.534  0.4787 -0.2241  0.6587
 8041SOL    HW135756   0.822   2.017  15.561  0.1665 -0.2034  1.5212
 8041SOL    HW235757   0.756   2.074  15.438  1.5969 -1.5325  0.7321
 8042SOL     OW35758   3.310   2.283   8.180 -0.4863 -0.1338 -0.3289
 8042SOL    HW135759   3.261   2.275   8.098 -0.0208 -0.9236 -0.5298
 8042SOL    HW235760   3.239   2.306   8.240 -0.7819 -1.1695 -0.2762
 8043SOL     OW35761   1.343   1.064   8.019 -0.0557  0.5216  0.1299
 8043SOL    HW135762   1.319   1.133   8.081  1.7561  1.1667  0.1103
 8043SOL    HW235763   1.426   1.039   8.059 -0.2006  0.2163  0.2392
 8044SOL     OW35764   2.436   2.222  14.297 -0.2985 -0.7041 -0.7076
 8044SOL    HW135765   2.342   2.241  14.287  0.3351  1.7151 -1.9746
 8044SOL    HW235766   2.472   2.277  14.229  2.8018 -1.5589  0.2504
 8045SOL     OW35767   0.318   4.614   0.506  0.6589 -0.2934 -0.0184
 8045SOL    HW135768   0.311   4.693   0.559 -1.4534  0.4229 -1.3396
 8045SOL    HW235769   0.349   4.552   0.571 -0.6759 -1.2841 -0.3307
 8046SOL     OW35770   3.146   0.724   8.534  0.0277 -0.0640  0.2067
 8046SOL    HW135771   3.175   0.805   8.576  0.0218  0.1140 -0.1305
 8046SOL    HW235772   3.054   0.740   8.553  0.2815  1.9241 -0.2917
 8047SOL     OW35773   3.545   2.202   8.761  0.1741  0.1048 -0.1556
 8047SOL    HW135774   3.561   2.281   8.709  2.1555 -0.0856  0.1622
 8047SOL    HW235775   3.564   2.251   8.841 -0.8746  0.2746 -0.0099
 8048SOL     OW35776   4.535   1.951   4.096  0.3687  0.5272  0.6002
 8048SOL    HW135777   4.622   1.961   4.136  0.7279 -1.0079  0.2164
 8048SOL    HW235778   4.480   1.984   4.167  1.2810  0.7117  1.2193
 8049SOL     OW35779   1.585   0.566  14.539  0.2002  0.1369 -0.0012
 8049SOL    HW135780   1.549   0.601  14.620  2.2272 -1.5532  1.6161
 8049SOL    HW235781   1.528   0.489  14.527  1.0614 -0.8204  2.0458
 8050SOL     OW35782   3.677   3.923   8.296 -0.3674 -0.4666 -0.3706
 8050SOL    HW135783   3.701   3.979   8.222 -0.9509 -0.3282 -0.4551
 8050SOL    HW235784   3.593   3.967   8.313 -0.1668 -0.6473  1.0253
 8051SOL     OW35785   0.950   3.837   7.217  0.8312  0.2181 -0.4803
 8051SOL    HW135786   0.858   3.829   7.241  1.3458 -0.3045  1.3196
 8051SOL    HW235787   0.975   3.748   7.192  1.5535  0.4881 -0.7157
 8052SOL     OW35788   2.305   1.759   5.910  0.1993 -0.2791  0.0268
 8052SOL    HW135789   2.389   1.805   5.914 -0.6717  1.3456 -0.4006
 8052SOL    HW235790   2.258   1.837   5.881  0.8809  1.1614  2.8097
 8053SOL     OW35791   0.231   2.376   9.722 -0.6317  0.3934 -0.2194
 8053SOL    HW135792   0.207   2.291   9.686  0.6423 -0.1609  0.2412
 8053SOL    HW235793   0.152   2.429   9.735 -1.3052 -0.4688 -0.8281
 8054SOL     OW35794   1.505   1.443   6.664  0.3597  0.0252  0.3400
 8054SOL    HW135795   1.494   1.521   6.719  1.4578  2.0218 -2.2582
 8054SOL    HW235796   1.532   1.477   6.579  0.9881 -1.4237 -0.0385
 8055SOL     OW35797   4.194   4.623  12.278 -0.1045  0.2396  0.4457
 8055SOL    HW135798   4.176   4.717  12.271 -2.4234 -0.2795 -0.7674
 8055SOL    HW235799   4.149   4.603  12.360 -2.6212 -0.4468 -1.0903
 8056SOL     OW35800   4.348   3.480   4.704  0.1164  0.2484 -0.0403
 8056SOL    HW135801   4.367   3.399   4.751  1.2550  0.7949  0.4595
 8056SOL    HW235802   4.275   3.512   4.756  1.1802 -0.5200  1.9084
 8057SOL     OW35803   3.917   0.547   5.855  0.0698 -0.1122  0.0714
 8057SOL    HW135804   3.854   0.603   5.809 -1.1158 -0.4183  1.3410
 8057SOL    HW235805   3.994   0.570   5.802 -1.4095  0.4462 -1.8205
 8058SOL     OW35806   2.173   2.774   4.911  0.6217  0.0285  0.5993
 8058SOL    HW135807   2.112   2.701   4.909  0.8241 -0.1158 -0.3510
 8058SOL    HW235808   2.246   2.746   4.856  1.5581  1.4824  1.1191
 8059SOL     OW35809   3.567   2.460   3.490 -0.5674  0.6536 -0.1786
 8059SOL    HW135810   3.530   2.397   3.428 -0.9028 -0.9580  1.6637
 8059SOL    HW235811   3.527   2.427   3.571  1.8569  0.9957  1.1390
 8060SOL     OW35812   3.421   1.428   9.152 -0.6382 -0.0190  0.1567
 8060SOL    HW135813   3.333   1.441   9.187 -1.7925 -0.6871 -2.5763
 8060SOL    HW235814   3.467   1.377   9.219 -0.1536  1.3863  0.9018
 8061SOL     OW35815   4.486   3.764   2.191 -0.0078 -0.3390 -0.4310
 8061SOL    HW135816   4.542   3.803   2.123 -2.2214  0.9521 -1.5218
 8061SOL    HW235817   4.477   3.840   2.248  0.3872 -1.3212  0.9228
 8062SOL     OW35818   3.615   1.694  17.522 -0.1569 -0.2972 -0.6410
 8062SOL    HW135819   3.660   1.778  17.533 -2.1254  1.0122 -2.5648
 8062SOL    HW235820   3.527   1.721  17.547 -0.1103  1.6423 -2.5875
 8063SOL     OW35821   4.107   1.718   4.779  0.0290 -0.0683  0.1229
 8063SOL    HW135822   4.034   1.767   4.741  1.6068  0.8240 -1.6963
 8063SOL    HW235823   4.141   1.788   4.834  2.1332 -1.5021  0.6317
 8064SOL     OW35824   0.589   0.694   1.566  0.2689  0.8591  0.1824
 8064SOL    HW135825   0.602   0.735   1.652  2.0591  1.1366 -0.2151
 8064SOL    HW235826   0.517   0.634   1.581  0.5794  0.5043  0.2572
 8065SOL     OW35827   1.105   3.491  14.473  0.6564 -0.2144  0.6074
 8065SOL    HW135828   1.154   3.572  14.491 -0.3264  0.2541  1.1636
 8065SOL    HW235829   1.050   3.521  14.401  0.5942 -0.1216  0.6931
 8066SOL     OW35830   2.706   2.443   8.531  0.7410 -0.3317  0.3767
 8066SOL    HW135831   2.789   2.451   8.580  0.9260 -3.9265  0.6205
 8066SOL    HW235832   2.735   2.412   8.446 -0.9797 -0.3240 -0.2139
 8067SOL     OW35833   2.657   2.221   3.280  0.3977 -0.6938  0.0890
 8067SOL    HW135834   2.750   2.212   3.301  0.5742 -0.7471 -0.6932
 8067SOL    HW235835   2.622   2.141   3.320 -3.3198  0.7927 -0.2011
 8068SOL     OW35836   1.535   0.561  14.868  0.2841  0.2258  0.3426
 8068SOL    HW135837   1.564   0.531  14.954  2.1560 -0.5199 -0.5510
 8068SOL    HW235838   1.529   0.655  14.884 -1.8561  0.6446 -2.9488
 8069SOL     OW35839   4.515   4.629   6.400 -0.6913  0.0478 -0.0805
 8069SOL    HW135840   4.513   4.550   6.454 -1.0288  0.7940  1.0178
 8069SOL    HW235841   4.476   4.605   6.316  1.6294  1.2749 -1.4904
 8070SOL     OW35842   3.153   0.061   6.081  0.2149  0.1921  0.1729
 8070SOL    HW135843   3.191   0.036   6.165 -0.4837  1.3091  0.8145
 8070SOL    HW235844   3.067   0.078   6.119  0.9026  2.7933  0.5826
 8071SOL     OW35845   2.506   3.672   1.632 -0.0816 -0.5107  0.3436
 8071SOL    HW135846   2.485   3.697   1.722  1.0242 -1.8348  0.9654
 8071SOL    HW235847   2.534   3.582   1.650 -1.5419 -0.6300  1.9875
 8072SOL     OW35848   3.311   3.520  14.153 -0.6191  0.1592  0.5914
 8072SOL    HW135849   3.331   3.478  14.070 -0.3191  1.4134  0.0340
 8072SOL    HW235850   3.338   3.445  14.207 -2.0739  1.4445  3.1384
 8073SOL     OW35851   1.288   2.873   2.359  0.2803  0.0461  0.1618
 8073SOL    HW135852   1.375   2.841   2.335  0.2359  1.6396 -2.2051
 8073SOL    HW235853   1.237   2.821   2.297  1.4340 -1.1988  0.2631
 8074SOL     OW35854   2.060   1.833   0.423  0.2701  0.6642 -0.3477
 8074SOL    HW135855   2.088   1.895   0.490 -0.5648 -0.4579  1.0415
 8074SOL    HW235856   2.018   1.890   0.358 -1.2064 -1.0295 -0.8918
 8075SOL     OW35857   1.148   1.457   1.981  0.1218  0.0892  0.2178
 8075SOL    HW135858   1.073   1.515   1.971  2.0127  2.4328 -0.5162
 8075SOL    HW235859   1.117   1.383   1.929  2.9449 -1.8573  1.2383
 8076SOL     OW35860   4.378   3.077  14.286  0.6508 -0.1304 -0.2050
 8076SOL    HW135861   4.301   3.028  14.256  0.9595 -1.0953  0.5825
 8076SOL    HW235862   4.334   3.152  14.327  0.0784 -0.1463 -0.7843
 8077SOL     OW35863   4.386   4.064   3.271  0.1617 -0.7225  0.6940
 8077SOL    HW135864   4.322   4.073   3.201 -0.1534  3.6158  1.5860
 8077SOL    HW235865   4.422   3.979   3.242  0.0292 -0.1539 -1.1232
 8078SOL     OW35866   1.245   4.078   7.803  0.1636 -0.0084  0.1800
 8078SOL    HW135867   1.159   4.110   7.829 -0.1016 -0.5635 -0.0126
 8078SOL    HW235868   1.274   4.044   7.887  2.9939  0.3771 -0.6322
 8079SOL     OW35869   0.119   3.852  12.910 -0.5346 -0.3727  0.2045
 8079SOL    HW135870   0.123   3.829  13.003  1.0534  1.1949  0.5256
 8079SOL    HW235871   0.156   3.940  12.908 -2.8267  0.6123  0.9963
 8080SOL     OW35872   1.681   3.659   5.399 -0.0671 -0.0470  0.9018
 8080SOL    HW135873   1.755   3.599   5.389 -0.4511  0.0246 -2.5705
 8080SOL    HW235874   1.723   3.708   5.470  0.4181  1.7381 -0.6169
 8081SOL     OW35875   2.607   1.062   7.626  0.6768 -0.0538 -0.5467
 8081SOL    HW135876   2.605   1.084   7.532 -0.8766 -0.8563 -0.7086
 8081SOL    HW235877   2.692   1.022   7.636  0.0068 -1.6489 -1.2570
 8082SOL     OW35878   1.519   2.308  10.046  0.0486 -0.8553  0.3142
 8082SOL    HW135879   1.532   2.387   9.994  1.0606 -0.8905  0.5175
 8082SOL    HW235880   1.428   2.323  10.071  0.8864  2.1657  1.5389
 8083SOL     OW35881   1.595   0.111  17.664 -0.0722 -0.0544  0.1473
 8083SOL    HW135882   1.553   0.051  17.601  2.1262 -0.4528 -0.9481
 8083SOL    HW235883   1.678   0.065  17.678  0.5693  1.0316 -0.0508
 8084SOL     OW35884   1.499   4.094  11.577 -0.0852 -0.1745  0.2515
 8084SOL    HW135885   1.530   4.172  11.531  0.1108  0.0806  0.8202
 8084SOL    HW235886   1.560   4.085  11.650 -1.3403 -0.5320  1.2604
 8085SOL     OW35887   2.936   2.147  13.273  0.0908  0.0671 -0.4096
 8085SOL    HW135888   2.881   2.145  13.195 -1.2808 -1.4104  0.5983
 8085SOL    HW235889   2.957   2.240  13.283 -1.7752  0.6799 -2.1385
 8086SOL     OW35890   4.183   1.391   7.433  0.3129  0.3973 -0.6846
 8086SOL    HW135891   4.121   1.382   7.506  2.0976  1.5978  0.9680
 8086SOL    HW235892   4.231   1.309   7.439 -1.6555 -0.6378  1.1067
 8087SOL     OW35893   3.218   0.482   5.618 -0.4318  0.5876  0.7936
 8087SOL    HW135894   3.200   0.392   5.647  2.1200 -0.2021 -0.0262
 8087SOL    HW235895   3.140   0.528   5.650 -0.3396  2.4884 -1.7655
 8088SOL     OW35896   1.359   4.678  12.533 -0.0766 -0.2897  0.2655
 8088SOL    HW135897   1.422   4.639  12.594  1.0559  0.0446 -0.7004
 8088SOL    HW235898   1.289   4.707  12.592 -0.4205  1.5363 -1.0373
 8089SOL     OW35899   1.183   0.598   6.551  0.5320  0.7125  0.1658
 8089SOL    HW135900   1.103   0.546   6.541  0.9204  0.0440  0.4896
 8089SOL    HW235901   1.248   0.539   6.513  1.3890  1.5901  0.2698
 8090SOL     OW35902   0.052   2.940   6.160  0.1902 -0.1120  0.7324
 8090SOL    HW135903   0.067   2.893   6.242  0.3571 -0.4357  0.5172
 8090SOL    HW235904   0.136   2.983   6.149  0.0150  0.0875  0.1794
 8091SOL     OW35905   1.227   2.557   3.304 -0.3526  0.0305 -0.8153
 8091SOL    HW135906   1.147   2.504   3.306  1.7134 -2.9487  3.3550
 8091SOL    HW235907   1.208   2.637   3.256 -3.3541 -1.3646 -1.9189
 8092SOL     OW35908   4.319   2.719  16.761  0.3042 -0.0336  0.5849
 8092SOL    HW135909   4.224   2.726  16.770 -0.0913 -2.1626 -1.8731
 8092SOL    HW235910   4.362   2.792  16.805 -0.1289  0.4413  0.2116
 8093SOL     OW35911   2.595   1.080   4.970  0.1956 -0.3572  0.2460
 8093SOL    HW135912   2.583   1.004   5.026 -0.7099 -1.3164 -1.2412
 8093SOL    HW235913   2.635   1.144   5.029  1.8806  0.0295 -1.2831
 8094SOL     OW35914   0.268   2.845   2.094  0.0496 -0.1925 -0.1288
 8094SOL    HW135915   0.334   2.825   2.160  0.3299 -1.7463 -0.8808
 8094SOL    HW235916   0.301   2.792   2.022 -0.0158  1.5604 -1.4530
 8095SOL     OW35917   0.839   1.116   3.029 -0.0849  0.6978 -0.4229
 8095SOL    HW135918   0.918   1.133   2.978 -0.4459 -2.2212 -1.9279
 8095SOL    HW235919   0.788   1.054   2.976 -0.1567 -0.5731  1.1242
 8096SOL     OW35920   1.389   0.962   9.261 -0.1574  0.0185  0.0811
 8096SOL    HW135921   1.403   0.868   9.274 -0.3040 -0.1943 -1.2928
 8096SOL    HW235922   1.304   0.969   9.305 -1.5219 -1.9084 -2.2281
 8097SOL     OW35923   3.492   2.746   9.797  0.0979  0.1111  0.2351
 8097SOL    HW135924   3.521   2.825   9.842  0.1992  0.3432 -0.2389
 8097SOL    HW235925   3.410   2.733   9.845 -0.7919 -1.9008 -1.8260
 8098SOL     OW35926   4.284   3.721  11.497 -0.0323 -0.7500  0.3794
 8098SOL    HW135927   4.253   3.802  11.538 -0.8397 -1.5932  1.4581
 8098SOL    HW235928   4.314   3.684  11.581  0.4983 -0.0672  0.4933
 8099SOL     OW35929   3.608   3.588   2.758 -0.0415  0.2604 -0.0999
 8099SOL    HW135930   3.640   3.608   2.846  1.1751  0.6995 -0.6323
 8099SOL    HW235931   3.539   3.523   2.769 -2.0525  2.5055  0.6155
 8100SOL     OW35932   3.673   4.451   3.655 -0.2750 -0.4948  0.4284
 8100SOL    HW135933   3.766   4.453   3.633 -0.2000 -1.0728  0.6979
 8100SOL    HW235934   3.674   4.505   3.734 -3.0229  2.4966 -1.6150
 8101SOL     OW35935   4.680   1.049   8.547 -0.1568  0.4825  0.0277
 8101SOL    HW135936   4.721   1.119   8.496 -1.0816  1.1720  0.2215
 8101SOL    HW235937   4.643   1.096   8.622  1.6859  2.2603 -0.1756
 8102SOL     OW35938   1.097   3.689   4.801  0.2278 -0.7338 -1.1403
 8102SOL    HW135939   1.091   3.602   4.842  1.4225  0.7169  2.0737
 8102SOL    HW235940   1.004   3.708   4.800  0.7782  1.9425 -0.1800
 8103SOL     OW35941   0.652   0.869  17.237  0.2168 -0.0058  0.1813
 8103SOL    HW135942   0.657   0.774  17.253 -0.3037  0.4591  3.1250
 8103SOL    HW235943   0.626   0.894  17.326 -2.3832  2.4860 -1.2828
 8104SOL     OW35944   4.262   1.278   6.917 -0.2741 -0.0429 -0.8076
 8104SOL    HW135945   4.338   1.245   6.868 -1.1306 -3.3910  0.1529
 8104SOL    HW235946   4.295   1.249   7.001  2.9407  1.8526 -1.4166
 8105SOL     OW35947   4.686   2.152   0.551 -0.2192 -0.2483  1.0577
 8105SOL    HW135948   4.605   2.199   0.531 -0.9339 -1.1216  1.9375
 8105SOL    HW235949   4.660   2.066   0.582 -1.7744 -0.5794 -1.1488
 8106SOL     OW35950   1.446   2.572   5.120  0.3322 -0.1946  0.2555
 8106SOL    HW135951   1.422   2.662   5.098 -0.8186 -0.6540 -0.3754
 8106SOL    HW235952   1.466   2.534   5.034 -0.0304  0.7789 -0.2541
 8107SOL     OW35953   1.617   1.817  12.053 -0.3371  0.2049 -0.0574
 8107SOL    HW135954   1.690   1.768  12.017 -0.2666  0.0561  0.2838
 8107SOL    HW235955   1.596   1.875  11.981 -1.5837 -0.6420 -0.3906
 8108SOL     OW35956   1.388   2.006   9.225  0.5794 -0.1485  0.3824
 8108SOL    HW135957   1.476   1.973   9.209  1.4726  2.4312  0.0769
 8108SOL    HW235958   1.401   2.098   9.248  1.1336 -0.4679  1.3452
 8109SOL     OW35959   2.781   2.631   1.698  0.3230  0.4408 -0.4290
 8109SOL    HW135960   2.755   2.583   1.620  1.1019 -0.4166 -0.1607
 8109SOL    HW235961   2.701   2.654   1.744  1.1264 -2.2600  2.3165
 8110SOL     OW35962   0.712   0.914   5.985  0.2788  0.5220  0.0936
 8110SOL    HW135963   0.684   1.006   5.982 -2.0660 -0.1922 -0.2302
 8110SOL    HW235964   0.681   0.891   6.073  1.7535 -1.4376  0.0818
 8111SOL     OW35965   3.207   4.029   3.928 -0.5618 -0.3264 -0.5033
 8111SOL    HW135966   3.126   3.989   3.895 -0.8492 -0.9061  0.9092
 8111SOL    HW235967   3.272   3.988   3.871 -2.0490  0.0662 -2.4868
 8112SOL     OW35968   0.584   1.878   8.371 -0.2658 -0.4164 -0.6358
 8112SOL    HW135969   0.627   1.949   8.419  0.6291 -0.5768 -1.1946
 8112SOL    HW235970   0.657   1.822   8.348 -1.8709 -1.6234 -2.7541
 8113SOL     OW35971   4.719   2.444   5.436 -0.2018  0.0757 -0.8042
 8113SOL    HW135972   4.628   2.470   5.449  0.4217  2.6386 -1.4723
 8113SOL    HW235973   0.010   2.423   5.525 -1.4658  0.9336 -0.2127
 8114SOL     OW35974   3.922   3.429   4.806 -0.2870  0.1634 -0.3813
 8114SOL    HW135975   3.986   3.501   4.802  0.6233 -0.7302 -1.7396
 8114SOL    HW235976   3.957   3.371   4.739 -1.8349 -0.7069 -0.4376
 8115SOL     OW35977   3.905   1.538  13.664  0.0772  0.0246 -0.4754
 8115SOL    HW135978   3.892   1.502  13.752  0.2795  2.6435  0.6196
 8115SOL    HW235979   3.997   1.562  13.676  0.4658 -2.3743  1.4006
 8116SOL     OW35980   0.013   4.218   3.162  0.1814 -0.9302  0.0802
 8116SOL    HW135981   0.077   4.155   3.195 -1.2673 -0.4121  3.8708
 8116SOL    HW235982   0.068   4.296   3.161 -4.0767  2.1033  2.9858
 8117SOL     OW35983   1.442   4.717  11.446  0.3515  0.6766  0.2265
 8117SOL    HW135984   1.396   0.017  11.371  0.3743 -1.1019 -0.6782
 8117SOL    HW235985   1.405   0.028  11.520 -1.7292  0.4975 -0.7145
 8118SOL     OW35986   3.460   2.565   4.814  0.1760  0.3011  0.1510
 8118SOL    HW135987   3.431   2.515   4.738  2.4914  0.1434 -0.6339
 8118SOL    HW235988   3.382   2.611   4.844 -0.3921 -0.0527 -0.7725
 8119SOL     OW35989   0.626   3.195   1.042 -0.8077 -0.1103 -0.1430
 8119SOL    HW135990   0.684   3.217   0.969 -0.5583 -1.6857 -0.4164
 8119SOL    HW235991   0.611   3.287   1.065  1.7604  0.3302 -0.1842
 8120SOL     OW35992   2.891   1.216   7.072 -0.0656 -0.1092  0.2206
 8120SOL    HW135993   2.865   1.176   6.989  0.3406 -1.2875  0.6723
 8120SOL    HW235994   2.984   1.196   7.065 -0.3909 -1.1174 -1.0986
 8121SOL     OW35995   4.450   2.112   5.484  0.2893  0.1593  0.3770
 8121SOL    HW135996   4.543   2.098   5.468  0.3904 -0.4087  1.4959
 8121SOL    HW235997   4.446   2.203   5.454  1.7408  0.6440  1.6860
 8122SOL     OW35998   1.554   1.836   4.253  0.5651 -0.4210 -0.4367
 8122SOL    HW135999   1.541   1.774   4.180  0.5657  2.9812 -3.3230
 8122SOL    HW236000   1.463   1.851   4.279  0.8226  1.6438 -0.7520
 8123SOL     OW36001   4.405   1.767   1.443 -0.0583  1.1837 -0.7678
 8123SOL    HW136002   4.443   1.809   1.365  0.3258 -1.5568 -2.0407
 8123SOL    HW236003   4.388   1.681   1.406  1.2917 -0.5200  2.5787
 8124SOL     OW36004   1.415   3.701   5.672  0.2671 -0.5781 -0.0234
 8124SOL    HW136005   1.433   3.666   5.585  0.6488 -0.3285 -0.0452
 8124SOL    HW236006   1.382   3.618   5.707 -1.5145  0.9249  1.8737
 8125SOL     OW36007   1.337   1.248  10.601 -0.0705 -1.0206  0.7114
 8125SOL    HW136008   1.313   1.157  10.615 -2.0655 -0.6430 -0.1668
 8125SOL    HW236009   1.270   1.274  10.538 -0.5241 -2.0015  0.7842
 8126SOL     OW36010   4.275   2.055  15.685  0.1901 -0.2085  0.3391
 8126SOL    HW136011   4.355   2.107  15.669 -0.0497 -0.3652 -1.3318
 8126SOL    HW236012   4.282   2.052  15.780 -0.0029 -1.0304  0.3271
 8127SOL     OW36013   2.811   1.747  15.476 -0.2686 -0.0263 -0.0511
 8127SOL    HW136014   2.778   1.683  15.539 -0.0284 -0.3527 -0.2566
 8127SOL    HW236015   2.749   1.810  15.511  0.0984 -0.1779  0.8699
 8128SOL     OW36016   1.277   0.353   2.025 -0.2897 -0.5201 -0.3044
 8128SOL    HW136017   1.204   0.303   2.062 -0.0545 -1.1287 -0.6607
 8128SOL    HW236018   1.279   0.328   1.932  2.1545 -1.0384 -0.0973
 8129SOL     OW36019   3.185   0.615   4.374  0.2083 -1.1323 -0.3360
 8129SOL    HW136020   3.118   0.624   4.306  0.7266  1.4421 -0.4955
 8129SOL    HW236021   3.194   0.703   4.411  0.3131 -1.4099  0.3012
 8130SOL     OW36022   4.521   2.577   0.963 -0.3040  0.0534 -0.1093
 8130SOL    HW136023   4.451   2.553   0.901 -0.8779 -0.0261  0.5703
 8130SOL    HW236024   4.589   2.594   0.898 -0.2956  0.0894 -0.0911
 8131SOL     OW36025   0.715   3.151  11.952 -0.1926  0.1707  0.1457
 8131SOL    HW136026   0.676   3.183  12.033  0.4956  2.6182 -0.4955
 8131SOL    HW236027   0.751   3.232  11.917 -3.5585  2.0024  0.9342
 8132SOL     OW36028   3.025   0.941   4.182  0.1106 -0.2008 -0.6407
 8132SOL    HW136029   3.005   0.965   4.273  0.1298  0.4835 -0.8139
 8132SOL    HW236030   3.068   1.020   4.150  0.0248  1.2377  2.7744
 8133SOL     OW36031   2.275   3.728  15.601  0.5155  0.0341 -0.2041
 8133SOL    HW136032   2.336   3.686  15.541 -0.5836 -0.7445 -0.7715
 8133SOL    HW236033   2.187   3.703  15.575  0.9740 -2.2699  0.4825
 8134SOL     OW36034   1.135   0.629   5.989  0.4069  0.4804  0.0943
 8134SOL    HW136035   1.122   0.723   5.978 -0.8974  0.7853  4.1620
 8134SOL    HW236036   1.208   0.633   6.052 -0.7875 -0.3737  1.5237
 8135SOL     OW36037   2.044   1.604   0.239 -0.2460  0.1799  0.0999
 8135SOL    HW136038   2.043   1.672   0.172 -0.2533  2.0371  1.9977
 8135SOL    HW236039   2.097   1.655   0.300  1.6534  1.8320 -2.9285
 8136SOL     OW36040   3.893   1.048   0.248  0.4139  0.4564  0.8022
 8136SOL    HW136041   3.914   1.088   0.332  1.8920 -2.5721  1.8699
 8136SOL    HW236042   3.893   0.953   0.256  0.6465  0.4655  0.9005
 8137SOL     OW36043   2.226   2.134   7.378  0.0675 -0.0013  0.4225
 8137SOL    HW136044   2.269   2.100   7.457  1.0018  2.5677  1.0156
 8137SOL    HW236045   2.264   2.221   7.377 -2.2073  0.9981  0.3735
 8138SOL     OW36046   0.870   1.430   5.895  0.2422  0.3952  0.0842
 8138SOL    HW136047   0.877   1.505   5.954  1.1131 -1.3908  2.2396
 8138SOL    HW236048   0.894   1.350   5.942 -2.2990 -1.5020 -1.8370
 8139SOL     OW36049   0.945   2.931   7.828  0.0833 -0.2790 -0.6805
 8139SOL    HW136050   0.999   2.875   7.772  2.4949  1.1868  0.1982
 8139SOL    HW236051   0.936   3.006   7.769  2.1652  2.0595  2.0112
 8140SOL     OW36052   1.869   3.875   5.625  0.1141 -0.1267 -0.5037
 8140SOL    HW136053   1.950   3.889   5.674 -0.0802 -1.8727  0.2937
 8140SOL    HW236054   1.831   3.793   5.656  0.5840 -0.5267 -0.9864
 8141SOL     OW36055   1.681   0.441   4.407 -0.0176 -0.5870  0.5063
 8141SOL    HW136056   1.625   0.435   4.485 -2.2723 -0.3394 -1.0998
 8141SOL    HW236057   1.753   0.494   4.442  1.0237 -0.6846 -1.5087
 8142SOL     OW36058   0.674   1.572   8.195  0.2623  0.1375 -0.0102
 8142SOL    HW136059   0.757   1.600   8.233  0.3259  1.9732 -1.5069
 8142SOL    HW236060   0.662   1.640   8.129  2.0452  1.8757  1.4620
 8143SOL     OW36061   2.949   3.469   6.944  0.2132  0.2077  0.1542
 8143SOL    HW136062   3.002   3.401   6.902  0.7515  0.7071  0.0156
 8143SOL    HW236063   2.938   3.526   6.868 -1.7396  1.9154  1.7185
 8144SOL     OW36064   1.814   0.023   5.814  0.5468 -1.0350  0.7254
 8144SOL    HW136065   1.848   4.671   5.807  2.9129 -0.0761  0.2119
 8144SOL    HW236066   1.840   0.059   5.730 -0.8823  1.2940  1.2802
 8145SOL     OW36067   1.082   0.824  13.599 -0.3029 -0.3477 -0.5047
 8145SOL    HW136068   1.171   0.794  13.621 -1.0431 -2.1037  0.1449
 8145SOL    HW236069   1.062   0.892  13.663 -0.7082  0.0098 -1.0131
 8146SOL     OW36070   0.634   4.447   3.869 -0.0129  0.0793 -0.2510
 8146SOL    HW136071   0.684   4.481   3.795  1.6115 -0.1719  0.7232
 8146SOL    HW236072   0.671   4.491   3.946  0.0556  0.5940 -0.5852
 8147SOL     OW36073   2.034   3.535  11.387 -0.4776  0.1581 -0.3743
 8147SOL    HW136074   1.964   3.599  11.374  1.0730  1.2004 -3.5838
 8147SOL    HW236075   1.980   3.470  11.431  0.9188  0.2739  1.5483
 8148SOL     OW36076   0.196   1.952  16.690 -0.2532 -0.3830  0.4679
 8148SOL    HW136077   0.155   2.038  16.679 -0.2750 -0.4369  0.1297
 8148SOL    HW236078   0.265   1.966  16.755  0.3277 -1.4001  0.0687
 8149SOL     OW36079   2.264   0.093   4.156  0.0061  0.1451 -0.0791
 8149SOL    HW136080   2.251   4.735   4.152 -1.1854  0.2376  1.5223
 8149SOL    HW236081   2.333   0.084   4.222 -2.1087 -0.9875  2.0033
 8150SOL     OW36082   2.193   1.002   2.337  0.4085  0.5799  0.4744
 8150SOL    HW136083   2.237   0.942   2.277 -1.6303  2.0854 -2.5449
 8150SOL    HW236084   2.105   0.990   2.300  0.0851 -1.6815  1.9996
 8151SOL     OW36085   0.146   3.702  15.346  0.5191  0.5932 -0.0610
 8151SOL    HW136086   0.066   3.734  15.304 -1.6882 -2.7528  1.6085
 8151SOL    HW236087   0.099   3.639  15.400 -0.5261  1.5810  0.1724
 8152SOL     OW36088   3.893   2.125  14.224 -0.3718  0.0370 -0.3495
 8152SOL    HW136089   3.905   2.037  14.258 -0.2746 -0.2798 -1.2051
 8152SOL    HW236090   3.812   2.101  14.179  0.1796  0.0992 -1.3977
 8153SOL     OW36091   4.613   3.600   1.746 -0.1986 -0.0585 -0.5321
 8153SOL    HW136092   4.533   3.619   1.794 -0.2195 -2.1070  0.2885
 8153SOL    HW236093   4.589   3.531   1.684 -0.3318 -0.8559  0.3900
 8154SOL     OW36094   1.267   3.297  14.549 -0.5949  0.2201  0.1256
 8154SOL    HW136095   1.218   3.369  14.510 -0.4466  0.5683  0.5738
 8154SOL    HW236096   1.227   3.220  14.508  1.2019 -1.4140  1.3996
 8155SOL     OW36097   0.660   4.571   5.480  0.3770  0.3156  0.4101
 8155SOL    HW136098   0.634   4.659   5.506 -1.7900  0.0450 -0.8936
 8155SOL    HW236099   0.622   4.523   5.553  2.4662 -1.1611  0.5469
 8156SOL     OW36100   0.019   1.002   2.003  0.7446  0.0096 -0.1425
 8156SOL    HW136101   4.722   0.915   1.987  1.6156 -0.4478  0.4746
 8156SOL    HW236102   4.675   1.042   2.033  0.9622 -0.8689  1.6111
 8157SOL     OW36103   0.428   0.753  14.701 -0.6750 -0.0687  0.0155
 8157SOL    HW136104   0.374   0.673  14.700  0.0108 -0.5412  1.3189
 8157SOL    HW236105   0.360   0.820  14.709 -1.1875 -0.4836 -0.7730
 8158SOL     OW36106   3.509   4.416   1.901 -0.6756  0.3246 -0.0504
 8158SOL    HW136107   3.475   4.500   1.934 -1.4168  0.5080 -1.2561
 8158SOL    HW236108   3.459   4.352   1.953 -0.6878  0.1800 -0.2402
 8159SOL     OW36109   4.174   2.841   1.577 -0.4766  0.7012  0.0832
 8159SOL    HW136110   4.194   2.890   1.657  0.1927  1.6786 -0.6854
 8159SOL    HW236111   4.176   2.749   1.606  1.1376  0.5912 -0.3573
 8160SOL     OW36112   0.096   2.343   0.384  0.1649 -0.7693  0.5079
 8160SOL    HW136113   0.024   2.405   0.375 -1.0702 -2.2367  0.2641
 8160SOL    HW236114   0.050   2.259   0.387  0.1121 -0.7957 -1.3967
 8161SOL     OW36115   3.760   3.383  10.108 -0.1820  0.1250 -0.2323
 8161SOL    HW136116   3.679   3.333  10.123 -1.7853  2.5224 -0.8910
 8161SOL    HW236117   3.719   3.469  10.106 -0.7342 -0.1295  0.0844
 8162SOL     OW36118   0.140   2.996  10.258 -0.0942  0.2111  0.0252
 8162SOL    HW136119   0.233   2.974  10.256  0.4502  2.4764  0.1667
 8162SOL    HW236120   0.135   3.067  10.323  0.6960  1.4985 -1.3256
 8163SOL     OW36121   4.411   2.677   5.099 -0.1873 -0.0071 -0.1410
 8163SOL    HW136122   4.333   2.726   5.126  0.3270  1.9683 -2.2796
 8163SOL    HW236123   4.428   2.710   5.011 -0.0921  4.2857  1.4841
 8164SOL     OW36124   3.441   0.239   6.578  0.0853 -0.5872 -0.3175
 8164SOL    HW136125   3.533   0.225   6.556  0.1564 -2.2195  1.0229
 8164SOL    HW236126   3.406   0.152   6.558 -0.5320 -0.2214 -0.8267
 8165SOL     OW36127   2.084   1.096   9.196  0.5088  0.2628  0.2963
 8165SOL    HW136128   2.040   1.018   9.230  0.5234 -1.0389 -2.7393
 8165SOL    HW236129   2.158   1.099   9.258 -0.2105 -0.3762  1.1811
 8166SOL     OW36130   1.542   3.152   6.536  0.4227 -0.1844  0.6178
 8166SOL    HW136131   1.630   3.130   6.564  0.7376 -0.6758 -0.7789
 8166SOL    HW236132   1.552   3.242   6.506 -2.0693 -0.7427 -1.9179
 8167SOL     OW36133   2.739   4.230   9.428  0.1818  0.0038  0.0533
 8167SOL    HW136134   2.661   4.198   9.474 -0.7257 -0.2838 -1.6927
 8167SOL    HW236135   2.767   4.149   9.385 -0.3681 -0.2429  0.1670
 8168SOL     OW36136   1.484   2.541   2.967 -0.3172 -0.5070  0.6916
 8168SOL    HW136137   1.444   2.510   2.886 -1.2215 -0.7281  1.2234
 8168SOL    HW236138   1.541   2.466   2.985  0.5905  0.5321  2.1834
 8169SOL     OW36139   0.918   3.012   2.563 -0.1358  0.3004  0.4214
 8169SOL    HW136140   0.878   3.092   2.527 -0.8575  0.0188  0.6016
 8169SOL    HW236141   0.950   2.966   2.486 -0.4528  1.4424 -0.4034
 8170SOL     OW36142   4.718   1.200   7.002  0.4707  0.0473  0.2913
 8170SOL    HW136143   0.002   1.175   7.092  2.5454 -2.1256 -0.7963
 8170SOL    HW236144   0.028   1.142   6.942 -1.5859 -2.5600  1.2230
 8171SOL     OW36145   2.726   4.510   3.012 -0.6477  0.3226 -0.5066
 8171SOL    HW136146   2.700   4.481   3.099 -0.2584 -2.0592 -1.1801
 8171SOL    HW236147   2.804   4.456   2.998  0.4951  2.2877 -1.7664
 8172SOL     OW36148   2.390   3.169  15.999  0.0608 -0.5362  0.1421
 8172SOL    HW136149   2.345   3.160  15.915 -1.0543 -1.8270  0.8919
 8172SOL    HW236150   2.355   3.256  16.020 -1.1226 -0.9308 -0.2203
 8173SOL     OW36151   2.902   1.841   6.169 -0.6796  0.5468 -0.5547
 8173SOL    HW136152   2.900   1.852   6.264 -1.1166 -1.0559 -0.3829
 8173SOL    HW236153   2.960   1.766   6.184 -1.0827  0.2513 -0.4494
 8174SOL     OW36154   0.081   0.894   5.924 -0.1396 -0.3670  0.1457
 8174SOL    HW136155   0.079   0.946   5.844 -2.0037 -1.9126 -0.8246
 8174SOL    HW236156   0.038   0.953   5.986 -0.1976  0.6000 -0.8205
 8175SOL     OW36157   2.857   2.229   4.412  0.0730 -0.4175  0.2581
 8175SOL    HW136158   2.941   2.188   4.432 -0.5973 -1.5172  0.8302
 8175SOL    HW236159   2.803   2.150   4.409  0.5577 -0.7082 -0.7815
 8176SOL     OW36160   1.021   0.072   8.893 -0.1944 -0.1138 -0.2289
 8176SOL    HW136161   1.086   0.102   8.830  0.9586  0.8259  1.4505
 8176SOL    HW236162   1.022   0.157   8.936 -0.7426 -0.5123  0.5824
 8177SOL     OW36163   3.623   1.835   1.725 -0.1535  0.2193 -0.2218
 8177SOL    HW136164   3.574   1.775   1.668 -0.3259  1.2871 -1.1958
 8177SOL    HW236165   3.711   1.799   1.716 -0.9565 -1.4953 -1.1851
 8178SOL     OW36166   2.129   2.587   1.519  0.2900  0.0704 -0.3159
 8178SOL    HW136167   2.179   2.644   1.577 -0.8751  0.5290  0.2448
 8178SOL    HW236168   2.109   2.517   1.581 -1.0809  0.9106  0.1957
 8179SOL     OW36169   1.706   4.075  17.423 -0.0702  0.2814  0.4903
 8179SOL    HW136170   1.620   4.115  17.407 -1.1734 -2.8303 -1.4259
 8179SOL    HW236171   1.694   3.985  17.453  0.3596  0.2420  0.5401
 8180SOL     OW36172   2.665   1.111   4.197  0.0968  0.4176 -0.0040
 8180SOL    HW136173   2.669   1.023   4.162  1.0860  0.3966  0.1715
 8180SOL    HW236174   2.671   1.089   4.290  0.7043  0.6502  0.0122
 8181SOL     OW36175   1.725   1.499   4.845  0.7452 -0.3508  0.1970
 8181SOL    HW136176   1.675   1.459   4.916 -0.1701 -2.6602 -1.7897
 8181SOL    HW236177   1.648   1.520   4.791  0.1519  0.4001  1.3221
 8182SOL     OW36178   1.244   4.566   2.552 -0.1093 -0.0735 -0.1261
 8182SOL    HW136179   1.299   4.489   2.560  0.9539  1.0171  3.2470
 8182SOL    HW236180   1.259   4.586   2.460 -0.5519  0.4288 -0.0886
 8183SOL     OW36181   3.338   0.868   5.367  0.1413  0.5179  0.2616
 8183SOL    HW136182   3.404   0.809   5.330  1.8545  1.6718  1.4471
 8183SOL    HW236183   3.263   0.811   5.355  2.2266 -2.3610  0.8708
 8184SOL     OW36184   2.621   1.718   3.641  0.3787  0.3179  0.5991
 8184SOL    HW136185   2.575   1.713   3.558  2.9831 -1.3803 -0.7658
 8184SOL    HW236186   2.551   1.694   3.701 -0.8245  1.5071 -0.3378
 8185SOL     OW36187   2.438   0.588   2.404 -0.3814 -0.2733 -0.6881
 8185SOL    HW136188   2.354   0.608   2.364 -0.6349 -0.4109 -0.2270
 8185SOL    HW236189   2.425   0.499   2.438  0.3334 -0.1686 -0.1431
 8186SOL     OW36190   4.603   3.587   9.852 -0.0702  0.3179 -0.1915
 8186SOL    HW136191   4.553   3.555   9.776  0.0098  2.0866 -0.9898
 8186SOL    HW236192   4.687   3.590   9.806 -0.4581 -1.9171 -1.0618
 8187SOL     OW36193   0.412   4.303   5.266  0.6069  0.0934  0.8262
 8187SOL    HW136194   0.433   4.257   5.348  1.3812  2.4820  1.9574
 8187SOL    HW236195   0.494   4.297   5.218  0.0605 -1.0688  0.0162
 8188SOL     OW36196   2.346   2.830   2.218 -0.0669 -0.5867 -0.4955
 8188SOL    HW136197   2.429   2.802   2.180  0.4202  0.6824 -0.3688
 8188SOL    HW236198   2.289   2.799   2.148 -1.9665 -0.0092  0.8201
 8189SOL     OW36199   2.468   4.274   3.032  0.2127  0.2237  0.2683
 8189SOL    HW136200   2.541   4.272   3.094  0.8461 -0.6924 -0.5223
 8189SOL    HW236201   2.406   4.340   3.065 -0.3176  0.4156 -1.1156
 8190SOL     OW36202   4.084   0.886   6.390  0.0883 -0.3068 -0.2484
 8190SOL    HW136203   4.101   0.799   6.354  0.6301  0.4374 -1.7815
 8190SOL    HW236204   4.011   0.923   6.339 -0.8964 -4.1781 -1.6382
 8191SOL     OW36205   2.016   2.409  14.177 -0.1684  0.4755 -0.1261
 8191SOL    HW136206   1.943   2.471  14.185 -1.2350 -0.7854 -0.1775
 8191SOL    HW236207   2.088   2.459  14.216 -0.2570 -0.6103  1.4283
 8192SOL     OW36208   1.955   2.736   7.112  0.6133  0.1288  0.3433
 8192SOL    HW136209   1.937   2.825   7.140  0.0607 -0.4416  1.7978
 8192SOL    HW236210   1.884   2.722   7.048 -0.6257  1.8206  1.3699
 8193SOL     OW36211   1.537   1.612   9.087 -0.5040  0.0771  0.3167
 8193SOL    HW136212   1.521   1.659   9.005 -2.4772 -2.2344 -0.6216
 8193SOL    HW236213   1.568   1.683   9.142  2.4427 -1.1052  0.1903
 8194SOL     OW36214   0.832   0.337   3.774 -0.4049 -0.3495  0.0276
 8194SOL    HW136215   0.814   0.327   3.868 -1.3174  2.1234  0.1122
 8194SOL    HW236216   0.924   0.310   3.769  0.3833  2.1673  1.0493
 8195SOL     OW36217   2.482   1.630   2.956  0.1081 -0.3137  0.1844
 8195SOL    HW136218   2.401   1.613   2.909 -0.2401 -0.6910  0.9248
 8195SOL    HW236219   2.548   1.579   2.908 -0.2808 -1.0908  0.4864
 8196SOL     OW36220   3.641   4.026   3.063 -0.0564  0.0472 -0.0775
 8196SOL    HW136221   3.583   4.055   2.993  1.1852  0.3280 -0.9733
 8196SOL    HW236222   3.625   4.105   3.115 -0.0794 -0.5385  0.8234
 8197SOL     OW36223   3.338   4.023   9.823  1.2209 -0.1623 -0.4212
 8197SOL    HW136224   3.343   4.039   9.917 -1.6286  0.9462 -0.4288
 8197SOL    HW236225   3.427   3.992   9.808  1.0908 -1.4512  1.5224
 8198SOL     OW36226   1.263   1.105  10.938 -0.1929 -0.4977 -0.3787
 8198SOL    HW136227   1.246   1.012  10.955 -3.1082 -0.0690 -0.9478
 8198SOL    HW236228   1.315   1.098  10.857  0.7283 -3.6243  0.4837
 8199SOL     OW36229   0.704   0.954   8.626  0.1296 -0.2335 -0.1159
 8199SOL    HW136230   0.644   0.943   8.700  1.7727 -0.7468  1.1276
 8199SOL    HW236231   0.636   0.940   8.560  0.3923  0.2832 -0.4918
 8200SOL     OW36232   4.239   2.342   0.178 -0.6539 -0.0144 -0.2834
 8200SOL    HW136233   4.298   2.381   0.113 -1.3454 -0.6757 -1.3090
 8200SOL    HW236234   4.162   2.366   0.127  0.0735 -1.1597 -1.9418
 8201SOL     OW36235   1.119   2.266   4.988  0.2145  0.4708 -0.2335
 8201SOL    HW136236   1.212   2.268   4.968  0.1148  0.6938 -0.6853
 8201SOL    HW236237   1.080   2.276   4.901 -0.9905 -0.5820  0.1946
 8202SOL     OW36238   1.754   4.677  17.329 -0.0578  0.2417  0.2297
 8202SOL    HW136239   1.706   4.660  17.249  0.0056  1.6457 -0.1097
 8202SOL    HW236240   1.686   4.677  17.397 -1.0242  1.6105 -0.7374
 8203SOL     OW36241   0.200   1.708   2.033  0.3713 -0.5038 -0.4437
 8203SOL    HW136242   0.155   1.693   2.116 -1.8612  1.0108 -1.4072
 8203SOL    HW236243   0.190   1.803   2.037 -1.6383 -0.7668  0.8865
 8204SOL     OW36244   1.165   2.833   5.295 -0.6514  0.0629 -0.4266
 8204SOL    HW136245   1.177   2.916   5.340  0.3424 -0.5462  0.4342
 8204SOL    HW236246   1.078   2.814   5.331 -0.4871  0.6414  0.2555
 8205SOL     OW36247   2.977   4.145  12.467  0.3795 -0.1574  0.3974
 8205SOL    HW136248   2.884   4.165  12.453  0.1162 -1.5268  0.1341
 8205SOL    HW236249   3.017   4.158  12.381 -1.7519  0.1839 -0.5473
 8206SOL     OW36250   0.089   2.604   3.601 -0.2907 -0.4641 -0.0858
 8206SOL    HW136251   0.083   2.532   3.538 -2.1260  0.5096 -1.0167
 8206SOL    HW236252   0.103   2.683   3.550 -0.1229 -2.1491 -2.6676
 8207SOL     OW36253   1.533   3.366   8.548 -0.5530  0.4550  0.0458
 8207SOL    HW136254   1.557   3.274   8.553  0.8998  0.7688 -0.9026
 8207SOL    HW236255   1.590   3.396   8.478 -1.5042 -0.9484 -1.3109
 8208SOL     OW36256   3.358   1.836   3.645 -0.2918 -0.2910  0.0204
 8208SOL    HW136257   3.379   1.799   3.559 -1.6587 -2.1723  0.5076
 8208SOL    HW236258   3.315   1.917   3.617 -2.0746 -1.4755 -0.5935
 8209SOL     OW36259   1.571   1.631   7.600  0.2742  0.5466  0.0713
 8209SOL    HW136260   1.534   1.645   7.513 -2.0610 -0.3843  0.9026
 8209SOL    HW236261   1.637   1.699   7.608  2.3519 -1.6819  2.1470
 8210SOL     OW36262   1.307   2.846  14.561  0.5507  0.6093  0.7992
 8210SOL    HW136263   1.258   2.783  14.614  2.5575  0.1927  2.1430
 8210SOL    HW236264   1.374   2.787  14.528 -0.8030  0.2178 -1.2708
 8211SOL     OW36265   3.524   0.082   7.219  0.0938  0.3738 -0.1195
 8211SOL    HW136266   3.475   0.017   7.268  2.2427  0.1505  1.7269
 8211SOL    HW236267   3.553   0.148   7.282 -0.8301  0.2449  0.4362
 8212SOL     OW36268   1.827   4.701   4.620 -0.0715  0.4153 -0.1679
 8212SOL    HW136269   1.787   0.023   4.556  1.0592  0.2163 -1.0674
 8212SOL    HW236270   1.913   0.003   4.636 -0.7279  0.7637  2.5600
 8213SOL     OW36271   4.695   2.770  13.596  0.0251  0.2226  0.0094
 8213SOL    HW136272   4.633   2.761  13.668 -0.7974  0.1085 -0.7152
 8213SOL    HW236273   0.035   2.720  13.625  0.4511 -0.9468 -3.1537
 8214SOL     OW36274   3.509   4.369   1.621  0.1372 -0.0461  0.6631
 8214SOL    HW136275   3.542   4.446   1.574 -1.2408  0.3584  0.3595
 8214SOL    HW236276   3.530   4.396   1.711  1.8997  1.8794 -0.3145
 8215SOL     OW36277   2.927   4.549   6.200 -0.0552 -0.9835 -0.4121
 8215SOL    HW136278   2.922   4.477   6.264  3.1709 -0.3947  0.4889
 8215SOL    HW236279   2.973   4.623   6.240 -2.6762  0.6705 -0.4447
 8216SOL     OW36280   3.856   3.879   5.594  0.8129  0.1820 -0.5782
 8216SOL    HW136281   3.905   3.930   5.530  2.7079 -1.4781 -0.4348
 8216SOL    HW236282   3.921   3.809   5.600  1.7175  1.0109 -0.6641
 8217SOL     OW36283   1.252   3.441   9.597  0.2759 -0.4823  0.0162
 8217SOL    HW136284   1.206   3.357   9.596 -1.0899  0.2308  2.0146
 8217SOL    HW236285   1.342   3.410   9.612  0.5761  0.3854  0.0146
 8218SOL     OW36286   2.328   1.579   1.052  0.2090  0.0235  0.0227
 8218SOL    HW136287   2.369   1.545   0.972  1.0323  0.3890  0.2842
 8218SOL    HW236288   2.285   1.504   1.093 -1.7339  1.1092 -0.0446
 8219SOL     OW36289   2.441   2.442   8.332  0.5120 -0.0122 -0.1563
 8219SOL    HW136290   2.424   2.353   8.362 -3.3359  0.9949  0.5716
 8219SOL    HW236291   2.513   2.426   8.270 -1.0479 -0.5927 -1.8353
 8220SOL     OW36292   2.437   0.357   6.451 -0.0817 -0.1970 -0.6926
 8220SOL    HW136293   2.451   0.336   6.543  1.0497  1.9384 -0.3925
 8220SOL    HW236294   2.344   0.342   6.435 -0.1304  0.3451 -0.9392
 8221SOL     OW36295   1.942   0.963   7.938 -0.2772 -0.4723  0.6670
 8221SOL    HW136296   2.030   0.996   7.921 -0.7544  0.2483 -0.4387
 8221SOL    HW236297   1.901   1.023   8.000  0.1429  2.0414 -1.5116
 8222SOL     OW36298   1.277   4.593   5.698 -0.5195  0.1990  0.1029
 8222SOL    HW136299   1.285   4.523   5.633  0.5347  0.2356  0.2017
 8222SOL    HW236300   1.365   4.622   5.719 -1.3258  1.8523  1.2215
 8223SOL     OW36301   2.633   2.016   7.428 -0.7582  0.1072 -0.1793
 8223SOL    HW136302   2.707   1.962   7.457 -0.5622  0.6232  0.2895
 8223SOL    HW236303   2.681   2.097   7.409  2.2830 -1.4131  0.9528
 8224SOL     OW36304   1.674   1.564   2.779 -0.1153  0.4276 -0.1480
 8224SOL    HW136305   1.583   1.594   2.768  0.4071  2.0845  0.0758
 8224SOL    HW236306   1.720   1.644   2.754  0.9829  0.0300  0.6243
 8225SOL     OW36307   2.899   1.313   7.450  0.3360 -1.0617 -0.2852
 8225SOL    HW136308   2.868   1.226   7.476 -0.0104 -1.1315 -0.9376
 8225SOL    HW236309   2.905   1.355   7.536  1.4949 -2.6165  0.3959
 8226SOL     OW36310   4.104   4.335  15.779 -0.1123  0.1701 -0.5899
 8226SOL    HW136311   4.199   4.324  15.777 -0.0929  0.1553  0.3695
 8226SOL    HW236312   4.090   4.343  15.873 -2.2229 -3.1382 -0.6339
 8227SOL     OW36313   1.046   0.019  15.100  0.2223  0.5792  0.2783
 8227SOL    HW136314   1.033   4.705  15.020 -1.7090 -1.0472  1.6343
 8227SOL    HW236315   1.054   0.110  15.072  0.2785  0.5637  0.2431
 8228SOL     OW36316   0.189   2.947   6.844 -0.0614 -0.2197  0.0246
 8228SOL    HW136317   0.157   2.857   6.852  0.0568 -0.1894  0.8131
 8228SOL    HW236318   0.277   2.947   6.881 -0.1864 -0.7360  0.3196
 8229SOL     OW36319   1.143   4.329   5.072  0.3856 -0.1294 -0.2957
 8229SOL    HW136320   1.216   4.291   5.023  0.0687 -1.0538 -0.0446
 8229SOL    HW236321   1.204   4.378   5.127 -1.9405  1.1239  1.1605
 8230SOL     OW36322   2.292   2.675   2.817 -0.2423 -0.4600 -0.1349
 8230SOL    HW136323   2.283   2.638   2.729  1.9818 -2.0641  0.3035
 8230SOL    HW236324   2.210   2.723   2.833  0.0348  0.2326 -0.8482
 8231SOL     OW36325   3.252   4.452   1.007 -0.6987  0.6914 -0.0458
 8231SOL    HW136326   3.206   4.436   1.089 -0.3183  0.9383  0.2158
 8231SOL    HW236327   3.176   4.470   0.951  3.9216  2.3837 -5.8483
 8232SOL     OW36328   1.873   2.625  15.894 -0.6123  0.4446  0.5851
 8232SOL    HW136329   1.889   2.617  15.988 -0.6560 -2.1978  0.3629
 8232SOL    HW236330   1.950   2.675  15.865  0.8760 -0.6080  2.7152
 8233SOL     OW36331   1.685   1.488   5.611  0.5606 -0.3736 -0.2846
 8233SOL    HW136332   1.720   1.547   5.678  0.1540  0.1440 -0.5301
 8233SOL    HW236333   1.595   1.476   5.643 -0.3796  1.5402 -2.1560
 8234SOL     OW36334   3.651   1.850  13.949  0.4643  0.4208 -0.0201
 8234SOL    HW136335   3.638   1.895  14.033 -0.7386  0.2710 -0.1255
 8234SOL    HW236336   3.745   1.833  13.950  0.5771  1.0800  0.9796
 8235SOL     OW36337   3.502   3.206   5.680  0.6038 -0.4421 -0.0024
 8235SOL    HW136338   3.471   3.294   5.700 -2.6617 -1.2955 -1.3936
 8235SOL    HW236339   3.499   3.169   5.768  1.8197 -0.3090  0.0970
 8236SOL     OW36340   3.724   1.808   7.013 -0.4548 -0.1999 -0.2095
 8236SOL    HW136341   3.656   1.763   6.964  0.0163  0.9712 -1.9751
 8236SOL    HW236342   3.804   1.760   6.993  0.1840  0.2748  1.2059
 8237SOL     OW36343   3.727   2.438   1.323 -0.7434 -0.1182  0.0416
 8237SOL    HW136344   3.769   2.501   1.264  0.8729 -0.8373  0.4271
 8237SOL    HW236345   3.692   2.506   1.380 -1.3742 -1.8400  1.6973
 8238SOL     OW36346   4.625   1.375  10.822  0.4085  0.5659 -0.2574
 8238SOL    HW136347   4.717   1.357  10.844  0.5218  0.4291 -0.8532
 8238SOL    HW236348   4.630   1.429  10.743 -2.3500 -0.7271 -1.3025
 8239SOL     OW36349   2.164   3.835   9.049  0.2163 -0.2956 -0.5046
 8239SOL    HW136350   2.073   3.834   9.078 -0.2846 -1.4619 -2.1897
 8239SOL    HW236351   2.197   3.898   9.114  1.4263 -1.9553  0.5046
 8240SOL     OW36352   3.354   3.137   6.347 -0.2196 -0.3959  0.5479
 8240SOL    HW136353   3.351   3.182   6.262 -1.0899 -1.3681  0.0634
 8240SOL    HW236354   3.396   3.055   6.320 -0.0541 -0.0417 -0.2900
 8241SOL     OW36355   3.472   0.001   8.853  0.0098  0.4278  0.0877
 8241SOL    HW136356   3.441   4.718   8.941  0.3731 -3.1469 -0.5611
 8241SOL    HW236357   3.408   4.691   8.800 -0.5354 -1.0156  2.0061
 8242SOL     OW36358   2.658   4.452   3.915  0.9716  0.1879  0.2303
 8242SOL    HW136359   2.565   4.435   3.898  0.8152  2.6176 -1.3313
 8242SOL    HW236360   2.699   4.437   3.830 -0.9927 -0.3974 -0.6125
 8243SOL     OW36361   4.012   2.261   0.038 -0.2203 -0.3126 -0.1680
 8243SOL    HW136362   3.942   2.325   0.026 -0.0749 -0.1370 -0.0734
 8243SOL    HW236363   3.974   2.178   0.067 -0.2843  0.1144  1.0028
 8244SOL     OW36364   0.815   1.464  12.023  0.0483 -0.4067 -0.1695
 8244SOL    HW136365   0.846   1.409  11.952  1.2038 -0.4670  0.3828
 8244SOL    HW236366   0.807   1.402  12.095  1.4701 -1.1228 -0.6220
 8245SOL     OW36367   3.614   1.263   4.829  0.3814  0.2119 -0.3649
 8245SOL    HW136368   3.670   1.205   4.777 -0.9021  0.1970 -1.7336
 8245SOL    HW236369   3.639   1.236   4.918  0.2117 -1.1968 -0.7394
 8246SOL     OW36370   1.917   1.735   3.789  0.2667 -0.0827 -0.5528
 8246SOL    HW136371   1.841   1.718   3.844 -0.4466  0.4392 -1.3682
 8246SOL    HW236372   1.996   1.726   3.841  0.2617  2.1895 -0.1390
 8247SOL     OW36373   2.863   2.410  16.465  0.6346  0.3012  0.2841
 8247SOL    HW136374   2.791   2.349  16.448  0.4135  0.8069 -0.5961
 8247SOL    HW236375   2.810   2.483  16.498  1.8572  1.1910  0.2798
 8248SOL     OW36376   1.787   2.024   4.996  0.2353 -0.0974  0.0746
 8248SOL    HW136377   1.784   1.991   5.086  0.3431  0.5587  0.3181
 8248SOL    HW236378   1.820   1.952   4.943 -0.5993 -1.1194  0.9411
 8249SOL     OW36379   4.315   2.361   4.128 -0.1759 -0.3555 -0.7458
 8249SOL    HW136380   4.230   2.403   4.119 -0.2535 -0.4705 -0.5278
 8249SOL    HW236381   4.347   2.392   4.213  0.8155  0.0612 -1.2713
 8250SOL     OW36382   0.831   3.203   6.752  0.0179  0.1851  0.8508
 8250SOL    HW136383   0.814   3.243   6.837  0.3060 -1.0815  1.5036
 8250SOL    HW236384   0.806   3.271   6.689 -0.1916  0.7738  1.5697
 8251SOL     OW36385   3.824   4.123   8.566 -0.4527 -0.4187  0.0693
 8251SOL    HW136386   3.877   4.154   8.492  0.3625 -0.3975  0.6630
 8251SOL    HW236387   3.760   4.194   8.570 -0.2970 -0.2595 -0.2544
 8252SOL     OW36388   3.791   3.033   3.077  0.4086  0.4330  0.2488
 8252SOL    HW136389   3.710   3.020   3.127  0.9217 -0.3750  0.8710
 8252SOL    HW236390   3.813   2.943   3.051 -1.2547  1.3028 -4.1061
 8253SOL     OW36391   1.863   2.093   0.528 -0.7637  0.1040 -0.1731
 8253SOL    HW136392   1.806   2.078   0.452  1.1631  0.7210 -1.7618
 8253SOL    HW236393   1.906   2.172   0.494 -3.3447  1.8165  0.4865
 8254SOL     OW36394   1.130   3.825   3.065  0.2618 -0.1642  0.3649
 8254SOL    HW136395   1.192   3.890   3.030  0.4174 -0.5674 -0.1137
 8254SOL    HW236396   1.162   3.749   3.016 -1.6396 -0.5259 -0.2983
 8255SOL     OW36397   1.319   2.925   7.173  0.4001 -0.1049 -0.1005
 8255SOL    HW136398   1.371   2.996   7.210 -1.1527  1.4148 -0.8397
 8255SOL    HW236399   1.270   2.888   7.247  1.0525  0.1139  0.4413
 8256SOL     OW36400   0.094   1.418   7.987  0.2365  0.5437  0.4711
 8256SOL    HW136401   0.075   1.325   7.975 -1.5263  1.3655 -3.0061
 8256SOL    HW236402   0.080   1.427   8.081 -2.5047  0.3791  0.0935
 8257SOL     OW36403   1.031   4.428  14.000  0.6139 -0.6806  0.1991
 8257SOL    HW136404   0.973   4.379  13.942  0.2985  0.6279 -0.5802
 8257SOL    HW236405   1.047   4.363  14.069  0.4917  0.8260  1.6465
 8258SOL     OW36406   4.396   1.103   4.286 -0.5953 -0.4486  0.2576
 8258SOL    HW136407   4.441   1.051   4.220  1.0205  0.2051  0.8505
 8258SOL    HW236408   4.368   1.176   4.231  2.0462  0.0928 -0.3581
 8259SOL     OW36409   3.029   1.409  17.726 -0.1645 -0.3530  0.2603
 8259SOL    HW136410   3.064   1.323   0.003  2.3255  0.3448 -0.8828
 8259SOL    HW236411   3.094   1.461   0.028  0.2207 -0.7136  0.1326
 8260SOL     OW36412   2.808   1.401   2.423  0.1400  0.0853  0.6043
 8260SOL    HW136413   2.823   1.350   2.503 -0.6135 -2.0774 -0.6255
 8260SOL    HW236414   2.729   1.360   2.386  0.2709  1.0823 -0.7989
 8261SOL     OW36415   1.959   1.083  11.830 -0.1629 -0.3512 -0.1626
 8261SOL    HW136416   2.029   1.027  11.797  0.2534  0.6617 -0.9959
 8261SOL    HW236417   1.997   1.170  11.840  0.1706  0.0411 -4.8875
 8262SOL     OW36418   2.194   0.741  16.199  0.2154  0.1479  0.0258
 8262SOL    HW136419   2.282   0.773  16.217  0.5291 -0.6243 -0.1273
 8262SOL    HW236420   2.137   0.791  16.258 -1.4034  0.2848 -1.6285
 8263SOL     OW36421   3.039   1.897   8.855 -0.1448  0.0271  0.2440
 8263SOL    HW136422   2.995   1.848   8.924 -1.3835  1.3601  0.4064
 8263SOL    HW236423   3.124   1.854   8.851 -0.0584  0.1223  1.0504
 8264SOL     OW36424   2.870   3.769   8.457  0.0575 -0.1716 -0.7517
 8264SOL    HW136425   2.833   3.722   8.382 -1.4517 -0.4094  0.1488
 8264SOL    HW236426   2.963   3.779   8.438  0.1498  0.6045  0.1105
 8265SOL     OW36427   0.946   3.368   7.984 -0.1506 -0.1891 -0.1691
 8265SOL    HW136428   0.872   3.374   7.923  1.2636  0.4667 -1.8287
 8265SOL    HW236429   0.999   3.434   7.939  1.3250 -1.3517 -0.1236
 8266SOL     OW36430   0.437   2.065   6.439  0.4558  0.0141  0.2277
 8266SOL    HW136431   0.395   1.991   6.396 -0.0403  0.9179 -0.8336
 8266SOL    HW236432   0.368   2.082   6.503  0.4895  0.1758  0.2212
 8267SOL     OW36433   3.894   0.608   8.878 -0.1187 -0.3246  0.0134
 8267SOL    HW136434   3.917   0.698   8.900 -1.4637  0.7113 -2.7283
 8267SOL    HW236435   3.821   0.627   8.818  0.1022  1.5669  0.3665
 8268SOL     OW36436   3.968   3.260   2.104  0.5000 -0.0923  1.0102
 8268SOL    HW136437   4.027   3.279   2.177 -1.4934  3.3508  1.7139
 8268SOL    HW236438   3.990   3.323   2.035  1.1922 -0.8454  0.5424
 8269SOL     OW36439   0.991   2.028  12.278 -0.2727  0.4216 -0.6501
 8269SOL    HW136440   1.072   1.978  12.284 -1.4805 -1.6519 -1.7634
 8269SOL    HW236441   0.941   1.981  12.211 -0.9253  0.6195 -0.3094
 8270SOL     OW36442   0.888   1.718   8.603 -0.8800  0.1042 -0.2966
 8270SOL    HW136443   0.966   1.773   8.607 -0.8960 -0.1438  3.0816
 8270SOL    HW236444   0.848   1.737   8.687 -1.8754  0.8974 -0.9450
 8271SOL     OW36445   1.381   0.316  11.216  0.1680  0.1500 -0.3126
 8271SOL    HW136446   1.399   0.356  11.131 -3.2051  0.6226 -0.8097
 8271SOL    HW236447   1.337   0.386  11.264 -0.6887 -0.9040  0.4538
 8272SOL     OW36448   3.339   1.328   2.864  0.1821  0.0090  0.5101
 8272SOL    HW136449   3.339   1.347   2.958 -1.4749 -2.1170  0.9284
 8272SOL    HW236450   3.414   1.385   2.847 -0.0273  0.4819  1.1871
 8273SOL     OW36451   1.720   1.199   4.256  0.9752  0.1544 -0.0867
 8273SOL    HW136452   1.793   1.190   4.317  1.3259  0.8719 -0.3985
 8273SOL    HW236453   1.771   1.234   4.183  0.7767  1.4507  0.3964
 8274SOL     OW36454   3.226   0.325   2.365 -0.4449 -0.5653  0.1532
 8274SOL    HW136455   3.314   0.304   2.337  0.3076  1.6060  0.8487
 8274SOL    HW236456   3.222   0.269   2.443 -3.9916  1.4689  1.4540
 8275SOL     OW36457   0.193   2.926  13.785  0.0488 -0.3484  0.0131
 8275SOL    HW136458   0.117   2.873  13.809  0.4484 -0.3464  1.2605
 8275SOL    HW236459   0.226   2.888  13.704 -0.5758 -1.5285  0.3208
 8276SOL     OW36460   3.375   1.117   1.886 -0.5842 -0.4983 -0.1524
 8276SOL    HW136461   3.464   1.141   1.860 -0.4724 -0.7812 -0.0231
 8276SOL    HW236462   3.380   1.025   1.912 -2.9293 -1.2792 -2.4575
 8277SOL     OW36463   3.876   1.756  10.604  0.0599 -0.0346  0.7783
 8277SOL    HW136464   3.791   1.735  10.644 -0.4381 -0.4359 -0.4984
 8277SOL    HW236465   3.879   1.851  10.616 -1.2423  0.0307  0.6437
 8278SOL     OW36466   2.799   3.343   8.003 -0.5094  0.3200  0.5246
 8278SOL    HW136467   2.751   3.416   7.963 -0.7010  0.9656  1.9498
 8278SOL    HW236468   2.725   3.295   8.040 -0.8310  0.4867  0.1079
 8279SOL     OW36469   0.458   1.796   5.508  0.2749 -0.1771  0.0378
 8279SOL    HW136470   0.396   1.746   5.562  0.1931 -1.5449 -1.3033
 8279SOL    HW236471   0.509   1.840   5.575 -1.3741 -0.6190  1.5781
 8280SOL     OW36472   0.477   0.206   5.830  0.0202 -0.3888  0.2905
 8280SOL    HW136473   0.538   0.252   5.772 -1.1397  1.0548  0.2185
 8280SOL    HW236474   0.402   0.266   5.830  1.2740  1.1884 -1.3499
 8281SOL     OW36475   3.842   2.979   6.370 -0.3773  0.2623 -0.3566
 8281SOL    HW136476   3.761   3.024   6.347  0.2681  1.1664 -0.8270
 8281SOL    HW236477   3.892   2.989   6.289 -0.4763 -1.0061 -0.5840
 8282SOL     OW36478   2.905   4.339  13.647  0.4336  0.0644 -0.2586
 8282SOL    HW136479   2.810   4.322  13.646  0.2640  0.9036  1.3695
 8282SOL    HW236480   2.940   4.263  13.694  0.3500 -0.0219 -0.3349
 8283SOL     OW36481   4.365   0.101  14.085 -0.1457 -0.0538 -0.8901
 8283SOL    HW136482   4.331   0.136  14.167  0.3568 -0.9430 -0.3098
 8283SOL    HW236483   4.461   0.098  14.092 -0.3625 -1.0078  1.7326
 8284SOL     OW36484   2.109   3.778   5.195 -0.2389 -0.1340 -0.5299
 8284SOL    HW136485   2.149   3.834   5.128 -2.3063  1.1904 -0.6428
 8284SOL    HW236486   2.017   3.804   5.201  0.1364  1.0402  0.2775
 8285SOL     OW36487   0.621   0.192  11.250  0.0398  0.7946 -0.1038
 8285SOL    HW136488   0.551   0.192  11.184 -1.3992  0.3892  1.4246
 8285SOL    HW236489   0.580   0.135  11.315 -1.0165  0.7592 -0.7921
 8286SOL     OW36490   4.266   2.023  14.398  0.0758  0.2332 -0.1142
 8286SOL    HW136491   4.216   2.078  14.337 -1.1360 -0.6500  0.0844
 8286SOL    HW236492   4.277   1.947  14.341 -1.2827 -1.2809  1.6669
 8287SOL     OW36493   4.494   2.428   2.336  0.3593  0.4161 -0.1971
 8287SOL    HW136494   4.582   2.415   2.373  0.5551  0.4010 -0.6768
 8287SOL    HW236495   4.503   2.518   2.304 -1.2117  1.0927  1.2268
 8288SOL     OW36496   3.062   3.944   7.754  0.0378  0.3879 -0.3030
 8288SOL    HW136497   3.110   3.871   7.714  1.0619  0.1468  1.4021
 8288SOL    HW236498   2.985   3.896   7.785 -0.0829  0.2690 -0.7778
 8289SOL     OW36499   0.576   0.082   5.546  0.6853  0.6332  0.1555
 8289SOL    HW136500   0.521   0.156   5.519  1.5453  0.7264 -1.3531
 8289SOL    HW236501   0.635   0.136   5.598 -0.6174  0.7196  1.5543
 8290SOL     OW36502   3.744   3.606   4.783 -0.1591 -0.0071  0.3263
 8290SOL    HW136503   3.734   3.617   4.688 -0.1352 -0.9585  0.2148
 8290SOL    HW236504   3.803   3.532   4.794 -2.0927 -1.7730 -1.1402
 8291SOL     OW36505   0.229   4.555   0.823 -0.1029  0.1421  0.4496
 8291SOL    HW136506   0.317   4.524   0.799  0.0733 -0.0462  1.3461
 8291SOL    HW236507   0.236   4.651   0.821 -1.2526  0.1797 -2.4277
 8292SOL     OW36508   2.282   2.854   6.247 -0.0566  0.1019  0.1429
 8292SOL    HW136509   2.263   2.760   6.245  3.4622 -0.6210  0.6001
 8292SOL    HW236510   2.300   2.868   6.154 -1.3529 -0.6452 -0.2190
 8293SOL     OW36511   4.500   3.268   4.988  0.4159  0.5979  0.1383
 8293SOL    HW136512   4.466   3.281   5.077 -0.1654 -0.7086  0.1158
 8293SOL    HW236513   4.572   3.329   4.980  0.4724  0.2156 -2.2406
 8294SOL     OW36514   3.746   2.615   4.744  0.2404  0.6046  0.2663
 8294SOL    HW136515   3.791   2.647   4.822 -0.1681 -2.8395  1.8961
 8294SOL    HW236516   3.663   2.588   4.784 -0.0242 -0.5210 -1.0377
 8295SOL     OW36517   2.361   3.447   5.800  0.1602  0.3627  0.4387
 8295SOL    HW136518   2.361   3.509   5.727 -4.4143 -0.8414 -0.5354
 8295SOL    HW236519   2.454   3.421   5.795  0.7151  2.4765 -0.3103
 8296SOL     OW36520   0.838   3.104  10.495 -0.1404  1.0696 -0.5669
 8296SOL    HW136521   0.843   3.191  10.456 -0.0171  1.9136  1.3693
 8296SOL    HW236522   0.908   3.121  10.558 -0.7131 -0.4556  0.4964
 8297SOL     OW36523   3.302   2.050  14.586  0.0053  0.3596 -0.1007
 8297SOL    HW136524   3.396   2.035  14.578 -0.2532 -2.0521  1.3894
 8297SOL    HW236525   3.285   1.968  14.634  0.7421  0.5885  0.5420
 8298SOL     OW36526   3.609   2.531   3.925 -0.5199  0.0334 -0.4975
 8298SOL    HW136527   3.586   2.622   3.947 -3.3373 -1.1949  1.6844
 8298SOL    HW236528   3.535   2.474   3.945 -0.6374  0.2637 -0.2713
 8299SOL     OW36529   3.914   4.268   4.190  0.5282 -0.1758  0.4375
 8299SOL    HW136530   3.827   4.282   4.227  0.0026 -2.5501  0.1236
 8299SOL    HW236531   3.947   4.357   4.202  0.3137  0.1002 -0.9898
 8300SOL     OW36532   0.784   0.941  14.455 -0.5746 -0.3701 -0.8473
 8300SOL    HW136533   0.764   0.859  14.499  1.3777 -1.1829 -1.5003
 8300SOL    HW236534   0.741   0.999  14.517 -0.0129 -1.9782  1.0467
 8301SOL     OW36535   1.869   1.391   6.440 -0.1934  0.6062 -0.4797
 8301SOL    HW136536   1.843   1.467   6.388 -1.5789 -0.6860 -1.6998
 8301SOL    HW236537   1.881   1.427   6.528 -1.2311 -0.5385  0.1448
 8302SOL     OW36538   4.379   2.092   2.548  0.5665  0.2932 -0.3891
 8302SOL    HW136539   4.394   2.008   2.505  1.7079  0.7372 -0.8742
 8302SOL    HW236540   4.462   2.111   2.592  0.8629 -0.5798 -0.5869
 8303SOL     OW36541   0.246   4.060  16.495  0.0884  0.8099  0.0569
 8303SOL    HW136542   0.255   4.078  16.589  2.1702 -1.5806  0.3366
 8303SOL    HW236543   0.275   4.144  16.460 -0.3721  1.7995  2.0547
 8304SOL     OW36544   0.204   0.978  15.729  0.5665 -0.1416 -0.3633
 8304SOL    HW136545   0.141   1.046  15.708 -0.1785 -0.7340 -0.0523
 8304SOL    HW236546   0.142   0.920  15.773 -0.8719  0.3307 -1.7881
 8305SOL     OW36547   3.311   3.389   1.341 -0.5577 -0.0750  0.0860
 8305SOL    HW136548   3.243   3.367   1.404 -0.9398  2.5858  0.6182
 8305SOL    HW236549   3.307   3.315   1.280 -0.6555 -0.0260  0.0323
 8306SOL     OW36550   0.152   0.841   8.610  0.0327 -0.4879 -0.3083
 8306SOL    HW136551   0.124   0.781   8.679 -1.6522  0.0686 -0.5060
 8306SOL    HW236552   0.068   0.887   8.600  0.1360  0.1833  2.0655
 8307SOL     OW36553   0.116   3.578  17.626  0.1121 -0.6935 -0.2010
 8307SOL    HW136554   0.104   3.619  17.540 -0.0583 -2.4106 -0.9821
 8307SOL    HW236555   0.034   3.600  17.671  0.5853 -1.4941  1.0639
 8308SOL     OW36556   2.366   0.573  16.891 -0.3645 -0.6060  0.2886
 8308SOL    HW136557   2.403   0.656  16.922 -1.6466  0.4885 -1.1064
 8308SOL    HW236558   2.434   0.536  16.835 -1.3559  0.2950 -1.5160
 8309SOL     OW36559   1.856   1.467   6.022  0.6416 -0.0276  0.3628
 8309SOL    HW136560   1.846   1.420   5.939  0.5679  1.6996 -0.5947
 8309SOL    HW236561   1.937   1.514   6.005  0.2599  0.5626  0.1962
 8310SOL     OW36562   1.223   3.662   4.370 -0.2364 -0.2076 -0.1963
 8310SOL    HW136563   1.182   3.724   4.310  1.1908 -0.3272 -1.3090
 8310SOL    HW236564   1.151   3.655   4.432 -0.1000  0.8170  0.0654
 8311SOL     OW36565   2.165   0.761   6.512  0.3264  0.0271 -0.1000
 8311SOL    HW136566   2.222   0.809   6.453  0.5788 -0.3116 -0.1363
 8311SOL    HW236567   2.128   0.700   6.448 -2.2723 -0.4821  1.8833
 8312SOL     OW36568   2.905   2.924   2.282 -0.1432 -0.0696  0.1712
 8312SOL    HW136569   2.992   2.962   2.297  0.0311 -0.4886  0.2435
 8312SOL    HW236570   2.928   2.852   2.222 -0.2306  0.2885 -0.2930
 8313SOL     OW36571   1.628   0.318   6.571  0.2782 -0.1680 -0.0172
 8313SOL    HW136572   1.678   0.267   6.634 -0.0769 -0.5591 -0.0530
 8313SOL    HW236573   1.632   0.265   6.492  0.0120 -1.4704  0.8522
 8314SOL     OW36574   0.149   1.325  10.802 -0.2008 -0.1919 -0.2177
 8314SOL    HW136575   0.152   1.230  10.793 -0.6603 -0.1004 -1.4381
 8314SOL    HW236576   0.241   1.342  10.783 -0.4969  0.4363 -1.1041
 8315SOL     OW36577   0.598   3.599   4.523  0.1520  0.1771  0.8064
 8315SOL    HW136578   0.669   3.547   4.487  0.9677  2.1163 -0.3875
 8315SOL    HW236579   0.526   3.535   4.527 -0.7395  1.0123 -1.5202
 8316SOL     OW36580   0.953   0.984   3.686 -0.3980  0.4873 -0.0595
 8316SOL    HW136581   0.921   0.894   3.672 -2.6940  1.2247  0.5660
 8316SOL    HW236582   1.047   0.975   3.703 -0.8540 -0.8693  1.6726
 8317SOL     OW36583   2.692   1.027   4.731  0.2938  0.3135  0.2664
 8317SOL    HW136584   2.747   0.949   4.733 -0.7908 -0.4082  1.1789
 8317SOL    HW236585   2.660   1.036   4.820  0.8113  0.5003  0.4328
 8318SOL     OW36586   4.562   4.194   7.093 -0.2335 -0.5341 -0.1766
 8318SOL    HW136587   4.551   4.282   7.130 -0.8369 -1.1279  1.0633
 8318SOL    HW236588   4.473   4.189   7.059 -0.4251 -2.1305  0.5387
 8319SOL     OW36589   1.547   2.667   7.404  0.3446 -0.2260 -0.2437
 8319SOL    HW136590   1.523   2.587   7.451 -1.9963  0.1307 -0.8570
 8319SOL    HW236591   1.507   2.736   7.455  1.0341 -2.2346  3.0248
 8320SOL     OW36592   3.711   2.069   3.635 -0.2034  0.6407 -0.0627
 8320SOL    HW136593   3.756   2.060   3.720 -3.4755  0.4642  1.6415
 8320SOL    HW236594   3.780   2.120   3.591 -0.9164  1.8925  0.2700
 8321SOL     OW36595   2.035   1.006   6.539  0.3749 -0.2078 -0.3240
 8321SOL    HW136596   2.062   0.914   6.544  0.6628 -0.2316 -2.1136
 8321SOL    HW236597   1.978   1.012   6.615  1.1172 -0.0157  0.2195
 8322SOL     OW36598   3.477   3.023   1.291  0.1740  0.5623 -0.5521
 8322SOL    HW136599   3.381   3.024   1.290  0.1732 -0.5311 -2.7466
 8322SOL    HW236600   3.484   2.991   1.380  0.2372  0.8193 -0.4658
 8323SOL     OW36601   2.188   3.028   0.250 -0.1730 -0.0294  0.4530
 8323SOL    HW136602   2.258   2.999   0.309 -1.3985  0.2321  2.0336
 8323SOL    HW236603   2.161   3.112   0.288  0.7393 -0.2931  1.6864
 8324SOL     OW36604   1.756   2.106  15.930 -0.0862 -0.4239  0.2208
 8324SOL    HW136605   1.720   2.091  16.017 -0.7620 -1.7438 -0.2819
 8324SOL    HW236606   1.777   2.199  15.939 -0.8047 -0.0592 -1.9149
 8325SOL     OW36607   0.452   1.148   4.393  0.2433  0.1354 -0.4288
 8325SOL    HW136608   0.363   1.176   4.371  0.3730  0.8218 -0.0940
 8325SOL    HW236609   0.438   1.075   4.453 -0.8871  0.8388  0.1503
 8326SOL     OW36610   3.465   3.498   5.344  0.0166  0.1765 -0.1491
 8326SOL    HW136611   3.510   3.537   5.268  0.9144 -2.4893 -1.0128
 8326SOL    HW236612   3.534   3.498   5.410 -0.5139 -1.1330  0.3962
 8327SOL     OW36613   1.866   0.901   9.839 -0.1383  0.1029 -0.4299
 8327SOL    HW136614   1.788   0.879   9.788  0.2601  1.2712 -1.5370
 8327SOL    HW236615   1.939   0.856   9.796  0.7225  1.4440 -0.3891
 8328SOL     OW36616   3.926   1.645  14.393 -0.0410  0.0400  0.3635
 8328SOL    HW136617   3.872   1.588  14.448 -0.1139  0.4878  0.7586
 8328SOL    HW236618   4.004   1.594  14.412  0.3856  0.2938 -0.7411
 8329SOL     OW36619   0.292   3.943   9.162 -0.2954 -0.4695  0.0325
 8329SOL    HW136620   0.254   3.904   9.240 -2.3394 -0.1771 -0.8221
 8329SOL    HW236621   0.272   3.875   9.098 -0.2345 -0.1766 -0.2973
 8330SOL     OW36622   1.303   2.137   2.045  0.1337 -0.4905 -0.0499
 8330SOL    HW136623   1.237   2.169   1.983  2.4352  0.9418 -1.7375
 8330SOL    HW236624   1.309   2.223   2.087 -0.8298 -0.6658  0.4553
 8331SOL     OW36625   2.377   3.727   8.450  0.1065  0.5755  0.0263
 8331SOL    HW136626   2.445   3.663   8.472  0.7231  0.9513 -0.7878
 8331SOL    HW236627   2.302   3.668   8.456  0.2733  0.7015  3.5817
 8332SOL     OW36628   1.837   0.493   4.070 -0.1410  0.0228  0.0732
 8332SOL    HW136629   1.881   0.533   4.146 -3.0105  0.2128  1.6567
 8332SOL    HW236630   1.747   0.516   4.095 -0.2086  1.5143 -1.5446
 8333SOL     OW36631   1.914   0.561  14.080  0.0256 -0.2758 -0.4130
 8333SOL    HW136632   1.867   0.497  14.027  0.8081 -1.4256  0.2804
 8333SOL    HW236633   1.937   0.629  14.016 -0.6580 -0.0112 -0.3813
 8334SOL     OW36634   0.788   4.298  16.892 -0.1256  0.6716  0.3893
 8334SOL    HW136635   0.720   4.366  16.894 -2.2219 -1.3797 -0.5465
 8334SOL    HW236636   0.831   4.316  16.809 -2.8083 -1.7015 -1.5094
 8335SOL     OW36637   3.168   2.939   3.410  0.2165  0.0830 -0.3442
 8335SOL    HW136638   3.218   3.008   3.455 -0.1221 -0.0454  0.2344
 8335SOL    HW236639   3.218   2.870   3.455  0.6113  0.4883 -0.1543
 8336SOL     OW36640   3.415   0.405   4.762  0.1945  0.2316 -0.2677
 8336SOL    HW136641   3.396   0.321   4.805  1.0735  0.5132  0.6908
 8336SOL    HW236642   3.368   0.389   4.681  0.3602 -1.6671  0.0063
 8337SOL     OW36643   2.896   3.511   9.573 -0.7817  0.3302 -0.0900
 8337SOL    HW136644   2.845   3.550   9.502 -2.0545  1.5062  1.4789
 8337SOL    HW236645   2.982   3.509   9.530  0.2377  1.1899  1.9191
 8338SOL     OW36646   1.178   0.824   8.873 -0.6183  0.3289 -0.4946
 8338SOL    HW136647   1.266   0.849   8.902 -0.4309 -0.8917 -0.0038
 8338SOL    HW236648   1.190   0.737   8.834  1.3458  0.5581 -0.4355
 8339SOL     OW36649   0.251   2.481   0.779  0.0205 -0.0701 -0.1529
 8339SOL    HW136650   0.275   2.426   0.704  1.0127  0.9594 -0.5946
 8339SOL    HW236651   0.338   2.497   0.815 -1.0585  1.1356  1.9102
 8340SOL     OW36652   0.205   1.955   7.803  0.7340  0.0091  0.1138
 8340SOL    HW136653   0.194   2.030   7.744  2.4449  1.6589  1.8868
 8340SOL    HW236654   0.133   1.895   7.783 -0.3867  1.6970 -0.8722
 8341SOL     OW36655   2.617   2.711   8.849 -0.2667  0.2104  0.2671
 8341SOL    HW136656   2.694   2.730   8.796 -1.0728  1.2100 -0.5355
 8341SOL    HW236657   2.547   2.758   8.804 -1.9457 -3.0926 -0.5284
 8342SOL     OW36658   1.065   3.204   8.405  0.0736  0.2031 -0.2817
 8342SOL    HW136659   1.018   3.287   8.416  2.0811  1.3972 -0.8045
 8342SOL    HW236660   1.008   3.167   8.338  1.1482 -0.0346 -1.0624
 8343SOL     OW36661   4.450   0.032   9.640  0.2956 -0.0365 -0.3157
 8343SOL    HW136662   4.380   4.727   9.591  0.4731  0.3676 -0.9246
 8343SOL    HW236663   4.483   4.691   9.684 -1.2717  0.9344  2.5866
 8344SOL     OW36664   0.686   0.227   5.194 -0.3008 -0.7020  0.4104
 8344SOL    HW136665   0.672   0.285   5.119 -2.1045 -2.0167 -0.2832
 8344SOL    HW236666   0.596   0.226   5.226 -1.1146 -2.2543 -1.9562
 8345SOL     OW36667   4.061   3.626   4.699 -0.0942 -0.5264 -0.3296
 8345SOL    HW136668   4.071   3.721   4.707 -0.9953 -0.3801 -0.9134
 8345SOL    HW236669   4.021   3.617   4.613  1.7111  0.8787 -1.3373
 8346SOL     OW36670   0.935   2.845   8.543 -0.3387  0.1632 -0.4927
 8346SOL    HW136671   0.998   2.774   8.557 -1.8160 -0.6945  1.6663
 8346SOL    HW236672   0.969   2.924   8.584  0.8323  0.3795 -1.8373
 8347SOL     OW36673   2.665   2.887   5.202 -0.1654 -0.1245 -0.3768
 8347SOL    HW136674   2.686   2.806   5.247 -0.3476 -0.7535 -1.4286
 8347SOL    HW236675   2.752   2.920   5.181 -0.4732  1.4404  0.7451
 8348SOL     OW36676   2.753   2.076   6.156 -0.8947 -0.2322 -0.0691
 8348SOL    HW136677   2.789   2.128   6.084 -2.3663  0.1414 -0.5421
 8348SOL    HW236678   2.813   2.001   6.152 -0.7256 -0.0126 -1.5114
 8349SOL     OW36679   4.188   2.583   5.665 -0.4513 -0.5754 -0.1190
 8349SOL    HW136680   4.178   2.596   5.570 -0.4237  1.9571  0.2228
 8349SOL    HW236681   4.146   2.498   5.676 -1.0374 -0.0521  1.6717
 8350SOL     OW36682   3.510   4.469   5.214  0.0987  0.4081 -0.0705
 8350SOL    HW136683   3.536   4.391   5.263 -1.2813  1.0288  1.7015
 8350SOL    HW236684   3.476   4.427   5.135  1.4468 -1.5341  0.3930
 8351SOL     OW36685   3.677   4.097   5.205 -0.9545 -0.0405 -0.8027
 8351SOL    HW136686   3.655   4.163   5.271 -0.1836 -1.6654  1.0842
 8351SOL    HW236687   3.698   4.016   5.251 -2.4745 -1.1634 -2.0640
 8352SOL     OW36688   2.716   3.454   2.598  0.2049 -0.1645  0.3556
 8352SOL    HW136689   2.720   3.403   2.679  1.9702 -0.0127  0.3720
 8352SOL    HW236690   2.716   3.381   2.535  0.6828  0.6007 -0.5258
 8353SOL     OW36691   3.807   4.705   8.055 -0.1271 -0.5086  0.2653
 8353SOL    HW136692   3.826   0.036   8.120  5.1880 -0.4898 -1.3214
 8353SOL    HW236693   3.836   4.627   8.103  1.8664 -0.7132 -1.2773
 8354SOL     OW36694   3.339   1.657   9.624 -0.8497  0.7217  0.2390
 8354SOL    HW136695   3.258   1.609   9.644  0.6237 -2.1657 -0.6970
 8354SOL    HW236696   3.350   1.711   9.702 -2.2399 -2.2501  2.4766
 8355SOL     OW36697   4.225   4.594   3.816 -0.4177  0.5005  0.2856
 8355SOL    HW136698   4.158   4.526   3.812 -1.9781  2.0886 -0.3279
 8355SOL    HW236699   4.179   4.664   3.771  0.6231 -0.4156 -2.1804
 8356SOL     OW36700   1.899   3.420  12.367 -0.5945 -0.3150 -0.0902
 8356SOL    HW136701   1.956   3.343  12.371  1.0829  0.8401 -1.6521
 8356SOL    HW236702   1.890   3.420  12.272  0.5364 -0.2534 -0.2019
 8357SOL     OW36703   0.791   4.398  12.893  0.0861 -0.9870  0.2280
 8357SOL    HW136704   0.719   4.438  12.943 -0.4409 -0.4751 -0.9521
 8357SOL    HW236705   0.789   4.307  12.923 -1.4045 -0.7440  0.8883
 8358SOL     OW36706   2.175   2.566  15.166  0.7982 -0.3521 -0.0378
 8358SOL    HW136707   2.262   2.560  15.126  1.1425  0.3414  0.6152
 8358SOL    HW236708   2.128   2.565  15.083 -1.1078 -3.4012  1.0691
 8359SOL     OW36709   1.361   4.649   4.232 -0.2691 -0.1853  0.0935
 8359SOL    HW136710   1.355   4.597   4.312  1.9645 -1.9832 -0.8965
 8359SOL    HW236711   1.298   4.721   4.241 -1.4235 -1.3038  0.9483
 8360SOL     OW36712   2.688   1.161   1.298 -0.0203  0.3961  0.1906
 8360SOL    HW136713   2.759   1.217   1.266  0.0279 -0.2650 -0.8629
 8360SOL    HW236714   2.731   1.077   1.288  2.9301  2.0354 -0.9027
 8361SOL     OW36715   2.927   1.574   4.749 -0.4029 -0.0216  0.0980
 8361SOL    HW136716   2.835   1.554   4.766 -0.8176  1.7999 -0.0150
 8361SOL    HW236717   2.941   1.523   4.669  2.0665  1.4055 -0.3864
 8362SOL     OW36718   1.510   4.034   0.173  0.1182  0.3831 -0.0178
 8362SOL    HW136719   1.423   4.061   0.203 -0.3043  0.8233 -1.6614
 8362SOL    HW236720   1.489   4.018   0.081 -0.2455  0.4768  0.0459
 8363SOL     OW36721   4.567   2.901   6.464  0.2844 -0.3400  0.1522
 8363SOL    HW136722   4.655   2.870   6.441  0.4499 -0.7795  1.3947
 8363SOL    HW236723   4.536   2.896   6.373  1.0394  0.4719 -0.1536
 8364SOL     OW36724   1.090   1.132   5.740  0.1427 -0.0590  0.6785
 8364SOL    HW136725   1.063   1.178   5.820  0.0197  1.5731 -0.3153
 8364SOL    HW236726   1.073   1.196   5.671  0.0980 -0.1607  0.5960
 8365SOL     OW36727   2.918   1.413   1.150 -0.3448 -0.1999 -0.2688
 8365SOL    HW136728   2.983   1.470   1.191  0.5598 -1.3066 -0.1554
 8365SOL    HW236729   2.941   1.430   1.058  0.5160  0.8066  0.1365
 8366SOL     OW36730   3.491   0.404  12.232 -0.7742 -0.3535 -0.2060
 8366SOL    HW136731   3.533   0.351  12.300  1.0689  0.3833 -0.7673
 8366SOL    HW236732   3.403   0.406  12.270 -1.5452  0.9359 -2.0601
 8367SOL     OW36733   0.053   2.458  12.332  0.6540 -0.1886 -0.0450
 8367SOL    HW136734   0.111   2.450  12.256 -1.1939  0.2694 -1.5125
 8367SOL    HW236735   4.712   2.499  12.294  1.1331  1.4280  0.7528
 8368SOL     OW36736   3.158   0.135   7.830  0.1257 -0.3000  0.3817
 8368SOL    HW136737   3.094   0.180   7.885 -0.5504 -0.3412 -0.3679
 8368SOL    HW236738   3.161   0.189   7.752  0.9735  0.5639  1.0254
 8369SOL     OW36739   2.005   2.777   9.309 -0.0565  0.0100 -0.1708
 8369SOL    HW136740   1.969   2.710   9.251 -0.1219  0.4579 -0.6481
 8369SOL    HW236741   2.097   2.771   9.283  0.0848  0.2940  0.2637
 8370SOL     OW36742   0.097   1.318  11.072  0.6036  0.7273  0.8855
 8370SOL    HW136743   0.146   1.250  11.118  0.4734  0.6860  0.9608
 8370SOL    HW236744   0.125   1.301  10.982  1.2971 -1.3777  1.5049
 8371SOL     OW36745   0.415   3.391   4.629  0.1294 -0.7243  0.7055
 8371SOL    HW136746   0.390   3.458   4.692 -0.7606  0.6340 -1.1080
 8371SOL    HW236747   0.346   3.325   4.622  1.1118 -1.5929 -0.6791
 8372SOL     OW36748   2.602   4.216  12.080  0.3207  0.1121  0.6515
 8372SOL    HW136749   2.656   4.276  12.030 -0.2713  1.6318  1.8306
 8372SOL    HW236750   2.630   4.141  12.027  2.2533 -0.2174  2.1471
 8373SOL     OW36751   2.840   2.073   9.413 -0.1702 -0.3082 -0.1337
 8373SOL    HW136752   2.746   2.087   9.405 -0.6364 -2.0789  2.1607
 8373SOL    HW236753   2.850   2.055   9.320  3.0555  1.8821 -0.2196
 8374SOL     OW36754   4.315   1.509   1.324 -0.2376 -0.0708 -0.2115
 8374SOL    HW136755   4.243   1.488   1.383  1.6609 -1.5574  1.6148
 8374SOL    HW236756   4.274   1.511   1.238 -0.0470 -0.1530 -0.3052
 8375SOL     OW36757   3.030   0.335   3.608 -0.3237  0.2585  0.2867
 8375SOL    HW136758   2.981   0.279   3.547  1.1478 -0.7873  0.0610
 8375SOL    HW236759   3.109   0.286   3.630 -1.2213 -1.5803 -0.6026
 8376SOL     OW36760   4.154   1.125   8.716 -0.1331  0.0030 -0.3578
 8376SOL    HW136761   4.130   1.156   8.629  1.0479 -0.2309 -0.7675
 8376SOL    HW236762   4.072   1.139   8.765  0.4952 -0.6929  0.8993
 8377SOL     OW36763   0.080   0.573   3.839  0.2023  0.4654 -0.6053
 8377SOL    HW136764   0.066   0.654   3.887 -1.4969  0.5116 -1.1726
 8377SOL    HW236765   0.030   0.579   3.757 -0.3072  0.8895 -0.2600
 8378SOL     OW36766   4.430   1.044   7.743 -0.2430  0.0967  0.2624
 8378SOL    HW136767   4.335   1.051   7.745 -0.3905 -1.9020  0.2147
 8378SOL    HW236768   4.458   1.126   7.784 -2.2468  1.3570 -0.8802
 8379SOL     OW36769   1.904   2.029   1.200  0.0230 -0.9307  0.2882
 8379SOL    HW136770   1.970   1.970   1.234  1.9813  1.1374  0.0304
 8379SOL    HW236771   1.856   2.060   1.277 -0.5685  0.2075 -0.5303
 8380SOL     OW36772   1.973   3.744   9.521 -0.2583  1.1283 -0.4201
 8380SOL    HW136773   2.039   3.781   9.462  0.1990 -0.3443 -0.8185
 8380SOL    HW236774   2.014   3.742   9.608 -2.1507 -1.0549  0.3974
 8381SOL     OW36775   4.205   3.963  11.603 -0.2700 -0.6104  0.0246
 8381SOL    HW136776   4.202   3.990  11.511 -1.9206  0.9157  0.5286
 8381SOL    HW236777   4.112   3.969  11.622  0.3809  0.9360  2.8728
 8382SOL     OW36778   3.318   1.827   8.833  0.2321  0.1795 -0.3387
 8382SOL    HW136779   3.337   1.863   8.919  0.4976  0.4291 -0.5006
 8382SOL    HW236780   3.339   1.735   8.852 -2.8443 -0.3158  0.6312
 8383SOL     OW36781   0.831   4.221   5.660  0.6110 -0.6649 -0.3103
 8383SOL    HW136782   0.893   4.173   5.716 -1.3926 -0.5750  2.0004
 8383SOL    HW236783   0.771   4.254   5.727  0.2241  0.2395 -1.0994
 8384SOL     OW36784   3.676   4.202   2.271 -0.3081  0.7100  0.1498
 8384SOL    HW136785   3.652   4.142   2.341  0.2623 -0.8262 -0.9865
 8384SOL    HW236786   3.598   4.258   2.271 -2.2114 -2.0066  4.1205
 8385SOL     OW36787   0.529   2.178   7.663  0.3789  0.6662 -0.6476
 8385SOL    HW136788   0.508   2.145   7.751  1.7234 -2.0556 -1.3550
 8385SOL    HW236789   0.479   2.111   7.618  0.7068 -0.8477  1.2310
 8386SOL     OW36790   3.991   0.608   1.901 -0.5767 -0.0977  0.1200
 8386SOL    HW136791   3.928   0.655   1.847  0.6036 -0.4058 -1.4994
 8386SOL    HW236792   4.008   0.534   1.842 -2.3796  0.3601 -0.9698
 8387SOL     OW36793   3.811   4.634   2.843  0.1842 -0.4702 -0.0993
 8387SOL    HW136794   3.816   4.729   2.830 -0.1554 -0.6746 -1.7835
 8387SOL    HW236795   3.890   4.621   2.894 -0.4388 -2.5371  0.3619
 8388SOL     OW36796   2.263   3.670   7.590 -0.3717  0.0821 -0.4343
 8388SOL    HW136797   2.279   3.604   7.657 -3.7811  0.8136  1.0983
 8388SOL    HW236798   2.234   3.739   7.649  2.5795  0.2999  0.7613
 8389SOL     OW36799   4.040   0.895  14.066 -0.1980  0.0147  0.5274
 8389SOL    HW136800   4.058   0.952  14.141 -3.2151  0.8483  0.6468
 8389SOL    HW236801   3.967   0.944  14.028 -0.9456  0.4304  2.4802
 8390SOL     OW36802   3.049   1.822   2.733 -0.2265 -0.5549 -0.1809
 8390SOL    HW136803   3.023   1.763   2.804 -0.0755 -0.4335 -0.0231
 8390SOL    HW236804   2.962   1.826   2.693  0.7874 -1.0471 -2.4327
 8391SOL     OW36805   2.879   1.463   5.588  0.2413 -0.2646  0.1554
 8391SOL    HW136806   2.816   1.451   5.659  1.3002  0.0196  1.1561
 8391SOL    HW236807   2.860   1.396   5.523  1.0518  0.5680 -0.9528
 8392SOL     OW36808   1.334   2.508   0.796  0.3294 -0.1923  0.1852
 8392SOL    HW136809   1.300   2.419   0.783 -0.7528  0.1819  0.4787
 8392SOL    HW236810   1.415   2.484   0.839  0.0299  0.4331  1.0779
 8393SOL     OW36811   2.032   0.330  12.574  0.1748  0.9492 -0.4009
 8393SOL    HW136812   2.107   0.369  12.529  0.2355 -1.1042 -2.0934
 8393SOL    HW236813   2.048   0.360  12.664  1.3178  0.2470 -0.3707
 8394SOL     OW36814   1.903   4.238  11.266 -0.6092 -0.0064  0.5051
 8394SOL    HW136815   1.871   4.304  11.205 -0.0609 -0.7362 -0.5608
 8394SOL    HW236816   1.949   4.179  11.206  0.3646  0.7428  0.5190
 8395SOL     OW36817   1.301   1.744   7.767  0.0697  0.1512  0.0760
 8395SOL    HW136818   1.329   1.691   7.692  1.3764  0.1504  0.5735
 8395SOL    HW236819   1.253   1.819   7.731 -0.9249 -0.9643 -0.9195
 8396SOL     OW36820   1.275   1.054   7.209  0.4867  0.3246  0.1117
 8396SOL    HW136821   1.302   0.987   7.146  0.2027  0.1006  0.2300
 8396SOL    HW236822   1.181   1.036   7.211  0.6974 -0.7322  0.2374
 8397SOL     OW36823   0.505   2.477   7.970  0.4908 -0.4918 -0.4636
 8397SOL    HW136824   0.489   2.518   7.885 -0.0664 -0.3997 -0.3182
 8397SOL    HW236825   0.596   2.503   7.987  0.4387  0.2832 -1.3756
 8398SOL     OW36826   1.424   2.252  12.035  0.1292 -0.4433  0.4527
 8398SOL    HW136827   1.465   2.231  11.952 -1.5470 -0.5495 -0.3494
 8398SOL    HW236828   1.489   2.278  12.100 -1.5623  1.1576  1.5189
 8399SOL     OW36829   2.361   4.037   0.969  0.4583 -0.1518  0.5075
 8399SOL    HW136830   2.438   4.056   0.914  0.1281  0.3616  0.2185
 8399SOL    HW236831   2.396   3.994   1.047 -1.7931 -0.7816  1.1714
 8400SOL     OW36832   4.150   1.477   0.235  0.1554 -0.0811 -0.0010
 8400SOL    HW136833   4.113   1.534   0.303  0.3892  0.0950 -0.0197
 8400SOL    HW236834   4.070   1.451   0.189 -1.2138 -2.3729  3.7276
 8401SOL     OW36835   0.337   3.463  12.540 -0.2682 -0.1793  0.1039
 8401SOL    HW136836   0.294   3.413  12.609 -0.7302 -0.0686 -0.1080
 8401SOL    HW236837   0.388   3.524  12.593 -3.5589 -0.3205  3.4392
 8402SOL     OW36838   4.020   2.956   5.628 -0.8545 -0.2315  0.4724
 8402SOL    HW136839   4.037   3.043   5.592  0.0461 -0.3265  0.6769
 8402SOL    HW236840   3.933   2.964   5.669 -0.5293  1.7361  0.7847
 8403SOL     OW36841   2.557   0.451   5.250 -0.5601  0.1631 -0.2626
 8403SOL    HW136842   2.652   0.441   5.252 -0.6665 -0.7504  0.3748
 8403SOL    HW236843   2.555   0.495   5.335  0.2228 -1.5974  0.6856
 8404SOL     OW36844   4.688   2.425   6.986  0.3855 -0.0615 -0.4989
 8404SOL    HW136845   4.670   2.518   6.999 -0.1073 -0.4427  1.5797
 8404SOL    HW236846   4.661   2.394   7.072 -0.0951 -2.5169 -1.5458
 8405SOL     OW36847   1.857   4.343   7.807 -0.0259  0.0648 -0.0179
 8405SOL    HW136848   1.862   4.404   7.734  0.5980  0.8992  0.7200
 8405SOL    HW236849   1.933   4.372   7.858  1.6579  0.3433 -2.6877
 8406SOL     OW36850   0.115   4.665   5.843 -0.3325 -0.0274 -0.0382
 8406SOL    HW136851   0.166   4.585   5.855 -1.4985 -0.8577 -0.5770
 8406SOL    HW236852   0.149   4.701   5.761  1.2911 -0.2626  0.5330
 8407SOL     OW36853   0.730   1.975   2.155  0.3940  0.2035  0.8164
 8407SOL    HW136854   0.717   2.012   2.242  1.0623 -2.6547  2.1337
 8407SOL    HW236855   0.647   1.940   2.121 -0.9606  3.6066  0.6383
 8408SOL     OW36856   3.484   0.179   5.515  0.1774  0.1131 -0.2804
 8408SOL    HW136857   3.553   0.140   5.461 -0.0665  0.4637 -0.8437
 8408SOL    HW236858   3.405   0.154   5.469  0.7039 -3.7990  0.9279
 8409SOL     OW36859   2.645   2.496   9.003 -0.2633  0.2129  0.7035
 8409SOL    HW136860   2.645   2.578   8.953 -0.4651 -0.2449 -0.0449
 8409SOL    HW236861   2.724   2.516   9.054  1.0742  0.0961 -1.3225
 8410SOL     OW36862   2.336   2.353   5.567 -0.1767 -0.0951  0.2223
 8410SOL    HW136863   2.276   2.427   5.577 -0.1744 -0.3267  1.9023
 8410SOL    HW236864   2.303   2.295   5.636  1.2181 -0.3031  0.7004
 8411SOL     OW36865   2.160   2.750   3.866 -0.6714  0.4382  0.8153
 8411SOL    HW136866   2.174   2.836   3.826 -3.6339  0.9648  0.9047
 8411SOL    HW236867   2.227   2.745   3.934 -1.6358 -1.4524  1.6321
 8412SOL     OW36868   3.738   2.656   4.225 -0.3412 -0.1602  0.0833
 8412SOL    HW136869   3.721   2.570   4.185  2.5672 -0.0986 -1.2644
 8412SOL    HW236870   3.768   2.632   4.313 -2.7884 -2.2007  0.3520
 8413SOL     OW36871   3.543   2.819   0.237 -0.6461  0.7245 -0.3284
 8413SOL    HW136872   3.544   2.751   0.304 -1.1035  0.2496 -0.8044
 8413SOL    HW236873   3.490   2.774   0.172 -0.7460  0.1958  0.1199
 8414SOL     OW36874   2.330   3.105  13.009  0.1149  0.2714 -0.1415
 8414SOL    HW136875   2.284   3.083  12.928 -0.7786 -2.0544  0.9956
 8414SOL    HW236876   2.411   3.130  12.965 -0.4890  0.9951 -0.8303
 8415SOL     OW36877   0.425   0.182   5.256  0.0148  0.1752 -0.1361
 8415SOL    HW136878   0.433   0.091   5.229  1.3232  0.3885 -0.5180
 8415SOL    HW236879   0.370   0.221   5.188  1.2411  2.5866  0.2287
 8416SOL     OW36880   4.475   2.070   8.498  0.7231 -0.8137 -0.0058
 8416SOL    HW136881   4.543   2.130   8.466  1.6179  0.3352  4.0795
 8416SOL    HW236882   4.467   2.034   8.409 -4.5002  2.2834 -0.8022
 8417SOL     OW36883   4.023   4.454   5.012 -0.5980  0.2588  0.1245
 8417SOL    HW136884   3.958   4.443   4.942  0.2329  0.6496 -0.7107
 8417SOL    HW236885   3.964   4.429   5.083 -1.9366  1.0639 -0.7006
 8418SOL     OW36886   2.996   2.792   5.522 -0.6904 -0.3183 -0.6547
 8418SOL    HW136887   2.902   2.807   5.526 -0.7674 -1.1711  0.8941
 8418SOL    HW236888   2.997   2.697   5.532  0.6422 -0.2319  0.1030
 8419SOL     OW36889   3.359   3.182  12.266 -0.4308  0.5169  0.2499
 8419SOL    HW136890   3.328   3.097  12.299  0.3759 -0.5529 -1.7949
 8419SOL    HW236891   3.445   3.193  12.306  0.6408 -1.5671 -1.4689
 8420SOL     OW36892   4.494   1.118   4.531 -0.1614  0.3298  0.3371
 8420SOL    HW136893   4.562   1.181   4.508  1.4883 -1.0932  1.2938
 8420SOL    HW236894   4.453   1.104   4.446 -0.0425 -2.7363  0.7638
 8421SOL     OW36895   3.851   2.707   3.762 -0.5263 -0.1778  0.0540
 8421SOL    HW136896   3.856   2.667   3.676  1.0887  0.8951 -0.3401
 8421SOL    HW236897   3.858   2.629   3.818 -0.7470  0.2746  0.7236
 8422SOL     OW36898   3.388   4.466   3.297  0.0848  0.1658  0.1406
 8422SOL    HW136899   3.395   4.510   3.212 -2.4359  1.5496  0.6559
 8422SOL    HW236900   3.440   4.520   3.356 -0.8338  1.1174  0.0808
 8423SOL     OW36901   4.496   3.818   6.616 -0.2658  0.1674 -0.0016
 8423SOL    HW136902   4.469   3.793   6.528 -2.4017  1.3897  0.2972
 8423SOL    HW236903   4.491   3.732   6.657 -1.2194 -0.3470 -1.2008
 8424SOL     OW36904   1.852   2.231   6.678 -0.5751 -0.2399  0.6101
 8424SOL    HW136905   1.783   2.209   6.740  0.0020 -2.0252  0.6270
 8424SOL    HW236906   1.792   2.252   6.606  0.5618  1.3356  0.1137
 8425SOL     OW36907   2.715   0.323  13.970 -0.2243  0.2690  0.0111
 8425SOL    HW136908   2.656   0.289  14.038  0.6344 -0.9472  0.1553
 8425SOL    HW236909   2.729   0.408  14.013  0.1062  1.2113 -1.9637
 8426SOL     OW36910   4.581   3.358   2.066 -0.0446  0.0825  0.1212
 8426SOL    HW136911   4.503   3.413   2.055 -0.3340 -0.2901  0.3090
 8426SOL    HW236912   4.655   3.417   2.065 -2.2217  2.8075 -0.4099
 8427SOL     OW36913   1.156   0.455   5.273  0.5314 -0.0752  0.6383
 8427SOL    HW136914   1.103   0.396   5.326 -2.2849  1.1503 -0.8107
 8427SOL    HW236915   1.094   0.497   5.213  1.0840  0.0211  0.1259
 8428SOL     OW36916   3.976   1.128   1.510 -0.1318 -0.1284  0.2967
 8428SOL    HW136917   3.998   1.180   1.587  1.7012 -0.5755  0.0796
 8428SOL    HW236918   4.060   1.130   1.465  0.6436 -0.2980  1.7435
 8429SOL     OW36919   0.335   0.752  17.091  0.1625 -0.2380  0.4528
 8429SOL    HW136920   0.336   0.659  17.116 -0.8493 -0.7523 -1.4496
 8429SOL    HW236921   0.243   0.757  17.063 -0.0153  1.2387  1.3160
 8430SOL     OW36922   0.718   1.140  14.635 -0.1299  0.2902  0.1398
 8430SOL    HW136923   0.627   1.171  14.640 -0.7480 -1.2628 -1.3472
 8430SOL    HW236924   0.763   1.217  14.670 -1.8003  1.2042  0.3130
 8431SOL     OW36925   2.143   3.574  14.206 -0.0403  1.0925 -0.2774
 8431SOL    HW136926   2.084   3.645  14.232 -0.5420  1.2109 -1.7545
 8431SOL    HW236927   2.102   3.500  14.251  2.3736 -0.2148 -0.1979
 8432SOL     OW36928   4.117   0.888   6.689 -0.6647  0.5719 -0.5645
 8432SOL    HW136929   4.043   0.936   6.725 -0.1159  0.4978  0.6535
 8432SOL    HW236930   4.090   0.892   6.597  0.2512  0.6574 -0.8263
 8433SOL     OW36931   2.204   4.174  11.802 -0.3919 -0.0671 -0.0687
 8433SOL    HW136932   2.277   4.222  11.763 -1.1485 -0.8438 -2.4683
 8433SOL    HW236933   2.178   4.108  11.737  1.1024 -1.5160  0.8020
 8434SOL     OW36934   0.272   1.431   7.198 -0.8448 -0.1779 -0.2894
 8434SOL    HW136935   0.292   1.423   7.291  0.5428  0.7686 -0.5020
 8434SOL    HW236936   0.355   1.456   7.158 -0.6509 -2.5156 -1.3402
 8435SOL     OW36937   2.519   4.668   5.061  0.1211 -0.3075 -0.1250
 8435SOL    HW136938   2.525   4.736   5.129 -2.4677 -0.4655  0.2746
 8435SOL    HW236939   2.540   4.718   4.983  1.6992  1.3022  1.3224
 8436SOL     OW36940   3.784   2.706  10.100  0.2675 -0.6791 -0.0275
 8436SOL    HW136941   3.697   2.667  10.105 -0.1726  0.5775  2.1169
 8436SOL    HW236942   3.758   2.797  10.115 -1.2245 -0.9573 -0.9544
 8437SOL     OW36943   3.434   0.552   7.397  0.1491  0.3204 -1.1375
 8437SOL    HW136944   3.523   0.530   7.369  0.2771  1.5275 -1.7116
 8437SOL    HW236945   3.443   0.544   7.492 -0.2232 -0.5142 -1.1729
 8438SOL     OW36946   0.909   0.106   2.332  0.1952  0.3582  0.0512
 8438SOL    HW136947   0.927   0.016   2.360 -2.1949 -0.2899 -0.4838
 8438SOL    HW236948   0.813   0.103   2.333  0.2765 -2.0981 -0.0635
 8439SOL     OW36949   4.074   2.625  11.652  0.1767  0.3594  0.7224
 8439SOL    HW136950   4.024   2.628  11.733 -1.3948 -1.2052 -0.1854
 8439SOL    HW236951   4.157   2.587  11.679 -0.8363 -1.3499  1.3838
 8440SOL     OW36952   4.502   3.022   5.295 -0.0235  0.0475  0.2347
 8440SOL    HW136953   4.591   2.993   5.275 -0.1844  0.0814 -0.5486
 8440SOL    HW236954   4.454   2.940   5.306 -0.4494  0.5702  2.2906
 8441SOL     OW36955   1.216   1.863  12.277 -0.0405 -0.3252  0.1002
 8441SOL    HW136956   1.249   1.790  12.329 -1.6061 -2.4185 -1.8350
 8441SOL    HW236957   1.279   1.932  12.300 -0.6873  0.1513  0.4492
 8442SOL     OW36958   3.809   0.531   9.928 -0.5588 -0.0747  0.1136
 8442SOL    HW136959   3.715   0.532   9.907 -0.6775 -2.2098  0.5198
 8442SOL    HW236960   3.807   0.605   9.988  2.5252 -0.9141  1.2129
 8443SOL     OW36961   4.536   0.941   6.877 -0.1783 -0.2259  0.3080
 8443SOL    HW136962   4.526   1.032   6.850  1.2802 -0.4380 -0.9828
 8443SOL    HW236963   4.486   0.898   6.807 -1.9121 -0.5221  1.7578
 8444SOL     OW36964   1.182   1.051   9.865  0.4303 -0.4710 -0.1895
 8444SOL    HW136965   1.275   1.057   9.885  0.5463 -3.1211 -0.0321
 8444SOL    HW236966   1.142   1.005   9.939 -1.9041  2.6206  0.4774
 8445SOL     OW36967   3.165   0.127   9.317 -0.0944  0.7603  0.9366
 8445SOL    HW136968   3.136   0.036   9.313 -2.2522  1.5498 -1.2554
 8445SOL    HW236969   3.144   0.157   9.228 -1.9303 -1.6174  0.5551
 8446SOL     OW36970   3.195   1.255   5.416 -0.1126  0.0405  0.3081
 8446SOL    HW136971   3.192   1.238   5.322 -1.6688  0.6947  0.2422
 8446SOL    HW236972   3.139   1.185   5.448  0.1875  0.6687  2.2144
 8447SOL     OW36973   4.496   3.924   7.874  0.3643 -0.5852 -0.5314
 8447SOL    HW136974   4.552   3.848   7.863 -2.5333 -3.2511  3.1650
 8447SOL    HW236975   4.451   3.927   7.789 -0.8254  1.3607  0.1637
 8448SOL     OW36976   0.799   3.413  13.087 -0.0172  0.3581 -0.5948
 8448SOL    HW136977   0.768   3.385  13.174 -0.3606  1.8273 -0.2419
 8448SOL    HW236978   0.749   3.495  13.085  0.3413  0.5158 -3.0957
 8449SOL     OW36979   4.695   2.718   3.033 -0.1973  0.4668  0.3373
 8449SOL    HW136980   4.644   2.764   2.967  0.3545  1.3908  0.5671
 8449SOL    HW236981   4.626   2.676   3.085 -1.0731 -0.8775 -1.8962
 8450SOL     OW36982   3.216   4.626   5.539  0.1832 -0.3272  0.5132
 8450SOL    HW136983   3.163   4.701   5.567  0.4924  1.1831 -2.9918
 8450SOL    HW236984   3.152   4.555   5.551  0.3545 -0.4057  0.9776
 8451SOL     OW36985   2.195   4.527   3.509 -0.6857 -0.2094  0.4686
 8451SOL    HW136986   2.174   4.591   3.442 -0.1959 -0.0176  0.4956
 8451SOL    HW236987   2.276   4.489   3.475 -0.1385  0.4227  1.0827
 8452SOL     OW36988   3.457   2.253   4.002  0.1733  0.4788 -0.0276
 8452SOL    HW136989   3.411   2.284   4.079 -2.2629 -0.0910 -1.2648
 8452SOL    HW236990   3.378   2.210   3.969  0.3418 -0.3611  0.6833
 8453SOL     OW36991   3.610   1.197  13.025  0.2206 -0.3355 -0.3227
 8453SOL    HW136992   3.648   1.121  12.980 -1.5909 -2.0605  1.0167
 8453SOL    HW236993   3.586   1.144  13.102  2.2472  0.8659  1.1119
 8454SOL     OW36994   2.861   3.914   7.980  0.0447 -0.2799 -1.0479
 8454SOL    HW136995   2.860   3.870   8.066  0.6975  1.3126 -0.2336
 8454SOL    HW236996   2.766   3.918   7.964 -0.2438 -1.0351  0.4150
 8455SOL     OW36997   3.448   2.265   3.290  0.0276 -0.1896 -0.5381
 8455SOL    HW136998   3.382   2.209   3.331 -1.0306  0.8418 -0.8396
 8455SOL    HW236999   3.399   2.302   3.217  0.4554  0.7007 -0.3659
 8456SOL     OW37000   4.626   4.219  10.054 -0.2507  0.6590  0.0555
 8456SOL    HW137001   4.631   4.209  10.149 -0.6067  1.6886  0.1835
 8456SOL    HW237002   4.560   4.155  10.028  1.3424 -1.3368  0.8873
 8457SOL     OW37003   0.961   1.293   6.624 -0.0814 -0.4701 -0.0397
 8457SOL    HW137004   0.995   1.377   6.654  1.3308 -1.5925  1.4673
 8457SOL    HW237005   0.984   1.237   6.698 -1.9108 -0.7377  0.3387
 8458SOL     OW37006   0.162   4.565   6.795  0.5967  1.2752  0.2909
 8458SOL    HW137007   0.144   4.512   6.716 -0.8433  0.6826  1.0071
 8458SOL    HW237008   0.072   4.569   6.826  0.5235  1.5447  0.0430
 8459SOL     OW37009   4.457   3.569   6.993 -0.5262 -0.4681 -0.0077
 8459SOL    HW137010   4.440   3.537   6.904  0.1496  1.6708 -0.9175
 8459SOL    HW237011   4.415   3.504   7.049 -1.9874 -0.7587 -1.4515
 8460SOL     OW37012   2.377   2.634  10.462 -0.3942  0.0929  0.2189
 8460SOL    HW137013   2.331   2.551  10.449 -0.9314  0.0356  2.4250
 8460SOL    HW237014   2.340   2.673  10.383 -1.8055 -1.2542  0.2217
 8461SOL     OW37015   3.255   3.782   8.999  0.1084 -0.3921 -0.3167
 8461SOL    HW137016   3.284   3.734   9.077  3.4344  2.0829 -0.0195
 8461SOL    HW237017   3.313   3.858   9.011  0.8494 -0.3518 -4.4782
 8462SOL     OW37018   2.587   1.347   5.080 -0.5780  0.1190 -0.0381
 8462SOL    HW137019   2.542   1.419   5.035 -1.1228 -1.0053 -1.2801
 8462SOL    HW237020   2.661   1.394   5.118 -0.2990  1.5133 -2.3087
 8463SOL     OW37021   2.171   0.802  13.300  0.0674  0.2092 -0.0109
 8463SOL    HW137022   2.108   0.860  13.257  0.5324 -0.6696 -1.8702
 8463SOL    HW237023   2.224   0.861  13.353  0.3780 -0.7976  0.8193
 8464SOL     OW37024   4.175   3.913   2.901 -0.0661  0.0386 -0.3149
 8464SOL    HW137025   4.134   3.998   2.919 -0.8433 -0.9319  2.6269
 8464SOL    HW237026   4.191   3.881   2.990  1.5558 -2.3059 -1.4498
 8465SOL     OW37027   1.218   4.571   3.163  0.5914 -0.6633 -0.0589
 8465SOL    HW137028   1.262   4.502   3.213 -0.9665 -1.1711  0.6075
 8465SOL    HW237029   1.290   4.587   3.102  0.6032 -2.2069 -0.4335
 8466SOL     OW37030   1.589   1.271   8.348 -0.1189 -0.1418 -0.0601
 8466SOL    HW137031   1.577   1.328   8.425 -0.5448  0.3480 -0.4888
 8466SOL    HW237032   1.499   1.255   8.319 -0.2528 -0.8587  0.7491
 8467SOL     OW37033   2.040   1.283   2.382  0.1370 -0.2915  0.2309
 8467SOL    HW137034   2.089   1.353   2.427 -1.1075  1.3480 -0.9576
 8467SOL    HW237035   1.982   1.258   2.454  0.0013  2.8924  1.2438
 8468SOL     OW37036   1.312   1.945   2.373  0.1365 -0.2050  0.1423
 8468SOL    HW137037   1.331   1.853   2.392  0.9521  0.3855  2.1607
 8468SOL    HW237038   1.280   1.935   2.283 -1.6621  0.5011  0.7004
 8469SOL     OW37039   0.251   4.486   7.491  0.2309 -0.0197 -0.0982
 8469SOL    HW137040   0.325   4.545   7.481  0.7311 -0.4364  1.1509
 8469SOL    HW237041   0.189   4.517   7.425  0.6349  3.0688  1.0044
 8470SOL     OW37042   4.696   0.519   2.285  1.0434  0.0241  0.4116
 8470SOL    HW137043   4.715   0.612   2.292 -3.6597  1.0026 -0.2374
 8470SOL    HW237044   4.603   0.515   2.304  0.8122 -0.2879 -0.7899
 8471SOL     OW37045   2.869   2.994  11.095 -0.2481  0.0420  0.4509
 8471SOL    HW137046   2.902   3.012  11.183  1.6972  2.2469 -0.7274
 8471SOL    HW237047   2.866   3.079  11.051 -1.5028 -0.0606  0.3390
 8472SOL     OW37048   0.017   0.143   1.697  0.6916 -0.0187 -0.4876
 8472SOL    HW137049   4.715   0.063   1.732 -0.4182  0.8740  0.2831
 8472SOL    HW237050   0.008   0.131   1.602 -0.9517 -2.1673 -0.0522
 8473SOL     OW37051   2.824   1.634   2.753 -0.0237 -0.5491  0.1143
 8473SOL    HW137052   2.784   1.548   2.764 -1.0572 -0.0360  0.3634
 8473SOL    HW237053   2.834   1.667   2.842 -1.9654  1.0462 -0.2602
 8474SOL     OW37054   1.515   0.145   1.931 -0.2641 -0.0663  0.0371
 8474SOL    HW137055   1.547   0.235   1.934  0.7008 -0.3538 -1.5928
 8474SOL    HW237056   1.433   0.150   1.881 -1.0424 -1.3255  1.2053
 8475SOL     OW37057   3.276   0.208   3.652  0.0522 -0.3271 -0.4668
 8475SOL    HW137058   3.312   0.159   3.726  0.2190  2.2594  1.1881
 8475SOL    HW237059   3.267   0.140   3.586  2.0575  0.7739 -1.8961
 8476SOL     OW37060   3.659   2.523  15.532 -0.4825  0.1233 -0.4309
 8476SOL    HW137061   3.722   2.497  15.599 -0.6901 -1.3549 -0.8125
 8476SOL    HW237062   3.720   2.547  15.462  0.9897 -0.0758  0.7691
 8477SOL     OW37063   3.595   3.324  17.206 -0.3647  0.1721 -0.7598
 8477SOL    HW137064   3.661   3.331  17.136  0.8871  1.2038  0.5361
 8477SOL    HW237065   3.552   3.408  17.217  0.4643  0.4493  0.3291
 8478SOL     OW37066   2.210   0.157  12.363  0.2223  0.1352 -0.8302
 8478SOL    HW137067   2.164   0.101  12.426  0.1660  1.2807  0.1445
 8478SOL    HW237068   2.235   0.091  12.299  0.8550  0.1331 -0.5858
 8479SOL     OW37069   2.036   4.003   6.166 -0.2237  0.0173 -0.7703
 8479SOL    HW137070   1.986   4.014   6.247  0.8734  1.9342 -0.3665
 8479SOL    HW237071   1.964   3.982   6.106  0.5219 -1.2727 -1.2048
 8480SOL     OW37072   1.475   1.243   4.773  0.6590  0.4129 -0.0027
 8480SOL    HW137073   1.460   1.324   4.822 -1.6359  0.6191 -1.0394
 8480SOL    HW237074   1.446   1.274   4.687  0.5813  0.0467 -0.1052
 8481SOL     OW37075   4.531   3.314  17.015 -0.6846  0.4382  0.4312
 8481SOL    HW137076   4.521   3.252  16.943  3.6045 -0.5786  0.7025
 8481SOL    HW237077   4.537   3.392  16.959 -0.2760  1.3285  1.7231
 8482SOL     OW37078   2.317   2.014   2.728  0.3868 -0.0626  0.0334
 8482SOL    HW137079   2.378   1.948   2.761  1.7776  1.5457  0.7285
 8482SOL    HW237080   2.304   2.068   2.806 -1.1308  0.7744 -0.8124
 8483SOL     OW37081   4.009   3.350  16.619  0.4203  0.0697  0.0855
 8483SOL    HW137082   4.028   3.443  16.629 -1.6886  0.1967  2.8292
 8483SOL    HW237083   4.066   3.329  16.546 -0.0942  1.9466 -0.8542
 8484SOL     OW37084   3.227   3.343   5.573 -0.1708 -0.3667  0.1397
 8484SOL    HW137085   3.309   3.380   5.607  1.4429 -2.9366 -0.9561
 8484SOL    HW237086   3.161   3.372   5.636  2.0544  1.1690  1.7585
 8485SOL     OW37087   3.790   2.136   5.157 -0.0143  0.3788 -0.0582
 8485SOL    HW137088   3.803   2.176   5.071 -3.9341  1.4145 -0.1487
 8485SOL    HW237089   3.830   2.204   5.211 -2.0549  0.4963  1.2714
 8486SOL     OW37090   4.734   4.315   6.388  0.1177  0.3587 -0.0445
 8486SOL    HW137091   0.034   4.377   6.325  2.6238  0.0472  1.1146
 8486SOL    HW237092   4.642   4.342   6.396 -0.6438 -1.8807 -1.2209
 8487SOL     OW37093   1.785   0.535   1.994 -0.1065 -0.0076  0.9743
 8487SOL    HW137094   1.788   0.487   1.911  0.2137 -1.9323  2.1077
 8487SOL    HW237095   1.794   0.628   1.975 -0.3240 -0.0023  0.8952
 8488SOL     OW37096   1.831   0.091   3.862 -0.4840 -0.3959 -0.2428
 8488SOL    HW137097   1.794   0.109   3.948 -0.3850 -1.0065 -0.0686
 8488SOL    HW237098   1.868   0.177   3.844  1.1770 -1.4160 -1.7202
 8489SOL     OW37099   1.768   0.509   6.758  0.0274 -0.1978 -0.0346
 8489SOL    HW137100   1.780   0.564   6.681  0.8129 -1.1542 -0.5832
 8489SOL    HW237101   1.713   0.438   6.725  0.5679 -1.8314  2.5772
 8490SOL     OW37102   2.398   0.108   7.284 -0.3699  0.3975  0.5207
 8490SOL    HW137103   2.469   0.054   7.318 -0.4937  1.1880  2.0595
 8490SOL    HW237104   2.350   0.099   7.367 -0.3384  0.0668  0.5065
 8491SOL     OW37105   3.667   0.323   8.394 -0.2032 -0.7462  0.1546
 8491SOL    HW137106   3.659   0.370   8.311  0.8035 -0.4955  0.1963
 8491SOL    HW237107   3.578   0.312   8.428 -0.3672 -1.7265 -0.5865
 8492SOL     OW37108   2.672   4.303   5.674 -0.0151  0.6793 -0.1154
 8492SOL    HW137109   2.673   4.294   5.579 -1.0184 -0.8917  0.0209
 8492SOL    HW237110   2.669   4.213   5.708 -0.9582  0.6524 -0.2620
 8493SOL     OW37111   0.237   0.173   9.739 -0.3523 -0.1838  0.1182
 8493SOL    HW137112   0.159   0.148   9.690  0.5862 -1.7937 -0.5554
 8493SOL    HW237113   0.216   0.265   9.755  0.4364 -0.1669  1.0157
 8494SOL     OW37114   0.410   1.034   7.554  0.6279  0.2888  0.3011
 8494SOL    HW137115   0.485   1.059   7.608  0.0760  1.0972  0.7014
 8494SOL    HW237116   0.352   1.106   7.581 -2.6584 -1.5833 -1.7054
 8495SOL     OW37117   1.643   1.085   4.632 -0.2784 -0.3235  0.1813
 8495SOL    HW137118   1.716   1.147   4.641 -0.1020 -0.4361 -0.4765
 8495SOL    HW237119   1.573   1.124   4.685  1.2135  3.3768 -0.5071
 8496SOL     OW37120   2.666   0.056  16.418  0.1097 -0.2489  0.1471
 8496SOL    HW137121   2.643   0.080  16.328  0.0616  2.4351  0.8597
 8496SOL    HW237122   2.682   0.140  16.460  1.9603 -0.3082 -0.4453
 8497SOL     OW37123   0.038   2.011  16.208 -0.2833 -0.3736 -0.4930
 8497SOL    HW137124   0.026   2.098  16.246 -1.7335 -0.6461 -0.3532
 8497SOL    HW237125   0.008   2.037  16.121 -0.1549  0.1331 -0.3837
 8498SOL     OW37126   4.690   4.126   2.163 -0.1915 -0.0820 -0.1248
 8498SOL    HW137127   0.028   4.147   2.218 -0.7354  0.0895  0.5614
 8498SOL    HW237128   4.624   4.185   2.199  1.5842  2.2759 -0.7381
 8499SOL     OW37129   1.944   0.996   7.128  1.1706 -0.5647  0.6965
 8499SOL    HW137130   1.985   0.947   7.056  2.4501 -0.5795  1.4327
 8499SOL    HW237131   2.017   1.003   7.190  0.5439  1.7848  1.1793
 8500SOL     OW37132   4.122   2.648  10.063  0.1848 -0.3647 -0.5816
 8500SOL    HW137133   4.059   2.658  10.134 -0.6185  2.1627 -1.6420
 8500SOL    HW237134   4.087   2.709   9.998  4.4323  1.7733 -0.8872
 8501SOL     OW37135   3.374   1.268   4.961  0.2457  0.4278  0.0197
 8501SOL    HW137136   3.396   1.355   4.994  1.0457 -0.0783  0.8068
 8501SOL    HW237137   3.439   1.262   4.891 -3.2280  0.2048 -3.2242
 8502SOL     OW37138   0.889   0.254  12.634 -0.1121  0.6850  0.1369
 8502SOL    HW137139   0.834   0.303  12.573 -1.8349 -1.0493  0.2727
 8502SOL    HW237140   0.838   0.174  12.643  0.2421  0.7852  3.1956
 8503SOL     OW37141   3.181   2.979   6.866 -0.0755 -0.0562  0.2954
 8503SOL    HW137142   3.092   2.947   6.883  0.2764 -0.3472  1.5577
 8503SOL    HW237143   3.240   2.922   6.915 -0.4119 -1.7610 -1.3007
 8504SOL     OW37144   1.941   2.813   7.878 -0.2681  0.5514 -0.3228
 8504SOL    HW137145   1.914   2.784   7.790 -2.4550 -0.1536  0.5944
 8504SOL    HW237146   1.867   2.785   7.931 -0.1866  2.4694  0.7746
 8505SOL     OW37147   3.195   3.499   5.301 -0.1444 -0.4318  0.4541
 8505SOL    HW137148   3.196   3.408   5.330 -0.3141 -0.0430  1.7000
 8505SOL    HW237149   3.286   3.524   5.310 -0.7442  2.3562 -1.1358
 8506SOL     OW37150   2.317   4.404   2.725 -0.2318  0.0689  0.6253
 8506SOL    HW137151   2.314   4.486   2.675  0.4544  0.1503  0.7243
 8506SOL    HW237152   2.410   4.394   2.744 -0.1494 -0.3936 -0.0264
 8507SOL     OW37153   3.800   0.532  14.369 -0.1409  0.7530 -0.4212
 8507SOL    HW137154   3.878   0.512  14.421 -1.8360 -1.0760  1.4350
 8507SOL    HW237155   3.789   0.443  14.335  0.3702  0.6322 -0.2858
 8508SOL     OW37156   0.260   3.176   4.908  0.4057 -0.1598  1.1642
 8508SOL    HW137157   0.244   3.264   4.942 -0.5897 -0.2129  0.8189
 8508SOL    HW237158   0.317   3.185   4.831  1.7443 -0.7014  2.1024
 8509SOL     OW37159   0.373   3.751   3.310  0.3906 -0.3542  0.5844
 8509SOL    HW137160   0.378   3.846   3.323 -2.2381  0.0934 -1.7516
 8509SOL    HW237161   0.383   3.733   3.217  2.4911 -0.2544  0.7772
 8510SOL     OW37162   1.031   4.355   6.699 -0.2212 -0.4029  0.0930
 8510SOL    HW137163   1.094   4.364   6.627  0.5727  3.2287  1.2171
 8510SOL    HW237164   1.054   4.435   6.746  1.4331 -0.7221 -0.1636
 8511SOL     OW37165   2.091   4.290   4.040  0.5648  0.1129 -0.1798
 8511SOL    HW137166   2.092   4.385   4.049  1.3600  0.2290 -1.5267
 8511SOL    HW237167   2.001   4.279   4.009  0.6084  0.5170 -0.4417
 8512SOL     OW37168   0.866   0.570   4.195  0.0275  0.2584 -0.2046
 8512SOL    HW137169   0.876   0.582   4.101 -1.4644 -0.5642 -0.4589
 8512SOL    HW237170   0.775   0.584   4.219  0.0527 -0.2235  0.1802
 8513SOL     OW37171   4.255   2.221   4.961  0.0821  0.1298  0.3015
 8513SOL    HW137172   4.302   2.263   4.889  1.1234  0.4262  1.1595
 8513SOL    HW237173   4.327   2.213   5.024 -1.5130 -0.2043  2.1053
 8514SOL     OW37174   1.595   4.171   3.149 -0.1205  0.3340 -0.3036
 8514SOL    HW137175   1.503   4.161   3.125  0.5302  1.2023 -3.1195
 8514SOL    HW237176   1.574   4.216   3.231 -0.0011 -0.7371  0.3118
 8515SOL     OW37177   2.650   1.116   7.368 -0.3668  0.1359 -0.7462
 8515SOL    HW137178   2.600   1.161   7.300  0.8977  1.4582 -0.7909
 8515SOL    HW237179   2.721   1.076   7.317  1.9946  1.4987  1.4527
 8516SOL     OW37180   4.730   0.825  15.838  1.1364 -0.3081  0.0691
 8516SOL    HW137181   4.686   0.783  15.912  0.5313 -1.5052 -0.9693
 8516SOL    HW237182   4.650   0.836  15.786  1.5070  0.8308 -0.2557
 8517SOL     OW37183   0.579   2.407   3.653 -0.2843 -0.1849 -0.1552
 8517SOL    HW137184   0.583   2.376   3.743  0.8912  0.7470  0.1021
 8517SOL    HW237185   0.646   2.475   3.662 -1.2424  0.9280 -1.3735
 8518SOL     OW37186   1.840   1.642   1.565 -0.1272 -0.6212  0.0042
 8518SOL    HW137187   1.851   1.641   1.660  3.1855  2.5199 -0.3277
 8518SOL    HW237188   1.885   1.565   1.533  1.5352  0.3318  0.0340
 8519SOL     OW37189   0.576   0.652   6.786 -0.4225 -0.2680  0.6081
 8519SOL    HW137190   0.539   0.574   6.827 -1.1699  0.3906  1.1779
 8519SOL    HW237191   0.574   0.710   6.862  1.8716  0.6799 -0.0754
 8520SOL     OW37192   1.971   2.802   6.130  0.5106  0.1739 -0.2131
 8520SOL    HW137193   1.924   2.886   6.127 -1.3339 -0.8268  0.4755
 8520SOL    HW237194   1.988   2.808   6.224  1.0858  0.6657 -0.3531
 8521SOL     OW37195   1.369   1.045   0.045  0.4618  0.7450 -0.1044
 8521SOL    HW137196   1.285   1.004   0.066  2.0423 -1.8112  1.2479
 8521SOL    HW237197   1.382   1.025  17.699  0.4361 -0.0145  0.0544
 8522SOL     OW37198   3.246   2.515   9.038 -0.4895 -0.3195 -0.1088
 8522SOL    HW137199   3.327   2.544   9.079 -1.7229  0.8763  1.5158
 8522SOL    HW237200   3.181   2.561   9.092 -2.1419 -1.1043 -1.4317
 8523SOL     OW37201   3.150   0.577   2.689 -0.1755 -0.0207 -0.7438
 8523SOL    HW137202   3.195   0.661   2.700  0.6338 -0.5324 -0.0996
 8523SOL    HW237203   3.213   0.518   2.731  0.2906  0.1374 -1.2181
 8524SOL     OW37204   1.344   1.640  16.919 -0.7159  0.3414  0.5995
 8524SOL    HW137205   1.366   1.575  16.853 -1.4563  2.7270 -1.9794
 8524SOL    HW237206   1.425   1.665  16.965 -1.5965  4.7724 -0.3448
 8525SOL     OW37207   4.529   2.871  10.491  0.2848  0.3572 -0.2313
 8525SOL    HW137208   4.608   2.843  10.445  1.2971  2.2991  0.3342
 8525SOL    HW237209   4.464   2.880  10.421 -0.1449  0.8327  0.2260
 8526SOL     OW37210   0.345   1.224   2.091  0.2777  0.2155 -0.3522
 8526SOL    HW137211   0.329   1.284   2.018  1.7685 -0.0499 -0.9034
 8526SOL    HW237212   0.388   1.279   2.157  0.7880 -1.2159  0.5012
 8527SOL     OW37213   3.114   4.182  14.081  0.2228  0.1004 -0.1517
 8527SOL    HW137214   3.139   4.100  14.038 -1.0132 -1.4429  2.1147
 8527SOL    HW237215   3.200   4.222  14.094  0.8181 -0.7062 -1.5680
 8528SOL     OW37216   2.496   2.514   4.731  0.6300  0.0530  0.1663
 8528SOL    HW137217   2.478   2.595   4.778 -1.1209  0.3299 -1.0170
 8528SOL    HW237218   2.501   2.550   4.643 -1.4123 -1.1513 -0.4429
 8529SOL     OW37219   2.278   0.571   3.781  0.4071 -0.4023 -0.1510
 8529SOL    HW137220   2.304   0.486   3.816 -0.6525 -0.6134  0.1430
 8529SOL    HW237221   2.324   0.625   3.846 -0.9833  0.7252 -0.0968
 8530SOL     OW37222   1.040   1.597   5.216 -0.2558  0.1266 -0.0066
 8530SOL    HW137223   0.983   1.669   5.243 -0.7718 -0.1535 -0.3574
 8530SOL    HW237224   1.095   1.579   5.293 -1.6398  0.3265  1.0364
 8531SOL     OW37225   3.159   0.703   5.948 -0.2765 -0.1783  0.0589
 8531SOL    HW137226   3.135   0.759   6.022  0.1695  0.4208 -0.2549
 8531SOL    HW237227   3.125   0.617   5.974 -1.6718  0.2119 -0.4388
 8532SOL     OW37228   2.633   3.515   7.879 -0.7382  0.3422  0.0562
 8532SOL    HW137229   2.629   3.596   7.827 -0.4082 -0.0136 -0.5237
 8532SOL    HW237230   2.567   3.528   7.947 -2.7197 -1.1350 -1.6145
 8533SOL     OW37231   3.236   0.733   7.638  0.4818 -0.1757 -0.2261
 8533SOL    HW137232   3.258   0.793   7.567 -1.6851 -0.3121 -1.0085
 8533SOL    HW237233   3.202   0.662   7.582  2.3972  0.6587 -2.4356
 8534SOL     OW37234   4.442   0.461   7.225  0.1001 -0.1447 -0.2179
 8534SOL    HW137235   4.486   0.409   7.292  1.1321  0.4963 -0.3949
 8534SOL    HW237236   4.480   0.546   7.247  0.1163 -0.6862  1.8680
 8535SOL     OW37237   1.884   1.565   7.682 -0.6895  0.2818  0.0077
 8535SOL    HW137238   1.804   1.551   7.631 -2.2246  2.5021  1.7577
 8535SOL    HW237239   1.942   1.497   7.649 -2.3077 -0.2419 -1.7709
 8536SOL     OW37240   1.420   3.715   4.702  0.2552 -0.7577 -0.5272
 8536SOL    HW137241   1.337   3.676   4.677 -0.4505 -0.1693  0.9368
 8536SOL    HW237242   1.484   3.650   4.672 -0.2909 -1.8509  0.7169
 8537SOL     OW37243   2.971   4.280   2.204 -0.2761  0.0015  0.4445
 8537SOL    HW137244   3.028   4.233   2.144  0.5849 -0.9620  2.0252
 8537SOL    HW237245   3.008   4.367   2.217  0.8812 -0.8378  2.9298
 8538SOL     OW37246   2.015   2.840   8.976 -0.0812  1.0444  0.1974
 8538SOL    HW137247   2.018   2.755   9.019 -1.4335  0.1103 -1.5365
 8538SOL    HW237248   1.951   2.824   8.907  0.4251  0.7363 -0.2019
 8539SOL     OW37249   1.435   2.764   6.977  0.7758 -0.3185  0.6392
 8539SOL    HW137250   1.397   2.824   7.041  1.7173  0.1344  0.7714
 8539SOL    HW237251   1.506   2.713   7.017  1.5550 -0.1560 -0.5407
 8540SOL     OW37252   2.113   3.898   1.814  0.5427 -0.2283 -0.2746
 8540SOL    HW137253   2.099   3.993   1.821 -1.5581 -0.5785  0.2547
 8540SOL    HW237254   2.120   3.873   1.907  0.7647  0.9163  0.0145
 8541SOL     OW37255   3.326   4.112  10.088 -0.4964 -0.2637  0.4263
 8541SOL    HW137256   3.416   4.142  10.077 -1.5482  2.1145 -1.6687
 8541SOL    HW237257   3.332   4.114  10.184  1.9137 -1.3484  0.2906
 8542SOL     OW37258   2.822   0.251   9.244 -0.0931  0.1454 -0.0832
 8542SOL    HW137259   2.844   0.237   9.336  1.9103 -0.9259 -0.7285
 8542SOL    HW237260   2.787   0.164   9.223  0.2481 -0.2191  0.8558
 8543SOL     OW37261   2.250   1.588   7.680 -0.4353 -0.1564 -0.7007
 8543SOL    HW137262   2.253   1.604   7.774 -0.4515 -0.2227 -0.6891
 8543SOL    HW237263   2.333   1.542   7.668 -1.0056 -0.9101 -1.7627
 8544SOL     OW37264   4.495   0.091   3.178 -0.8319 -0.0754  0.3861
 8544SOL    HW137265   4.588   0.110   3.196 -1.2084  2.0863  0.0670
 8544SOL    HW237266   4.480   0.004   3.215  1.4293 -0.7780 -0.3307
 8545SOL     OW37267   0.674   2.572   8.910  0.0888 -0.7060 -0.1702
 8545SOL    HW137268   0.640   2.499   8.858 -1.6866 -0.5409  0.7467
 8545SOL    HW237269   0.593   2.617   8.934  1.3910  1.0095  1.1123
 8546SOL     OW37270   1.724   1.149   7.209 -0.3649 -0.6123  0.5793
 8546SOL    HW137271   1.807   1.112   7.178  1.0287  1.7355  1.4751
 8546SOL    HW237272   1.663   1.106   7.149 -1.6709  0.6699  1.0024
 8547SOL     OW37273   0.447   3.358  16.110  0.2813  0.3823  0.2687
 8547SOL    HW137274   0.475   3.375  16.020 -0.2290 -0.0585  0.0264
 8547SOL    HW237275   0.476   3.267  16.112 -0.9159 -0.0463 -2.0658
 8548SOL     OW37276   0.869   0.103  13.207  0.2358 -0.0398 -0.1965
 8548SOL    HW137277   0.905   0.192  13.215  0.2754  0.0135 -0.9981
 8548SOL    HW237278   0.903   0.081  13.120 -0.3020  0.5107 -0.5431
 8549SOL     OW37279   2.995   4.031   9.871  0.1664 -0.0064 -0.1869
 8549SOL    HW137280   2.932   4.063   9.806 -1.6690 -0.1943  1.5025
 8549SOL    HW237281   2.944   3.961   9.912 -1.5350  2.0993  1.3020
 8550SOL     OW37282   1.595   4.580   7.856 -0.5601  0.0040 -0.1015
 8550SOL    HW137283   1.527   4.613   7.914 -1.0497  1.1298 -1.3214
 8550SOL    HW237284   1.656   4.573   7.930  1.7832  0.3353 -1.9862
 8551SOL     OW37285   4.463   1.172   2.104 -0.1807  0.1939 -0.5128
 8551SOL    HW137286   4.396   1.104   2.100 -2.4659  2.4307  0.6301
 8551SOL    HW237287   4.437   1.231   2.033 -0.1589 -0.8615 -1.4020
 8552SOL     OW37288   2.085   2.717   8.634  0.5319 -0.1378  0.1464
 8552SOL    HW137289   2.108   2.692   8.724 -2.7390 -3.0192  0.1739
 8552SOL    HW237290   2.115   2.807   8.623  0.4637 -0.4078 -2.1508
 8553SOL     OW37291   2.665   2.493   3.272 -0.2913  0.0955 -0.5900
 8553SOL    HW137292   2.733   2.500   3.339 -0.8177  1.0501 -0.1553
 8553SOL    HW237293   2.629   2.407   3.296  1.1162  0.0601  1.4806
 8554SOL     OW37294   0.149   3.311  14.171  0.0643 -0.4096 -0.2116
 8554SOL    HW137295   0.065   3.352  14.191  0.1323 -0.0353 -0.6952
 8554SOL    HW237296   0.164   3.339  14.080  1.5379  1.4394  0.6129
 8555SOL     OW37297   3.513   1.849  13.235  0.3892 -0.2330  0.1334
 8555SOL    HW137298   3.527   1.841  13.329  1.3768 -1.7402 -0.1535
 8555SOL    HW237299   3.574   1.782  13.203  2.7773  1.7515  0.4520
 8556SOL     OW37300   0.945   2.028  13.880 -0.3230  0.3570 -0.2378
 8556SOL    HW137301   0.997   2.098  13.840 -1.5628  0.0602 -2.3884
 8556SOL    HW237302   0.881   1.996  13.816 -0.2013  0.1613 -0.2622
 8557SOL     OW37303   0.039   0.866   1.546  0.2206 -0.8909 -0.0134
 8557SOL    HW137304   0.122   0.878   1.592  0.9134 -1.7426 -1.0492
 8557SOL    HW237305   4.710   0.821   1.599 -0.9549  0.7881 -0.0371
 8558SOL     OW37306   1.234   3.911  11.758 -0.1434 -0.5024 -0.7090
 8558SOL    HW137307   1.140   3.897  11.744 -0.0929  0.4464 -2.0345
 8558SOL    HW237308   1.252   3.958  11.677 -0.4071  2.2310  0.8080
 8559SOL     OW37309   2.177   0.656   9.472  0.2243  0.2303  0.3246
 8559SOL    HW137310   2.164   0.570   9.513 -0.3960 -0.3030 -1.0031
 8559SOL    HW237311   2.271   0.664   9.487  0.1169 -1.1580  1.7887
 8560SOL     OW37312   2.517   4.725   4.246  0.1130  0.2892 -0.3346
 8560SOL    HW137313   2.567   0.023   4.320  1.5009 -0.3930 -0.9547
 8560SOL    HW237314   2.548   4.636   4.229  0.1641  0.2294  0.0766
 8561SOL     OW37315   0.794   2.273   8.363  0.6002  0.0656 -0.3648
 8561SOL    HW137316   0.720   2.296   8.419  0.6715  1.5666 -0.8896
 8561SOL    HW237317   0.750   2.224   8.294  0.0471 -1.4645  1.0765
 8562SOL     OW37318   1.244   0.976   2.858  0.3214 -0.2420 -0.0271
 8562SOL    HW137319   1.211   0.905   2.803 -3.9965  0.5294  1.5646
 8562SOL    HW237320   1.287   0.926   2.927 -1.7141  0.3888  1.7023
 8563SOL     OW37321   0.915   3.373   4.142  0.2286 -0.4162  0.0347
 8563SOL    HW137322   0.854   3.299   4.142 -0.1942 -0.0896 -1.5636
 8563SOL    HW237323   0.975   3.338   4.076  1.1712 -1.1966  1.3217
 8564SOL     OW37324   2.488   4.350   5.904 -0.0339  0.2491  0.1956
 8564SOL    HW137325   2.512   4.345   5.811 -1.2142 -1.8563  0.0048
 8564SOL    HW237326   2.396   4.334   5.885  0.2856 -0.8918 -0.4006
 8565SOL     OW37327   1.334   4.187   4.941  0.4391  0.7412 -0.0822
 8565SOL    HW137328   1.336   4.096   4.970 -0.7401  1.3280  1.8427
 8565SOL    HW237329   1.355   4.191   4.848 -1.5164  1.3300 -0.4835
 8566SOL     OW37330   1.913   3.895   5.015 -0.5576 -0.5500 -0.0477
 8566SOL    HW137331   1.824   3.884   5.047 -1.1907  1.1906 -1.1965
 8566SOL    HW237332   1.916   3.988   5.038  2.8839 -0.9339  1.0155
 8567SOL     OW37333   0.807   3.884  13.590  0.0090 -0.1749  0.3555
 8567SOL    HW137334   0.791   3.846  13.503 -0.3335 -1.5213  1.0142
 8567SOL    HW237335   0.860   3.813  13.625 -0.3044 -1.8783 -2.6225
 8568SOL     OW37336   2.296   1.016   9.370 -0.1353 -0.4944 -0.1979
 8568SOL    HW137337   2.259   1.003   9.458  0.6232 -1.1086  0.0311
 8568SOL    HW237338   2.277   0.930   9.333  0.4061 -0.5673 -0.3008
 8569SOL     OW37339   4.462   2.262   6.281  0.7361 -0.1584  0.0681
 8569SOL    HW137340   4.374   2.233   6.303  0.3941  1.0884  0.3396
 8569SOL    HW237341   4.472   2.334   6.343  3.6881 -2.2148  2.0178
 8570SOL     OW37342   3.938   3.810   1.278  0.1209  0.6581 -0.8333
 8570SOL    HW137343   3.930   3.822   1.373 -0.0329 -0.8373 -0.6561
 8570SOL    HW237344   3.851   3.775   1.259 -0.2369  2.4078 -2.4395
 8571SOL     OW37345   1.205   2.043   5.848 -0.6528 -0.0775 -0.3330
 8571SOL    HW137346   1.194   2.108   5.917 -0.0876 -2.2918  1.8507
 8571SOL    HW237347   1.202   2.095   5.768 -0.3347 -0.2447 -0.4579
 8572SOL     OW37348   0.612   2.572   9.491  0.5639 -0.0986 -0.4385
 8572SOL    HW137349   0.571   2.587   9.406  0.8488  0.4912 -0.4673
 8572SOL    HW237350   0.568   2.490   9.516 -0.9992  1.1763  1.0201
 8573SOL     OW37351   3.043   3.304   8.628 -0.3804 -0.3165 -0.0527
 8573SOL    HW137352   3.122   3.294   8.574 -0.2689  2.5949 -0.4307
 8573SOL    HW237353   3.073   3.343   8.710  1.0021 -2.7905  0.6427
 8574SOL     OW37354   2.266   1.349   9.639  0.8924  0.0880 -0.2734
 8574SOL    HW137355   2.247   1.418   9.702  1.9453 -1.1484  1.4070
 8574SOL    HW237356   2.349   1.377   9.600  0.0846 -0.9689 -2.7413
 8575SOL     OW37357   3.256   4.305   3.506 -0.2294 -0.1713 -0.1152
 8575SOL    HW137358   3.233   4.351   3.587  3.2494  2.8643 -0.8397
 8575SOL    HW237359   3.269   4.372   3.439 -0.2309 -0.5115 -0.4546
 8576SOL     OW37360   4.197   0.885   3.171  0.1855  0.3153  0.0940
 8576SOL    HW137361   4.225   0.794   3.181  1.1136  0.2885 -2.7153
 8576SOL    HW237362   4.120   0.874   3.114  0.4918 -1.3640  0.0091
 8577SOL     OW37363   4.528   4.301   2.353  0.1833  0.5988  0.1930
 8577SOL    HW137364   4.448   4.338   2.316 -1.4963  0.4242  3.6616
 8577SOL    HW237365   4.500   4.315   2.443 -0.0642  0.0536  0.2062
 8578SOL     OW37366   2.388   0.478   2.133  0.4378  0.0339  0.1783
 8578SOL    HW137367   2.422   0.392   2.159  0.5042 -0.2604 -0.8870
 8578SOL    HW237368   2.326   0.510   2.199  1.4277  1.7907  0.2761
 8579SOL     OW37369   0.818   3.354   5.845  0.3249  0.0218 -0.4612
 8579SOL    HW137370   0.772   3.351   5.761  1.2467  1.4234 -1.0129
 8579SOL    HW237371   0.754   3.318   5.907 -0.3903  0.1204 -1.1396
 8580SOL     OW37372   1.704   1.178   3.438  0.3382 -0.0559  0.1599
 8580SOL    HW137373   1.734   1.186   3.529  0.4240 -1.8390  0.2968
 8580SOL    HW237374   1.702   1.082   3.438 -1.9798  0.0098 -2.4307
 8581SOL     OW37375   2.704   4.193   4.619  0.2826  0.4939  0.0930
 8581SOL    HW137376   2.709   4.137   4.697  0.4400 -0.3119 -0.4907
 8581SOL    HW237377   2.659   4.126   4.568 -0.7415  0.4009  1.1152
 8582SOL     OW37378   0.133   4.196   0.064  0.1292 -0.3788  0.4213
 8582SOL    HW137379   0.089   4.122   0.022 -1.4779  0.0281  1.4261
 8582SOL    HW237380   0.206   4.216   0.004  0.8167  2.4738  2.2443
 8583SOL     OW37381   2.928   1.278   2.652  0.0722  0.0961 -0.6608
 8583SOL    HW137382   3.009   1.323   2.625 -1.2467  1.6553 -1.9759
 8583SOL    HW237383   2.914   1.323   2.736 -1.8996 -0.7753 -0.5217
 8584SOL     OW37384   3.662   0.745  13.285 -0.3227 -0.0365  0.1102
 8584SOL    HW137385   3.595   0.770  13.222 -0.8560 -2.0244 -0.1042
 8584SOL    HW237386   3.672   0.652  13.262 -0.4129  0.3191 -1.3444
 8585SOL     OW37387   0.134   0.467   2.546  0.3732 -0.6608  0.1702
 8585SOL    HW137388   0.121   0.395   2.484 -1.2789  0.0072 -0.2415
 8585SOL    HW237389   0.203   0.518   2.502  0.5483 -1.0204  0.0282
 8586SOL     OW37390   3.958   2.623   1.646 -0.2621 -0.1030 -0.7345
 8586SOL    HW137391   3.881   2.678   1.660  0.3905  0.6655 -0.2335
 8586SOL    HW237392   3.963   2.593   1.737  1.5213 -0.4903 -0.9642
 8587SOL     OW37393   2.639   4.271  14.439  0.0200  0.8600 -0.1029
 8587SOL    HW137394   2.567   4.258  14.500 -0.7174 -0.4783 -1.2579
 8587SOL    HW237395   2.608   4.231  14.358 -0.8585 -0.6719  0.9887
 8588SOL     OW37396   4.548   2.033   0.090  0.1068 -0.6575 -0.2660
 8588SOL    HW137397   4.608   2.107   0.087 -0.5190 -0.1790 -1.0911
 8588SOL    HW237398   4.462   2.069   0.069  0.5141  1.1841  1.2106
 8589SOL     OW37399   1.072   4.292   0.258  0.2456 -0.1504 -0.8964
 8589SOL    HW137400   1.134   4.223   0.237  0.4292 -0.3166  0.1884
 8589SOL    HW237401   1.022   4.247   0.325  1.0255  0.2219 -0.0673
 8590SOL     OW37402   4.720   3.757   7.788  0.3941  0.4258 -0.3402
 8590SOL    HW137403   0.040   3.811   7.734  0.2960 -1.4745 -2.3798
 8590SOL    HW237404   0.022   3.773   7.873  1.2776 -1.6253 -0.3565
 8591SOL     OW37405   4.090   4.009   5.909  0.2422 -0.2400  0.0221
 8591SOL    HW137406   4.007   4.009   5.862 -0.5055  0.3661  1.3302
 8591SOL    HW237407   4.060   4.041   5.994  0.2150 -1.7552  0.5815
 8592SOL     OW37408   1.925   0.019  12.696 -0.1743 -0.5232 -0.0558
 8592SOL    HW137409   1.956   4.679  12.744 -2.4560 -1.1449  0.4300
 8592SOL    HW237410   2.007   0.041  12.651  1.0914  0.4844  2.7553
 8593SOL     OW37411   4.054   2.864   4.670 -0.2253 -0.8154  0.1716
 8593SOL    HW137412   3.990   2.878   4.740 -0.5134  0.0490 -0.2564
 8593SOL    HW237413   4.049   2.949   4.625  2.7972 -1.8559 -2.1464
 8594SOL     OW37414   1.681   3.144  17.170  0.1008 -0.6084 -0.0629
 8594SOL    HW137415   1.764   3.098  17.186 -1.3861 -2.8446  1.2644
 8594SOL    HW237416   1.667   3.112  17.081  0.5700 -0.6756 -0.1161
 8595SOL     OW37417   1.215   3.031   9.844  0.4733  0.2508 -0.3221
 8595SOL    HW137418   1.165   3.105   9.878  1.3319  0.3755  0.6901
 8595SOL    HW237419   1.303   3.053   9.877  0.1040 -1.3613  1.7850
 8596SOL     OW37420   4.315   2.437  16.768 -0.2622  0.3912 -0.1165
 8596SOL    HW137421   4.371   2.416  16.693  0.3301 -0.2910  0.5164
 8596SOL    HW237422   4.307   2.531  16.753  1.7871  0.4735 -0.7244
 8597SOL     OW37423   1.880   1.943   3.051 -0.3758 -0.3177  0.0619
 8597SOL    HW137424   1.849   1.882   3.119  1.5020 -0.2569  0.9833
 8597SOL    HW237425   1.899   1.876   2.985 -1.0060  0.2240 -0.6666
 8598SOL     OW37426   1.199   2.541   5.265  0.1607  0.2905 -0.1789
 8598SOL    HW137427   1.238   2.624   5.294  0.8286 -0.2046  0.3463
 8598SOL    HW237428   1.274   2.505   5.217  0.3349  1.0516 -0.4813
 8599SOL     OW37429   0.937   4.293   4.423  0.9318  0.4631  0.3986
 8599SOL    HW137430   0.845   4.311   4.442  0.1212 -1.7293 -1.4113
 8599SOL    HW237431   0.984   4.322   4.501  0.5563  0.3823  0.6521
 8600SOL     OW37432   0.005   2.075   5.057  0.0280  0.3467 -0.1640
 8600SOL    HW137433   0.067   2.033   5.118 -0.2382  0.9651  0.5290
 8600SOL    HW237434   4.735   2.003   4.994 -0.3040 -3.5071  4.2998
 8601SOL     OW37435   1.131   3.367   2.517 -0.0750 -0.2459  0.3087
 8601SOL    HW137436   1.071   3.363   2.591 -2.1552  0.3157 -1.3480
 8601SOL    HW237437   1.117   3.455   2.482  0.5531 -0.8867 -1.5335
 8602SOL     OW37438   3.904   3.976   7.472  0.1245  0.8487 -0.3123
 8602SOL    HW137439   3.988   3.978   7.519  0.0852 -0.6590 -0.1856
 8602SOL    HW237440   3.915   3.887   7.441 -2.2544  0.2268  0.6464
 8603SOL     OW37441   2.570   2.689   5.791 -0.2561 -0.3157 -0.1862
 8603SOL    HW137442   2.590   2.599   5.763 -1.3868 -0.9499  1.0842
 8603SOL    HW237443   2.507   2.675   5.861 -0.7563  2.0951 -0.1573
 8604SOL     OW37444   2.972   4.333   9.598  0.4073 -0.1112  0.0778
 8604SOL    HW137445   2.936   4.352   9.684 -0.2121  0.5524 -0.3299
 8604SOL    HW237446   2.896   4.295   9.553  0.3135  0.3576 -0.1503
 8605SOL     OW37447   2.683   0.993   4.446  0.7698 -0.0360  0.1888
 8605SOL    HW137448   2.614   0.926   4.444  0.5528  0.1918  0.1166
 8605SOL    HW237449   2.680   1.024   4.536 -0.4487 -0.4698  0.3006
 8606SOL     OW37450   3.141   0.999   5.487  0.1220 -0.0416  0.1656
 8606SOL    HW137451   3.202   0.940   5.442 -0.0463 -0.6628  0.7541
 8606SOL    HW237452   3.170   0.973   5.575 -0.7152 -0.0823  0.4303
 8607SOL     OW37453   3.369   1.295   6.508 -0.0928 -0.6552  0.1272
 8607SOL    HW137454   3.409   1.266   6.425  1.4520 -1.2953  1.0972
 8607SOL    HW237455   3.323   1.213   6.527  1.1115 -1.1328  0.9909
 8608SOL     OW37456   1.786   3.697  11.351 -0.2013  0.2502  0.2408
 8608SOL    HW137457   1.809   3.789  11.340  0.5581  0.4522  3.5998
 8608SOL    HW237458   1.698   3.704  11.386 -0.0297  1.2440  0.4749
 8609SOL     OW37459   1.096   0.158  10.074  0.3594 -0.8087  0.2840
 8609SOL    HW137460   1.181   0.179  10.035  0.3429 -1.4356 -0.0889
 8609SOL    HW237461   1.048   0.102  10.014  1.1330 -0.4569 -0.6631
 8610SOL     OW37462   3.674   0.996  16.529  0.1356  0.1696 -0.0793
 8610SOL    HW137463   3.698   1.088  16.514 -0.2450  0.6908  2.5602
 8610SOL    HW237464   3.700   0.956  16.445 -0.2762  0.2198 -0.2275
 8611SOL     OW37465   3.956   4.050   1.735 -0.0119  0.0099 -0.0170
 8611SOL    HW137466   4.047   4.063   1.762 -0.2409 -0.2948  0.9058
 8611SOL    HW237467   3.927   4.141   1.730  0.5759  0.2240  0.5233
 8612SOL     OW37468   0.865   1.621   7.951 -0.7145  0.0282  0.9698
 8612SOL    HW137469   0.893   1.539   7.993 -2.0891 -1.5017 -1.1348
 8612SOL    HW237470   0.801   1.584   7.890 -0.7889 -1.3396  1.8734
 8613SOL     OW37471   2.432   1.191   3.883  0.2173  0.1363  0.0005
 8613SOL    HW137472   2.375   1.219   3.812 -0.7701 -2.1122 -0.0760
 8613SOL    HW237473   2.490   1.267   3.885 -0.4540  0.6540 -0.2958
 8614SOL     OW37474   3.971   1.666   1.353 -0.2088 -0.1009 -0.0947
 8614SOL    HW137475   4.028   1.615   1.295 -1.1162 -0.1364 -0.9586
 8614SOL    HW237476   3.961   1.740   1.292  1.9149  0.7217  0.5462
 8615SOL     OW37477   0.134   1.269  14.576 -0.8993  0.0368 -0.3499
 8615SOL    HW137478   0.162   1.302  14.491 -4.4165 -1.6307 -2.1543
 8615SOL    HW237479   0.095   1.339  14.629  0.6702  1.2555 -0.7945
 8616SOL     OW37480   2.819   0.889   7.613  0.2924  0.2520 -0.1430
 8616SOL    HW137481   2.762   0.833   7.665  1.8204 -0.0238  1.2473
 8616SOL    HW237482   2.846   0.816   7.557 -1.6202 -1.2934  0.9553
 8617SOL     OW37483   3.036   1.077   9.681  0.0272  0.1912  0.5108
 8617SOL    HW137484   3.005   1.043   9.597 -0.9098 -0.6663  1.2045
 8617SOL    HW237485   3.009   1.005   9.737  0.9662 -1.1365 -0.7234
 8618SOL     OW37486   0.234   0.472   8.758 -0.2061 -0.1085 -0.0503
 8618SOL    HW137487   0.269   0.403   8.814 -1.2723  0.3364  1.1531
 8618SOL    HW237488   0.149   0.431   8.743 -0.9984  1.3031  0.5670
 8619SOL     OW37489   2.729   4.449   6.982  0.0630 -0.1854  0.4650
 8619SOL    HW137490   2.798   4.395   7.020 -0.8605 -1.3673  0.4714
 8619SOL    HW237491   2.739   4.530   7.031 -0.7512 -0.4192  1.0174
 8620SOL     OW37492   0.713   0.971   4.419  0.2764 -0.3895  0.1205
 8620SOL    HW137493   0.754   0.892   4.453 -0.0752 -0.6957 -0.1590
 8620SOL    HW237494   0.626   0.968   4.458  0.5388 -0.2974  0.7129
 8621SOL     OW37495   3.935   3.227   4.589  0.3161 -0.2666  0.3071
 8621SOL    HW137496   3.842   3.242   4.604  0.0825  0.7531 -2.1583
 8621SOL    HW237497   3.939   3.204   4.496  2.6687  1.8537 -0.1482
 8622SOL     OW37498   1.295   0.950   5.673  0.0210 -0.3137  0.0320
 8622SOL    HW137499   1.209   0.992   5.667  0.8969  1.2629 -1.3595
 8622SOL    HW237500   1.326   1.003   5.747  0.2160 -0.2750 -0.0804
 8623SOL     OW37501   4.589   2.830   1.100 -0.1208 -0.5243  0.4422
 8623SOL    HW137502   4.677   2.844   1.066 -0.1759 -0.3858  0.3612
 8623SOL    HW237503   4.572   2.753   1.046  0.2612  0.2499 -0.7736
 8624SOL     OW37504   3.416   1.066   2.856 -0.4117 -0.2908  0.1202
 8624SOL    HW137505   3.366   1.141   2.890 -1.3303 -0.5804 -0.5990
 8624SOL    HW237506   3.358   0.998   2.824  0.1796 -0.6149 -0.2451
 8625SOL     OW37507   2.997   2.178   9.603 -0.2281  0.5949 -0.2490
 8625SOL    HW137508   2.954   2.140   9.527 -1.1015  0.0086  0.5458
 8625SOL    HW237509   2.961   2.266   9.594 -4.2178 -1.0624 -0.4093
 8626SOL     OW37510   2.019   0.757   2.531  0.2175 -0.4886 -0.4312
 8626SOL    HW137511   2.019   0.783   2.439  1.1632  0.5905 -0.1307
 8626SOL    HW237512   2.091   0.805   2.571 -0.1886 -0.6729  0.5041
 8627SOL     OW37513   4.627   0.464   5.396 -0.0681  0.3208  0.0454
 8627SOL    HW137514   4.555   0.528   5.393  0.9428  1.4208 -0.6420
 8627SOL    HW237515   4.668   0.493   5.478 -0.3044 -0.1211  0.3188
 8628SOL     OW37516   3.306   1.845   2.726 -0.3983  0.2346  0.6213
 8628SOL    HW137517   3.311   1.919   2.787  1.6930  0.7204 -0.1330
 8628SOL    HW237518   3.211   1.837   2.713  0.1338 -2.8596 -1.1871
 8629SOL     OW37519   0.110   1.173   4.765 -0.4034  0.0139 -1.1109
 8629SOL    HW137520   0.129   1.143   4.676  1.7922 -1.7296 -0.0445
 8629SOL    HW237521   0.190   1.157   4.815 -1.4014  3.5783  1.6222
 8630SOL     OW37522   0.522   4.710   9.229 -0.9980  0.1960  0.2159
 8630SOL    HW137523   0.526   0.061   9.193 -3.5971  0.2090  0.0263
 8630SOL    HW237524   0.508   4.730   9.322  1.6734 -0.8270  0.8397
 8631SOL     OW37525   4.195   2.855   3.640 -0.4374 -0.0612  0.0775
 8631SOL    HW137526   4.271   2.884   3.690 -1.2318 -1.0830  1.8758
 8631SOL    HW237527   4.234   2.868   3.554 -0.5019  3.3361  0.5430
 8632SOL     OW37528   0.614   3.535  15.184  0.0979 -0.2975  0.3330
 8632SOL    HW137529   0.667   3.546  15.263  0.5465 -0.1193  0.0112
 8632SOL    HW237530   0.640   3.444  15.173 -0.9455 -0.6969  1.2047
 8633SOL     OW37531   1.937   0.401   6.985 -0.3164 -0.2884  0.2256
 8633SOL    HW137532   1.882   0.437   6.915 -1.0997 -2.2126 -0.1350
 8633SOL    HW237533   1.902   0.442   7.065  0.0629  1.7724 -0.6734
 8634SOL     OW37534   2.475   1.943   8.789  0.3608  0.6417 -0.5642
 8634SOL    HW137535   2.434   2.017   8.834 -0.0046  1.5305 -2.3538
 8634SOL    HW237536   2.442   1.866   8.834  1.0714  1.5974  1.6101
 8635SOL     OW37537   3.599   1.357  12.814 -0.1342  0.0993 -0.3192
 8635SOL    HW137538   3.608   1.447  12.843 -0.5271 -0.2677  0.9516
 8635SOL    HW237539   3.609   1.303  12.893  1.7971 -1.1382 -1.4177
 8636SOL     OW37540   2.714   4.233  12.350 -0.3340  0.6482 -0.8289
 8636SOL    HW137541   2.761   4.316  12.347 -0.3287  0.6441 -0.8538
 8636SOL    HW237542   2.695   4.225  12.257  2.0842 -1.2060 -1.1592
 8637SOL     OW37543   0.955   4.667  13.588  0.7680  0.5321  0.2721
 8637SOL    HW137544   0.997   4.689  13.504  0.8724  1.0917  0.4659
 8637SOL    HW237545   1.029   4.684  13.647  0.1955  1.7510  0.6544
 8638SOL     OW37546   4.673   0.230   7.784  0.2800  0.2053  0.2971
 8638SOL    HW137547   4.622   0.197   7.710  1.7744 -1.3979 -0.0211
 8638SOL    HW237548   0.015   0.263   7.740  0.5318  0.7283  1.1473
 8639SOL     OW37549   0.042   0.340  11.759 -0.2936  0.5761  0.2782
 8639SOL    HW137550   0.107   0.368  11.695  1.4233  0.0982  1.8138
 8639SOL    HW237551   0.036   0.248  11.733  1.0489  0.1607  1.4478
 8640SOL     OW37552   0.207   1.147   8.750  0.2729 -0.1962  0.1631
 8640SOL    HW137553   0.249   1.101   8.822 -0.4094 -2.7531 -1.0760
 8640SOL    HW237554   0.120   1.141   8.789  0.9329 -0.2288  1.6213
 8641SOL     OW37555   4.172   3.255   3.600  0.3077 -0.0076 -0.2404
 8641SOL    HW137556   4.108   3.203   3.549 -0.0864  0.5343 -0.2960
 8641SOL    HW237557   4.101   3.304   3.641  1.0376  1.7983 -1.1461
 8642SOL     OW37558   2.309   1.455   1.874  0.2400 -0.1302  0.6261
 8642SOL    HW137559   2.325   1.545   1.845  1.9327 -0.8053 -0.5563
 8642SOL    HW237560   2.328   1.412   1.791  0.5506 -0.3762  0.8248
 8643SOL     OW37561   4.287   1.693   8.310 -0.0272  0.3124 -0.6617
 8643SOL    HW137562   4.289   1.726   8.220 -3.6636  2.9550  0.1850
 8643SOL    HW237563   4.380   1.672   8.318 -0.7154 -1.6112  2.2495
 8644SOL     OW37564   2.500   0.834  12.180 -0.3681 -0.2487  0.1548
 8644SOL    HW137565   2.541   0.920  12.184  2.0523 -1.4770  2.2507
 8644SOL    HW237566   2.489   0.820  12.086  1.7074  0.9116 -0.2533
 8645SOL     OW37567   3.905   0.005  10.276 -0.6064  0.4283  0.3123
 8645SOL    HW137568   3.834   0.034  10.333 -0.2487  1.4010  0.2731
 8645SOL    HW237569   3.858   4.684  10.216 -1.9232  1.4739  0.3239
 8646SOL     OW37570   2.191   2.006   5.906  0.3707 -0.2114 -0.0987
 8646SOL    HW137571   2.171   2.035   5.995 -0.9871  0.1038 -0.5105
 8646SOL    HW237572   2.261   2.068   5.884 -1.3452  0.3228 -4.0459
 8647SOL     OW37573   1.808   3.717  13.494  0.3239 -0.3192  0.0112
 8647SOL    HW137574   1.898   3.694  13.517 -0.1799 -0.0406  2.2160
 8647SOL    HW237575   1.783   3.643  13.438  1.6097 -1.0605  0.4077
 8648SOL     OW37576   4.201   2.647   8.052  0.1721  0.2782  0.7278
 8648SOL    HW137577   4.122   2.593   8.039  0.2361  0.2129  0.6161
 8648SOL    HW237578   4.249   2.649   7.970  1.9247 -3.1934  1.6367
 8649SOL     OW37579   1.198   1.294   5.241 -0.3939  0.1876 -0.0676
 8649SOL    HW137580   1.233   1.246   5.165 -2.7052  0.5818 -1.3787
 8649SOL    HW237581   1.254   1.371   5.237  1.6531 -1.2401  1.2044
 8650SOL     OW37582   2.618   2.590   1.475 -0.6745 -0.4890  0.4220
 8650SOL    HW137583   2.621   2.575   1.381 -0.6029  1.4845  0.1137
 8650SOL    HW237584   2.540   2.541   1.503 -0.0519 -1.0990  1.0973
 8651SOL     OW37585   3.275   2.051  16.550 -0.4384  0.1143  1.0653
 8651SOL    HW137586   3.202   2.109  16.573  0.6188  1.6935  0.4533
 8651SOL    HW237587   3.226   1.969  16.551 -0.2907  0.0621  3.1921
 8652SOL     OW37588   0.609   4.075   4.234  0.6103  0.0464 -0.2638
 8652SOL    HW137589   0.653   4.007   4.285  0.0212  0.6451  1.0305
 8652SOL    HW237590   0.517   4.055   4.249 -0.0570  1.8172 -1.9134
 8653SOL     OW37591   4.115   1.064   7.833 -0.1425 -0.0319 -0.1869
 8653SOL    HW137592   4.114   1.031   7.923 -1.3537 -0.3518 -0.3160
 8653SOL    HW237593   4.134   1.155   7.853  0.3824 -0.5297  1.6102
 8654SOL     OW37594   1.735   4.479   7.453  0.1917 -0.0644  0.3583
 8654SOL    HW137595   1.776   4.495   7.368  0.0085 -2.7234 -0.2267
 8654SOL    HW237596   1.811   4.444   7.499  0.7529  0.7070  0.0112
 8655SOL     OW37597   4.209   2.378  11.750  0.5892 -0.1347 -0.0999
 8655SOL    HW137598   4.293   2.414  11.779 -0.2958  2.0416 -0.2392
 8655SOL    HW237599   4.239   2.291  11.727 -0.0748 -0.4022  0.0510
 8656SOL     OW37600   0.805   1.637   1.528  0.1374  0.1457 -0.0740
 8656SOL    HW137601   0.877   1.575   1.539 -0.5241 -0.6697 -0.3699
 8656SOL    HW237602   0.843   1.708   1.580 -1.4207  0.3135  0.8493
 8657SOL     OW37603   1.352   1.368   6.319  0.7782 -0.0560  0.3188
 8657SOL    HW137604   1.283   1.410   6.268  0.0102 -1.7557 -0.0128
 8657SOL    HW237605   1.313   1.290   6.358  3.7374 -0.8609  1.6833
 8658SOL     OW37606   1.844   0.439   8.977 -0.0518 -0.7724  0.6423
 8658SOL    HW137607   1.846   0.434   8.881 -2.9498  2.0639  0.4516
 8658SOL    HW237608   1.763   0.488   8.988  0.4282  1.0907 -4.0124
 8659SOL     OW37609   1.346   2.818   4.698  0.3124 -0.7709 -0.1630
 8659SOL    HW137610   1.386   2.902   4.674 -1.8191 -0.1236 -1.4912
 8659SOL    HW237611   1.280   2.807   4.630 -0.2738  1.0399  0.0943
 8660SOL     OW37612   1.023   3.778  16.193  0.0372  0.1883 -0.2550
 8660SOL    HW137613   0.956   3.760  16.127  0.3911 -2.1917  0.0342
 8660SOL    HW237614   1.104   3.794  16.144 -0.2471  0.9354 -0.4848
 8661SOL     OW37615   1.416   1.759   2.993  0.1598 -0.6988 -0.8713
 8661SOL    HW137616   1.475   1.739   3.065  1.8551 -1.4657 -2.4653
 8661SOL    HW237617   1.476   1.760   2.918  1.7786 -0.8155  0.4251
 8662SOL     OW37618   3.814   3.225   7.328 -0.3107 -0.1702  0.0562
 8662SOL    HW137619   3.748   3.192   7.390 -1.0350 -0.0547 -0.6453
 8662SOL    HW237620   3.806   3.320   7.336  0.6265 -0.1336  0.4923
 8663SOL     OW37621   3.228   2.642   9.524  0.0895 -0.1648 -0.0053
 8663SOL    HW137622   3.280   2.572   9.563  1.9197  0.8555 -0.6446
 8663SOL    HW237623   3.209   2.704   9.594  4.2943 -0.3775  1.3146
 8664SOL     OW37624   3.071   3.277  13.072 -0.3440  0.3234  0.4647
 8664SOL    HW137625   3.088   3.356  13.021 -0.0297 -0.0220  0.0424
 8664SOL    HW237626   3.157   3.238  13.086 -1.2343 -1.5296  0.7867
 8665SOL     OW37627   3.238   2.092  15.632  0.2704  0.1248 -0.8727
 8665SOL    HW137628   3.211   2.184  15.636 -1.1233 -0.3335  0.0958
 8665SOL    HW237629   3.319   2.096  15.581  0.1128 -0.4729 -1.1675
 8666SOL     OW37630   2.305   0.614   8.778  0.6597 -0.3520 -0.0379
 8666SOL    HW137631   2.395   0.632   8.753  1.0418  1.3458  2.5584
 8666SOL    HW237632   2.308   0.612   8.874  2.2260  0.7404 -0.0754
 8667SOL     OW37633   3.293   0.288   4.010 -0.2015  0.4436  0.4600
 8667SOL    HW137634   3.266   0.369   3.966 -0.4892 -1.0380 -2.1483
 8667SOL    HW237635   3.387   0.307   4.013 -0.4322  1.2549  2.1278
 8668SOL     OW37636   4.247   0.264  16.573 -0.0340 -0.3770  0.3762
 8668SOL    HW137637   4.221   0.298  16.487  0.1815 -1.4892 -0.1345
 8668SOL    HW237638   4.335   0.303  16.581 -0.8437  1.3015  1.0879
 8669SOL     OW37639   1.186   1.738  15.529 -0.0875 -0.4481  0.3195
 8669SOL    HW137640   1.251   1.803  15.502 -0.1749 -0.7167 -0.5254
 8669SOL    HW237641   1.219   1.688  15.604 -0.3073 -1.8577 -0.5403
 8670SOL     OW37642   3.110   2.732   5.791  0.4442  0.0452 -0.1658
 8670SOL    HW137643   3.041   2.750   5.727  1.0861  0.6180 -0.7006
 8670SOL    HW237644   3.112   2.637   5.796 -0.9878  0.1499  2.3146
 8671SOL     OW37645   2.598   4.453   2.160 -0.0548  0.1869  0.0484
 8671SOL    HW137646   2.553   4.532   2.191 -1.5087 -0.4217 -0.5231
 8671SOL    HW237647   2.661   4.445   2.232 -1.3538  0.5581  1.2387
 8672SOL     OW37648   2.350   2.994   5.989 -0.0107  0.2242 -0.2355
 8672SOL    HW137649   2.270   3.042   5.971 -1.1905 -1.6639 -0.0559
 8672SOL    HW237650   2.420   3.059   5.988 -0.0466  0.2694  0.2549
 8673SOL     OW37651   3.086   0.112   4.924 -1.4172  0.0292  0.1528
 8673SOL    HW137652   3.044   0.057   4.857 -0.4028 -0.8503  0.2292
 8673SOL    HW237653   3.066   0.199   4.890  2.7523  1.2349  0.6969
 8674SOL     OW37654   3.834   1.985  12.217 -0.0357  0.5127 -0.0406
 8674SOL    HW137655   3.849   1.939  12.300 -0.9898  0.1091 -0.0933
 8674SOL    HW237656   3.914   2.034  12.199 -0.1084  0.6516  0.0163
 8675SOL     OW37657   2.066   3.479   3.517  0.5156  0.3368 -0.7150
 8675SOL    HW137658   2.127   3.552   3.503  3.0214 -1.6755 -0.4651
 8675SOL    HW237659   2.138   3.418   3.500  0.8133  0.7801 -1.0536
 8676SOL     OW37660   1.914   1.908   8.384 -0.0369  0.1268  0.2697
 8676SOL    HW137661   1.880   1.868   8.304  0.3343 -1.3093  0.8303
 8676SOL    HW237662   1.865   1.990   8.380  0.6178  0.5055 -0.0887
 8677SOL     OW37663   0.180   3.242   8.287 -0.5658 -0.2192 -0.4165
 8677SOL    HW137664   0.172   3.150   8.315  2.1292 -0.2670  0.2022
 8677SOL    HW237665   0.240   3.228   8.213  0.5656 -0.8126  0.6049
 8678SOL     OW37666   2.384   4.475  11.374  0.1558 -0.0138  0.1709
 8678SOL    HW137667   2.468   4.448  11.337  0.3653  3.3583 -1.7870
 8678SOL    HW237668   2.332   4.409  11.328 -0.8686 -0.7492  2.3833
 8679SOL     OW37669   0.703   0.456  12.455  0.4529 -0.6785  0.1257
 8679SOL    HW137670   0.712   0.449  12.360 -0.0377  0.9488 -0.0490
 8679SOL    HW237671   0.608   0.465  12.466  0.5609  0.4532  0.1210
 8680SOL     OW37672   2.139   3.404   2.807 -0.0047  1.0515 -0.2769
 8680SOL    HW137673   2.092   3.487   2.797 -0.3588  0.6865 -1.7110
 8680SOL    HW237674   2.196   3.413   2.731 -1.3000  1.0965 -1.2430
 8681SOL     OW37675   4.420   2.937  16.918 -1.2822  0.3893 -0.1562
 8681SOL    HW137676   4.477   2.884  16.973  0.7402  1.2625 -1.4155
 8681SOL    HW237677   4.406   3.005  16.984  1.3795  1.4521 -0.6928
 8682SOL     OW37678   4.509   2.775   4.464  0.3252 -0.0724 -0.3582
 8682SOL    HW137679   4.438   2.752   4.523  0.2705  2.4349  0.5299
 8682SOL    HW237680   4.473   2.740   4.382  1.1481  0.5791 -1.0060
 8683SOL     OW37681   4.398   0.283   5.991  0.5241 -0.0510  0.6479
 8683SOL    HW137682   4.466   0.233   6.036  0.9092  1.6143  1.9402
 8683SOL    HW237683   4.350   0.212   5.950 -1.3572  1.5696  0.0350
 8684SOL     OW37684   1.308   4.198   5.465  0.4465 -0.2750  0.1770
 8684SOL    HW137685   1.282   4.251   5.391 -0.3782  0.6135  1.1070
 8684SOL    HW237686   1.386   4.158   5.427  1.8327  2.1625  0.4329
 8685SOL     OW37687   3.032   4.281   7.436  0.0506 -0.0259  0.9889
 8685SOL    HW137688   3.094   4.351   7.413 -2.1453  1.9509  1.0457
 8685SOL    HW237689   2.991   4.330   7.508 -0.2160  0.1588  0.7094
 8686SOL     OW37690   2.524   2.977  12.558  0.2571  0.1744 -0.0960
 8686SOL    HW137691   2.461   3.010  12.495  0.4776 -0.1726 -0.4953
 8686SOL    HW237692   2.517   2.889  12.522  1.9490  0.3765 -0.9235
 8687SOL     OW37693   3.636   4.223   7.204  0.2047 -0.6220  0.3034
 8687SOL    HW137694   3.612   4.157   7.269 -2.2176  0.4239  0.4848
 8687SOL    HW237695   3.718   4.196   7.162  0.4442 -0.1718  0.4743
 8688SOL     OW37696   3.221   2.487   6.311 -0.1241  0.2048  0.0437
 8688SOL    HW137697   3.197   2.538   6.234  0.0516  0.1787 -0.0285
 8688SOL    HW237698   3.275   2.551   6.357  0.3414 -0.6949  0.7532
 8689SOL     OW37699   0.732   4.542  11.423  0.8789  0.4152  0.3791
 8689SOL    HW137700   0.645   4.580  11.408 -0.1522 -2.2373 -0.3682
 8689SOL    HW237701   0.710   4.501  11.507  0.7224 -3.5935 -1.6002
 8690SOL     OW37702   0.499   1.441   2.917  0.0196  0.3530 -0.2719
 8690SOL    HW137703   0.529   1.532   2.923  0.4578  0.0067  2.5562
 8690SOL    HW237704   0.407   1.450   2.893 -0.0493  1.6153  0.4414
 8691SOL     OW37705   1.923   0.877   6.303 -0.2275 -0.0158 -0.4774
 8691SOL    HW137706   1.987   0.906   6.369  2.3642  0.6361 -3.2728
 8691SOL    HW237707   1.843   0.917   6.336 -0.2573 -0.5568  0.1115
 8692SOL     OW37708   1.470   0.244   9.120 -0.3073  0.1209  0.2201
 8692SOL    HW137709   1.504   0.182   9.185  0.5158  1.6968  1.3077
 8692SOL    HW237710   1.391   0.279   9.161 -0.7663  0.5097 -0.9945
 8693SOL     OW37711   0.963   0.837   8.154 -0.5263  0.2475 -0.3112
 8693SOL    HW137712   0.944   0.927   8.179 -2.2823 -0.1156 -0.3119
 8693SOL    HW237713   1.041   0.849   8.101 -0.2300  0.0735  0.0876
 8694SOL     OW37714   3.289   4.015   4.748  0.4248 -0.2483  0.2458
 8694SOL    HW137715   3.302   4.065   4.667  2.4390 -1.2257 -0.0477
 8694SOL    HW237716   3.207   3.974   4.723  0.4296 -0.7334  1.0494
 8695SOL     OW37717   1.499   0.549   8.340 -0.0528 -0.5905  0.3902
 8695SOL    HW137718   1.449   0.496   8.278  1.1266 -2.4244  0.9898
 8695SOL    HW237719   1.447   0.528   8.418  0.4545  0.3210  0.9742
 8696SOL     OW37720   3.894   4.119   3.226 -0.0060 -0.5235 -0.0238
 8696SOL    HW137721   3.820   4.170   3.258 -1.3418 -2.1284 -0.5452
 8696SOL    HW237722   3.910   4.093   3.316 -2.1989 -0.4758  0.3841
 8697SOL     OW37723   3.413   3.880   5.373  0.5179 -0.6955  0.2091
 8697SOL    HW137724   3.392   3.840   5.288  0.9939  0.0564 -0.2707
 8697SOL    HW237725   3.508   3.888   5.360  0.7208 -1.7887  1.0776
 8698SOL     OW37726   1.679   2.765   3.472 -0.6447 -0.5356 -0.2241
 8698SOL    HW137727   1.736   2.792   3.544 -2.5142  1.5503  0.4658
 8698SOL    HW237728   1.588   2.768   3.503 -0.7586 -3.9676 -0.1305
 8699SOL     OW37729   0.899   0.720  12.893 -0.2497 -0.0235  0.0402
 8699SOL    HW137730   0.839   0.725  12.968  2.5441 -2.7634  2.4567
 8699SOL    HW237731   0.832   0.729  12.826  1.0780  0.6852 -1.2057
 8700SOL     OW37732   2.800   0.309   7.633 -0.7041  0.6106 -0.7140
 8700SOL    HW137733   2.869   0.281   7.573  0.5352 -0.0416  1.0104
 8700SOL    HW237734   2.819   0.241   7.699 -2.7954 -0.7841 -1.5533
 8701SOL     OW37735   2.782   3.561  10.889 -0.4518  0.4677 -0.2865
 8701SOL    HW137736   2.731   3.526  10.816  0.0664 -1.7485  0.4253
 8701SOL    HW237737   2.775   3.491  10.953  0.6535 -0.0254 -0.7042
 8702SOL     OW37738   1.493   1.501  12.906  0.1448 -0.0370  0.5799
 8702SOL    HW137739   1.527   1.544  12.985 -1.4118  0.0442  1.1925
 8702SOL    HW237740   1.571   1.467  12.861  0.2032  1.2655 -0.2931
 8703SOL     OW37741   1.646   1.468   9.755  0.1170  0.1895  0.5117
 8703SOL    HW137742   1.594   1.543   9.786 -0.0784 -0.0011  0.6401
 8703SOL    HW237743   1.711   1.457   9.825 -0.8175  2.0029  1.6778
 8704SOL     OW37744   0.869   1.535   2.992 -0.3255  0.0564  0.2113
 8704SOL    HW137745   0.877   1.523   2.897 -0.9491  0.5243  0.0979
 8704SOL    HW237746   0.841   1.626   2.994 -0.5518 -0.0702  2.5437
 8705SOL     OW37747   4.666   0.351   5.894  0.1451 -0.6744  0.1750
 8705SOL    HW137748   4.581   0.312   5.916  0.9484 -1.4613  1.8814
 8705SOL    HW237749   4.693   0.385   5.979  0.7974  1.3514 -0.8599
 8706SOL     OW37750   2.656   4.304  10.139 -0.2566  0.2130  0.2496
 8706SOL    HW137751   2.729   4.360  10.167  0.5982 -0.8928  0.2373
 8706SOL    HW237752   2.612   4.305  10.224 -0.8994 -0.1342 -0.0822
 8707SOL     OW37753   0.109   3.141   6.522  0.2471  0.4221  0.1470
 8707SOL    HW137754   0.134   3.165   6.611  2.3211  0.3206 -0.4173
 8707SOL    HW237755   0.175   3.074   6.506 -0.2602 -0.1869  0.6262
 8708SOL     OW37756   2.240   1.612  16.743  0.2135  0.3950  0.3500
 8708SOL    HW137757   2.243   1.539  16.682  1.2022  0.9274 -0.2335
 8708SOL    HW237758   2.214   1.685  16.687 -3.7079 -0.9975  0.3193
 8709SOL     OW37759   0.504   1.241  15.319  0.7093 -0.3340 -0.6832
 8709SOL    HW137760   0.453   1.257  15.399  3.2068 -2.8873  1.4400
 8709SOL    HW237761   0.478   1.150  15.303  0.3537 -0.0911 -1.4716
 8710SOL     OW37762   1.566   0.109  10.907 -0.1850 -0.5583  0.0872
 8710SOL    HW137763   1.477   0.094  10.937 -0.7019 -0.8553 -1.6354
 8710SOL    HW237764   1.539   0.139  10.821  2.3010  0.8453 -0.2171
 8711SOL     OW37765   0.254   3.656   2.108 -0.1865 -0.5584 -0.2630
 8711SOL    HW137766   0.161   3.634   2.121  0.0473 -0.8745  0.9313
 8711SOL    HW237767   0.246   3.712   2.031  0.6534 -1.7115 -1.1851
 8712SOL     OW37768   0.818   3.859   4.304 -0.2244 -0.1928 -0.8123
 8712SOL    HW137769   0.908   3.893   4.310 -0.3035 -0.1135 -0.0525
 8712SOL    HW237770   0.839   3.787   4.245  1.6925 -0.6058  0.3714
 8713SOL     OW37771   1.920   3.010   2.700 -0.5387  0.1945  0.1092
 8713SOL    HW137772   1.849   3.008   2.765 -0.5532  0.3731  0.0972
 8713SOL    HW237773   1.950   3.100   2.713  0.2760  0.4355 -3.5353
 8714SOL     OW37774   2.008   2.983   1.738  0.1956  0.3523 -0.3991
 8714SOL    HW137775   2.012   3.074   1.711  1.9426 -0.2198 -2.1243
 8714SOL    HW237776   2.038   2.948   1.654  1.5605 -1.2967  0.7481
 8715SOL     OW37777   3.993   3.115   3.454  0.7898 -0.2287  0.2114
 8715SOL    HW137778   3.980   3.133   3.361  1.3544 -0.4380  0.0977
 8715SOL    HW237779   3.966   3.024   3.465  0.9797 -0.1119  1.6464
 8716SOL     OW37780   2.117   2.057   3.808 -0.6163  0.0875  0.0497
 8716SOL    HW137781   2.028   2.063   3.843 -0.6416  2.1392 -0.3412
 8716SOL    HW237782   2.162   2.134   3.843  0.3532  0.8108 -2.7403
 8717SOL     OW37783   0.217   1.392   6.479 -0.7221  0.0143 -0.4139
 8717SOL    HW137784   0.168   1.372   6.559 -0.0675  1.4397  0.3398
 8717SOL    HW237785   0.257   1.476   6.500  0.5720 -1.0499  1.3628
 8718SOL     OW37786   3.602   3.066   6.053  0.5074  0.0958 -0.5304
 8718SOL    HW137787   3.630   2.996   5.995 -1.0634  0.8119 -2.1416
 8718SOL    HW237788   3.548   3.018   6.117  0.0533 -1.0557 -1.7804
 8719SOL     OW37789   2.318   4.554   4.148  0.6731 -0.3659 -0.3617
 8719SOL    HW137790   2.331   4.502   4.068 -0.7550  0.2090 -0.9556
 8719SOL    HW237791   2.406   4.580   4.177 -0.3658  1.7491  0.8668
 8720SOL     OW37792   3.158   0.664   6.848 -0.1698 -0.5986  0.1874
 8720SOL    HW137793   3.192   0.633   6.764  0.2377  1.1434 -0.2785
 8720SOL    HW237794   3.136   0.756   6.835 -0.9603 -0.8191 -0.0632
 8721SOL     OW37795   2.005   3.410  11.157  0.2244  0.0788 -0.1780
 8721SOL    HW137796   2.010   3.482  11.094  0.8264  1.0753  0.9901
 8721SOL    HW237797   2.040   3.454  11.235 -2.6868 -0.0068  1.1764
 8722SOL     OW37798   3.104   3.948   0.696 -0.7369 -0.2877  0.0072
 8722SOL    HW137799   3.170   3.909   0.755 -1.4435  0.6932  1.4480
 8722SOL    HW237800   3.101   3.888   0.622  1.3907 -0.1827 -0.1692
 8723SOL     OW37801   3.150   3.933   8.668  0.1101 -0.0697  0.0453
 8723SOL    HW137802   3.110   3.951   8.583  0.9024  3.4747  0.4282
 8723SOL    HW237803   3.245   3.937   8.657  0.1583 -1.0449  0.0612
 8724SOL     OW37804   1.819   0.362   8.401 -0.0922 -0.1222  0.1237
 8724SOL    HW137805   1.757   0.425   8.362  0.1952 -0.9338 -1.6317
 8724SOL    HW237806   1.769   0.280   8.409 -1.2506  0.6884  1.2621
 8725SOL     OW37807   2.825   0.430   5.244  0.4126 -0.4104  0.0118
 8725SOL    HW137808   2.903   0.476   5.214  0.6045 -0.6821  0.0928
 8725SOL    HW237809   2.861   0.381   5.318 -0.6356  0.4852  1.1127
 8726SOL     OW37810   2.458   0.990   1.626  0.2394 -0.6337  0.3706
 8726SOL    HW137811   2.480   1.061   1.565 -1.7660  0.9362  1.4655
 8726SOL    HW237812   2.523   1.002   1.695  1.5392  3.1369 -1.5459
 8727SOL     OW37813   0.203   2.504   3.837 -0.2083  0.0870 -0.3237
 8727SOL    HW137814   0.126   2.543   3.878  0.8521  2.1426 -0.3081
 8727SOL    HW237815   0.163   2.506   3.750 -0.5441 -1.8621 -0.2218
 8728SOL     OW37816   1.439   1.850   6.090 -0.4281 -0.2265  0.5573
 8728SOL    HW137817   1.363   1.802   6.057 -0.8703  1.1843 -0.4831
 8728SOL    HW237818   1.399   1.934   6.113  1.1778  0.6036  0.3400
 8729SOL     OW37819   3.924   2.364   5.284  0.3409  0.8652  0.1690
 8729SOL    HW137820   3.966   2.438   5.241 -0.7988  1.6873  0.4676
 8729SOL    HW237821   3.830   2.380   5.275  0.2149 -0.3943 -0.7030
 8730SOL     OW37822   2.907   1.182   8.944 -0.2280 -0.1267  0.4434
 8730SOL    HW137823   2.897   1.087   8.934  0.4293  0.0815 -2.1267
 8730SOL    HW237824   2.993   1.196   8.983 -0.7627  1.1966  1.1217
 8731SOL     OW37825   4.047   2.487  15.404 -0.3471  0.4053  0.2640
 8731SOL    HW137826   4.036   2.570  15.450  0.7023  1.6413 -1.6828
 8731SOL    HW237827   3.980   2.500  15.337  1.0627  0.9156 -1.0673
 8732SOL     OW37828   2.807   1.478  16.160 -0.4006  0.6201 -0.1551
 8732SOL    HW137829   2.823   1.500  16.252 -0.3354  1.6126 -0.4058
 8732SOL    HW237830   2.885   1.527  16.134 -0.5406 -0.2503 -2.1630
 8733SOL     OW37831   2.529   2.597   3.049  0.3428 -0.2933 -0.6516
 8733SOL    HW137832   2.531   2.518   2.995  0.1573 -0.7698  0.0379
 8733SOL    HW237833   2.589   2.573   3.119 -0.5260 -0.5120  0.0252
 8734SOL     OW37834   3.982   3.438  14.755 -0.0744  0.0773  0.1728
 8734SOL    HW137835   4.039   3.412  14.828 -1.9013 -0.6185  1.3525
 8734SOL    HW237836   3.895   3.450  14.793 -0.2728 -1.5945  0.2579
 8735SOL     OW37837   2.606   3.469   4.780  0.6591  0.0527  0.1268
 8735SOL    HW137838   2.663   3.393   4.786  0.3755 -0.2615 -1.2609
 8735SOL    HW237839   2.672   3.534   4.803  0.4920 -0.9847  3.4841
 8736SOL     OW37840   3.248   1.275   5.988  0.1695 -0.0571 -0.4246
 8736SOL    HW137841   3.178   1.218   5.957 -0.3243  1.0403 -1.3522
 8736SOL    HW237842   3.194   1.352   6.008 -1.0418 -1.2053  0.6524
 8737SOL     OW37843   2.267   0.336   1.927  0.1061  0.5049  0.4439
 8737SOL    HW137844   2.331   0.391   1.973 -0.7294  0.7769  1.2805
 8737SOL    HW237845   2.255   0.385   1.846 -1.2535  0.3103  0.5349
 8738SOL     OW37846   2.196   0.177  17.584 -0.4604  0.0347  0.0998
 8738SOL    HW137847   2.202   0.104  17.522  0.2619  1.3968 -1.4375
 8738SOL    HW237848   2.103   0.203  17.583 -0.5016 -0.1731 -0.9483
 8739SOL     OW37849   2.404   1.304   4.182  0.2383  0.4174 -0.4587
 8739SOL    HW137850   2.390   1.333   4.272  1.1946 -0.3303 -0.0669
 8739SOL    HW237851   2.362   1.218   4.181 -0.3438  0.7166 -1.5339
 8740SOL     OW37852   2.760   4.561  16.852 -0.8074  0.7690  0.0498
 8740SOL    HW137853   2.676   4.573  16.808 -1.2884  3.4220  1.7127
 8740SOL    HW237854   2.799   4.485  16.809  1.1195  0.9127  1.5365
 8741SOL     OW37855   2.337   3.879   3.268  0.2346 -0.4224 -0.0376
 8741SOL    HW137856   2.253   3.922   3.252 -0.0523 -1.0141 -0.0916
 8741SOL    HW237857   2.358   3.864   3.176 -1.7004  0.6325 -0.6454
 8742SOL     OW37858   1.698   4.103   4.090 -0.0883  0.4101  0.1076
 8742SOL    HW137859   1.767   4.045   4.123 -0.6368 -0.4529 -0.2561
 8742SOL    HW237860   1.722   4.189   4.127  0.2336  0.3609  0.0152
 8743SOL     OW37861   3.099   0.159   4.560 -0.0771  0.2730  0.7036
 8743SOL    HW137862   3.163   0.230   4.555  0.2611 -0.1185 -0.7141
 8743SOL    HW237863   3.020   0.190   4.603  0.3861  1.9656  0.3405
 8744SOL     OW37864   2.983   0.933   3.616  0.0862  0.3840  0.1798
 8744SOL    HW137865   2.896   0.894   3.628 -0.1787  0.6809 -0.7497
 8744SOL    HW237866   2.967   1.022   3.583  0.9500 -0.0779 -1.5048
 8745SOL     OW37867   3.382   0.158   4.897 -0.3431 -0.1766  0.3737
 8745SOL    HW137868   3.381   0.063   4.889  1.9887  0.0090 -1.7788
 8745SOL    HW237869   3.288   0.169   4.912 -0.1890  2.9934 -1.1256
 8746SOL     OW37870   2.518   1.255   8.592  0.0596  0.1371 -0.1650
 8746SOL    HW137871   2.445   1.265   8.531 -0.7103  0.1862  0.7589
 8746SOL    HW237872   2.579   1.208   8.536 -0.9815 -3.1870  1.4833
 8747SOL     OW37873   4.521   0.151   6.481  0.1071  0.3935  0.3451
 8747SOL    HW137874   4.427   0.170   6.476 -0.4861 -1.8833  3.7670
 8747SOL    HW237875   4.523   0.060   6.453  2.3021  0.9256 -1.2304
 8748SOL     OW37876   4.533   0.437   7.890  0.5188  0.2852  0.0014
 8748SOL    HW137877   4.590   0.364   7.865 -0.6012  0.2819 -2.5113
 8748SOL    HW237878   4.606   0.499   7.902 -0.9992  2.0003  0.3308
 8749SOL     OW37879   0.193   4.320  10.260 -0.3140 -0.6349  0.2905
 8749SOL    HW137880   0.110   4.278  10.282 -1.0079 -0.0176 -1.1359
 8749SOL    HW237881   0.203   4.371  10.340  2.3508  2.0959 -1.7814
 8750SOL     OW37882   4.119   4.615   9.068 -0.0980 -0.4445  0.2197
 8750SOL    HW137883   4.185   4.568   9.119  0.9098  1.2387  0.4446
 8750SOL    HW237884   4.122   4.699   9.112  3.6208 -0.5443  0.1860
 8751SOL     OW37885   0.806   0.570  11.922 -0.0100  0.4773 -0.3874
 8751SOL    HW137886   0.738   0.543  11.985  0.5916  0.5251  0.2741
 8751SOL    HW237887   0.823   0.656  11.960  2.0676  1.3145 -3.2598
 8752SOL     OW37888   1.723   4.237   2.181  0.5874  0.6613 -0.6492
 8752SOL    HW137889   1.789   4.192   2.234  1.2311 -0.0073 -2.0192
 8752SOL    HW237890   1.757   4.325   2.197  1.4270  0.1341  0.4547
 8753SOL     OW37891   1.998   1.865   4.825  0.1603 -0.2829 -0.0456
 8753SOL    HW137892   1.992   1.943   4.770 -0.6103  0.1831  0.7076
 8753SOL    HW237893   1.955   1.801   4.768 -1.3616  1.1697 -0.5225
 8754SOL     OW37894   1.783   3.229   2.475  0.3096 -0.2731  0.3243
 8754SOL    HW137895   1.831   3.218   2.557 -2.3741 -1.2826  1.7820
 8754SOL    HW237896   1.709   3.175   2.502 -0.9623  0.5880 -1.4508
 8755SOL     OW37897   2.710   3.118   7.356  0.1871 -0.0288 -0.1047
 8755SOL    HW137898   2.747   3.191   7.405 -2.6040 -1.3299  3.9161
 8755SOL    HW237899   2.698   3.159   7.270 -2.2622  2.2010  1.2854
 8756SOL     OW37900   1.967   4.301   2.603 -0.6125 -0.1625 -0.4442
 8756SOL    HW137901   2.030   4.283   2.672 -0.2585  1.7698 -0.2531
 8756SOL    HW237902   1.952   4.396   2.596 -0.4950 -0.0509  0.9692
 8757SOL     OW37903   0.258   0.298   7.086  0.0364  0.2719 -0.3909
 8757SOL    HW137904   0.193   0.334   7.147  1.4410 -2.1267  2.5319
 8757SOL    HW237905   0.236   0.205   7.080  0.8885  0.0117  0.4618
 8758SOL     OW37906   4.317   1.812   8.820 -0.4193  0.8061  0.1918
 8758SOL    HW137907   4.245   1.822   8.758  0.2786  0.0269 -0.7375
 8758SOL    HW237908   4.271   1.827   8.903 -0.0004  3.1001  0.0110
 8759SOL     OW37909   3.599   1.729   8.370  0.1351  0.0234  0.8293
 8759SOL    HW137910   3.591   1.809   8.319  2.7714 -0.8536 -1.0070
 8759SOL    HW237911   3.520   1.719   8.422 -0.3238 -2.4026 -0.3255
 8760SOL     OW37912   0.953   2.753  14.539  0.4605  0.0187  0.2397
 8760SOL    HW137913   0.974   2.737  14.447  1.6425  2.4723  0.0812
 8760SOL    HW237914   1.011   2.691  14.582  0.9286 -1.2017 -2.1751
 8761SOL     OW37915   3.431   3.940   8.626 -0.3474 -0.8097 -0.2625
 8761SOL    HW137916   3.469   3.980   8.704 -1.9639 -1.4468  0.8518
 8761SOL    HW237917   3.467   3.852   8.640 -0.4792 -0.3926  2.6752
 8762SOL     OW37918   1.796   3.665   7.429 -0.7529 -0.5432  0.6245
 8762SOL    HW137919   1.742   3.593   7.394  0.3598 -0.9963 -0.1586
 8762SOL    HW237920   1.724   3.702   7.481 -0.4330  0.2112  0.5197
 8763SOL     OW37921   4.191   0.005   1.879 -0.0897  0.0439  0.2704
 8763SOL    HW137922   4.217   0.081   1.827 -2.0963 -0.5529 -1.6262
 8763SOL    HW237923   4.130   0.035   1.947  1.3552  4.1089 -0.2178
 8764SOL     OW37924   3.088   2.268  16.525  0.0878 -0.2134  0.0083
 8764SOL    HW137925   3.014   2.329  16.524  0.4950  0.2738 -0.4329
 8764SOL    HW237926   3.030   2.196  16.501 -1.9389  2.0696 -1.8862
 8765SOL     OW37927   1.675   1.192   6.541  0.6831  0.4351  0.5654
 8765SOL    HW137928   1.598   1.249   6.535 -2.3460 -3.7807 -0.7176
 8765SOL    HW237929   1.735   1.229   6.477  1.5505  0.3689  1.3477
 8766SOL     OW37930   1.931   3.090   6.375  0.5189  0.0923 -0.0890
 8766SOL    HW137931   1.863   3.068   6.311  0.3040  3.5038 -1.0368
 8766SOL    HW237932   1.901   3.173   6.413 -3.8636 -0.7945 -1.6115
 8767SOL     OW37933   3.147   0.746  16.859 -0.0538  0.6181 -0.2245
 8767SOL    HW137934   3.215   0.805  16.893 -1.0931  3.0008 -2.2242
 8767SOL    HW237935   3.117   0.802  16.787 -0.6575 -0.2131 -0.6031
 8768SOL     OW37936   3.332   0.033  16.620  0.0800  0.5341 -0.2245
 8768SOL    HW137937   3.407   0.058  16.674  0.3817 -2.1282  0.5768
 8768SOL    HW237938   3.360   0.055  16.531 -0.0413  1.4453 -0.0379
 8769SOL     OW37939   0.142   1.466   4.628 -0.0774 -0.1867 -0.1761
 8769SOL    HW137940   0.203   1.396   4.653 -1.8064 -1.6855 -0.1606
 8769SOL    HW237941   0.065   1.420   4.662  1.2114 -2.9250 -0.9037
 8770SOL     OW37942   3.553   2.051   3.407 -0.4664  0.0452 -0.4836
 8770SOL    HW137943   3.583   2.123   3.351 -0.5513 -0.4984 -1.2285
 8770SOL    HW237944   3.611   2.059   3.483  0.0049  1.0274 -0.9390
 8771SOL     OW37945   0.049   0.873   6.752  0.1610 -0.3254  0.0791
 8771SOL    HW137946   0.121   0.883   6.814 -0.9518  3.7540  0.7281
 8771SOL    HW237947   4.710   0.898   6.804  0.5156 -0.8595  0.8608
 8772SOL     OW37948   1.206   1.460  13.727  0.0858  0.3948 -0.2316
 8772SOL    HW137949   1.155   1.387  13.692 -1.2001  0.4838  1.4459
 8772SOL    HW237950   1.163   1.473  13.812  0.9054 -1.0073  0.4156
 8773SOL     OW37951   4.137   1.995   1.040  0.2496  0.0003 -0.0587
 8773SOL    HW137952   4.141   1.902   1.063  2.0357 -0.2335 -1.3495
 8773SOL    HW237953   4.158   1.991   0.946 -0.2291  2.1671 -0.2454
 8774SOL     OW37954   0.588   1.121   1.849 -0.3053 -0.3415 -0.0986
 8774SOL    HW137955   0.501   1.158   1.832  0.4675  0.6316 -1.8878
 8774SOL    HW237956   0.641   1.195   1.820 -1.1479 -0.2112 -1.2818
 8775SOL     OW37957   2.432   4.319   1.876 -0.1761 -0.4443 -0.3879
 8775SOL    HW137958   2.414   4.409   1.903 -2.7577 -0.7496 -1.1463
 8775SOL    HW237959   2.390   4.313   1.791  2.1239  1.5954 -1.6668
 8776SOL     OW37960   4.730   2.084   3.304 -0.0713  0.4698 -0.7202
 8776SOL    HW137961   0.050   2.150   3.263 -0.7332  0.8227 -1.0796
 8776SOL    HW237962   4.716   2.038   3.221  0.2677 -0.2078 -0.3976
 8777SOL     OW37963   3.728   0.152   1.720  0.0794  0.1321  0.6568
 8777SOL    HW137964   3.704   0.092   1.791 -3.3322 -1.3010 -1.6919
 8777SOL    HW237965   3.750   0.091   1.649  0.6029 -2.4736  3.0436
 8778SOL     OW37966   2.318   0.126   3.895  0.3525  0.1777 -0.0933
 8778SOL    HW137967   2.301   0.117   3.989 -0.2590  0.2706 -0.1971
 8778SOL    HW237968   2.232   0.116   3.854  1.6706  1.3218 -3.0963
 8779SOL     OW37969   3.296   1.559   7.398 -0.4896  0.0267 -0.0310
 8779SOL    HW137970   3.209   1.523   7.378  0.5704 -1.6745 -1.5233
 8779SOL    HW237971   3.301   1.641   7.349  1.6738  1.2578  2.2319
 8780SOL     OW37972   3.635   1.316   7.186  0.1114  0.7652 -0.1344
 8780SOL    HW137973   3.668   1.405   7.172  0.1331  0.2939 -3.0297
 8780SOL    HW237974   3.713   1.276   7.225 -0.4897 -1.0322 -0.7549
 8781SOL     OW37975   4.125   2.839   6.517 -0.5213 -0.1081  0.2935
 8781SOL    HW137976   4.163   2.814   6.601 -1.6482 -2.6100  0.0537
 8781SOL    HW237977   4.146   2.764   6.461 -0.6486  1.0232 -1.2775
 8782SOL     OW37978   0.783   2.434  12.854  0.1666 -0.4675 -0.2112
 8782SOL    HW137979   0.749   2.442  12.942  0.5474  1.0059 -0.1921
 8782SOL    HW237980   0.873   2.454  12.882  0.4359 -0.8681 -0.7749
 8783SOL     OW37981   3.174   3.182   5.348 -0.1925 -0.3892 -0.2793
 8783SOL    HW137982   3.181   3.235   5.427  2.9828 -1.2819  0.0216
 8783SOL    HW237983   3.267   3.164   5.330  0.1847 -0.7747  2.0741
 8784SOL     OW37984   2.299   0.568   2.914 -0.3479  0.5298 -0.2882
 8784SOL    HW137985   2.357   0.644   2.913  0.0304  0.2378 -1.0236
 8784SOL    HW237986   2.229   0.602   2.970 -0.2582  0.0769  0.0929
 8785SOL     OW37987   1.334   2.264   8.586 -0.3221  0.4683 -0.2103
 8785SOL    HW137988   1.356   2.337   8.644  1.0703 -0.3388  0.2859
 8785SOL    HW237989   1.328   2.194   8.651 -4.5248  0.2207 -0.8951
 8786SOL     OW37990   0.538   2.923  17.612  0.1901  0.0974 -0.1676
 8786SOL    HW137991   0.495   2.839  17.627  1.0849 -0.9055 -3.0313
 8786SOL    HW237992   0.489   2.968  17.680  1.4641  1.7676 -0.3676
 8787SOL     OW37993   2.076   2.778   2.101 -0.3574 -0.0428  0.0897
 8787SOL    HW137994   2.089   2.711   2.168 -0.7005  0.7713  0.9692
 8787SOL    HW237995   1.986   2.802   2.122 -0.0079  0.5281  0.9522
 8788SOL     OW37996   0.487   3.871  17.307 -0.3938 -0.3319  0.2320
 8788SOL    HW137997   0.411   3.927  17.293 -1.4000 -1.7537 -0.0902
 8788SOL    HW237998   0.453   3.798  17.359 -1.7166 -1.1308 -1.7532
 8789SOL     OW37999   2.553   2.070   5.320 -0.1012  0.6197 -0.8604
 8789SOL    HW138000   2.499   2.003   5.277 -0.2562 -0.3742  0.8988
 8789SOL    HW238001   2.629   2.039   5.272 -0.1029  0.0088 -0.4764
 8790SOL     OW38002   1.298   0.545   8.521  0.1218  0.1676  0.7997
 8790SOL    HW138003   1.203   0.539   8.531 -0.2051  2.0635 -1.2277
 8790SOL    HW238004   1.319   0.606   8.591 -2.8628  0.3489  1.5508
 8791SOL     OW38005   1.871   3.221   8.975  0.4146  0.0185  0.5638
 8791SOL    HW138006   1.953   3.173   8.986 -0.6459 -1.9736 -0.2756
 8791SOL    HW238007   1.805   3.185   9.034  2.5172 -2.6411  1.2884
 8792SOL     OW38008   2.637   4.096   6.317 -0.0461 -0.0335  0.3177
 8792SOL    HW138009   2.643   4.078   6.411 -1.4933  0.2161  0.4542
 8792SOL    HW238010   2.640   4.191   6.320 -0.5806  0.0617 -2.0054
 8793SOL     OW38011   1.514   0.943  15.158  0.5553  0.0233  0.0102
 8793SOL    HW138012   1.496   0.978  15.245 -0.5708 -0.7660  0.0979
 8793SOL    HW238013   1.560   0.859  15.166 -0.3420 -0.5423 -0.6907
 8794SOL     OW38014   3.513   3.848  11.678 -0.1458  0.8903  0.5050
 8794SOL    HW138015   3.459   3.882  11.750  0.1412  0.1079  1.0969
 8794SOL    HW238016   3.537   3.763  11.714  1.6307  1.2164  0.0824
 8795SOL     OW38017   3.253   2.900  13.889 -0.0902  0.2066  0.1776
 8795SOL    HW138018   3.188   2.832  13.870  1.0413 -0.8202 -0.0400
 8795SOL    HW238019   3.333   2.875  13.842  0.3457 -0.3343  1.1902
 8796SOL     OW38020   2.578   0.315  17.070 -0.1755  0.3909 -0.6552
 8796SOL    HW138021   2.537   0.233  17.044 -0.8579 -0.4268  2.9467
 8796SOL    HW238022   2.510   0.341  17.133 -0.2385 -2.7252  0.5504
 8797SOL     OW38023   2.441   3.783   9.365 -0.1343 -0.2285 -0.1923
 8797SOL    HW138024   2.414   3.692   9.354  0.8043 -0.1411 -3.3125
 8797SOL    HW238025   2.363   3.820   9.406  0.7951  2.2831 -0.6188
 8798SOL     OW38026   0.737   1.152  15.640  0.2160 -0.0075 -0.3392
 8798SOL    HW138027   0.666   1.088  15.652  0.6161 -0.6195 -1.1760
 8798SOL    HW238028   0.708   1.228  15.589 -1.7090  0.0478  0.8152
 8799SOL     OW38029   2.857   2.904   9.068 -0.3252 -0.4272 -0.2902
 8799SOL    HW138030   2.827   2.850   9.141  1.7380  0.5896  1.2952
 8799SOL    HW238031   2.934   2.857   9.037  0.4165  0.8880 -0.4611
 8800SOL     OW38032   1.243   4.596  13.958 -0.0129 -0.6056 -0.1848
 8800SOL    HW138033   1.191   4.667  13.919 -1.0505 -0.4088  1.5531
 8800SOL    HW238034   1.168   4.545  13.989 -0.7937  0.1994 -0.7460
 8801SOL     OW38035   2.141   2.092  16.370 -0.1318 -0.0800  0.3613
 8801SOL    HW138036   2.078   2.111  16.300  0.5442  0.4581 -0.0995
 8801SOL    HW238037   2.179   2.015  16.329  0.3200  0.8302 -0.9065
 8802SOL     OW38038   3.399   3.039   2.424  0.4611 -0.1904  0.1970
 8802SOL    HW138039   3.352   2.973   2.475 -0.0987 -0.7764 -1.0547
 8802SOL    HW238040   3.370   3.120   2.466 -2.8029 -1.8603  1.2286
 8803SOL     OW38041   1.794   2.354   5.264 -0.2095 -0.0125 -0.0888
 8803SOL    HW138042   1.792   2.310   5.349 -1.8064  0.8089  0.2863
 8803SOL    HW238043   1.779   2.446   5.284  1.1825  0.6909 -2.1382
 8804SOL     OW38044   1.808   2.636   8.819 -0.2097  0.0097 -0.1197
 8804SOL    HW138045   1.750   2.623   8.894 -0.8104 -1.8230 -0.9137
 8804SOL    HW238046   1.770   2.571   8.760 -1.0452 -1.7065  2.3477
 8805SOL     OW38047   2.126   3.696   5.709 -0.1747 -0.4813 -0.2046
 8805SOL    HW138048   2.094   3.646   5.783 -1.9696 -2.6168 -2.4352
 8805SOL    HW238049   2.135   3.789   5.732  0.0247  0.0003 -2.1613
 8806SOL     OW38050   1.430   2.858  13.505 -0.2561 -0.1111 -0.0915
 8806SOL    HW138051   1.386   2.838  13.587  1.0881 -0.0392  0.6453
 8806SOL    HW238052   1.511   2.807  13.513  0.9070  1.3560 -2.1044
 8807SOL     OW38053   0.300   3.467   8.331  0.8666 -0.9041 -0.1534
 8807SOL    HW138054   0.230   3.530   8.313 -0.7519 -2.0915  1.9348
 8807SOL    HW238055   0.256   3.382   8.319 -1.2508  0.1573  0.0717
 8808SOL     OW38056   0.520   4.653   7.686  0.4692  0.3465  0.3323
 8808SOL    HW138057   0.523   4.610   7.600 -0.7299  0.8337  0.0524
 8808SOL    HW238058   0.438   4.702   7.678 -0.4394 -1.1310  0.5607
 8809SOL     OW38059   2.880   1.148  12.949 -0.6879 -0.0859 -0.3950
 8809SOL    HW138060   2.929   1.181  13.025 -3.2360  1.9249  0.3634
 8809SOL    HW238061   2.789   1.154  12.976 -0.5542  0.4335 -0.0588
 8810SOL     OW38062   1.477   1.537  15.081  0.5846  0.7003  0.0296
 8810SOL    HW138063   1.542   1.469  15.063  1.6680  1.7177  0.1151
 8810SOL    HW238064   1.411   1.500  15.023  0.3929 -0.7232  1.1570
 8811SOL     OW38065   2.271   3.585  12.805 -0.3134 -0.5279  0.1912
 8811SOL    HW138066   2.283   3.533  12.726 -0.1368 -0.8141  0.4055
 8811SOL    HW238067   2.181   3.614  12.791 -0.3138  0.1906  1.6537
 8812SOL     OW38068   4.464   3.285   5.264 -0.1805  0.7849  0.0905
 8812SOL    HW138069   4.541   3.305   5.317 -0.4888  1.1280  0.4069
 8812SOL    HW238070   4.465   3.190   5.277  0.2216  1.0173  1.7146
 8813SOL     OW38071   1.384   1.653   8.536  0.0473 -0.2723  0.3615
 8813SOL    HW138072   1.401   1.677   8.445 -1.0065  1.1563  0.5449
 8813SOL    HW238073   1.405   1.560   8.533  2.1383  0.2332 -0.4434
 8814SOL     OW38074   0.486   3.965   1.112 -0.7416 -0.4322 -0.0799
 8814SOL    HW138075   0.400   4.005   1.102  0.5452  2.6465  1.3119
 8814SOL    HW238076   0.490   3.976   1.207  0.8074  0.1576 -0.2197
 8815SOL     OW38077   4.700   0.143   2.936 -0.1423 -0.8354 -0.3394
 8815SOL    HW138078   4.644   0.182   3.003  0.5338 -0.0806 -0.2015
 8815SOL    HW238079   4.650   0.162   2.856  1.1124  0.7831 -0.7399
 8816SOL     OW38080   1.496   3.605  15.106  0.4926 -0.2502 -0.2012
 8816SOL    HW138081   1.530   3.694  15.103 -1.8934  0.6886  0.4428
 8816SOL    HW238082   1.522   3.582  15.017  1.7265 -0.2051  0.1521
 8817SOL     OW38083   3.476   1.566   6.025 -0.1547 -0.1459  0.1186
 8817SOL    HW138084   3.492   1.507   5.951 -0.2458  0.3989 -0.3389
 8817SOL    HW238085   3.452   1.512   6.100  0.6689 -1.8381 -0.8370
 8818SOL     OW38086   1.547   3.117  13.567  0.6148 -0.3728 -0.3320
 8818SOL    HW138087   1.616   3.058  13.538 -0.8911 -1.2958 -2.0506
 8818SOL    HW238088   1.475   3.056  13.554  0.7350 -0.2266 -1.7753
 8819SOL     OW38089   1.655   0.356   5.942  0.5070  0.1359 -0.3699
 8819SOL    HW138090   1.710   0.282   5.967 -0.8572  0.1258  2.7237
 8819SOL    HW238091   1.704   0.413   5.884  0.6440  0.5218  0.1202
 8820SOL     OW38092   1.952   4.270   6.983 -0.2678 -0.6886 -0.5635
 8820SOL    HW138093   1.917   4.357   6.967  1.2339  0.2942  1.4989
 8820SOL    HW238094   2.043   4.291   6.962  0.6975 -3.2091  1.0409
 8821SOL     OW38095   1.039   4.705   7.895 -0.3910 -0.3702  0.7494
 8821SOL    HW138096   0.947   4.719   7.875 -0.1517  0.9217  0.5785
 8821SOL    HW238097   1.030   4.637   7.962  1.3580 -2.5644 -1.2386
 8822SOL     OW38098   4.154   1.811  16.872  0.1969 -0.4505  0.1770
 8822SOL    HW138099   4.205   1.819  16.952  1.5212 -0.3600 -0.6670
 8822SOL    HW238100   4.075   1.769  16.905 -0.8974  1.0418 -0.5334
 8823SOL     OW38101   0.990   1.342   8.987  0.1991 -0.3627 -0.4118
 8823SOL    HW138102   1.051   1.388   8.930 -0.0423  1.4790  0.8072
 8823SOL    HW238103   0.962   1.277   8.923 -0.6586 -1.7867  1.4241
 8824SOL     OW38104   3.389   3.953   6.463  0.0776 -1.0037  0.3206
 8824SOL    HW138105   3.452   4.018   6.431 -1.0182  0.8405  1.8990
 8824SOL    HW238106   3.308   3.991   6.428 -0.2458 -1.9653  0.0182
 8825SOL     OW38107   2.003   1.887   5.571  0.0594 -0.3512 -0.1724
 8825SOL    HW138108   2.002   1.792   5.561 -2.4238 -0.3391 -0.1295
 8825SOL    HW238109   2.011   1.895   5.666 -0.9792 -0.7306 -0.0521
 8826SOL     OW38110   2.036   3.235  15.010 -0.1200  0.2697  0.2166
 8826SOL    HW138111   2.062   3.319  15.047  1.0268  0.0793 -0.1449
 8826SOL    HW238112   2.103   3.175  15.045  0.4223  0.7849  0.0501
 8827SOL     OW38113   1.840   3.937   7.021  0.1522 -0.4003  0.2328
 8827SOL    HW138114   1.874   3.875   7.086 -0.0153  0.4628  1.1609
 8827SOL    HW238115   1.791   3.997   7.077  2.4058  1.5146  0.1821
 8828SOL     OW38116   3.405   3.115  10.351  0.3278  0.0048  0.1505
 8828SOL    HW138117   3.432   3.059  10.424  1.2918  0.7876  0.3899
 8828SOL    HW238118   3.392   3.201  10.389 -0.4631 -0.0997  0.1131
 8829SOL     OW38119   2.840   1.272   4.887 -0.1860  0.4064  0.2095
 8829SOL    HW138120   2.748   1.289   4.909 -0.0808  0.7675  0.3664
 8829SOL    HW238121   2.882   1.285   4.972 -1.7669 -2.2414  1.3964
 8830SOL     OW38122   2.687   1.041  16.809  0.4594  0.3241  0.5381
 8830SOL    HW138123   2.633   1.068  16.735 -0.4588 -0.6089  0.8687
 8830SOL    HW238124   2.675   1.116  16.868 -0.9052  0.7418 -0.2843
 8831SOL     OW38125   2.200   3.096   6.382 -0.0593 -0.1492  0.3518
 8831SOL    HW138126   2.218   3.012   6.341  0.0205  1.2835 -2.4966
 8831SOL    HW238127   2.105   3.096   6.367  0.3915  2.0934 -2.3810
 8832SOL     OW38128   4.151   0.990   2.382  0.9980  0.0302  0.2803
 8832SOL    HW138129   4.226   1.048   2.389  0.3526  0.5895  2.5710
 8832SOL    HW238130   4.192   0.905   2.399 -0.8046 -0.4172  2.3999
 8833SOL     OW38131   2.639   2.321   4.816 -0.1020 -0.8172 -0.0215
 8833SOL    HW138132   2.600   2.402   4.784 -1.2435 -1.1719  0.4837
 8833SOL    HW238133   2.565   2.282   4.862 -0.2060 -1.8101 -1.0505
 8834SOL     OW38134   1.575   3.514   9.692 -0.2900  0.0564  0.1498
 8834SOL    HW138135   1.511   3.575   9.730 -2.1963 -0.9012 -1.5225
 8834SOL    HW238136   1.649   3.574   9.700 -0.8448  0.9103 -1.1745
 8835SOL     OW38137   2.155   2.893  12.629  0.8369 -0.1889 -0.3073
 8835SOL    HW138138   2.202   2.972  12.658  0.0353 -0.1884  0.9775
 8835SOL    HW238139   2.134   2.921  12.539  1.6382 -0.4647 -0.5816
 8836SOL     OW38140   4.095   2.669   2.811 -0.1121 -0.5286 -0.0087
 8836SOL    HW138141   4.140   2.744   2.772 -1.2807  0.0887 -0.1920
 8836SOL    HW238142   4.071   2.610   2.739 -0.6006 -1.5876  1.0191
 8837SOL     OW38143   1.042   2.898   8.097  0.0909  0.2636  0.1116
 8837SOL    HW138144   0.950   2.925   8.103  0.8079  3.0413 -1.5016
 8837SOL    HW238145   1.051   2.882   8.003 -0.8344 -2.4241  0.4789
 8838SOL     OW38146   2.763   3.958   9.589  0.4092 -0.3358  0.0615
 8838SOL    HW138147   2.684   3.997   9.553  0.5957  0.2614  0.3048
 8838SOL    HW238148   2.736   3.931   9.677  2.1076  3.5570  1.7457
 8839SOL     OW38149   2.128   3.540   4.288  0.0728 -0.3576  0.5349
 8839SOL    HW138150   2.153   3.625   4.253  1.7063 -0.2084  2.0511
 8839SOL    HW238151   2.211   3.493   4.301  0.0739 -0.8506 -1.1489
 8840SOL     OW38152   1.094   0.504  10.823  0.3190 -0.5028 -0.4960
 8840SOL    HW138153   1.006   0.541  10.829  1.0886  1.2957 -0.3467
 8840SOL    HW238154   1.122   0.492  10.914  1.3129  0.2029 -0.7142
 8841SOL     OW38155   3.026   2.378   2.859  0.3766  0.7774 -0.3124
 8841SOL    HW138156   3.042   2.301   2.805 -1.5696  0.3211 -0.2324
 8841SOL    HW238157   3.006   2.438   2.787 -1.5504  1.6065  0.9092
 8842SOL     OW38158   0.397   2.613   3.210  0.6374 -0.3973 -0.4299
 8842SOL    HW138159   0.348   2.669   3.271  0.9235 -0.8704  0.2285
 8842SOL    HW238160   0.433   2.547   3.268  0.5910  1.2387  1.4506
 8843SOL     OW38161   1.143   0.544   9.147  0.5107  0.0211  0.1153
 8843SOL    HW138162   1.054   0.508   9.154  0.3147  0.6256  0.7778
 8843SOL    HW238163   1.151   0.555   9.052 -0.8064 -0.4159 -0.0484
 8844SOL     OW38164   3.098   0.650   3.051 -0.1695 -0.4099 -0.5145
 8844SOL    HW138165   3.086   0.577   2.991 -0.5682 -2.3057  1.8487
 8844SOL    HW238166   3.043   0.716   3.009  1.2930 -0.0249 -1.7885
 8845SOL     OW38167   1.254   4.645   1.703 -0.3215 -0.0152  0.0110
 8845SOL    HW138168   1.288   4.578   1.762  0.2371  0.3199  0.0719
 8845SOL    HW238169   1.340   4.667   1.666 -0.6328  0.5411 -0.3738
 8846SOL     OW38170   3.921   0.548  16.487  0.4197  0.1599 -0.0360
 8846SOL    HW138171   3.863   0.472  16.495 -1.6373  1.8381  0.9074
 8846SOL    HW238172   3.936   0.542  16.393  0.8320  0.4551  0.0140
 8847SOL     OW38173   1.488   0.747   9.913 -0.0585 -0.3656 -0.1010
 8847SOL    HW138174   1.562   0.690   9.934 -0.0643  0.2399  1.5776
 8847SOL    HW238175   1.520   0.785   9.831  1.0994 -1.1062  0.0056
 8848SOL     OW38176   4.445   0.002   5.243  0.2392 -0.3047 -0.6632
 8848SOL    HW138177   4.480   0.089   5.224 -1.0864  0.6758  1.4142
 8848SOL    HW238178   4.365   0.027   5.289 -0.4576 -3.4455 -0.1615
 8849SOL     OW38179   3.506   1.131  13.728  0.3791  0.5738  0.2333
 8849SOL    HW138180   3.513   1.103  13.636  2.4093  0.7626  0.3259
 8849SOL    HW238181   3.415   1.117  13.752 -0.2042  3.0592 -0.5288
 8850SOL     OW38182   0.984   3.706   1.478  0.2000  0.9812 -0.3017
 8850SOL    HW138183   1.074   3.674   1.483 -0.5460 -1.3327 -1.5231
 8850SOL    HW238184   0.971   3.704   1.383  1.2638  1.0091 -0.4503
 8851SOL     OW38185   4.504   1.503   6.372 -0.2090  0.3837  0.3135
 8851SOL    HW138186   4.491   1.417   6.333  0.6398  1.3096 -2.0092
 8851SOL    HW238187   4.420   1.542   6.346  0.0238  0.1359 -0.8173
 8852SOL     OW38188   4.322   0.522   8.570 -0.0599 -0.3428  0.2117
 8852SOL    HW138189   4.259   0.592   8.553 -0.5718 -1.7629 -3.6032
 8852SOL    HW238190   4.295   0.462   8.502  1.4821 -0.7303 -0.0641
 8853SOL     OW38191   1.746   2.388   8.690 -0.0589  0.1580  0.5674
 8853SOL    HW138192   1.745   2.320   8.758  1.5963  0.9621  1.3783
 8853SOL    HW238193   1.818   2.364   8.632 -0.4981 -2.9735  1.3014
 8854SOL     OW38194   4.642   2.494   0.265  0.0042  0.2372  0.3589
 8854SOL    HW138195   4.646   2.484   0.170  1.1110  1.3864  0.2916
 8854SOL    HW238196   4.629   2.589   0.274 -1.2502  0.1249 -0.2676
 8855SOL     OW38197   3.994   0.060   3.106  0.6369  0.8546 -0.2947
 8855SOL    HW138198   4.085   0.088   3.096  1.0232 -0.0053  0.8104
 8855SOL    HW238199   3.946   0.142   3.105 -1.9584 -0.6707 -0.4906
 8856SOL     OW38200   2.184   4.271   1.128  0.0518 -0.5059  0.4028
 8856SOL    HW138201   2.226   4.236   1.050  1.8893 -0.5118  1.3861
 8856SOL    HW238202   2.208   4.200   1.188  1.1305  0.8499  1.6070
 8857SOL     OW38203   0.208   2.253   0.615  0.1698  0.1476  0.7326
 8857SOL    HW138204   0.136   2.191   0.627 -0.3963  0.6184 -0.2341
 8857SOL    HW238205   0.167   2.310   0.550 -0.5519  0.8676  1.8073
 8858SOL     OW38206   0.017   1.059  16.008  0.5076 -0.0012 -0.5712
 8858SOL    HW138207   0.020   0.987  15.944 -1.2323  0.4449 -1.1658
 8858SOL    HW238208   0.008   1.129  15.943 -0.9538  1.6959  1.4667
 8859SOL     OW38209   3.612   4.167   0.579  0.2011 -0.4844  0.2656
 8859SOL    HW138210   3.585   4.091   0.630 -1.3680 -1.6090 -2.2245
 8859SOL    HW238211   3.708   4.167   0.578  0.2009  2.3473  3.0234
 8860SOL     OW38212   2.527   1.687   4.154  0.5413  0.6961  0.1283
 8860SOL    HW138213   2.439   1.696   4.189 -0.0971  3.0150 -2.1357
 8860SOL    HW238214   2.575   1.705   4.234  1.5115 -1.7692  0.1288
 8861SOL     OW38215   4.067   3.360  11.455  0.1590  0.3318 -0.1100
 8861SOL    HW138216   4.121   3.312  11.518 -2.2770 -1.5507  0.5417
 8861SOL    HW238217   3.979   3.334  11.482  0.7992 -1.9548 -0.2430
 8862SOL     OW38218   3.807   1.464  15.560  0.3271 -0.1822  0.0330
 8862SOL    HW138219   3.757   1.429  15.486  0.1792  1.2428 -0.5274
 8862SOL    HW238220   3.741   1.513  15.607 -0.1401 -1.9650  1.2347
 8863SOL     OW38221   4.169   3.808   4.101  0.1924 -0.0477  0.1966
 8863SOL    HW138222   4.204   3.822   4.013 -0.1904  2.5244  0.4511
 8863SOL    HW238223   4.161   3.896   4.138 -2.7319  0.0814 -0.7383
 8864SOL     OW38224   1.208   1.941   2.983  0.2809  0.1757 -0.2242
 8864SOL    HW138225   1.222   1.966   3.074 -1.1985  0.7683 -0.1471
 8864SOL    HW238226   1.287   1.888   2.974  0.8621  0.7665  1.3828
 8865SOL     OW38227   4.626   1.666   1.646  0.3480  0.0566  0.2408
 8865SOL    HW138228   4.622   1.577   1.612 -0.8314 -0.1899  1.0298
 8865SOL    HW238229   4.553   1.699   1.593 -0.2244 -0.7521  0.5168
 8866SOL     OW38230   0.378   1.788   8.013  0.2663  0.2617  0.1649
 8866SOL    HW138231   0.312   1.853   7.988 -0.0296 -0.7081 -1.6200
 8866SOL    HW238232   0.444   1.838   8.061  2.4628 -0.9713 -1.5784
 8867SOL     OW38233   1.924   2.707   3.652  0.2708  0.0125 -0.2507
 8867SOL    HW138234   1.987   2.655   3.703  1.3481  0.3359 -1.2758
 8867SOL    HW238235   1.990   2.731   3.588  1.0537  1.5455  1.1189
 8868SOL     OW38236   0.483   0.132   3.409  0.0892 -0.1440 -0.2118
 8868SOL    HW138237   0.393   0.099   3.412  0.2479 -0.6685 -1.2876
 8868SOL    HW238238   0.504   0.149   3.317 -1.2778 -2.6995 -0.9845
 8869SOL     OW38239   2.386   0.095  16.014  0.7294  0.2474  0.1900
 8869SOL    HW138240   2.292   0.091  16.035  1.0226  1.9407  1.8391
 8869SOL    HW238241   2.426   0.009  16.026  0.3801 -0.1006 -1.0993
 8870SOL     OW38242   3.612   2.705   0.473 -0.2292 -0.1655  0.8431
 8870SOL    HW138243   3.554   2.717   0.549 -0.2369  2.6899  0.3965
 8870SOL    HW238244   3.697   2.697   0.516 -0.4026  0.1157  1.2465
 8871SOL     OW38245   3.058   0.534   5.133 -0.5017 -0.0181  0.7899
 8871SOL    HW138246   3.067   0.621   5.095 -2.4125 -0.6962 -1.2368
 8871SOL    HW238247   3.145   0.496   5.145  0.1635  1.7351  1.5267
 8872SOL     OW38248   2.015   2.804   1.100  0.1006 -0.6034 -0.1711
 8872SOL    HW138249   2.053   2.756   1.173  0.4179  1.6976  1.2004
 8872SOL    HW238250   1.957   2.867   1.143 -0.7158  0.8947 -3.4371
 8873SOL     OW38251   3.585   2.804  12.854 -0.0695  0.2870  0.2517
 8873SOL    HW138252   3.517   2.818  12.788  0.2270  0.4354 -0.0222
 8873SOL    HW238253   3.597   2.709  12.843 -2.2822 -0.0895  1.0886
 8874SOL     OW38254   0.597   1.649   6.106 -0.5883 -0.5232 -0.0137
 8874SOL    HW138255   0.560   1.607   6.029  0.8466 -0.9778 -0.4651
 8874SOL    HW238256   0.552   1.588   6.164 -2.3095  0.2406 -0.5730
 8875SOL     OW38257   3.225   2.467  16.395  0.0699  0.0375 -0.2804
 8875SOL    HW138258   3.232   2.499  16.484 -2.5294 -0.5268  0.1313
 8875SOL    HW238259   3.240   2.373  16.401  1.7352  0.2696 -1.0003
 8876SOL     OW38260   2.716   2.878  16.031  0.0983 -0.7969 -0.3090
 8876SOL    HW138261   2.631   2.905  16.066  0.8615  0.9568  0.2315
 8876SOL    HW238262   2.689   2.838  15.948  0.5750 -0.9064 -0.4105
 8877SOL     OW38263   3.620   1.286  12.303  0.1319 -0.2088  0.1896
 8877SOL    HW138264   3.662   1.243  12.377  0.5132 -0.4865 -0.1872
 8877SOL    HW238265   3.637   1.380  12.314 -0.2287 -0.2237  0.8396
 8878SOL     OW38266   3.013   0.824   6.603 -0.1783 -0.8233 -0.4589
 8878SOL    HW138267   3.076   0.770   6.556  0.8024 -0.8355  0.8766
 8878SOL    HW238268   2.935   0.783   6.565 -1.5279  1.2675  0.0100
 8879SOL     OW38269   0.402   1.304   4.659 -0.0598 -0.8635  0.1831
 8879SOL    HW138270   0.424   1.219   4.621  2.9960  0.1493 -0.3116
 8879SOL    HW238271   0.491   1.329   4.686 -1.0561  3.9170 -0.9196
 8880SOL     OW38272   1.767   2.633   6.181  0.7819  0.7579  0.0646
 8880SOL    HW138273   1.798   2.660   6.268 -2.1586  0.4694  1.2051
 8880SOL    HW238274   1.834   2.680   6.132  1.5270 -0.7847 -0.3812
 8881SOL     OW38275   2.711   4.342   6.382 -0.7897 -0.2021 -0.2059
 8881SOL    HW138276   2.690   4.380   6.297  0.1297  0.5490 -0.0955
 8881SOL    HW238277   2.707   4.422   6.433  0.6925 -0.3363  0.1203
 8882SOL     OW38278   3.176   1.449   8.432 -0.4469  0.4901  0.9409
 8882SOL    HW138279   3.190   1.544   8.437  0.7718  0.3316  0.4969
 8882SOL    HW238280   3.092   1.460   8.386  0.8936  0.8206 -1.4071
 8883SOL     OW38281   2.276   3.071   2.384 -0.0473 -0.0186 -0.6479
 8883SOL    HW138282   2.183   3.076   2.363 -0.0276 -5.3465 -1.8849
 8883SOL    HW238283   2.301   3.004   2.321  0.4157 -0.2774 -0.1843
 8884SOL     OW38284   0.562   3.163   6.506 -0.5921  0.4897 -0.4433
 8884SOL    HW138285   0.550   3.233   6.570 -0.7081 -1.0754  1.2640
 8884SOL    HW238286   0.652   3.183   6.482  0.6008 -3.0897  1.0153
 8885SOL     OW38287   1.511   4.726   3.246 -0.1888  0.2895  0.8555
 8885SOL    HW138288   1.501   0.081   3.270 -0.1821 -0.2758  2.9967
 8885SOL    HW238289   1.462   4.705   3.167 -0.5294  3.2910  0.2672
 8886SOL     OW38290   1.676   4.245   7.220  0.4869  0.5692  0.1777
 8886SOL    HW138291   1.643   4.230   7.309  2.1620 -1.3595  0.4704
 8886SOL    HW238292   1.643   4.333   7.205  0.5966  0.3192 -1.5017
 8887SOL     OW38293   2.396   2.483   3.636  0.2473  0.2627  0.0150
 8887SOL    HW138294   2.353   2.538   3.570  0.9382  0.3132 -0.3956
 8887SOL    HW238295   2.396   2.399   3.589 -0.5332  0.2953 -0.0481
 8888SOL     OW38296   3.922   2.034   2.530 -0.2420 -0.2774  0.6932
 8888SOL    HW138297   3.864   2.018   2.605 -0.3012 -0.4127  0.6177
 8888SOL    HW238298   3.955   1.946   2.513 -0.9943 -0.3070 -0.6310
 8889SOL     OW38299   3.343   2.686  10.225 -0.0340 -0.5241 -0.2957
 8889SOL    HW138300   3.251   2.678  10.251  0.3898 -0.2211  1.3071
 8889SOL    HW238301   3.387   2.605  10.249 -0.7909 -0.6697  0.5935
 8890SOL     OW38302   4.638   0.572   3.294 -0.2618 -0.3504 -0.4023
 8890SOL    HW138303   4.650   0.647   3.235 -0.5296  0.3931  0.4899
 8890SOL    HW238304   4.703   0.509   3.264 -0.2362 -1.3375  1.7257
 8891SOL     OW38305   3.954   2.198   8.052 -0.2369 -0.4162  0.3974
 8891SOL    HW138306   3.984   2.210   7.962 -1.8609 -0.0728 -0.0982
 8891SOL    HW238307   3.948   2.103   8.056  2.0476 -0.5909 -0.2319
 8892SOL     OW38308   3.828   3.701   2.662 -0.2647 -0.5521 -0.4400
 8892SOL    HW138309   3.750   3.668   2.707 -0.6790  0.6806 -0.2766
 8892SOL    HW238310   3.797   3.687   2.572 -0.2054 -0.4878 -0.4708
 8893SOL     OW38311   3.570   4.052  12.354 -0.5544 -0.1328  0.6321
 8893SOL    HW138312   3.585   3.963  12.324 -0.6856  0.8103 -2.3232
 8893SOL    HW238313   3.500   4.062  12.289  2.0626  1.1734 -2.0141
 8894SOL     OW38314   0.971   0.025   7.447  0.2529  0.4261 -0.8981
 8894SOL    HW138315   0.969   0.121   7.450  0.8956  0.3804  1.0853
 8894SOL    HW238316   0.890   0.006   7.494  0.7662 -1.0470 -0.6288
 8895SOL     OW38317   3.704   0.187   6.485  0.3873  0.0304  0.0145
 8895SOL    HW138318   3.688   0.161   6.394 -1.5511 -1.9471  0.9314
 8895SOL    HW238319   3.791   0.156   6.507 -0.1424  0.3930  2.6005
 8896SOL     OW38320   3.985   3.596   3.888  0.1290  0.5426  0.4224
 8896SOL    HW138321   4.076   3.619   3.906 -0.2204  0.4566  2.3508
 8896SOL    HW238322   3.962   3.674   3.838 -0.4140  0.3104  0.3043
 8897SOL     OW38323   4.029   4.160  17.325  0.0593 -0.2042  0.2912
 8897SOL    HW138324   4.116   4.158  17.364  0.7382  1.4690 -1.1364
 8897SOL    HW238325   4.031   4.246  17.283 -0.0899  0.3164  1.3465
 8898SOL     OW38326   2.395   0.802  11.256  0.2218 -0.1380  0.2535
 8898SOL    HW138327   2.435   0.832  11.337  0.5647  1.7283 -0.6064
 8898SOL    HW238328   2.473   0.774  11.208  0.6112  0.8668  0.3116
 8899SOL     OW38329   0.888   0.858   9.192 -0.2537  0.3894 -0.1628
 8899SOL    HW138330   0.912   0.810   9.112  0.3953  1.7601 -0.7856
 8899SOL    HW238331   0.926   0.944   9.174  2.8553 -1.5386 -2.9680
 8900SOL     OW38332   3.608   2.905   8.145  0.1436  0.6426 -0.1758
 8900SOL    HW138333   3.528   2.855   8.164  0.6478  0.1108  0.5634
 8900SOL    HW238334   3.631   2.843   8.076 -0.9144 -2.2352  2.0521
 8901SOL     OW38335   1.146   4.151   4.299  0.2125  0.0635  0.0517
 8901SOL    HW138336   1.083   4.205   4.346 -0.6057 -1.3694  0.6030
 8901SOL    HW238337   1.168   4.210   4.227  1.3338 -0.1143  0.2435
 8902SOL     OW38338   2.727   1.690   6.015 -0.1110  0.0254  0.2793
 8902SOL    HW138339   2.665   1.759   5.991 -0.7718 -0.0672  1.7089
 8902SOL    HW238340   2.794   1.745   6.055 -0.7064  0.5044  0.6212
 8903SOL     OW38341   1.132   0.482   3.152 -0.1839  0.0761 -0.2574
 8903SOL    HW138342   1.122   0.563   3.102 -0.8849  0.9794  1.3330
 8903SOL    HW238343   1.136   0.414   3.084 -0.1423 -1.8488  1.6583
 8904SOL     OW38344   2.213   2.571  14.257 -0.0667 -0.0637 -0.7651
 8904SOL    HW138345   2.278   2.554  14.189 -0.0740 -1.9011 -0.2997
 8904SOL    HW238346   2.239   2.657  14.291 -0.8344  0.4477 -1.4728
 8905SOL     OW38347   2.438   3.639  15.406  0.5927 -0.5931  0.7699
 8905SOL    HW138348   2.476   3.689  15.334  1.3410 -0.9586  0.9130
 8905SOL    HW238349   2.423   3.556  15.361 -0.9792  0.4594 -0.6332
 8906SOL     OW38350   2.195   4.119   9.603 -0.3632  0.4195  0.2576
 8906SOL    HW138351   2.264   4.135   9.667 -0.3678 -0.4871  0.4956
 8906SOL    HW238352   2.125   4.119   9.668 -1.5154 -1.2739 -0.9972
 8907SOL     OW38353   3.580   2.992   2.095 -0.0743  0.0016 -0.3198
 8907SOL    HW138354   3.595   2.914   2.149 -2.0716 -0.4679 -0.4432
 8907SOL    HW238355   3.597   3.061   2.158 -2.5885 -1.1820  1.6728
 8908SOL     OW38356   3.373   1.003   3.949  0.2917 -0.2819 -0.4616
 8908SOL    HW138357   3.364   0.958   4.033 -1.1049 -1.9059 -1.4715
 8908SOL    HW238358   3.326   0.946   3.888 -1.8733  0.2989  0.6339
 8909SOL     OW38359   2.062   3.576   7.445 -0.0101  0.1745  0.1536
 8909SOL    HW138360   1.979   3.621   7.462  0.1411  0.7064 -0.5280
 8909SOL    HW238361   2.119   3.600   7.518  0.6835  0.1729 -0.3865
 8910SOL     OW38362   3.776   2.863  14.325  0.6377  0.5591  0.4372
 8910SOL    HW138363   3.761   2.826  14.412 -1.3809 -2.1818 -1.0967
 8910SOL    HW238364   3.842   2.804  14.287 -0.4848 -2.1708  2.7529
 8911SOL     OW38365   4.162   4.152   3.140 -0.0540  0.3737 -0.6099
 8911SOL    HW138366   4.067   4.147   3.151 -0.1428 -0.7173 -1.9441
 8911SOL    HW238367   4.176   4.212   3.067 -1.9267  1.0133 -0.4607
 8912SOL     OW38368   2.958   4.721   2.216 -0.0271 -0.3433  0.3899
 8912SOL    HW138369   3.013   4.716   2.138 -0.2115 -0.7096  0.2837
 8912SOL    HW238370   2.995   4.662   2.281 -0.6207 -0.6900  0.4145
 8913SOL     OW38371   3.600   0.718   3.711  0.0520  0.1177 -0.0018
 8913SOL    HW138372   3.517   0.756   3.682 -0.4806 -0.1936  1.1411
 8913SOL    HW238373   3.653   0.780   3.761 -2.2414  2.6006 -0.6126
 8914SOL     OW38374   2.721   3.923   3.826  0.3835 -0.0740  0.0652
 8914SOL    HW138375   2.709   3.853   3.890 -1.2123  1.4628  1.4131
 8914SOL    HW238376   2.685   4.001   3.868 -1.1872 -0.9711  0.3738
 8915SOL     OW38377   4.280   2.938   2.598  0.4845 -0.6535  0.0626
 8915SOL    HW138378   4.347   2.997   2.564 -0.9866  0.6298 -0.5875
 8915SOL    HW238379   4.320   2.864   2.553 -0.6923 -2.4387  1.9361
 8916SOL     OW38380   3.301   0.330   2.743 -0.0193 -0.0041  0.5378
 8916SOL    HW138381   3.282   0.251   2.694 -2.3953  0.5934  0.4922
 8916SOL    HW238382   3.246   0.318   2.821  1.2173 -1.1717  1.2208
 8917SOL     OW38383   2.011   2.759   6.741  0.0233  0.0499  0.4369
 8917SOL    HW138384   1.981   2.791   6.656 -1.8011 -2.5137  0.1103
 8917SOL    HW238385   1.930   2.757   6.792  0.3407 -0.5200  0.9125
 8918SOL     OW38386   3.770   0.260   7.772  0.4813  0.0252  0.2748
 8918SOL    HW138387   3.816   0.241   7.690  0.1053 -0.0501  0.0804
 8918SOL    HW238388   3.750   0.169   7.795 -2.8828  0.7208  0.1338
 8919SOL     OW38389   3.749   3.624   7.622 -0.1076 -0.4786 -0.2481
 8919SOL    HW138390   3.716   3.535   7.622 -0.2095 -0.4399 -0.6022
 8919SOL    HW238391   3.825   3.612   7.679 -1.2454  0.9817  1.5721
 8920SOL     OW38392   2.177   0.251   3.204 -0.0406  0.0448 -0.3158
 8920SOL    HW138393   2.163   0.321   3.267 -0.0258 -1.1022  0.9556
 8920SOL    HW238394   2.268   0.269   3.183  0.5767 -2.9483 -0.2389
 8921SOL     OW38395   4.459   0.838  10.581  0.1101 -0.6841 -0.2123
 8921SOL    HW138396   4.440   0.897  10.509 -0.5375  0.5098  0.9358
 8921SOL    HW238397   4.375   0.843  10.627  0.1030 -1.2856 -0.1573
 8922SOL     OW38398   2.162   1.971  13.931 -0.3805  0.5454 -0.0595
 8922SOL    HW138399   2.123   1.886  13.947  0.8904  0.3773  2.2406
 8922SOL    HW238400   2.086   2.027  13.946 -2.4964 -1.6883 -2.5921
 8923SOL     OW38401   2.084   3.952   5.839  0.3862  0.1411  0.2240
 8923SOL    HW138402   2.163   3.949   5.894 -0.8687  1.2746  2.0714
 8923SOL    HW238403   2.023   3.948   5.912  1.1058 -3.4450  0.6664
 8924SOL     OW38404   3.809   4.686   5.609 -0.1327 -0.4000 -0.0465
 8924SOL    HW138405   3.726   4.732   5.620 -0.2303 -0.8739  1.3079
 8924SOL    HW238406   3.863   0.009   5.661  1.6705 -0.9059 -1.3304
 8925SOL     OW38407   1.270   2.236   8.927 -0.0642  0.0643 -0.1243
 8925SOL    HW138408   1.207   2.278   8.984 -2.4864  0.2433 -2.9124
 8925SOL    HW238409   1.320   2.312   8.896  1.0917 -0.8482 -0.4853
 8926SOL     OW38410   1.392   0.021  13.264  0.3461  0.0661  0.4554
 8926SOL    HW138411   1.388   0.054  13.353  0.7036 -0.0379  0.5067
 8926SOL    HW238412   1.330   4.685  13.260 -0.6773  0.7669  3.1975
 8927SOL     OW38413   4.204   3.113   0.885  0.2998  0.2437  0.3854
 8927SOL    HW138414   4.274   3.073   0.937 -0.3956 -0.3945  0.8357
 8927SOL    HW238415   4.185   3.187   0.943  0.0272 -0.0933  0.7269
 8928SOL     OW38416   2.396   3.045   2.617 -0.1956 -0.2322  0.1509
 8928SOL    HW138417   2.405   2.953   2.591 -0.1165 -0.5728  1.3549
 8928SOL    HW238418   2.351   3.088   2.545 -1.8601  0.0377  1.3337
 8929SOL     OW38419   2.054   2.806  15.787 -0.1576 -0.8986  0.1720
 8929SOL    HW138420   2.003   2.876  15.828 -0.0712 -0.4429 -0.4926
 8929SOL    HW238421   2.014   2.802  15.700  1.2980 -2.8796 -0.4318
 8930SOL     OW38422   4.455   1.852   2.433  0.2674 -0.0823  0.1402
 8930SOL    HW138423   4.393   1.779   2.431 -0.8282  0.7302  3.7124
 8930SOL    HW238424   4.526   1.811   2.483  1.4838  0.5435 -1.0643
 8931SOL     OW38425   3.813   4.676  11.944 -0.1003 -0.3757 -0.3801
 8931SOL    HW138426   3.837   4.685  12.036  0.6667  0.7793 -0.7033
 8931SOL    HW238427   3.896   4.698  11.902  0.5608  4.0682  3.1744
 8932SOL     OW38428   2.205   1.112   3.722 -0.0631  0.0705  0.1920
 8932SOL    HW138429   2.179   1.107   3.630  3.3679 -2.6384 -0.6562
 8932SOL    HW238430   2.195   1.019   3.745 -0.5710 -0.2038 -1.1614
 8933SOL     OW38431   1.835   3.496  15.115  0.3253  0.0282 -0.2293
 8933SOL    HW138432   1.773   3.492  15.042 -2.5189  1.5404  2.0981
 8933SOL    HW238433   1.800   3.425  15.169 -0.6971 -0.0141 -0.9469
 8934SOL     OW38434   3.096   0.705   2.441 -0.4749  0.8658 -0.3552
 8934SOL    HW138435   3.034   0.655   2.389  0.3072  1.6489 -2.0542
 8934SOL    HW238436   3.110   0.654   2.521  0.6601  2.3377  0.3999
 8935SOL     OW38437   1.977   4.139   3.757 -0.5207  0.9223  0.2752
 8935SOL    HW138438   2.031   4.084   3.814 -0.9442  1.0913  0.8424
 8935SOL    HW238439   2.046   4.186   3.710  1.1550 -0.7996  0.9707
 8936SOL     OW38440   0.021   2.075   7.596 -0.4326  0.6557 -0.1847
 8936SOL    HW138441   0.040   2.009   7.529  1.4350 -0.4016  1.3719
 8936SOL    HW238442   4.665   2.089   7.582  0.0559  2.6747 -1.4446
 8937SOL     OW38443   2.605   0.949  14.528  0.2198  0.1432 -0.0012
 8937SOL    HW138444   2.543   1.018  14.504  1.7071  1.3133 -0.4573
 8937SOL    HW238445   2.553   0.869  14.518 -2.5877  1.9141  0.5998
 8938SOL     OW38446   0.509   4.516   6.600  0.2012 -0.0661 -0.1685
 8938SOL    HW138447   0.532   4.427   6.576 -0.2083 -0.7847  2.0792
 8938SOL    HW238448   0.548   4.520   6.687  0.3557  0.6756 -0.2748
 8939SOL     OW38449   2.482   4.539   1.633  0.9439 -0.0995  0.0469
 8939SOL    HW138450   2.449   4.540   1.723  0.5341 -2.4368 -0.0569
 8939SOL    HW238451   2.520   4.624   1.614  0.3697 -0.1373 -1.2363
 8940SOL     OW38452   4.038   1.175  10.770  0.2835 -0.0797  0.2134
 8940SOL    HW138453   3.946   1.149  10.763  0.7825 -1.8889  0.3440
 8940SOL    HW238454   4.052   1.212  10.857  1.0377  1.2690 -0.4693
 8941SOL     OW38455   2.204   3.233   7.488 -0.3648  0.0323 -0.5009
 8941SOL    HW138456   2.247   3.305   7.441 -3.3574  2.5152  0.5096
 8941SOL    HW238457   2.286   3.201   7.525  0.1036  0.2482 -1.3575
 8942SOL     OW38458   1.747   0.004   2.885 -0.1962  0.4670  0.5260
 8942SOL    HW138459   1.740   4.689   2.965  2.5576 -0.2151  0.3462
 8942SOL    HW238460   1.830   4.705   2.854 -0.3492  0.4901  0.0863
 8943SOL     OW38461   2.972   3.856   6.261 -0.5527  0.2715  0.0283
 8943SOL    HW138462   2.903   3.841   6.196  1.2207  0.2867 -1.8871
 8943SOL    HW238463   2.913   3.828   6.331  0.8242 -0.2604  0.9641
 8944SOL     OW38464   0.825   3.787   7.972  0.1732  0.4559 -0.2000
 8944SOL    HW138465   0.755   3.727   7.947  0.7339 -0.8304  1.2684
 8944SOL    HW238466   0.795   3.877   7.965  0.7664  0.6772  0.1961
 8945SOL     OW38467   2.271   1.947   5.172 -0.0065 -0.5006 -0.2877
 8945SOL    HW138468   2.228   1.978   5.092  0.9056 -0.5431 -0.8015
 8945SOL    HW238469   2.203   1.900   5.219 -0.5786  0.9552  0.3336
 8946SOL     OW38470   1.628   4.135   8.155 -0.0156 -0.1121  0.2267
 8946SOL    HW138471   1.621   4.047   8.193 -0.7951  0.3305  1.1122
 8946SOL    HW238472   1.545   4.146   8.109  0.5366  3.4247  0.0724
 8947SOL     OW38473   0.756   3.008   5.679 -0.8159 -0.3702 -0.0322
 8947SOL    HW138474   0.687   3.016   5.613 -1.1325 -0.7482  0.2556
 8947SOL    HW238475   0.800   3.091   5.665 -1.1585 -0.6305 -2.6662
 8948SOL     OW38476   2.886   3.995   2.301 -0.4922 -0.2358 -0.1481
 8948SOL    HW138477   2.898   4.062   2.234  0.9871 -0.4174 -0.0647
 8948SOL    HW238478   2.850   3.922   2.249  1.3923 -2.5126  1.7324
 8949SOL     OW38479   1.655   4.557   3.824 -0.3709  0.2585 -0.5530
 8949SOL    HW138480   1.675   4.565   3.918  0.9201  0.4344 -0.8449
 8949SOL    HW238481   1.620   4.645   3.812  0.1985  0.8234  1.7991
 8950SOL     OW38482   4.228   2.131   8.590 -0.2646 -0.4560 -0.2790
 8950SOL    HW138483   4.205   2.122   8.682  0.7156 -0.6829 -0.0631
 8950SOL    HW238484   4.316   2.096   8.580  0.3983  1.1371  0.0850
 8951SOL     OW38485   2.958   3.346   1.103 -0.3329 -0.0562 -0.2484
 8951SOL    HW138486   2.974   3.276   1.039 -1.1787 -0.4258 -0.0522
 8951SOL    HW238487   3.003   3.311   1.179 -1.2420  0.9780  0.7745
 8952SOL     OW38488   4.485   1.383  15.350 -0.1768 -0.1291  0.0577
 8952SOL    HW138489   4.489   1.453  15.415 -0.1667  1.4181 -1.6133
 8952SOL    HW238490   4.461   1.426  15.268 -0.9990  0.8508  0.8111
 8953SOL     OW38491   3.652   1.367   7.923  0.2837 -0.1739 -0.5830
 8953SOL    HW138492   3.625   1.414   8.002  0.3447 -0.6979 -0.2441
 8953SOL    HW238493   3.630   1.427   7.852  0.8293  0.1413 -0.4855
 8954SOL     OW38494   1.814   4.735   7.774  0.3824 -0.5949  0.1028
 8954SOL    HW138495   1.752   4.662   7.769 -0.3883  0.0615 -0.0938
 8954SOL    HW238496   1.810   0.027   7.865  0.9748  1.4614 -0.5290
 8955SOL     OW38497   2.825   2.359   0.623 -0.1068 -0.2052  0.0183
 8955SOL    HW138498   2.766   2.321   0.559 -0.5098  1.9587 -0.8982
 8955SOL    HW238499   2.910   2.343   0.581 -0.8169 -2.0323 -0.7037
 8956SOL     OW38500   1.257   2.354  10.126  0.2210  0.4982 -0.0226
 8956SOL    HW138501   1.233   2.396  10.043 -3.5448 -2.8995 -0.6563
 8956SOL    HW238502   1.174   2.328  10.167  0.4013  0.1935  0.1446
 8957SOL     OW38503   4.483   1.195  13.751  0.4648 -0.1933 -0.3713
 8957SOL    HW138504   4.530   1.275  13.771  0.1992 -0.2811  0.5898
 8957SOL    HW238505   4.540   1.126  13.785 -1.1592 -0.6515  1.4153
 8958SOL     OW38506   2.164   3.179  11.079  0.0443 -0.6075  0.1171
 8958SOL    HW138507   2.119   3.262  11.099 -1.3216 -0.6209 -2.8775
 8958SOL    HW238508   2.188   3.187  10.987 -0.9969 -0.0876 -0.1084
 8959SOL     OW38509   0.179   0.603   0.617  0.5510 -0.5993  0.4964
 8959SOL    HW138510   0.209   0.652   0.541 -0.1437  1.3348  1.4922
 8959SOL    HW238511   0.091   0.638   0.630  1.4771  1.4400  1.2554
 8960SOL     OW38512   3.755   3.450   4.302  0.1905 -0.4907 -0.4543
 8960SOL    HW138513   3.694   3.385   4.336  1.3145 -1.1256  0.3394
 8960SOL    HW238514   3.696   3.510   4.257 -0.2332 -0.3897  0.2275
 8961SOL     OW38515   3.148   4.167   8.840  0.1377  0.1149 -0.2444
 8961SOL    HW138516   3.176   4.116   8.764  2.1650  0.0202  0.5425
 8961SOL    HW238517   3.066   4.204   8.807  0.9138  0.9427 -1.2626
 8962SOL     OW38518   2.143   2.154  10.424  0.7780 -0.4178 -0.3625
 8962SOL    HW138519   2.135   2.071  10.470 -0.0295 -0.3919 -0.4572
 8962SOL    HW238520   2.071   2.140  10.364 -0.0894  1.2561  0.2899
 8963SOL     OW38521   0.836   0.646   6.687  0.3500  0.2237 -0.1057
 8963SOL    HW138522   0.743   0.668   6.694  0.4436  0.6827 -0.2746
 8963SOL    HW238523   0.835   0.572   6.625  0.9334 -0.3880  0.6210
 8964SOL     OW38524   2.412   0.558   7.794  0.2390  0.2150 -0.5055
 8964SOL    HW138525   2.406   0.482   7.736 -1.3848 -1.1392  1.4539
 8964SOL    HW238526   2.322   0.558   7.827  1.1302  1.6397  1.9712
 8965SOL     OW38527   3.770   0.542   3.817 -0.5329 -0.0048 -1.1683
 8965SOL    HW138528   3.763   0.592   3.735  1.2389  2.7130  0.3497
 8965SOL    HW238529   3.681   0.549   3.851  0.1643  1.6141  0.3121
 8966SOL     OW38530   3.274   2.468  13.720 -0.2992 -0.1526 -0.9822
 8966SOL    HW138531   3.365   2.455  13.692  0.6685  0.9957  1.5772
 8966SOL    HW238532   3.275   2.421  13.803  0.0072  1.7480  0.0958
 8967SOL     OW38533   2.334   1.933   3.975  0.4653  0.2809 -0.5428
 8967SOL    HW138534   2.412   1.958   3.925 -0.7371 -0.6829 -2.9163
 8967SOL    HW238535   2.259   1.971   3.929 -0.2006 -1.3393 -0.8000
 8968SOL     OW38536   4.049   2.005   8.406 -0.2604  0.0199 -0.0625
 8968SOL    HW138537   4.128   2.050   8.436  0.3818 -0.2079 -1.4010
 8968SOL    HW238538   3.984   2.074   8.415 -0.2900  0.0962 -0.8421
 8969SOL     OW38539   2.273   0.474  17.471 -0.0457  0.2147 -0.5249
 8969SOL    HW138540   2.274   0.385  17.436 -1.0059  0.1221 -0.3272
 8969SOL    HW238541   2.304   0.456  17.559 -1.2822 -0.5319 -0.2490
 8970SOL     OW38542   2.704   1.666   6.547 -0.3080 -0.1411 -0.2666
 8970SOL    HW138543   2.663   1.580   6.557 -0.3504 -0.2542 -1.4819
 8970SOL    HW238544   2.631   1.716   6.509 -0.0054  0.8480  0.4364
 8971SOL     OW38545   0.420   3.475   1.802  0.0436  0.6783  0.4760
 8971SOL    HW138546   0.327   3.497   1.793  0.0780  0.4332 -0.4073
 8971SOL    HW238547   0.454   3.564   1.793  2.0366 -0.0660  0.6218
 8972SOL     OW38548   4.205   1.784   9.313 -0.1606  0.3246 -0.0842
 8972SOL    HW138549   4.171   1.695   9.312  0.0700  0.2370 -0.0939
 8972SOL    HW238550   4.172   1.831   9.390 -0.9086 -0.0046 -0.2038
 8973SOL     OW38551   1.510   2.537   3.289  0.0504 -0.3270 -0.0890
 8973SOL    HW138552   1.495   2.518   3.197  0.4193 -1.1620  0.0201
 8973SOL    HW238553   1.421   2.538   3.324 -0.4584 -1.5252 -1.3511
 8974SOL     OW38554   0.375   2.706   1.888 -0.2148 -0.4562  0.3126
 8974SOL    HW138555   0.328   2.659   1.819 -1.8163 -0.2927  1.2957
 8974SOL    HW238556   0.447   2.647   1.911 -1.9072 -2.7861 -0.3249
 8975SOL     OW38557   1.934   0.850   5.766 -0.0053  0.2741  0.2007
 8975SOL    HW138558   1.845   0.822   5.790  0.2741 -2.1196 -1.6261
 8975SOL    HW238559   1.944   0.927   5.823 -0.2558  1.2264 -1.0425
 8976SOL     OW38560   3.604   1.247   1.833  0.1341  0.7784  0.0833
 8976SOL    HW138561   3.689   1.204   1.823 -1.9289 -3.1029 -0.6582
 8976SOL    HW238562   3.628   1.336   1.807 -0.9260  1.1361  0.3405
 8977SOL     OW38563   4.539   3.020   0.407  0.3728  0.3755 -0.3359
 8977SOL    HW138564   4.531   2.930   0.440  0.2508  0.5623  0.1410
 8977SOL    HW238565   4.464   3.019   0.347  1.4657 -0.5576 -1.6718
 8978SOL     OW38566   4.110   3.997  11.108 -0.5221  0.0078  0.1893
 8978SOL    HW138567   4.103   4.048  11.028  1.2597 -0.6113 -0.3644
 8978SOL    HW238568   4.181   3.941  11.078 -2.2824 -1.5163 -1.1307
 8979SOL     OW38569   3.676   3.598   2.432  0.0664 -0.1195 -0.1064
 8979SOL    HW138570   3.583   3.613   2.452 -0.0475 -1.3166  0.2482
 8979SOL    HW238571   3.676   3.653   2.354 -2.5373  0.1604  0.0857
 8980SOL     OW38572   1.634   4.598  13.283  0.8733  0.3368  0.2126
 8980SOL    HW138573   1.547   4.636  13.293  0.9437  0.9243 -1.4581
 8980SOL    HW238574   1.684   4.670  13.322  0.2993 -0.1042  1.7333
 8981SOL     OW38575   0.344   0.237   2.623 -0.5777  0.0327 -0.0419
 8981SOL    HW138576   0.437   0.236   2.598  0.0485  1.4212  2.2835
 8981SOL    HW238577   0.304   0.282   2.548 -0.5320  0.5960  0.2734
 8982SOL     OW38578   4.152   3.814  14.428 -0.4313 -0.1140 -0.1174
 8982SOL    HW138579   4.118   3.772  14.348 -3.0755 -0.8091  1.3472
 8982SOL    HW238580   4.123   3.745  14.488  0.2166  1.2330  1.7574
 8983SOL     OW38581   4.006   1.780   4.317 -0.2432  0.2274 -0.1956
 8983SOL    HW138582   3.918   1.746   4.334  0.5612 -1.1820  1.1896
 8983SOL    HW238583   3.988   1.872   4.301  1.6510  0.9439  1.8309
 8984SOL     OW38584   2.940   2.030   6.695  0.5682  0.4189  0.0448
 8984SOL    HW138585   2.955   1.940   6.723  0.3669  0.5227  0.4822
 8984SOL    HW238586   2.930   2.064   6.783  1.7484  1.3767 -0.1915
 8985SOL     OW38587   1.978   2.368   2.562  0.3088  0.9575  0.1379
 8985SOL    HW138588   2.029   2.356   2.642  0.4766  1.1251  0.0561
 8985SOL    HW238589   1.985   2.281   2.523 -2.0828  0.7103  0.2235
 8986SOL     OW38590   3.265   2.002  17.439  0.5699 -0.0376  0.0185
 8986SOL    HW138591   3.283   2.083  17.392  0.6688  0.1936  0.4544
 8986SOL    HW238592   3.171   2.013  17.455  0.7366 -0.3765  1.2066
 8987SOL     OW38593   1.107   2.827  10.043  0.5105 -0.8661 -0.1456
 8987SOL    HW138594   1.107   2.883   9.965  1.5618  1.9065  1.8377
 8987SOL    HW238595   1.179   2.866  10.094 -0.7180 -1.0060  1.6626
 8988SOL     OW38596   2.712   4.484   5.209 -0.3198  0.3326  0.7022
 8988SOL    HW138597   2.695   4.543   5.136  1.6657 -0.4469 -0.3855
 8988SOL    HW238598   2.656   4.510   5.282  0.8386  2.6047  0.7930
 8989SOL     OW38599   0.702   0.730   5.773 -0.5628  0.4060 -0.1026
 8989SOL    HW138600   0.699   0.786   5.850 -0.7611 -0.0732  0.2368
 8989SOL    HW238601   0.744   0.795   5.717  0.0601 -0.1516 -0.2752
 8990SOL     OW38602   1.856   1.793   2.745  0.2520 -0.4546 -0.3306
 8990SOL    HW138603   1.773   1.834   2.771  0.1315 -1.1182  0.3304
 8990SOL    HW238604   1.913   1.869   2.731  1.7696 -1.6314 -0.5512
 8991SOL     OW38605   1.254   3.922   5.785 -0.5387  0.1123  0.0432
 8991SOL    HW138606   1.187   3.865   5.821  0.3844 -0.4987  0.8051
 8991SOL    HW238607   1.314   3.852   5.760  1.6409  1.4893  1.3402
 8992SOL     OW38608   2.906   0.214   0.889  0.2217  0.3419  0.5313
 8992SOL    HW138609   2.810   0.212   0.888  0.1768  3.0729  0.4542
 8992SOL    HW238610   2.926   0.211   0.796  0.9553 -1.6128  0.7304
 8993SOL     OW38611   4.383   1.883   5.080 -0.4651  0.3412  0.1028
 8993SOL    HW138612   4.465   1.836   5.094 -0.2875  0.5126 -0.3577
 8993SOL    HW238613   4.411   1.971   5.105 -1.8712  0.7290  0.3051
 8994SOL     OW38614   4.221   4.040   7.286 -0.7953  0.2770 -0.1230
 8994SOL    HW138615   4.217   4.104   7.215  0.9781  0.4161 -0.0900
 8994SOL    HW238616   4.214   4.095   7.365  0.3358  0.5128 -0.1840
 8995SOL     OW38617   1.355   3.954   9.571 -0.2450 -0.4804  0.2491
 8995SOL    HW138618   1.317   3.890   9.510 -0.9319  0.1926 -0.0403
 8995SOL    HW238619   1.283   4.009   9.602 -1.3793 -1.7181 -0.1451
 8996SOL     OW38620   3.209   1.703  12.162 -0.7369 -0.4263 -0.2132
 8996SOL    HW138621   3.229   1.736  12.250 -1.1241  1.4764 -0.8337
 8996SOL    HW238622   3.236   1.611  12.168 -2.0352 -0.7121  1.4267
 8997SOL     OW38623   3.793   2.963  13.067  0.2807 -0.2320  0.8738
 8997SOL    HW138624   3.775   2.961  13.161 -0.5121  0.2457  0.7346
 8997SOL    HW238625   3.876   2.919  13.085  0.6657  0.6946  1.3794
 8998SOL     OW38626   0.618   4.616  12.736  0.0914  0.2355 -0.2926
 8998SOL    HW138627   0.617   4.652  12.825 -3.2367 -0.4733 -0.0412
 8998SOL    HW238628   0.596   4.526  12.762 -1.2280  0.0840 -1.9735
 8999SOL     OW38629   0.713   1.947   7.379  0.1967 -0.0627 -0.1812
 8999SOL    HW138630   0.743   1.879   7.439 -0.2530  0.8005  1.0286
 8999SOL    HW238631   0.759   2.026   7.408  1.8214 -0.7456 -0.9490
 9000SOL     OW38632   3.342   1.757   7.772 -0.1220 -0.2358  0.1228
 9000SOL    HW138633   3.254   1.727   7.752 -0.1001  0.5193 -1.0959
 9000SOL    HW238634   3.324   1.811   7.850 -1.0184 -0.9438  0.4054
 9001SOL     OW38635   1.756   2.628   5.057  0.5074  0.1955  0.5424
 9001SOL    HW138636   1.695   2.562   5.088  1.8191 -0.5353  1.5554
 9001SOL    HW238637   1.702   2.667   4.987 -0.7779  1.4313  2.2252
 9002SOL     OW38638   2.274   4.496   5.336  0.2800 -0.0527  0.3984
 9002SOL    HW138639   2.360   4.526   5.366  0.9545 -1.3635 -0.2320
 9002SOL    HW238640   2.259   4.567   5.275  1.1703 -1.8511 -1.8873
 9003SOL     OW38641   0.566   0.636   4.742  0.1535  0.0419 -0.2944
 9003SOL    HW138642   0.554   0.541   4.732  1.6098 -0.0833 -0.8337
 9003SOL    HW238643   0.479   0.674   4.749  0.3529  0.1732  1.4230
 9004SOL     OW38644   3.126   4.530   7.448 -0.1619 -0.2120  0.1726
 9004SOL    HW138645   3.107   4.584   7.371 -0.9758  0.1295  0.6148
 9004SOL    HW238646   3.208   4.568   7.480  0.1511  1.0955 -2.1964
 9005SOL     OW38647   4.333   1.114   3.430  0.3290 -0.1116 -0.3567
 9005SOL    HW138648   4.416   1.157   3.410  0.0877  0.6389  0.2730
 9005SOL    HW238649   4.285   1.197   3.425  3.0220  1.4874  0.2824
 9006SOL     OW38650   4.230   4.718   6.979 -0.4059  0.0509  0.3469
 9006SOL    HW138651   4.218   0.000   6.886  0.8272  3.3182  0.8634
 9006SOL    HW238652   4.318   0.016   6.991 -1.1860  0.8565  3.5461
 9007SOL     OW38653   0.991   1.816   9.604 -0.2830  0.3994 -0.0307
 9007SOL    HW138654   0.981   1.763   9.525  3.6521  1.0835 -0.9530
 9007SOL    HW238655   1.017   1.904   9.576 -2.2461 -0.2047 -3.8533
 9008SOL     OW38656   2.026   2.968   5.013 -0.2624 -0.3711  0.8962
 9008SOL    HW138657   2.078   2.897   4.975 -0.8618  0.7439 -1.9757
 9008SOL    HW238658   2.099   3.027   5.033  0.3907 -0.6324 -0.6996
 9009SOL     OW38659   2.998   3.034   1.530  0.0969 -0.2099  0.0632
 9009SOL    HW138660   3.002   2.977   1.607  2.1532 -0.7729 -0.4755
 9009SOL    HW238661   2.922   3.090   1.547 -0.7535 -1.8966  1.7534
 9010SOL     OW38662   4.128   0.381   5.960  0.0581 -0.1712 -0.4000
 9010SOL    HW138663   4.130   0.432   5.879  1.2378 -2.1300 -1.6177
 9010SOL    HW238664   4.215   0.374   5.999 -0.1623  0.6285  0.2395
 9011SOL     OW38665   3.638   0.843   8.833  0.1004  0.4728  0.5710
 9011SOL    HW138666   3.552   0.811   8.803  0.4603 -1.3660  1.5180
 9011SOL    HW238667   3.659   0.887   8.750 -0.5789  0.1849  0.2382
 9012SOL     OW38668   0.369   1.747   1.297  0.2010 -0.5146  0.0727
 9012SOL    HW138669   0.437   1.789   1.245 -0.4623  1.1484  0.5404
 9012SOL    HW238670   0.420   1.718   1.372 -0.2078  1.7028  1.1915
 9013SOL     OW38671   1.771   0.222   2.292 -0.1527  0.4218  0.6391
 9013SOL    HW138672   1.730   0.302   2.260  1.5755  0.9494 -0.2469
 9013SOL    HW238673   1.800   0.202   2.203  1.4674  1.6107  0.8838
 9014SOL     OW38674   1.210   4.493  12.374  0.6118  0.0185 -0.1942
 9014SOL    HW138675   1.153   4.490  12.451  2.3254  1.9189  1.1478
 9014SOL    HW238676   1.259   4.575  12.385 -0.2523  0.3917  0.8148
 9015SOL     OW38677   3.753   4.295  16.918 -0.0927 -0.2800  0.2164
 9015SOL    HW138678   3.804   4.277  16.838  0.7847  0.0646  0.6977
 9015SOL    HW238679   3.672   4.254  16.889 -0.1115 -0.6048  0.7246
 9016SOL     OW38680   1.153   0.536   3.438 -0.3231 -0.4532  0.1737
 9016SOL    HW138681   1.114   0.590   3.369 -0.0951  0.1531  0.5214
 9016SOL    HW238682   1.216   0.484   3.387 -1.7657 -0.8178 -1.2470
 9017SOL     OW38683   1.932   1.154   9.508  0.2536 -0.0392 -0.2442
 9017SOL    HW138684   1.851   1.191   9.543  0.3087  0.0799 -0.2433
 9017SOL    HW238685   1.905   1.069   9.472 -0.5340  0.0029  0.2470
 9018SOL     OW38686   0.967   0.417   2.850 -0.1131 -0.0882  0.1365
 9018SOL    HW138687   1.050   0.374   2.828  0.3065  0.3351  0.9040
 9018SOL    HW238688   0.910   0.371   2.789  0.0781 -0.3868  0.1788
 9019SOL     OW38689   3.609   1.983   7.764  0.1562 -0.6449  0.1153
 9019SOL    HW138690   3.584   2.016   7.851 -1.6698  0.3211 -0.7668
 9019SOL    HW238691   3.586   1.893   7.789  1.1439 -0.9851 -0.2150
 9020SOL     OW38692   1.714   2.267   5.507 -0.1592  0.2737 -1.1668
 9020SOL    HW138693   1.647   2.334   5.521 -0.0894  0.1442 -0.1679
 9020SOL    HW238694   1.751   2.254   5.595 -1.2675  0.1353 -0.7178
 9021SOL     OW38695   0.206   1.605   2.586  0.2048 -0.4921  0.2427
 9021SOL    HW138696   0.224   1.514   2.560 -2.2052 -0.5728 -1.1070
 9021SOL    HW238697   0.186   1.592   2.679 -3.2285  0.8940 -0.3232
 9022SOL     OW38698   2.727   4.307  13.992 -0.7891 -0.8462  0.1413
 9022SOL    HW138699   2.701   4.356  13.914 -0.8294 -0.7532  0.2134
 9022SOL    HW238700   2.666   4.334  14.060  0.3538  1.8816  0.0716
 9023SOL     OW38701   1.385   3.970   4.321 -0.0040  0.3313 -0.1067
 9023SOL    HW138702   1.312   4.010   4.369 -0.7877 -2.2353  0.8309
 9023SOL    HW238703   1.367   3.995   4.230  2.3916 -0.1664 -0.7284
 9024SOL     OW38704   1.522   0.845   8.917 -0.0743 -0.2133 -0.1001
 9024SOL    HW138705   1.552   0.787   8.987  2.6210 -0.2720 -1.2811
 9024SOL    HW238706   1.608   0.880   8.892 -0.6966  0.3766 -1.4416
 9025SOL     OW38707   4.465   3.467   3.793  0.2945 -0.1907 -0.0909
 9025SOL    HW138708   4.432   3.471   3.703 -2.0114  1.1582  0.8126
 9025SOL    HW238709   4.490   3.375   3.809  1.2965 -0.8426 -5.4071
 9026SOL     OW38710   1.268   3.759   5.343  0.1786  0.4429 -0.0023
 9026SOL    HW138711   1.358   3.774   5.373  0.8659  0.9287 -2.3457
 9026SOL    HW238712   1.215   3.817   5.398 -0.6711 -1.1025  0.8090
 9027SOL     OW38713   3.872   2.750  12.828 -0.0039  0.1858 -0.6893
 9027SOL    HW138714   3.819   2.795  12.894 -0.1128  0.7458 -1.1648
 9027SOL    HW238715   3.892   2.684  12.895 -1.3452 -0.6678 -1.1194
 9028SOL     OW38716   3.959   1.710   1.905  0.4136 -0.1528  0.4081
 9028SOL    HW138717   3.925   1.782   1.957 -1.3168 -0.1014 -0.8219
 9028SOL    HW238718   3.986   1.745   1.820 -1.6427 -0.6443 -0.4411
 9029SOL     OW38719   0.717   1.651   4.534  0.0474  0.0461  0.3343
 9029SOL    HW138720   0.802   1.611   4.520  0.0346  0.0240  0.3209
 9029SOL    HW238721   0.673   1.581   4.582  2.1300 -0.3140  1.7225
 9030SOL     OW38722   0.354   3.996   4.294  0.3049 -0.3183 -0.1999
 9030SOL    HW138723   0.292   4.057   4.334 -0.0824 -0.1009 -1.1273
 9030SOL    HW238724   0.288   3.930   4.272  0.9775 -0.3523 -2.1350
 9031SOL     OW38725   2.688   2.970  17.711  0.5472 -0.5583 -0.7185
 9031SOL    HW138726   2.626   3.042  17.698  1.9067  0.9875  1.4448
 9031SOL    HW238727   2.698   2.969   0.059 -0.1731 -0.0723 -0.6415
 9032SOL     OW38728   0.478   3.763   3.874  0.0717 -0.1476  0.9600
 9032SOL    HW138729   0.518   3.850   3.880 -0.4918  0.1210  0.8483
 9032SOL    HW238730   0.434   3.758   3.959 -0.2355 -0.6465  0.7680
 9033SOL     OW38731   4.578   1.757  14.383  0.3808 -0.0552  0.1404
 9033SOL    HW138732   4.629   1.678  14.365 -0.1491 -1.1437  3.4568
 9033SOL    HW238733   4.489   1.727  14.364  0.6329  0.8913 -2.5474
 9034SOL     OW38734   3.827   0.337   5.334  0.2823  0.1983 -0.8677
 9034SOL    HW138735   3.794   0.248   5.320  1.4743 -0.8764  3.3534
 9034SOL    HW238736   3.920   0.335   5.311  0.0660 -1.0577 -1.6561
 9035SOL     OW38737   3.327   4.425   6.522 -0.3097  0.8653  0.4136
 9035SOL    HW138738   3.329   4.392   6.432 -2.0198 -1.0068  1.0415
 9035SOL    HW238739   3.311   4.343   6.568  1.1042  0.1891 -0.3191
 9036SOL     OW38740   3.097   4.638   7.193 -0.3041  0.2708 -0.0146
 9036SOL    HW138741   3.157   4.711   7.187  2.4454 -2.0465 -0.5335
 9036SOL    HW238742   3.062   4.626   7.105  0.0721  1.4477 -0.3144
 9037SOL     OW38743   1.422   4.187   7.611  0.0523  0.0221  0.6260
 9037SOL    HW138744   1.485   4.238   7.662  1.3346  0.1168 -1.0565
 9037SOL    HW238745   1.400   4.126   7.681  1.3939 -0.7040  0.4172
 9038SOL     OW38746   4.053   0.091   7.983 -0.1177 -0.0081 -0.0107
 9038SOL    HW138747   4.082   0.067   7.895 -0.1063  2.7164 -0.7615
 9038SOL    HW238748   3.965   0.052   7.981  0.0204 -0.2523 -1.4143
 9039SOL     OW38749   4.387   2.518   7.020  0.3743  0.1461 -0.5870
 9039SOL    HW138750   4.370   2.611   7.032 -1.2227  0.0076 -1.8227
 9039SOL    HW238751   4.437   2.498   7.099 -1.1420 -1.3971 -0.0168
 9040SOL     OW38752   0.201   1.032   6.915  0.8037  0.5758 -0.2321
 9040SOL    HW138753   0.258   1.065   6.846 -0.2795  1.5984 -0.6303
 9040SOL    HW238754   0.245   1.068   6.992  1.8508 -0.2068 -0.4551
 9041SOL     OW38755   1.406   0.599   5.101  0.4124 -0.0164 -0.4782
 9041SOL    HW138756   1.453   0.587   5.019  1.1749 -0.4430  0.0172
 9041SOL    HW238757   1.460   0.563   5.171  1.2444  2.2604  0.0327
 9042SOL     OW38758   1.677   2.335   7.993  0.3572 -0.0806  0.0152
 9042SOL    HW138759   1.730   2.283   8.055  1.8866  0.1149 -1.1355
 9042SOL    HW238760   1.724   2.328   7.910 -0.5756  0.5914 -0.5521
 9043SOL     OW38761   0.967   1.509  10.137 -0.1757 -0.3514  0.0058
 9043SOL    HW138762   1.012   1.425  10.141  0.0051 -0.2325  0.3921
 9043SOL    HW238763   1.036   1.571  10.113 -1.4628  0.8638 -0.6313
 9044SOL     OW38764   3.609   2.343   1.737 -0.0583  0.2327  0.5311
 9044SOL    HW138765   3.520   2.360   1.767 -0.5467  0.6671 -1.1250
 9044SOL    HW238766   3.627   2.290   1.814 -1.1348 -3.4456 -1.7378
 9045SOL     OW38767   1.505   0.557  10.615 -0.3459  0.0436  0.2906
 9045SOL    HW138768   1.502   0.461  10.617 -1.8132  0.1453  2.9586
 9045SOL    HW238769   1.414   0.585  10.622 -0.4425  0.1582 -1.5353
 9046SOL     OW38770   3.488   1.742   2.272 -0.2627  0.1757 -0.1294
 9046SOL    HW138771   3.412   1.691   2.300 -0.2210  0.0894 -0.1722
 9046SOL    HW238772   3.471   1.728   2.179 -1.9743  0.1181  0.2021
 9047SOL     OW38773   2.458   1.446   2.455 -0.0234  0.0306 -0.5900
 9047SOL    HW138774   2.397   1.400   2.398  1.6629 -0.9907 -1.5620
 9047SOL    HW238775   2.430   1.426   2.544 -0.6296  0.3960 -0.6927
 9048SOL     OW38776   3.721   2.503   2.435  0.0078  0.4893 -0.3044
 9048SOL    HW138777   3.811   2.519   2.463  0.4638 -0.4138 -1.2485
 9048SOL    HW238778   3.683   2.470   2.517 -0.9292  0.7450 -0.6431
 9049SOL     OW38779   4.091   1.558  14.936  0.2247 -0.1909  0.1295
 9049SOL    HW138780   4.140   1.624  14.888  1.3771 -1.3585 -0.3135
 9049SOL    HW238781   4.102   1.590  15.025  0.5504  0.2562 -0.0721
 9050SOL     OW38782   1.181   4.171  14.857  0.4374 -0.0457 -0.2693
 9050SOL    HW138783   1.255   4.153  14.797 -0.9211 -0.9045 -1.6929
 9050SOL    HW238784   1.160   4.086  14.896 -3.3843 -0.3237 -2.9530
 9051SOL     OW38785   3.150   3.880  11.102  0.2798 -0.3044 -0.4204
 9051SOL    HW138786   3.229   3.842  11.141 -0.1318 -2.8590 -2.0836
 9051SOL    HW238787   3.090   3.806  11.094 -0.6342  0.6323 -2.2783
 9052SOL     OW38788   2.570   2.798  15.815  0.0696 -0.3608  0.3838
 9052SOL    HW138789   2.531   2.794  15.728  0.0626 -2.1119  0.4673
 9052SOL    HW238790   2.507   2.759  15.875  1.3469  0.7419  2.4645
 9053SOL     OW38791   0.189   3.921   3.811 -0.1905 -0.3844 -0.3627
 9053SOL    HW138792   0.124   3.948   3.875  0.0546 -1.1937  0.2288
 9053SOL    HW238793   0.263   3.976   3.836 -0.7025 -0.0365  0.3532
 9054SOL     OW38794   4.032   0.949  10.421  0.1010  0.5029  0.6076
 9054SOL    HW138795   3.957   0.997  10.386  0.4901  0.3125 -0.4984
 9054SOL    HW238796   4.020   0.966  10.514 -0.1084 -0.8619  0.8364
 9055SOL     OW38797   2.334   1.236   2.295  0.0642 -0.4304  0.3947
 9055SOL    HW138798   2.284   1.246   2.214 -0.3470  1.6744  0.9108
 9055SOL    HW238799   2.298   1.154   2.327  0.5923 -0.8655 -0.1316
 9056SOL     OW38800   0.788   2.435  13.836  0.0455  0.5991  0.5504
 9056SOL    HW138801   0.718   2.427  13.771 -1.4138 -0.9888  2.3147
 9056SOL    HW238802   0.759   2.368  13.898  0.4857 -0.8530 -0.8194
 9057SOL     OW38803   2.003   2.329   4.261 -0.0588  0.0852 -0.2335
 9057SOL    HW138804   1.946   2.292   4.194 -0.0781 -0.5182  0.1227
 9057SOL    HW238805   1.966   2.310   4.347  0.9646 -0.0042  0.1835
 9058SOL     OW38806   2.573   4.376   8.429 -0.2879  0.0719  0.2561
 9058SOL    HW138807   2.550   4.308   8.366  0.9257  0.3505 -0.4912
 9058SOL    HW238808   2.541   4.331   8.508 -0.0162  2.5076  1.7695
 9059SOL     OW38809   4.625   0.911   1.118 -0.3519 -0.3220 -0.6542
 9059SOL    HW138810   4.579   0.934   1.037 -2.0490  1.5784  0.8399
 9059SOL    HW238811   4.544   0.888   1.165  0.1657 -0.3863  0.2155
 9060SOL     OW38812   0.035   2.415   8.360  0.0618 -0.4767  0.1837
 9060SOL    HW138813   4.692   2.365   8.378 -0.1747 -0.2352 -0.1718
 9060SOL    HW238814   0.101   2.366   8.408 -0.4112  0.6516  1.9998
 9061SOL     OW38815   3.505   4.424   0.988  0.3449  0.1497  0.2223
 9061SOL    HW138816   3.499   4.421   0.893 -0.7323 -2.7646  0.3748
 9061SOL    HW238817   3.413   4.438   1.008  0.5952 -1.3524  2.5324
 9062SOL     OW38818   4.173   2.861   1.872  0.1959 -0.0887 -0.0479
 9062SOL    HW138819   4.081   2.857   1.896 -0.2824  3.5684 -1.1587
 9062SOL    HW238820   4.194   2.768   1.883  4.1327  1.0895  2.5159
 9063SOL     OW38821   1.007   3.094   6.032 -0.7598 -0.0083 -0.3019
 9063SOL    HW138822   0.971   3.140   5.956  0.3395 -1.2228 -1.5475
 9063SOL    HW238823   0.928   3.083   6.085 -0.0111 -1.8644  0.4078
 9064SOL     OW38824   4.183   1.415   8.219  0.4096  0.1604 -0.1612
 9064SOL    HW138825   4.133   1.450   8.145 -0.6806 -2.0465 -0.4640
 9064SOL    HW238826   4.252   1.481   8.229  0.4488 -0.2697  2.4104
 9065SOL     OW38827   2.744   2.766   4.358 -0.5279  0.4249  0.0095
 9065SOL    HW138828   2.830   2.730   4.378 -0.9021 -0.4589  0.0505
 9065SOL    HW238829   2.770   2.815   4.281 -1.4718 -0.0110 -0.5965
 9066SOL     OW38830   1.335   1.531   9.606  0.1176  0.0827 -0.0552
 9066SOL    HW138831   1.264   1.584   9.569  0.3794 -1.5953 -2.9495
 9066SOL    HW238832   1.403   1.598   9.617  0.3717  0.0156 -1.1835
 9067SOL     OW38833   0.037   4.603   1.983 -0.2518 -0.5054 -0.0685
 9067SOL    HW138834   4.714   4.594   2.058  0.9664 -0.4410  0.9087
 9067SOL    HW238835   4.705   4.629   1.922  0.2211  1.2794  0.1378
 9068SOL     OW38836   0.614   3.232   8.964 -0.1459  0.0606  0.5476
 9068SOL    HW138837   0.554   3.253   8.892  1.0249 -2.4055 -1.1350
 9068SOL    HW238838   0.680   3.178   8.920  1.5353  2.2460  0.3354
 9069SOL     OW38839   3.026   3.074  13.713 -0.3834 -0.2190  0.3748
 9069SOL    HW138840   3.091   3.081  13.644  0.1747  0.5615  0.9772
 9069SOL    HW238841   2.965   3.010  13.677 -1.2524 -0.3576  2.0551
 9070SOL     OW38842   2.602   4.398  15.396  0.6627 -0.3448 -0.1382
 9070SOL    HW138843   2.646   4.313  15.395 -1.0294 -1.2095 -1.0869
 9070SOL    HW238844   2.579   4.402  15.489 -0.8032  3.3376 -0.6661
 9071SOL     OW38845   2.889   0.447   2.771  1.0061  0.2940  0.6642
 9071SOL    HW138846   2.901   0.520   2.710  1.7334 -0.5308 -0.1735
 9071SOL    HW238847   2.808   0.481   2.810  1.3107  1.8320 -0.0594
 9072SOL     OW38848   3.940   0.550   4.050  0.4062 -0.1854  0.1034
 9072SOL    HW138849   3.899   0.572   3.966  0.4013  0.3443  0.2422
 9072SOL    HW238850   4.005   0.620   4.056  0.6643 -0.5101  1.0452
 9073SOL     OW38851   2.702   3.055  15.763  0.2398 -0.4522  0.5633
 9073SOL    HW138852   2.664   2.969  15.781 -2.4169  0.7767  0.8771
 9073SOL    HW238853   2.620   3.104  15.757 -0.0555 -0.9199  0.7724
 9074SOL     OW38854   0.213   3.279   6.283 -0.8370 -0.1755  0.1529
 9074SOL    HW138855   0.231   3.358   6.335 -0.0714  0.6164 -1.3286
 9074SOL    HW238856   0.169   3.224   6.347  0.4583 -1.3362  0.0399
 9075SOL     OW38857   2.856   0.236   2.586  0.4255  0.1382 -0.0612
 9075SOL    HW138858   2.837   0.286   2.665 -1.3283 -1.0778  0.3001
 9075SOL    HW238859   2.806   0.286   2.522  1.2023 -0.5968 -1.2479
 9076SOL     OW38860   0.091   3.393  17.255 -0.6830  0.0172  0.6801
 9076SOL    HW138861   4.733   3.379  17.249 -0.3689 -1.6937 -0.1997
 9076SOL    HW238862   0.117   3.362  17.342 -2.9638 -0.4873  1.1840
 9077SOL     OW38863   3.617   3.634   8.347 -0.1996 -0.3115 -0.3507
 9077SOL    HW138864   3.550   3.609   8.410 -0.5144 -0.9006 -0.9246
 9077SOL    HW238865   3.597   3.726   8.328 -0.3054 -0.1453  0.5616
 9078SOL     OW38866   3.901   3.678  13.057  0.3807 -0.2475  0.1200
 9078SOL    HW138867   3.929   3.766  13.034  3.2442 -1.4509 -1.0701
 9078SOL    HW238868   3.826   3.693  13.114  1.0852 -0.1933  1.0334
 9079SOL     OW38869   3.034   0.008   4.243 -0.1412 -0.7822 -0.3925
 9079SOL    HW138870   3.046   0.097   4.277 -0.2532 -1.1608  0.6546
 9079SOL    HW238871   2.959   4.723   4.298  2.0110  0.6802  3.1594
 9080SOL     OW38872   0.070   3.920  10.171 -0.2348  0.2387 -0.0441
 9080SOL    HW138873   0.089   3.997  10.117 -0.1289  0.2392 -0.0047
 9080SOL    HW238874   0.055   3.959  10.257  1.7233  0.0405  0.3725
 9081SOL     OW38875   0.724   0.098  15.140  0.3581  0.3199 -0.3815
 9081SOL    HW138876   0.793   0.034  15.124 -0.4357 -0.6020 -0.1418
 9081SOL    HW238877   0.756   0.178  15.099 -0.3162  0.1610 -1.2100
 9082SOL     OW38878   1.227   3.311  12.301 -0.1001  0.3311  0.0683
 9082SOL    HW138879   1.207   3.218  12.304 -1.8836  0.7459  1.0152
 9082SOL    HW238880   1.300   3.323  12.362  1.6850 -1.7477 -1.6731
 9083SOL     OW38881   2.114   2.365  16.166  0.1263 -0.5137  0.0819
 9083SOL    HW138882   2.077   2.338  16.250  1.0843 -1.8840  0.0672
 9083SOL    HW238883   2.071   2.449  16.153 -1.4583 -1.2064  0.8673
 9084SOL     OW38884   0.745   4.504  17.228  0.2136 -0.2247 -0.1921
 9084SOL    HW138885   0.763   4.507  17.134  0.4004  0.2978 -0.1402
 9084SOL    HW238886   0.779   4.589  17.258 -1.2957  0.6921 -1.0538
 9085SOL     OW38887   2.844   4.039   1.780 -0.2079  0.5883 -0.5873
 9085SOL    HW138888   2.937   4.057   1.771 -0.3048  0.6500 -1.4597
 9085SOL    HW238889   2.844   3.945   1.760 -3.8701  0.6788 -1.1499
 9086SOL     OW38890   4.198   0.094   9.255 -0.1524 -0.2160  0.6870
 9086SOL    HW138891   4.278   0.142   9.277 -0.6073  1.1603 -0.7302
 9086SOL    HW238892   4.173   0.079   9.347  1.1158 -0.8642  0.9308
 9087SOL     OW38893   2.973   2.892   6.175 -0.0972 -0.1626 -0.0751
 9087SOL    HW138894   3.060   2.866   6.144 -0.0392 -0.4676  0.3463
 9087SOL    HW238895   3.009   2.964   6.227  0.0510 -0.2170 -0.1016
 9088SOL     OW38896   2.363   1.372   3.598  0.0411 -0.3494 -0.3555
 9088SOL    HW138897   2.388   1.320   3.521  0.7218 -0.5578  0.0073
 9088SOL    HW238898   2.268   1.381   3.587 -0.0498  0.1930  0.8558
 9089SOL     OW38899   1.944   2.325  14.472 -0.0639  0.1875  0.1101
 9089SOL    HW138900   1.883   2.253  14.490 -1.6791  1.5385  0.0856
 9089SOL    HW238901   1.882   2.393  14.444  1.3288  1.3679 -0.1157
 9090SOL     OW38902   0.472   0.752   7.965 -0.3619  0.0571  0.2004
 9090SOL    HW138903   0.564   0.758   7.991 -0.0543  0.0311 -0.8839
 9090SOL    HW238904   0.429   0.727   8.047 -1.3582 -1.2677 -0.7248
 9091SOL     OW38905   1.412   4.541  14.960 -0.0331 -0.1405 -0.2669
 9091SOL    HW138906   1.331   4.494  14.940 -0.5991  0.9195 -0.4875
 9091SOL    HW238907   1.419   4.595  14.881  2.7883  2.0762  1.5111
 9092SOL     OW38908   1.207   0.038  13.721 -0.1672  0.4421 -0.6632
 9092SOL    HW138909   1.189   0.128  13.693  0.7827  0.8331 -0.0139
 9092SOL    HW238910   1.281   0.044  13.782 -0.6786 -0.2089  0.0272
 9093SOL     OW38911   3.445   4.402   2.897 -0.5963  0.5002  0.1455
 9093SOL    HW138912   3.372   4.346   2.924  0.3553 -1.3535 -1.1482
 9093SOL    HW238913   3.426   4.483   2.946 -0.2072  0.4322  0.4123
 9094SOL     OW38914   3.551   1.722   2.772  0.2603  0.1355 -0.4349
 9094SOL    HW138915   3.470   1.762   2.740 -0.5923 -0.2470  1.2020
 9094SOL    HW238916   3.570   1.789   2.839 -1.1798  0.4118 -0.2923
 9095SOL     OW38917   1.795   1.742   6.974  0.1417 -0.4740 -0.5691
 9095SOL    HW138918   1.863   1.697   7.023  1.6527  1.6123 -0.7796
 9095SOL    HW238919   1.719   1.703   7.018  1.0907 -1.9374 -0.2289
 9096SOL     OW38920   4.192   4.344   1.739  0.3849  0.1380  0.0350
 9096SOL    HW138921   4.129   4.416   1.743  0.1869 -0.2377  4.0487
 9096SOL    HW238922   4.256   4.378   1.677  0.2701 -0.7457 -0.5725
 9097SOL     OW38923   2.003   1.675  17.158  0.4820 -0.3005 -0.0937
 9097SOL    HW138924   1.992   1.582  17.176 -0.3917  0.1232  1.5751
 9097SOL    HW238925   2.047   1.704  17.239  0.8090 -0.0288 -0.3656
 9098SOL     OW38926   3.218   0.131   8.393  0.5882  0.2770 -0.1619
 9098SOL    HW138927   3.306   0.100   8.413  0.3147 -0.8637 -0.7537
 9098SOL    HW238928   3.173   0.126   8.478  0.1546  0.7511 -0.3585
 9099SOL     OW38929   1.682   2.043   1.918  0.0176  0.5014  0.6515
 9099SOL    HW138930   1.608   1.989   1.891 -0.3281  0.4643  1.6822
 9099SOL    HW238931   1.629   2.090   1.982 -0.0699 -0.7285  1.4895
 9100SOL     OW38932   2.234   4.291   1.678  0.5430 -0.1462  0.1002
 9100SOL    HW138933   2.240   4.230   1.605  0.1680  0.4135 -0.4006
 9100SOL    HW238934   2.180   4.233   1.731  0.2347  0.3796  0.3578
 9101SOL     OW38935   3.696   3.236   2.179 -0.0017 -0.9215  0.7697
 9101SOL    HW138936   3.656   3.284   2.107  0.6542  0.1332  1.0954
 9101SOL    HW238937   3.786   3.224   2.149 -0.4602  0.9253 -1.3768
 9102SOL     OW38938   3.334   0.744   7.943  0.0290  0.2411  0.4881
 9102SOL    HW138939   3.397   0.729   7.873 -0.7804  0.8311 -0.3647
 9102SOL    HW238940   3.350   0.666   7.996 -1.4204 -0.6071 -0.3329
 9103SOL     OW38941   2.738   4.257  16.465 -0.0004 -0.6639  0.1912
 9103SOL    HW138942   2.710   4.310  16.391  1.9954  2.1615  1.4808
 9103SOL    HW238943   2.744   4.170  16.424 -0.4422 -0.7168  0.2375
 9104SOL     OW38944   2.567   2.404   6.684 -0.4099 -0.2705  0.0285
 9104SOL    HW138945   2.608   2.318   6.684 -0.9601 -0.5337  0.2997
 9104SOL    HW238946   2.611   2.441   6.761  0.4219 -1.4021  0.0882
 9105SOL     OW38947   1.616   0.083   5.478  0.2227  0.5844  0.3011
 9105SOL    HW138948   1.705   0.092   5.513  0.8530  0.1150 -1.1841
 9105SOL    HW238949   1.630   0.051   5.389 -0.0664  0.0723  0.4399
 9106SOL     OW38950   3.662   3.183  14.549 -0.0255  0.1246 -0.2705
 9106SOL    HW138951   3.569   3.206  14.554 -0.3456 -0.7083 -2.4746
 9106SOL    HW238952   3.677   3.154  14.639  1.7891  2.6729  0.2377
 9107SOL     OW38953   3.113   3.697   3.210  0.0342 -0.0027  0.3743
 9107SOL    HW138954   3.066   3.672   3.290  0.4492  0.9719  0.9232
 9107SOL    HW238955   3.205   3.682   3.229  0.4794 -0.2935 -2.0524
 9108SOL     OW38956   3.006   4.500   5.255 -0.2881 -0.1121 -0.6300
 9108SOL    HW138957   2.998   4.581   5.204 -1.0130 -1.1667 -2.1626
 9108SOL    HW238958   2.916   4.468   5.256  0.5220 -2.2938  1.5854
 9109SOL     OW38959   3.058   2.078   2.227 -0.4737 -0.7467  0.5892
 9109SOL    HW138960   3.140   2.049   2.269 -0.4229 -1.0176  0.2982
 9109SOL    HW238961   3.019   1.996   2.199  0.0702 -0.9775  0.5072
 9110SOL     OW38962   2.856   1.555   0.593  0.3125  0.4294 -0.1234
 9110SOL    HW138963   2.789   1.512   0.539  0.5571 -0.4434  0.2661
 9110SOL    HW238964   2.922   1.489   0.570  1.8799  2.4795 -1.4548
 9111SOL     OW38965   0.154   2.899   0.378  0.0264  0.0700 -0.0528
 9111SOL    HW138966   0.196   2.985   0.369  1.7017 -1.0925 -3.3683
 9111SOL    HW238967   0.223   2.833   0.380  0.8595  0.9167 -0.7400
 9112SOL     OW38968   3.412   0.529   8.620 -0.3124 -0.1148  0.1269
 9112SOL    HW138969   3.396   0.586   8.695  0.6552  0.1681  0.1171
 9112SOL    HW238970   3.508   0.520   8.620 -0.3407 -0.2795 -2.0885
 9113SOL     OW38971   4.101   0.864   1.614  0.0232 -0.2744  0.0731
 9113SOL    HW138972   4.167   0.908   1.668 -0.5373 -0.9863  1.3524
 9113SOL    HW238973   4.031   0.928   1.618  0.0713 -0.2936  1.2869
 9114SOL     OW38974   0.877   0.011   9.239 -0.4675  0.0299  0.1584
 9114SOL    HW138975   0.862   0.102   9.264  0.4983 -0.3159  1.9371
 9114SOL    HW238976   0.904   4.716   9.325  2.6010 -1.2761 -1.2813
 9115SOL     OW38977   0.216   3.379   0.322  0.0146 -0.4587 -0.1239
 9115SOL    HW138978   0.134   3.405   0.363 -0.5879 -1.8672 -0.4244
 9115SOL    HW238979   0.231   3.457   0.269 -0.6353  0.0361  0.4278
 9116SOL     OW38980   4.183   0.383   8.376 -0.0470  0.4035 -0.2136
 9116SOL    HW138981   4.188   0.428   8.291 -0.4578 -0.8196 -0.8952
 9116SOL    HW238982   4.126   0.308   8.359  0.2265  0.1727 -0.1170
 9117SOL     OW38983   3.731   3.817  15.525  0.5350  0.3123 -0.4616
 9117SOL    HW138984   3.727   3.874  15.602 -1.2270  2.5967 -2.2432
 9117SOL    HW238985   3.660   3.856  15.474  0.0422 -0.9206 -0.7065
 9118SOL     OW38986   2.534   1.272   7.170  0.1877  0.0596  0.0305
 9118SOL    HW138987   2.520   1.225   7.088  1.7752  0.7883 -0.6624
 9118SOL    HW238988   2.512   1.363   7.150 -1.1153 -0.6171 -1.5573
 9119SOL     OW38989   1.848   0.192   3.465  0.1136  0.2333 -0.1624
 9119SOL    HW138990   1.930   0.169   3.510  1.2667  2.0593 -1.3606
 9119SOL    HW238991   1.805   0.108   3.447 -0.4395  0.3066  0.8159
 9120SOL     OW38992   3.406   2.436   9.564  0.2768 -0.0016  0.0911
 9120SOL    HW138993   3.487   2.472   9.600  1.4230 -2.8521  0.3068
 9120SOL    HW238994   3.454   2.356   9.545  2.3594  0.9200  1.4880
 9121SOL     OW38995   3.083   2.138   4.501 -0.1500 -0.3032 -0.4430
 9121SOL    HW138996   3.105   2.046   4.491 -1.2414 -0.5150 -0.9611
 9121SOL    HW238997   3.141   2.157   4.575  1.0231 -1.3361 -1.1046
 9122SOL     OW38998   3.272   1.074   1.389  0.2299  0.2550  0.1120
 9122SOL    HW138999   3.330   1.144   1.420 -1.1529  1.0530  0.8859
 9122SOL    HW239000   3.305   0.996   1.435  2.3403  1.6920  1.0665
 9123SOL     OW39001   2.216   4.186   2.340  0.0612 -0.2074  0.2678
 9123SOL    HW139002   2.284   4.135   2.295  1.9206  1.8994  0.7167
 9123SOL    HW239003   2.224   4.267   2.291 -2.1549  0.1461  0.4948
 9124SOL     OW39004   1.316   0.342   1.110  0.1427  0.0719  0.2322
 9124SOL    HW139005   1.403   0.344   1.150 -0.1269  2.5321  0.7549
 9124SOL    HW239006   1.283   0.428   1.139  1.9278  0.9105 -0.2192
 9125SOL     OW39007   2.624   3.452   1.770 -0.0399 -0.0799 -0.0483
 9125SOL    HW139008   2.574   3.379   1.732 -2.2142  0.5832  1.5291
 9125SOL    HW239009   2.574   3.469   1.850  1.0481 -1.5111  0.9206
 9126SOL     OW39010   2.674   2.201   5.547 -0.2922  0.1325  0.7173
 9126SOL    HW139011   2.763   2.190   5.513 -0.9899 -0.0279 -1.0633
 9126SOL    HW239012   2.623   2.185   5.468 -0.2803  0.0411  0.7285
 9127SOL     OW39013   2.869   2.759   9.925  0.2762  0.1813  0.1679
 9127SOL    HW139014   2.904   2.845   9.948  0.7094  0.6398 -2.1493
 9127SOL    HW239015   2.779   2.763   9.956 -0.9448 -1.5209 -3.1844
 9128SOL     OW39016   1.243   4.094   6.000 -0.0502  0.2621  0.0033
 9128SOL    HW139017   1.255   4.054   5.913 -3.5119  1.1886 -0.9193
 9128SOL    HW239018   1.301   4.169   5.985 -0.4089  0.0454 -2.4295
 9129SOL     OW39019   0.966   3.598   9.826 -0.6564 -0.4293  0.0190
 9129SOL    HW139020   1.004   3.682   9.853  0.8247 -1.8747  2.3896
 9129SOL    HW239021   1.037   3.542   9.856 -2.0008 -1.3255  1.4958
 9130SOL     OW39022   0.662   0.640   9.082 -0.3850 -0.4335 -0.2722
 9130SOL    HW139023   0.754   0.667   9.085  0.1211 -2.1756 -0.6676
 9130SOL    HW239024   0.661   0.558   9.132  1.7725  0.1254  0.7028
 9131SOL     OW39025   4.620   3.633  11.208  0.1287 -0.3422  0.1911
 9131SOL    HW139026   4.548   3.695  11.222  0.4931  0.5495 -1.8355
 9131SOL    HW239027   4.577   3.548  11.209  1.0180 -0.7904  0.7467
 9132SOL     OW39028   0.341   1.228   7.713 -0.1120 -0.2146 -0.2927
 9132SOL    HW139029   0.305   1.315   7.730 -0.8007 -0.9893  2.1849
 9132SOL    HW239030   0.302   1.181   7.787 -3.0516  0.9120 -1.1090
 9133SOL     OW39031   2.470   1.071   6.367 -0.3060 -0.1088  0.6414
 9133SOL    HW139032   2.493   1.082   6.460 -0.2072  0.2919  0.5701
 9133SOL    HW239033   2.439   1.158   6.340 -1.3871 -0.5068  0.6045
 9134SOL     OW39034   0.439   0.809   9.839 -0.3061  0.1367  0.1052
 9134SOL    HW139035   0.424   0.780   9.929  1.5725 -0.0447  0.3576
 9134SOL    HW239036   0.474   0.730   9.799 -0.8088  1.2353 -2.4778
 9135SOL     OW39037   0.977   1.505   2.486  0.4441  0.1086  0.4067
 9135SOL    HW139038   1.043   1.458   2.436  0.3099  0.6189 -0.2554
 9135SOL    HW239039   0.991   1.589   2.443  1.7804  0.1199  0.8495
 9136SOL     OW39040   2.050   3.742  16.647  0.4668 -0.0436 -0.2275
 9136SOL    HW139041   2.010   3.828  16.633  2.1997  0.7075 -0.5294
 9136SOL    HW239042   2.035   3.730  16.741 -1.6224  1.5687 -0.3323
 9137SOL     OW39043   4.051   4.394  17.203 -0.2150  0.6050  0.0734
 9137SOL    HW139044   3.983   4.416  17.140  2.1601  1.3883 -2.2226
 9137SOL    HW239045   4.089   4.482  17.208 -0.4206  0.5476  2.7534
 9138SOL     OW39046   1.814   3.990   2.931 -0.1705 -0.1944 -0.7280
 9138SOL    HW139047   1.861   3.906   2.923 -2.3821 -1.4643 -0.3640
 9138SOL    HW239048   1.727   3.962   2.958 -0.8442  1.5197 -1.1235
 9139SOL     OW39049   3.800   3.772   4.977 -0.3197  0.1280 -0.6061
 9139SOL    HW139050   3.795   3.858   4.936 -0.9649 -0.0328 -0.8642
 9139SOL    HW239051   3.780   3.717   4.901  0.2500 -1.6583  0.5314
 9140SOL     OW39052   0.496   0.625   9.508 -0.2408 -0.1136 -0.0118
 9140SOL    HW139053   0.436   0.642   9.436  0.9184 -0.3871 -1.0360
 9140SOL    HW239054   0.574   0.675   9.485  0.1251 -0.7478 -0.1601
 9141SOL     OW39055   2.707   4.213   5.112 -0.3201  0.1175 -0.0652
 9141SOL    HW139056   2.698   4.307   5.121  0.4485  0.4346 -2.4555
 9141SOL    HW239057   2.801   4.206   5.124 -0.5894  0.1716  1.9788
 9142SOL     OW39058   3.007   3.340   8.252  0.0810 -0.2330 -0.2524
 9142SOL    HW139059   2.978   3.358   8.341 -0.8202 -2.2890 -0.1314
 9142SOL    HW239060   2.934   3.352   8.191  0.4539  0.7021 -0.5186
 9143SOL     OW39061   4.459   1.718   3.868  0.5043 -1.0056  0.1876
 9143SOL    HW139062   4.478   1.799   3.916 -1.2090 -0.7521  0.4323
 9143SOL    HW239063   4.549   1.691   3.849  1.3572  0.4037  2.1877
 9144SOL     OW39064   3.316   1.048   8.009  0.2777 -0.2706 -0.1656
 9144SOL    HW139065   3.288   0.962   7.977 -1.3684 -0.0292  0.6065
 9144SOL    HW239066   3.366   1.080   7.934  3.3699 -2.4450  0.9970
 9145SOL     OW39067   3.828   0.048   1.270 -0.3087 -0.2380  0.5132
 9145SOL    HW139068   3.856   0.140   1.272 -0.7260 -0.1434  1.7687
 9145SOL    HW239069   3.774   0.055   1.192 -1.5416  1.8398  1.5425
 9146SOL     OW39070   1.528   0.850  14.834  0.3144 -0.5480 -0.4606
 9146SOL    HW139071   1.507   0.834  14.742  0.8644  2.1997 -1.0669
 9146SOL    HW239072   1.614   0.892  14.836 -1.0859  2.3656  0.1209
 9147SOL     OW39073   2.165   0.862   8.340  0.3310  0.4143  0.3416
 9147SOL    HW139074   2.214   0.784   8.367  1.3267  0.5292 -1.1754
 9147SOL    HW239075   2.208   0.931   8.391  1.4773  0.1096 -0.2148
 9148SOL     OW39076   3.535   4.482   0.397 -0.4674 -0.1977 -0.2283
 9148SOL    HW139077   3.578   4.399   0.377  3.1324  1.0461  2.3718
 9148SOL    HW239078   3.449   4.464   0.360 -0.3590  0.2186 -0.6827
 9149SOL     OW39079   2.545   3.994   3.431  0.1393  0.0558 -0.2976
 9149SOL    HW139080   2.487   3.930   3.392 -0.1163  0.4664 -0.5949
 9149SOL    HW239081   2.487   4.066   3.408 -2.0549 -0.6529  3.1203
 9150SOL     OW39082   0.925   2.002   0.760  0.3795 -0.1324 -0.0306
 9150SOL    HW139083   0.856   2.041   0.706 -0.9742 -0.6122  1.3650
 9150SOL    HW239084   0.953   2.082   0.806  0.8806  0.4513 -1.3438
 9151SOL     OW39085   3.085   1.332   3.734 -0.0442  0.1524 -0.3994
 9151SOL    HW139086   3.125   1.417   3.748  0.8231 -0.5789  1.5938
 9151SOL    HW239087   3.015   1.336   3.800  0.4136  0.2163  0.0804
 9152SOL     OW39088   0.116   0.244  15.665 -0.5764 -0.3399 -0.5733
 9152SOL    HW139089   0.110   0.339  15.670  2.9302 -0.0693 -1.7273
 9152SOL    HW239090   0.050   0.217  15.728 -0.3784  1.8893  0.5805
 9153SOL     OW39091   4.637   3.351   7.994  0.0311  0.1095 -0.3589
 9153SOL    HW139092   4.727   3.378   7.974  0.2148 -0.6624 -0.5754
 9153SOL    HW239093   4.645   3.322   8.085 -1.1691  0.0409 -0.2741
 9154SOL     OW39094   0.349   2.224   6.971 -0.3212  0.0961 -0.3169
 9154SOL    HW139095   0.433   2.253   7.008  1.8237 -1.4119 -4.0445
 9154SOL    HW239096   0.330   2.304   6.923 -1.2666  0.9271  1.4368
 9155SOL     OW39097   2.937   2.075  16.410 -0.0325  0.4045 -0.2628
 9155SOL    HW139098   2.921   1.981  16.408  0.9958  0.2450 -0.8042
 9155SOL    HW239099   2.852   2.118  16.400 -0.5950 -0.4108  1.0764
 9156SOL     OW39100   4.491   4.285   4.203 -0.2371  0.2263  0.6138
 9156SOL    HW139101   4.449   4.327   4.278  1.3993  1.8142  0.6238
 9156SOL    HW239102   4.424   4.296   4.136 -0.1626 -1.7903  0.1902
 9157SOL     OW39103   1.441   1.002   9.998 -0.3096  0.0736 -0.3001
 9157SOL    HW139104   1.416   1.010  10.090  1.9063  0.2634  0.2849
 9157SOL    HW239105   1.429   0.909   9.978  1.2722 -0.8198  2.7491
 9158SOL     OW39106   2.733   2.081   1.290  0.4397  0.7822 -0.3000
 9158SOL    HW139107   2.677   2.151   1.323  0.5613  1.2245 -1.0219
 9158SOL    HW239108   2.793   2.144   1.250 -1.0558  2.1384 -0.4161
 9159SOL     OW39109   3.507   0.494   2.753  0.6601  0.3001  0.5045
 9159SOL    HW139110   3.580   0.439   2.723  0.5903 -0.8685  2.4357
 9159SOL    HW239111   3.437   0.429   2.746 -0.5022  1.5097  0.8908
 9160SOL     OW39112   0.028   4.601   5.037  0.0491 -0.1880  0.0991
 9160SOL    HW139113   0.100   4.554   5.080  0.7498 -0.8658 -1.7958
 9160SOL    HW239114   0.057   4.691   5.052 -0.0152  0.1205 -1.6881
 9161SOL     OW39115   4.569   3.244   3.475  0.2035 -0.2450 -0.4075
 9161SOL    HW139116   4.643   3.256   3.534 -0.7200  0.3240  0.6301
 9161SOL    HW239117   4.526   3.324   3.507 -0.4676 -0.2651 -1.2568
 9162SOL     OW39118   1.416   4.040   4.050  0.2935  0.2201 -0.7386
 9162SOL    HW139119   1.507   4.011   4.062 -1.4185 -5.1672 -0.6012
 9162SOL    HW239120   1.424   4.088   3.967  2.0389 -0.4746 -0.9745
 9163SOL     OW39121   1.564   3.338   3.524  0.5094 -0.0414 -0.3756
 9163SOL    HW139122   1.632   3.271   3.532  0.7925  0.1387 -1.2269
 9163SOL    HW239123   1.491   3.284   3.551 -1.9982  2.8514 -1.3851
 9164SOL     OW39124   1.329   0.546   4.300 -0.6788  0.1598 -0.3501
 9164SOL    HW139125   1.277   0.611   4.349  0.7350  0.3403  0.8984
 9164SOL    HW239126   1.334   0.478   4.367 -0.3751  2.5839  2.1226
 9165SOL     OW39127   0.506   0.092  13.806  0.7354 -0.2042  0.1801
 9165SOL    HW139128   0.572   0.091  13.737  0.0787  0.5045 -0.4625
 9165SOL    HW239129   0.425   0.122  13.763  0.3351  2.5637  2.8763
 9166SOL     OW39130   1.350   4.024   3.004  0.1590 -0.9350  0.0109
 9166SOL    HW139131   1.318   4.080   2.934 -0.2261  2.4991  2.9064
 9166SOL    HW239132   1.440   3.996   2.985 -0.6199 -1.8651 -2.2630
 9167SOL     OW39133   0.009   4.725   5.381 -0.3422 -0.4353 -0.2479
 9167SOL    HW139134   4.667   4.698   5.334 -0.5413 -0.8296  0.3077
 9167SOL    HW239135   0.038   0.063   5.330 -0.5690 -0.5033 -0.4765
 9168SOL     OW39136   1.009   4.624   4.644 -0.2842  0.1228 -0.0035
 9168SOL    HW139137   1.055   4.665   4.717 -0.6509 -1.3192  1.0509
 9168SOL    HW239138   0.988   4.706   4.600  0.3669 -0.2343 -0.9640
 9169SOL     OW39139   0.454   4.195   6.553  0.7100 -0.4584 -0.6993
 9169SOL    HW139140   0.442   4.178   6.646  1.4632 -0.0128 -0.5172
 9169SOL    HW239141   0.377   4.148   6.519  0.7918 -2.1527  1.5023
 9170SOL     OW39142   0.770   3.539  15.415  0.1059  0.3355  0.1883
 9170SOL    HW139143   0.772   3.480  15.490  1.6262  1.4196  1.0042
 9170SOL    HW239144   0.844   3.598  15.428  0.3964  0.6048 -2.6519
 9171SOL     OW39145   1.623   0.254   7.035  0.2472 -0.3410  0.1581
 9171SOL    HW139146   1.639   0.207   7.117  2.7688 -0.9075 -0.6618
 9171SOL    HW239147   1.543   0.220   6.996  1.3140 -1.6852 -0.8267
 9172SOL     OW39148   1.419   4.669   2.288 -0.0044  0.0782 -0.4637
 9172SOL    HW139149   1.414   4.641   2.197  1.4997  1.1217 -0.8531
 9172SOL    HW239150   1.489   4.734   2.285 -0.2477  0.2781 -1.5840
 9173SOL     OW39151   2.548   2.783   2.844  0.4354  0.5665 -0.2393
 9173SOL    HW139152   2.466   2.735   2.835  1.2998 -0.8023 -1.0358
 9173SOL    HW239153   2.579   2.758   2.931  0.6464  0.2905 -0.3901
 9174SOL     OW39154   3.462   4.733   1.062 -0.4336  0.0148  0.3254
 9174SOL    HW139155   3.382   0.020   1.109 -0.4904 -1.7674  1.1283
 9174SOL    HW239156   3.421   4.685   0.990  0.1611 -0.1501  0.1003
 9175SOL     OW39157   2.549   3.685   2.818  0.1505  0.0131 -0.5610
 9175SOL    HW139158   2.509   3.667   2.733 -1.4739  0.2822  0.1400
 9175SOL    HW239159   2.545   3.595   2.850 -0.4799 -0.2398 -1.3473
 9176SOL     OW39160   4.004   3.198   3.198  0.3893  0.6937  0.1181
 9176SOL    HW139161   3.946   3.169   3.128 -1.0115  0.8875  1.2098
 9176SOL    HW239162   4.078   3.144   3.169  0.0228  0.1640  0.1664
 9177SOL     OW39163   4.618   3.068   7.786  0.0852  0.0920 -0.4322
 9177SOL    HW139164   4.652   3.151   7.822  1.6861 -0.4678 -0.6479
 9177SOL    HW239165   4.549   3.058   7.851  0.5870  3.2143  0.5928
 9178SOL     OW39166   4.440   4.125   8.566 -0.4238  0.0088  0.0099
 9178SOL    HW139167   4.373   4.114   8.498  0.8788 -1.5217 -1.0419
 9178SOL    HW239168   4.510   4.157   8.509  0.8320 -1.3920  0.7597
 9179SOL     OW39169   4.078   2.415   1.448 -0.4246 -0.0152  0.2171
 9179SOL    HW139170   4.008   2.366   1.405 -0.0812  0.0075 -0.3662
 9179SOL    HW239171   4.026   2.467   1.509 -0.8229 -0.4197  0.2262
 9180SOL     OW39172   4.644   3.278   2.431 -0.6645 -0.0724 -0.2009
 9180SOL    HW139173   4.722   3.310   2.478 -0.9363  1.7023 -0.9639
 9180SOL    HW239174   4.585   3.351   2.445  0.0562  0.3066  0.8669
 9181SOL     OW39175   1.869   3.635   3.421 -0.0523  0.2686  0.0699
 9181SOL    HW139176   1.833   3.702   3.479 -0.0969 -0.3302  0.7293
 9181SOL    HW239177   1.940   3.599   3.475  1.5306 -1.2681 -3.0307
 9182SOL     OW39178   0.101   3.542   5.241 -0.2201 -0.0068 -0.1922
 9182SOL    HW139179   0.042   3.591   5.298  0.4976  0.8638 -0.2032
 9182SOL    HW239180   0.171   3.515   5.300 -0.4068 -0.1429 -0.0332
 9183SOL     OW39181   2.126   3.990   0.855 -0.4028  0.2446  0.7981
 9183SOL    HW139182   2.204   4.008   0.907 -0.6377  0.6375  1.0092
 9183SOL    HW239183   2.048   4.035   0.888  0.7578  2.2678  0.7054
 9184SOL     OW39184   0.853   1.516  14.985 -0.3006 -0.3944 -0.3988
 9184SOL    HW139185   0.812   1.476  15.062 -1.3448  1.8636  0.2079
 9184SOL    HW239186   0.946   1.495  14.996 -0.4351  0.6305  2.6019
 9185SOL     OW39187   0.608   0.566  11.211 -0.4906 -0.0081  0.7598
 9185SOL    HW139188   0.659   0.534  11.285 -2.0423  1.4306  2.4329
 9185SOL    HW239189   0.659   0.643  11.185 -0.4765 -0.2410  0.1044
 9186SOL     OW39190   3.532   0.287   5.081  0.1540  0.4422  0.1222
 9186SOL    HW139191   3.613   0.237   5.095  0.1468 -0.4142 -2.8897
 9186SOL    HW239192   3.489   0.242   5.008 -1.3663  2.5742 -0.2823
 9187SOL     OW39193   0.013   1.431   3.020 -0.0376 -0.0179 -0.3192
 9187SOL    HW139194   4.733   1.373   2.946  0.2752  2.0522 -2.0046
 9187SOL    HW239195   0.068   1.380   3.080  0.9447  2.1020  0.5983
 9188SOL     OW39196   2.800   4.373  13.113  0.6635  0.1105  0.3490
 9188SOL    HW139197   2.836   4.456  13.081  1.3311  0.3441  1.7311
 9188SOL    HW239198   2.759   4.388  13.198 -1.0471  0.1895 -0.4782
 9189SOL     OW39199   1.921   0.921  12.701  0.0388  0.4391 -0.5325
 9189SOL    HW139200   1.979   0.991  12.673  0.0610 -0.8084 -3.6453
 9189SOL    HW239201   1.864   0.965  12.764 -1.1910 -1.2377 -0.4568
 9190SOL     OW39202   1.920   1.481   3.693 -0.4493 -0.4504 -0.4856
 9190SOL    HW139203   1.827   1.460   3.684 -1.0160  1.6620  0.5689
 9190SOL    HW239204   1.913   1.574   3.713  1.8270 -0.1382 -1.2000
 9191SOL     OW39205   0.021   3.531   2.202 -0.3774 -0.3964 -0.0999
 9191SOL    HW139206   4.701   3.566   2.270  0.6469  0.7762  0.1517
 9191SOL    HW239207   0.062   3.465   2.259  0.0188 -1.7387 -1.9505
 9192SOL     OW39208   1.610   2.260   4.136  0.2311  0.2376  0.2588
 9192SOL    HW139209   1.677   2.310   4.089  0.2046  0.9093  0.9279
 9192SOL    HW239210   1.659   2.189   4.179  0.4351  0.0144 -0.3433
 9193SOL     OW39211   4.372   3.710   6.390 -0.4519  0.4440 -0.2045
 9193SOL    HW139212   4.321   3.752   6.321 -1.3476 -0.5943 -0.1645
 9193SOL    HW239213   4.305   3.654   6.429 -0.5422 -0.2541 -1.3766
 9194SOL     OW39214   4.067   0.012   2.434 -0.0735 -0.1524 -0.0502
 9194SOL    HW139215   3.983   0.059   2.441 -0.0974 -0.4323  1.5934
 9194SOL    HW239216   4.032   4.666   2.465  0.4990  0.8480  3.2517
 9195SOL     OW39217   3.286   1.619  16.275 -0.1657  0.3036  0.1318
 9195SOL    HW139218   3.330   1.554  16.330 -1.2054  0.2938  0.9604
 9195SOL    HW239219   3.314   1.703  16.312  0.9862 -0.6126  1.3751
 9196SOL     OW39220   4.127   2.999   5.355 -0.2911  0.6257  0.5890
 9196SOL    HW139221   4.082   3.046   5.285 -1.4759 -0.8373  0.3788
 9196SOL    HW239222   4.160   3.072   5.407  1.6759  0.4955 -0.4651
 9197SOL     OW39223   3.537   4.212   0.296 -0.2326  0.4732 -0.2290
 9197SOL    HW139224   3.544   4.177   0.385  1.2147  0.2135 -0.4543
 9197SOL    HW239225   3.466   4.158   0.260  1.2361 -1.4796 -0.1685
 9198SOL     OW39226   1.211   2.752   0.013 -0.7180  0.0406  0.2725
 9198SOL    HW139227   1.153   2.710  17.695 -0.2902 -0.0234 -0.0730
 9198SOL    HW239228   1.269   2.797  17.697 -0.4067 -1.7832 -0.7481
 9199SOL     OW39229   1.029   3.482  16.286 -0.7895 -0.1747  0.0926
 9199SOL    HW139230   0.938   3.491  16.255 -0.6277  0.0734 -0.3116
 9199SOL    HW239231   1.043   3.575  16.298 -0.0110 -0.1420 -1.0883
 9200SOL     OW39232   0.542   3.382   1.457 -0.2888 -0.2097  0.2988
 9200SOL    HW139233   0.456   3.354   1.486 -1.5315  2.8289 -0.3921
 9200SOL    HW239234   0.600   3.306   1.463  1.8727  1.3454 -0.8346
 9201SOL     OW39235   1.959   4.544  12.866 -0.4238 -0.1763 -0.0201
 9201SOL    HW139236   1.890   4.485  12.898  0.1454 -0.7291  0.2040
 9201SOL    HW239237   2.039   4.492  12.867 -1.2217 -1.4150  0.6303
 9202SOL     OW39238   4.575   4.627   1.797  0.1781 -0.1877 -0.5198
 9202SOL    HW139239   4.552   4.569   1.725 -1.9811  1.0427 -0.8254
 9202SOL    HW239240   4.506   4.611   1.862  0.8416 -1.1913 -0.0526
 9203SOL     OW39241   3.203   1.121   1.677  0.2105 -0.1745  0.4360
 9203SOL    HW139242   3.297   1.115   1.658  0.3024  1.0662  0.4372
 9203SOL    HW239243   3.209   1.091   1.767 -2.5516  0.4974  0.8604
 9204SOL     OW39244   0.404   0.339   2.940 -0.4682 -0.3019 -0.8053
 9204SOL    HW139245   0.356   0.295   2.870  0.4331  0.0207 -1.6222
 9204SOL    HW239246   0.491   0.303   2.924  0.0174  1.0956 -1.2768
 9205SOL     OW39247   4.225   3.235   5.514 -0.7098  0.2273  0.8476
 9205SOL    HW139248   4.238   3.309   5.573  0.3736  1.1305 -0.5203
 9205SOL    HW239249   4.300   3.183   5.540  0.7308  2.4767  1.1697
 9206SOL     OW39250   4.309   1.904  17.085 -0.5373 -0.2717  0.6547
 9206SOL    HW139251   4.348   1.958  17.153  1.7259 -0.3122 -0.6179
 9206SOL    HW239252   4.370   1.920  17.013 -1.2186  0.7405  0.3046
 9207SOL     OW39253   0.445   2.899   4.690  0.1524 -0.1622  0.3859
 9207SOL    HW139254   0.350   2.885   4.693  0.0204  0.3388 -1.2777
 9207SOL    HW239255   0.460   2.951   4.611 -0.1259  2.3527  1.9914
 9208SOL     OW39256   1.900   4.007   5.369 -0.1862  0.3640 -0.2473
 9208SOL    HW139257   1.911   3.953   5.448  0.1982  1.0823  0.1961
 9208SOL    HW239258   1.939   4.090   5.398 -1.9567  0.4685  1.8914
 9209SOL     OW39259   0.847   3.518   4.387  0.0391  0.2312 -0.2815
 9209SOL    HW139260   0.891   3.478   4.312 -0.4352 -0.1240 -0.3691
 9209SOL    HW239261   0.921   3.531   4.446  0.1786  1.2751 -0.6783
 9210SOL     OW39262   0.635   3.333   3.635 -0.1190 -0.9762  0.4858
 9210SOL    HW139263   0.548   3.360   3.607  0.2552 -0.1822  0.0971
 9210SOL    HW239264   0.661   3.269   3.568  0.6341  1.7250 -1.7917
 9211SOL     OW39265   2.720   2.327  11.001  0.1326  0.1634  0.5691
 9211SOL    HW139266   2.745   2.397  11.062  1.6928 -0.3979  0.5790
 9211SOL    HW239267   2.770   2.358  10.925  0.9208 -1.3520  0.4855
 9212SOL     OW39268   1.429   0.678   8.706 -0.3555  0.0106  0.1443
 9212SOL    HW139269   1.447   0.766   8.740 -2.8909 -0.3434  2.4002
 9212SOL    HW239270   1.494   0.633   8.761  1.9409  0.4828 -2.1679
 9213SOL     OW39271   3.748   3.469   8.658  0.5493  0.7945 -0.5498
 9213SOL    HW139272   3.777   3.415   8.732  0.0713 -1.0496 -1.7220
 9213SOL    HW239273   3.830   3.514   8.637  2.8350 -2.1782  2.0384
 9214SOL     OW39274   1.397   1.917   5.662  0.3126 -0.3530 -0.2124
 9214SOL    HW139275   1.363   1.954   5.580 -2.4646  3.0066  2.4272
 9214SOL    HW239276   1.331   1.945   5.725  1.2037  2.2082 -0.3925
 9215SOL     OW39277   1.759   2.012   9.399 -0.1124  0.4997  0.0817
 9215SOL    HW139278   1.741   1.927   9.359  0.5137 -0.4646  1.8287
 9215SOL    HW239279   1.708   2.002   9.480 -0.3915  2.5175  0.1698
 9216SOL     OW39280   0.981   1.288   9.315  0.2072 -0.7198  0.1329
 9216SOL    HW139281   0.972   1.255   9.404 -2.0097  0.0920  0.2129
 9216SOL    HW239282   0.913   1.355   9.323  0.4660 -0.3764 -0.5373
 9217SOL     OW39283   2.752   3.285   2.805  0.6043  0.3324  0.0624
 9217SOL    HW139284   2.846   3.287   2.827  1.0135  0.0153 -1.6166
 9217SOL    HW239285   2.740   3.191   2.814 -0.1320  0.5228  1.0052
 9218SOL     OW39286   2.640   2.261  16.465  0.0410 -0.3575  0.3173
 9218SOL    HW139287   2.580   2.260  16.391 -1.2517  0.0878  1.3531
 9218SOL    HW239288   2.569   2.252  16.529 -1.1203 -0.1420 -0.9570
 9219SOL     OW39289   4.259   3.070   7.221  0.1848 -0.2732 -0.5105
 9219SOL    HW139290   4.257   3.162   7.195 -0.4550  0.0882  0.8240
 9219SOL    HW239291   4.312   3.077   7.300 -2.4279  1.8768  1.0344
 9220SOL     OW39292   1.369   4.038  14.395 -0.2458 -0.5049  0.9429
 9220SOL    HW139293   1.434   3.972  14.372 -0.7096 -0.5825 -0.1804
 9220SOL    HW239294   1.390   4.111  14.337 -0.1475 -2.0464 -0.9697
 9221SOL     OW39295   2.697   2.077  12.839 -0.0387  0.4085 -0.5076
 9221SOL    HW139296   2.719   2.081  12.745 -2.4606  0.7180 -1.0556
 9221SOL    HW239297   2.630   2.009  12.848  0.8875 -0.3392  0.7030
 9222SOL     OW39298   4.680   4.589   7.698 -0.1472 -0.2186  0.6791
 9222SOL    HW139299   4.619   4.539   7.752 -1.4542  1.5212  0.7695
 9222SOL    HW239300   4.736   4.625   7.767  0.1208 -0.6183  0.6724
 9223SOL     OW39301   2.202   0.805   4.750  0.0206 -0.7674  0.3059
 9223SOL    HW139302   2.191   0.877   4.688  2.2511 -0.2829  0.4853
 9223SOL    HW239303   2.139   0.839   4.812 -0.6421 -0.1490 -0.7117
 9224SOL     OW39304   1.631   0.843  15.532  0.0657 -0.0242 -0.3798
 9224SOL    HW139305   1.569   0.894  15.480 -0.5336 -0.1818  0.1957
 9224SOL    HW239306   1.675   0.911  15.584  1.1816  0.4462 -1.9285
 9225SOL     OW39307   3.180   1.208   7.105 -0.3564  0.1131 -0.2882
 9225SOL    HW139308   3.267   1.212   7.065  0.5264  0.8629  1.7255
 9225SOL    HW239309   3.186   1.128   7.157 -0.1164 -0.9270 -1.8962
 9226SOL     OW39310   2.850   0.305   3.097 -0.6187  0.6155  0.1138
 9226SOL    HW139311   2.791   0.380   3.107 -1.2206  0.1013  0.4435
 9226SOL    HW239312   2.801   0.249   3.036 -0.7566 -1.4442  2.1110
 9227SOL     OW39313   0.346   3.812   5.030 -0.1445  0.6148  0.4088
 9227SOL    HW139314   0.432   3.807   4.987 -2.5587 -4.2096 -3.8133
 9227SOL    HW239315   0.371   3.841   5.118 -2.2036 -0.7022  1.4202
 9228SOL     OW39316   4.503   2.422   5.166  0.3908  0.2062  0.0536
 9228SOL    HW139317   4.592   2.426   5.132  0.8726 -1.5020  1.1717
 9228SOL    HW239318   4.471   2.512   5.161  1.9384  0.8047  1.1006
 9229SOL     OW39319   4.712   0.377   4.550  0.2607  0.0686 -0.1555
 9229SOL    HW139320   4.662   0.339   4.478 -0.6665  0.6208  0.1957
 9229SOL    HW239321   0.013   0.297   4.586 -1.8998 -0.8685  0.0230
 9230SOL     OW39322   4.377   1.333   1.609 -0.0573 -0.0642 -0.2838
 9230SOL    HW139323   4.299   1.357   1.561  0.6069  0.7415 -0.9606
 9230SOL    HW239324   4.435   1.384   1.551 -2.1340  3.1642  0.4694
 9231SOL     OW39325   1.050   0.609   5.556 -0.4706  0.2543  0.3274
 9231SOL    HW139326   1.119   0.608   5.622 -0.8992 -1.8434  0.7418
 9231SOL    HW239327   1.084   0.542   5.497 -0.0121 -1.4180  2.5084
 9232SOL     OW39328   2.901   2.076   8.703  0.0042 -0.2188  0.0300
 9232SOL    HW139329   2.941   2.005   8.753 -1.3904 -0.3499  0.9806
 9232SOL    HW239330   2.825   2.093   8.759  0.6132  0.0607  0.7635
 9233SOL     OW39331   3.306   2.428   3.107  0.2346  0.4398 -0.2022
 9233SOL    HW139332   3.250   2.506   3.116  1.6901  1.5172 -0.4549
 9233SOL    HW239333   3.257   2.374   3.044  1.3792  1.3186 -1.8639
 9234SOL     OW39334   2.332   1.090  16.394 -0.0854  0.4138 -0.3069
 9234SOL    HW139335   2.421   1.091  16.358  0.5996 -0.3452  1.4069
 9234SOL    HW239336   2.354   1.043  16.474  1.0640  2.6977  0.7436
 9235SOL     OW39337   0.006   1.282   7.568  0.1207  0.0095 -0.2194
 9235SOL    HW139338   4.695   1.330   7.635  1.4112 -0.6561  1.1867
 9235SOL    HW239339   0.093   1.299   7.603  0.5720  0.0563 -1.3486
 9236SOL     OW39340   0.126   3.863  17.003 -0.3658  0.1283  0.1092
 9236SOL    HW139341   0.037   3.889  16.980  0.2439  0.9497 -1.3407
 9236SOL    HW239342   0.125   3.769  17.021  0.6723  0.4385  1.7817
 9237SOL     OW39343   0.174   3.440   4.017  0.1160 -0.1222  0.0677
 9237SOL    HW139344   0.264   3.461   4.039 -0.7753  2.6172  1.1580
 9237SOL    HW239345   0.166   3.519   3.963  0.0172 -0.3416 -0.2355
 9238SOL     OW39346   3.912   2.248   3.554 -0.3750  0.4889 -0.2927
 9238SOL    HW139347   3.986   2.281   3.604  0.0828 -0.5277 -0.2913
 9238SOL    HW239348   3.960   2.208   3.481 -2.6963  1.0723 -2.1496
 9239SOL     OW39349   2.268   3.595   8.730 -0.2065  0.0512  0.2126
 9239SOL    HW139350   2.204   3.543   8.779 -0.9802  2.2971  1.5911
 9239SOL    HW239351   2.217   3.614   8.650 -1.3906  1.5709  1.3056
 9240SOL     OW39352   4.522   2.020   6.754  0.2276 -0.3878 -0.6185
 9240SOL    HW139353   4.526   2.045   6.846 -0.8120 -0.9525 -0.4101
 9240SOL    HW239354   4.447   2.069   6.721  1.0429  1.0847 -0.2393
 9241SOL     OW39355   1.441   4.727   8.057  0.0538  0.2803  0.1517
 9241SOL    HW139356   1.352   0.025   8.052  0.3036  0.7159 -1.5135
 9241SOL    HW239357   1.482   0.047   8.122 -0.0699 -0.8611  1.2179
 9242SOL     OW39358   3.394   0.411   7.844 -0.4506  0.8816 -0.5259
 9242SOL    HW139359   3.375   0.444   7.932 -1.0869 -0.7799 -0.0214
 9242SOL    HW239360   3.306   0.409   7.806 -0.5915 -1.3282 -0.1281
 9243SOL     OW39361   2.812   3.648   5.418 -0.2448  0.1144  1.1929
 9243SOL    HW139362   2.763   3.595   5.354  1.6519 -0.9299  0.6187
 9243SOL    HW239363   2.775   3.605   5.495 -2.0052 -1.1671 -0.3502
 9244SOL     OW39364   2.927   2.308   9.145 -0.0337 -0.1759  0.1203
 9244SOL    HW139365   2.964   2.376   9.088 -0.0976 -0.9204 -0.8101
 9244SOL    HW239366   2.854   2.357   9.182 -0.2977  0.5330 -1.3386
 9245SOL     OW39367   2.702   3.531   5.198 -0.3955  0.5158  0.4831
 9245SOL    HW139368   2.628   3.592   5.198 -1.8302 -1.2170  0.7699
 9245SOL    HW239369   2.654   3.457   5.161 -1.2403  1.8378 -1.1166
 9246SOL     OW39370   1.945   0.685   9.151 -0.1500  0.0328  0.1870
 9246SOL    HW139371   1.890   0.609   9.173  4.5444 -4.1114 -2.3960
 9246SOL    HW239372   2.014   0.644   9.099 -0.0832  2.1420 -1.3470
 9247SOL     OW39373   0.195   1.179   5.426 -0.4380  0.2420 -0.3078
 9247SOL    HW139374   0.136   1.247   5.392 -1.1919 -0.7902 -1.0375
 9247SOL    HW239375   0.141   1.120   5.479 -0.8887  1.0542  0.1589
 9248SOL     OW39376   2.689   1.834   8.684  0.1052 -0.2982 -0.6028
 9248SOL    HW139377   2.614   1.881   8.719  0.6125 -0.4875  0.7606
 9248SOL    HW239378   2.703   1.775   8.759 -1.0742 -1.1357 -1.0405
 9249SOL     OW39379   3.136   1.608   2.980 -0.4993 -0.0119 -0.6789
 9249SOL    HW139380   3.198   1.603   3.052 -1.1544 -3.0951 -0.3239
 9249SOL    HW239381   3.195   1.624   2.906  1.2563 -0.3438  0.6406
 9250SOL     OW39382   3.257   4.344   4.749  0.0925  0.2079 -0.1824
 9250SOL    HW139383   3.269   4.299   4.666  1.9840  3.5111 -1.6764
 9250SOL    HW239384   3.166   4.318   4.766  0.1941  1.1463  1.8672
 9251SOL     OW39385   2.995   3.739   2.867 -0.5710 -0.1194 -0.1116
 9251SOL    HW139386   3.050   3.808   2.906  1.1164 -1.5334  0.0496
 9251SOL    HW239387   2.914   3.751   2.916 -1.5107 -1.8809 -1.2534
 9252SOL     OW39388   3.679   0.178   2.052 -0.1790 -0.1745 -0.5913
 9252SOL    HW139389   3.692   0.253   1.994 -2.0248 -0.2155 -1.0673
 9252SOL    HW239390   3.584   0.164   2.043 -0.2929  1.1176 -1.3634
 9253SOL     OW39391   0.742   0.136  15.429 -0.2396  0.3257 -0.3734
 9253SOL    HW139392   0.771   0.047  15.446 -1.8718 -0.4598 -1.6975
 9253SOL    HW239393   0.743   0.152  15.335 -0.6710  1.9842 -0.0901
 9254SOL     OW39394   2.533   0.557   1.927  0.3101  0.0469 -0.1491
 9254SOL    HW139395   2.545   0.652   1.918  3.7478 -0.2907  0.9832
 9254SOL    HW239396   2.477   0.538   2.002  1.9112 -1.5075  0.6543
 9255SOL     OW39397   0.057   3.649  10.994 -0.4608  0.2845 -0.1531
 9255SOL    HW139398   4.734   3.653  11.069 -3.6430 -2.6482 -2.5444
 9255SOL    HW239399   0.139   3.692  11.021 -1.1938  1.0300  0.8758
 9256SOL     OW39400   0.340   1.146   0.590  0.1647  0.3491 -0.4188
 9256SOL    HW139401   0.277   1.138   0.519 -0.7553 -1.1025  0.5823
 9256SOL    HW239402   0.361   1.055   0.611  0.8056  0.9390  1.5276
 9257SOL     OW39403   1.705   3.294   3.949 -0.3495 -0.3910 -0.6714
 9257SOL    HW139404   1.678   3.355   3.880 -0.1457  1.3900  0.8284
 9257SOL    HW239405   1.707   3.361   4.017 -0.8563 -1.0260 -0.0453
 9258SOL     OW39406   1.758   4.160  17.022 -0.2420  0.1290 -0.5980
 9258SOL    HW139407   1.825   4.128  16.962 -1.1581 -1.4874 -0.7602
 9258SOL    HW239408   1.791   4.249  17.029  1.1751 -0.4306 -0.1520
 9259SOL     OW39409   2.739   0.637   7.712  0.1572 -0.3083 -0.0413
 9259SOL    HW139410   2.820   0.604   7.675  0.9666 -1.1159  2.4650
 9259SOL    HW239411   2.724   0.559   7.765  1.2920 -0.1298  0.5264
 9260SOL     OW39412   4.694   3.221  10.136 -0.4342  0.2427 -0.5145
 9260SOL    HW139413   0.009   3.165  10.079 -0.7966 -0.1864 -0.4280
 9260SOL    HW239414   0.015   3.297  10.137 -0.9550  0.6498 -1.4169
 9261SOL     OW39415   4.169   4.533   3.176 -0.1572  0.3428 -0.2364
 9261SOL    HW139416   4.126   4.483   3.107  0.8596 -0.2334 -0.4626
 9261SOL    HW239417   4.124   4.617   3.177  0.0036  0.4377 -0.9028
 9262SOL     OW39418   3.645   0.661  15.524  0.7615 -0.6259  0.8866
 9262SOL    HW139419   3.558   0.621  15.518  0.7264 -0.0688 -2.1764
 9262SOL    HW239420   3.627   0.750  15.496 -0.3788 -1.8845 -2.4350
 9263SOL     OW39421   0.445   4.446  17.266  0.0015  0.1510 -0.5221
 9263SOL    HW139422   0.467   4.362  17.225  1.6689  1.1571 -1.7122
 9263SOL    HW239423   0.536   4.475  17.280  0.3247 -0.0554 -2.1086
 9264SOL     OW39424   2.785   3.338   0.478  0.0192 -0.2589 -0.1354
 9264SOL    HW139425   2.851   3.373   0.419 -0.4280  1.1868  0.2149
 9264SOL    HW239426   2.776   3.395   0.554  2.3834 -0.9891  0.7052
 9265SOL     OW39427   1.470   3.356   2.223 -0.2051 -0.1788  0.3789
 9265SOL    HW139428   1.499   3.283   2.168  2.0681  0.5006  0.6685
 9265SOL    HW239429   1.383   3.380   2.191  0.2335  0.5672 -0.2517
 9266SOL     OW39430   4.291   1.061  10.892  0.4013 -0.1244 -0.3038
 9266SOL    HW139431   4.217   1.078  10.951 -1.3756 -1.3169 -2.1810
 9266SOL    HW239432   4.367   1.088  10.944  0.2192 -0.0269 -0.0859
 9267SOL     OW39433   4.310   2.447   1.607 -0.0763  0.1703  0.4950
 9267SOL    HW139434   4.244   2.461   1.540 -1.4451 -3.0974  1.1633
 9267SOL    HW239435   4.335   2.356   1.588 -0.8382 -0.0475  0.5491
 9268SOL     OW39436   3.021   0.766   4.944  0.0097 -0.3708 -0.1837
 9268SOL    HW139437   2.996   0.845   4.895 -1.4235 -1.0439 -0.5365
 9268SOL    HW239438   3.027   0.716   4.863  0.4550 -2.4368  1.1141
 9269SOL     OW39439   2.916   2.020   3.401  0.1397 -0.4710  0.4023
 9269SOL    HW139440   2.953   2.108   3.405 -1.0198  0.1035 -1.2708
 9269SOL    HW239441   2.896   2.010   3.495 -1.8720 -0.9471 -0.0620
 9270SOL     OW39442   0.170   2.542   5.216  0.0454  0.1644  0.4330
 9270SOL    HW139443   0.156   2.493   5.296  0.3489  2.6636  2.0168
 9270SOL    HW239444   0.101   2.609   5.217  0.5160  0.7377 -3.2788
 9271SOL     OW39445   2.768   4.040   2.532 -0.2996  0.6855  0.0220
 9271SOL    HW139446   2.784   4.039   2.438 -0.3190 -2.1553  0.0435
 9271SOL    HW239447   2.747   3.947   2.538 -0.0312  0.5564 -1.1046
 9272SOL     OW39448   1.342   2.975   8.917  0.0594 -0.8594  0.0932
 9272SOL    HW139449   1.252   2.955   8.944  0.3876  0.4791  2.2084
 9272SOL    HW239450   1.343   2.914   8.844 -0.2222 -1.7151  0.8009
 9273SOL     OW39451   1.773   3.924   8.011  0.1114 -0.3686  0.6646
 9273SOL    HW139452   1.698   3.967   7.970  1.1443 -0.2646 -1.0933
 9273SOL    HW239453   1.789   3.867   7.936  0.8397  1.4999 -0.5806
 9274SOL     OW39454   4.407   0.207   4.804 -0.2953 -0.1777  0.0596
 9274SOL    HW139455   4.369   0.179   4.888 -1.0218 -2.3269 -0.9876
 9274SOL    HW239456   4.341   0.164   4.751  1.4919 -1.8552 -0.7984
 9275SOL     OW39457   4.378   4.538   8.961 -0.3595 -0.4519 -0.5094
 9275SOL    HW139458   4.285   4.558   8.948 -0.8341 -1.6757  1.0253
 9275SOL    HW239459   4.385   4.547   9.056  1.3763 -0.5328 -0.6249
 9276SOL     OW39460   3.639   3.507  11.387  0.0449  0.9199  0.6538
 9276SOL    HW139461   3.730   3.516  11.358 -0.0841  0.2718  0.0461
 9276SOL    HW239462   3.646   3.431  11.446  0.7269  0.4765 -0.0040
 9277SOL     OW39463   3.582   4.209   6.490  0.2135 -0.2621  0.4940
 9277SOL    HW139464   3.552   4.257   6.567 -1.9602  0.5076 -0.8243
 9277SOL    HW239465   3.557   4.262   6.414  1.9151  0.2215  0.2712
 9278SOL     OW39466   1.048   1.408  14.463  0.7264  0.4974 -0.2246
 9278SOL    HW139467   0.962   1.449  14.455  0.6790  0.4018 -0.2083
 9278SOL    HW239468   1.032   1.315  14.476  1.2658  0.2938 -1.0234
 9279SOL     OW39469   0.689   2.036   1.628 -0.1157 -0.1048  0.2876
 9279SOL    HW139470   0.616   2.097   1.623 -1.2965 -1.3110  3.2753
 9279SOL    HW239471   0.762   2.089   1.660 -0.1798 -0.3919  0.8956
 9280SOL     OW39472   1.037   3.212   9.983  0.1438 -0.1040 -0.1810
 9280SOL    HW139473   0.951   3.197   9.944  0.4375  0.2238 -0.9651
 9280SOL    HW239474   1.052   3.305   9.969 -2.0497  0.0719 -1.2968
 9281SOL     OW39475   0.358   3.905  13.691  0.6106 -0.3454  0.1084
 9281SOL    HW139476   0.435   3.940  13.647 -0.3793 -0.7591 -1.9241
 9281SOL    HW239477   0.315   3.981  13.730  2.3935  0.8717 -0.2998
 9282SOL     OW39478   4.046   3.978   5.123 -0.6517 -0.2638 -0.1347
 9282SOL    HW139479   3.972   4.012   5.072  0.3270  0.1436 -1.2865
 9282SOL    HW239480   4.104   4.041   5.080 -0.2232 -1.0224 -0.6745
 9283SOL     OW39481   2.175   0.776   4.239 -0.4668  0.1239  0.3617
 9283SOL    HW139482   2.219   0.732   4.167 -1.0307  0.7407 -0.3636
 9283SOL    HW239483   2.089   0.735   4.239  0.2624 -1.4097  2.7403
 9284SOL     OW39484   2.728   0.360  10.231 -0.2799  0.0730 -0.0135
 9284SOL    HW139485   2.722   0.361  10.135 -0.3436  1.1327  0.0087
 9284SOL    HW239486   2.821   0.348  10.252  0.4584  2.5650 -1.8881
 9285SOL     OW39487   1.583   2.344   2.339 -0.1729 -0.0051 -0.1463
 9285SOL    HW139488   1.508   2.300   2.379 -0.3665  2.4017  2.1027
 9285SOL    HW239489   1.648   2.327   2.407  0.4099 -2.1560 -1.2288
 9286SOL     OW39490   2.693   3.109   1.633 -0.2583 -0.5826  0.0544
 9286SOL    HW139491   2.716   3.034   1.579  1.7292  1.4874 -1.9973
 9286SOL    HW239492   2.684   3.057   1.713  0.4700 -2.6252 -1.2100
 9287SOL     OW39493   0.560   2.660  13.414  0.9368  0.1051  0.6415
 9287SOL    HW139494   0.511   2.713  13.476  0.5290 -1.0133  1.2766
 9287SOL    HW239495   0.604   2.727  13.362 -0.4400  1.2142  0.9441
 9288SOL     OW39496   0.999   2.351  10.294 -0.7172 -0.3365 -1.0694
 9288SOL    HW139497   1.002   2.447  10.293 -1.0382 -0.3437 -2.1956
 9288SOL    HW239498   0.904   2.349  10.282 -1.0155 -1.6098  1.3774
 9289SOL     OW39499   1.571   3.945   2.028  0.2081 -0.8747  0.2258
 9289SOL    HW139500   1.658   3.918   2.058  0.9068  1.4737  0.3189
 9289SOL    HW239501   1.570   4.031   2.069 -1.6790 -1.8051  2.1382
 9290SOL     OW39502   1.954   2.538   2.300 -0.2730  0.4677 -0.1570
 9290SOL    HW139503   1.970   2.591   2.377 -0.2899  1.6148 -0.9472
 9290SOL    HW239504   1.976   2.455   2.343  0.9213  1.2335  0.6947
 9291SOL     OW39505   1.537   2.327  13.536  0.2584  0.2853 -0.2071
 9291SOL    HW139506   1.593   2.309  13.461  0.4587 -1.2957  0.3317
 9291SOL    HW239507   1.608   2.326  13.600 -1.6441  1.1469  1.9289
 9292SOL     OW39508   1.299   3.266   7.261 -0.3594 -0.4584 -0.5394
 9292SOL    HW139509   1.280   3.243   7.351 -0.2260 -2.3809 -1.0031
 9292SOL    HW239510   1.227   3.327   7.244 -0.1300  0.0884  0.4755
 9293SOL     OW39511   4.481   0.191   5.598 -0.1559 -0.2861  0.0199
 9293SOL    HW139512   4.564   0.237   5.585  0.1732  0.1998  3.7299
 9293SOL    HW239513   4.512   0.125   5.660  0.3561  1.8817  2.0554
 9294SOL     OW39514   1.600   2.163   0.016 -0.2998 -0.0866  0.5772
 9294SOL    HW139515   1.507   2.156   0.034 -0.0749 -3.9906  0.1942
 9294SOL    HW239516   1.605   2.239  17.704  2.4491  1.4235  2.7388
 9295SOL     OW39517   3.033   4.618  16.870  0.3526  0.2212 -0.1956
 9295SOL    HW139518   2.939   4.614  16.848 -0.2283  1.9066  1.9278
 9295SOL    HW239519   3.043   4.709  16.898 -0.1033 -0.0176  0.7527
 9296SOL     OW39520   2.105   4.303   2.842 -0.0904  0.1172 -0.5392
 9296SOL    HW139521   2.136   4.221   2.881  0.0168 -0.5344 -2.0144
 9296SOL    HW239522   2.186   4.352   2.827  1.1064 -2.1677 -1.7095
 9297SOL     OW39523   0.627   4.546   6.101 -0.1260  0.3100 -0.3737
 9297SOL    HW139524   0.673   4.525   6.182 -0.5199 -0.3079 -0.3066
 9297SOL    HW239525   0.653   4.632   6.070  1.9080  0.2839  1.2525
 9298SOL     OW39526   4.468   0.725  15.513 -0.0644  0.5286 -0.2383
 9298SOL    HW139527   4.503   0.656  15.457  0.1762  1.5839 -1.4062
 9298SOL    HW239528   4.444   0.680  15.593 -1.4604  0.1240 -0.8917
 9299SOL     OW39529   3.287   3.997   8.036  0.1053  0.0200  0.3288
 9299SOL    HW139530   3.281   4.035   8.124 -3.1804 -3.0256  1.4486
 9299SOL    HW239531   3.238   3.915   8.039 -0.8293  0.6306  1.5919
 9300SOL     OW39532   3.154   3.622   2.397  0.3389 -0.1533  0.0432
 9300SOL    HW139533   3.100   3.701   2.394 -2.7338 -2.2096  0.6350
 9300SOL    HW239534   3.132   3.588   2.483 -0.3617  0.3835  0.0799
 9301SOL     OW39535   2.630   1.450   2.806  0.2069  0.0095 -0.0049
 9301SOL    HW139536   2.553   1.453   2.750  2.5783  1.1841 -3.2146
 9301SOL    HW239537   2.646   1.357   2.822  2.3098  0.4542  0.4787
 9302SOL     OW39538   1.307   2.464   3.577 -0.2502  0.0741 -0.1879
 9302SOL    HW139539   1.307   2.557   3.556 -1.7136  0.5355  1.8978
 9302SOL    HW239540   1.366   2.457   3.651 -0.1760 -0.5446 -0.3055
 9303SOL     OW39541   2.429   2.502   2.404 -0.1625 -0.1715 -0.4090
 9303SOL    HW139542   2.374   2.431   2.370 -0.3813 -0.8703  1.3840
 9303SOL    HW239543   2.362   2.559   2.443 -0.3880 -0.8634  0.2313
 9304SOL     OW39544   3.146   0.937   3.835  0.1969 -0.0346  0.0342
 9304SOL    HW139545   3.080   0.936   3.766  2.1211 -0.3542 -1.8100
 9304SOL    HW239546   3.083   0.927   3.906  0.1020  1.6396  0.1858
 9305SOL     OW39547   3.653   0.997  14.913 -0.5560 -0.6486  0.2436
 9305SOL    HW139548   3.747   1.010  14.921 -0.4651 -2.1534  1.6431
 9305SOL    HW239549   3.624   1.067  14.972 -2.7111  0.0770 -1.6634
 9306SOL     OW39550   3.864   0.317   1.339 -0.2835  0.2644  0.2292
 9306SOL    HW139551   3.898   0.375   1.270 -0.4998 -0.0397 -0.1333
 9306SOL    HW239552   3.769   0.321   1.324 -0.2942 -0.6709  0.0389
 9307SOL     OW39553   3.716   1.530   8.227 -0.2665 -0.1201  0.2538
 9307SOL    HW139554   3.685   1.602   8.281 -1.8358 -2.2268  2.1453
 9307SOL    HW239555   3.638   1.522   8.172 -0.7526  1.8881  0.6472
 9308SOL     OW39556   3.978   0.863   2.143  0.3508  0.5960  0.0958
 9308SOL    HW139557   4.036   0.789   2.160 -1.0233  0.0879  2.5102
 9308SOL    HW239558   4.004   0.928   2.208 -1.8084  0.6079  0.9349
 9309SOL     OW39559   1.979   4.097   8.127 -0.1905 -0.1322 -0.0606
 9309SOL    HW139560   1.964   4.174   8.182  0.1840  0.9345 -1.4705
 9309SOL    HW239561   1.888   4.083   8.101 -0.6604  0.8702  1.0243
 9310SOL     OW39562   0.406   0.090   9.929 -0.3925 -0.2805  0.5058
 9310SOL    HW139563   0.384   0.157   9.994  1.6780  0.0454  0.8598
 9310SOL    HW239564   0.357   0.116   9.851  0.8433 -0.4239 -0.3171
 9311SOL     OW39565   3.341   1.317   3.130  0.0142 -0.0562 -0.5225
 9311SOL    HW139566   3.293   1.288   3.208 -1.5360 -0.5330 -1.6703
 9311SOL    HW239567   3.403   1.377   3.172 -1.6614  1.3388  0.0039
 9312SOL     OW39568   2.051   3.478   8.224 -0.2070 -0.3227  0.6938
 9312SOL    HW139569   2.001   3.413   8.174 -0.3548 -0.3132  0.8312
 9312SOL    HW239570   1.986   3.519   8.281  0.8166  1.6935  0.4391
 9313SOL     OW39571   4.663   2.606   3.840 -0.0725  0.1583  0.0177
 9313SOL    HW139572   4.653   2.611   3.745  0.8379  0.4614 -0.0721
 9313SOL    HW239573   4.584   2.563   3.872  1.1321  0.3938  3.3719
 9314SOL     OW39574   2.158   3.355  13.153 -0.1187 -0.1799 -0.2019
 9314SOL    HW139575   2.208   3.306  13.219 -1.0706  0.0774  0.7191
 9314SOL    HW239576   2.224   3.413  13.117 -0.9122  1.3119  0.7157
 9315SOL     OW39577   2.178   1.085   9.586 -0.5172 -0.1490 -0.3183
 9315SOL    HW139578   2.236   1.158   9.607 -1.0840 -0.2646  1.6059
 9315SOL    HW239579   2.090   1.120   9.569  0.3567  2.0854 -0.2901
 9316SOL     OW39580   4.592   3.954   4.719  0.2968  0.0927  0.4596
 9316SOL    HW139581   4.642   4.035   4.723  2.1411 -1.1072  1.6189
 9316SOL    HW239582   4.554   3.962   4.631  0.5301  0.1203  0.3630
 9317SOL     OW39583   0.889   1.832   7.112 -0.1207  0.6816  0.0269
 9317SOL    HW139584   0.793   1.833   7.101 -0.2492  0.4860  1.1547
 9317SOL    HW239585   0.924   1.820   7.024  0.4729  1.7939  0.1257
 9318SOL     OW39586   0.449   4.678   4.247 -0.1996 -0.1970 -0.2175
 9318SOL    HW139587   0.404   0.002   4.189 -1.1496 -0.2020  0.5032
 9318SOL    HW239588   0.379   4.618   4.273  0.3474  0.1810  2.1598
 9319SOL     OW39589   3.679   4.619   9.274 -0.1851  0.7212 -0.3714
 9319SOL    HW139590   3.756   4.661   9.312  2.1787 -2.6609 -1.3737
 9319SOL    HW239591   3.633   4.687   9.226 -3.2204  0.0581  1.5892
 9320SOL     OW39592   4.283   2.759   2.194  0.7400 -0.6326 -0.2704
 9320SOL    HW139593   4.238   2.836   2.159  2.6063  0.3994 -0.3998
 9320SOL    HW239594   4.206   2.731   2.244 -1.6136  0.5695 -3.2331
 9321SOL     OW39595   4.411   3.556   8.127  0.2641  0.1011  0.0951
 9321SOL    HW139596   4.340   3.549   8.191  0.3369  2.1096  0.3931
 9321SOL    HW239597   4.466   3.631   8.148  3.0051 -1.2080 -2.4742
 9322SOL     OW39598   2.612   1.262   2.218 -0.1076 -0.1274  0.2714
 9322SOL    HW139599   2.525   1.254   2.258 -0.1411  0.5581  0.3292
 9322SOL    HW239600   2.585   1.259   2.126 -0.4161 -2.0500  0.4124
 9323SOL     OW39601   0.233   2.192   9.197  0.2360  0.2574  0.1229
 9323SOL    HW139602   0.179   2.270   9.185 -0.0906 -0.0066 -0.1312
 9323SOL    HW239603   0.178   2.131   9.245  0.9595  0.6775  1.5121
 9324SOL     OW39604   3.116   3.548   2.680  0.0922 -0.1060 -0.0118
 9324SOL    HW139605   3.105   3.497   2.761 -0.0362 -0.9246 -0.5452
 9324SOL    HW239606   3.078   3.630   2.712  0.1316  0.8517 -2.4618
 9325SOL     OW39607   0.704   0.235  16.190 -0.6009  0.0845  0.1728
 9325SOL    HW139608   0.692   0.215  16.097  3.4466  0.3457 -0.4224
 9325SOL    HW239609   0.674   0.326  16.191 -0.8350  0.0337 -1.4556
 9326SOL     OW39610   1.327   2.070  11.484 -0.1035 -0.7618 -0.4837
 9326SOL    HW139611   1.392   2.029  11.427  1.7085  0.9871  0.3301
 9326SOL    HW239612   1.276   2.131  11.430 -1.8236 -0.8462  1.0363
 9327SOL     OW39613   1.064   1.547   5.756 -0.0972  0.2446 -0.0320
 9327SOL    HW139614   1.020   1.490   5.820 -3.0426  2.2341 -0.2709
 9327SOL    HW239615   1.147   1.501   5.764 -0.7882 -1.0441 -0.3116
 9328SOL     OW39616   3.695   0.996   9.048 -0.2130 -0.5785  0.3032
 9328SOL    HW139617   3.653   1.077   9.018 -1.7546 -1.2871  0.5484
 9328SOL    HW239618   3.700   0.941   8.970  3.6823 -1.9353  1.5046
 9329SOL     OW39619   3.962   2.223   6.270  0.0153 -0.0169  0.2714
 9329SOL    HW139620   4.030   2.185   6.214  0.0419  0.2096  0.1535
 9329SOL    HW239621   3.910   2.264   6.202 -1.0906  0.6057  1.4837
 9330SOL     OW39622   2.600   1.242   6.053 -0.1223 -0.4068 -0.0687
 9330SOL    HW139623   2.580   1.182   6.125  0.4333 -1.1465 -0.5281
 9330SOL    HW239624   2.512   1.266   6.026 -0.8261 -2.6882  0.1947
 9331SOL     OW39625   1.341   1.491  10.783 -0.6219  0.1650  0.0209
 9331SOL    HW139626   1.331   1.445  10.866 -2.7182  2.1541  0.8664
 9331SOL    HW239627   1.320   1.428  10.714 -0.8205  1.1324 -0.8019
 9332SOL     OW39628   3.500   3.515   8.548  0.1979  0.4670  0.4424
 9332SOL    HW139629   3.461   3.543   8.631 -0.0430 -1.4371  0.9749
 9332SOL    HW239630   3.587   3.490   8.579  0.8005  0.4846 -1.2369
 9333SOL     OW39631   3.431   2.589  17.086 -0.4084 -0.7107  0.3191
 9333SOL    HW139632   3.380   2.508  17.080 -1.9720  0.2153  1.2870
 9333SOL    HW239633   3.359   2.651  17.084  0.5144  0.3562 -0.1003
 9334SOL     OW39634   4.658   2.819   7.496 -0.3979  0.1550 -0.0183
 9334SOL    HW139635   4.614   2.787   7.574  0.4586 -0.1607  0.3353
 9334SOL    HW239636   4.613   2.762   7.434 -2.3204  0.4919  1.0884
 9335SOL     OW39637   1.638   2.602   2.726 -0.2039 -0.0082  0.1375
 9335SOL    HW139638   1.585   2.640   2.655  1.5817  3.3380  0.5796
 9335SOL    HW239639   1.579   2.609   2.801  1.4796  0.9537  1.3706
 9336SOL     OW39640   1.989   2.009   7.040  0.8566  0.3657 -0.1506
 9336SOL    HW139641   2.014   2.030   6.950  0.8980 -0.1369 -0.2592
 9336SOL    HW239642   1.997   2.096   7.079 -0.8545 -0.3067  1.7207
 9337SOL     OW39643   0.467   3.463   0.596 -0.2521  0.3994 -0.3336
 9337SOL    HW139644   0.559   3.475   0.620  0.0204 -2.0167 -0.1180
 9337SOL    HW239645   0.463   3.492   0.505  0.4677 -1.2194 -0.9017
 9338SOL     OW39646   2.479   0.748   0.672 -0.1863  0.5774 -0.4529
 9338SOL    HW139647   2.459   0.657   0.648  2.3801 -0.5417  1.5264
 9338SOL    HW239648   2.502   0.737   0.764 -2.5795 -0.3262  0.0397
 9339SOL     OW39649   0.069   0.676   0.003 -0.7366 -0.9055 -0.4626
 9339SOL    HW139650   0.003   0.652   0.068 -1.3985  0.1977 -0.7180
 9339SOL    HW239651   0.148   0.697   0.052 -1.7792 -1.2968  1.3661
 9340SOL     OW39652   0.774   4.115   2.853  0.0646 -0.0329 -0.1989
 9340SOL    HW139653   0.697   4.096   2.906 -0.2437  2.4089  0.2390
 9340SOL    HW239654   0.804   4.203   2.874  0.4773 -0.4280  0.8595
 9341SOL     OW39655   1.165   3.009   5.542 -0.0489  0.2086  0.0840
 9341SOL    HW139656   1.240   3.008   5.602 -0.4467 -0.4245  0.5613
 9341SOL    HW239657   1.145   3.101   5.557  1.0572  0.8080 -2.0416
 9342SOL     OW39658   0.700   2.607  16.837 -0.6206 -0.4541  0.1631
 9342SOL    HW139659   0.639   2.545  16.798  0.8173 -2.7977  1.5887
 9342SOL    HW239660   0.759   2.557  16.894  1.4038  2.9651  1.0840
 9343SOL     OW39661   1.481   1.941  11.323 -0.2579 -0.1515  0.8631
 9343SOL    HW139662   1.524   1.858  11.345  1.2164  0.3851 -0.0813
 9343SOL    HW239663   1.520   1.950  11.237 -2.8672 -0.0246 -0.2990
 9344SOL     OW39664   3.067   3.156   2.355  0.7948  0.2499 -0.2303
 9344SOL    HW139665   3.107   3.181   2.438  0.5608  2.8203 -0.9058
 9344SOL    HW239666   3.141   3.175   2.298  0.1567  0.9024 -0.8460
 9345SOL     OW39667   3.402   3.334   3.650  0.0594  0.3703 -0.1251
 9345SOL    HW139668   3.331   3.342   3.713 -0.7273 -0.7610 -0.8747
 9345SOL    HW239669   3.376   3.401   3.586 -3.3968  0.0848  1.0099
 9346SOL     OW39670   4.326   4.114   4.399  0.1947 -0.1968 -0.5223
 9346SOL    HW139671   4.272   4.107   4.321 -0.2543 -2.1921 -0.0287
 9346SOL    HW239672   4.318   4.208   4.417  2.8165  0.1450 -1.1583
 9347SOL     OW39673   4.280   2.280   7.638 -0.2723 -0.3801 -0.0462
 9347SOL    HW139674   4.374   2.288   7.625 -0.6366  0.6484 -2.0747
 9347SOL    HW239675   4.248   2.368   7.618  3.3632  0.7755 -0.6169
 9348SOL     OW39676   4.564   0.556  10.553 -0.6322  0.1837 -0.4989
 9348SOL    HW139677   4.622   0.536  10.627  0.1247  0.8843 -0.8983
 9348SOL    HW239678   4.501   0.620  10.586  0.4224  2.1322 -2.2867
 9349SOL     OW39679   0.603   1.703   4.863 -0.1117  0.3964 -0.3553
 9349SOL    HW139680   0.517   1.692   4.822 -1.7534 -0.5695  3.3649
 9349SOL    HW239681   0.613   1.645   4.938 -0.9030  1.4457  0.5631
 9350SOL     OW39682   3.657   1.301  16.451 -0.1954 -0.5347  0.1650
 9350SOL    HW139683   3.745   1.331  16.477  0.2261 -2.2647  0.6852
 9350SOL    HW239684   3.649   1.339  16.363 -0.0204  2.0761  1.2772
 9351SOL     OW39685   2.010   0.981  13.139  0.7256 -0.1139  0.0631
 9351SOL    HW139686   2.063   1.049  13.098 -0.5956  0.4725 -0.6939
 9351SOL    HW239687   2.037   0.915  13.075 -0.9256  0.6590 -1.4453
 9352SOL     OW39688   3.896   4.200  15.676 -0.0520  0.1639  0.0854
 9352SOL    HW139689   3.842   4.271  15.639  0.5582  1.7098  2.1453
 9352SOL    HW239690   3.981   4.244  15.680 -1.2550  2.1105  4.1132
 9353SOL     OW39691   3.040   4.011   3.479  0.2195  0.2000 -0.4937
 9353SOL    HW139692   3.135   4.016   3.491  0.3862  0.1219 -1.8674
 9353SOL    HW239693   3.027   3.918   3.464  0.6701  0.3487 -1.7632
 9354SOL     OW39694   3.697   4.425   1.158  0.3189 -0.3360  0.1299
 9354SOL    HW139695   3.634   4.410   1.088 -0.8458 -1.8428  1.4757
 9354SOL    HW239696   3.634   4.409   1.229  1.8359  1.9239  1.9896
 9355SOL     OW39697   3.851   2.246   1.636 -0.2519 -0.2855  0.0337
 9355SOL    HW139698   3.836   2.231   1.542  1.6168 -0.8465 -0.1781
 9355SOL    HW239699   3.768   2.271   1.675 -0.1591  2.0506 -1.2523
 9356SOL     OW39700   0.531   0.975   5.510  0.0893 -0.6020  0.0862
 9356SOL    HW139701   0.525   0.898   5.454  1.5734  0.7579 -1.9762
 9356SOL    HW239702   0.606   0.948   5.562  1.8565  0.2377 -2.0195
 9357SOL     OW39703   2.322   0.092  13.413 -0.2219  0.1514 -0.2185
 9357SOL    HW139704   2.300   0.160  13.349 -1.7991  0.8724  1.0995
 9357SOL    HW239705   2.335   0.141  13.494 -1.6490 -0.4808  0.3919
 9358SOL     OW39706   3.918   1.074  14.876 -0.0921  0.7720 -0.2831
 9358SOL    HW139707   3.932   1.011  14.805  2.1721  0.2566  0.6245
 9358SOL    HW239708   4.008   1.109  14.880  1.3720 -3.1906  1.0474
 9359SOL     OW39709   3.605   4.529   8.301  0.6280 -0.2776 -0.3917
 9359SOL    HW139710   3.564   4.586   8.236  1.1699  1.0078  0.3756
 9359SOL    HW239711   3.631   4.449   8.256 -3.2936 -1.6388 -0.2148
 9360SOL     OW39712   3.832   4.694   1.539  0.3217 -0.6696 -0.2493
 9360SOL    HW139713   3.859   4.733   1.456 -0.5162 -1.7861 -1.0623
 9360SOL    HW239714   3.756   4.652   1.498  0.3797 -0.5751 -0.4567
 9361SOL     OW39715   3.230   4.732   1.185  0.2188  0.1586 -0.6507
 9361SOL    HW139716   3.192   0.044   1.258  2.2040 -0.0480  0.5031
 9361SOL    HW239717   3.208   4.644   1.214 -1.1313 -0.1189 -2.5120
 9362SOL     OW39718   4.455   2.672   1.978 -0.4310 -0.2951  0.0111
 9362SOL    HW139719   4.382   2.639   1.926  0.3509  0.9203 -1.8287
 9362SOL    HW239720   4.407   2.694   2.059  1.7131  2.3300  0.5409
 9363SOL     OW39721   0.478   0.608   3.550  0.1978 -0.2876 -0.4063
 9363SOL    HW139722   0.529   0.541   3.506 -2.1116 -3.1097  1.2051
 9363SOL    HW239723   0.531   0.688   3.550  0.0355 -0.1798 -0.1350
 9364SOL     OW39724   2.611   0.612   7.479 -0.5552 -0.7813  0.0078
 9364SOL    HW139725   2.700   0.595   7.448 -1.0760 -2.8133 -0.3587
 9364SOL    HW239726   2.630   0.637   7.570 -0.4916  1.9510 -0.7394
 9365SOL     OW39727   3.276   2.189   2.893  0.0207  0.3005 -0.0937
 9365SOL    HW139728   3.315   2.174   2.807 -0.7080  2.4645 -0.7911
 9365SOL    HW239729   3.183   2.175   2.879 -0.2380  2.4825 -0.4349
 9366SOL     OW39730   3.800   1.901  11.570  0.8753  0.1605 -0.0045
 9366SOL    HW139731   3.723   1.887  11.515  1.8680  0.1674 -1.3818
 9366SOL    HW239732   3.873   1.918  11.511 -0.3351 -3.7168 -2.6358
 9367SOL     OW39733   4.345   4.317   5.055 -0.7948 -0.3756 -0.0796
 9367SOL    HW139734   4.435   4.285   5.050 -0.0716  1.8501 -1.0351
 9367SOL    HW239735   4.355   4.412   5.058 -1.2951 -0.3082 -0.4466
 9368SOL     OW39736   2.065   2.580  13.673 -0.2535 -0.3767  0.2144
 9368SOL    HW139737   2.034   2.613  13.758 -0.4407  3.2008 -1.2422
 9368SOL    HW239738   2.159   2.576  13.691 -0.1471 -0.9361 -0.4643
 9369SOL     OW39739   0.182   2.659   8.672  0.9086  0.2271 -0.6066
 9369SOL    HW139740   0.150   2.576   8.707 -2.5470  1.9336  0.2882
 9369SOL    HW239741   0.115   2.679   8.607 -0.9371 -3.1492  0.2683
 9370SOL     OW39742   0.115   3.655   0.537 -0.3838 -0.3675 -0.0474
 9370SOL    HW139743   0.036   3.605   0.518 -0.2117 -0.1498 -1.3402
 9370SOL    HW239744   0.149   3.601   0.609 -2.4906  2.0157  2.7252
 9371SOL     OW39745   3.286   2.646  15.276  0.1411 -0.3219 -0.6357
 9371SOL    HW139746   3.252   2.563  15.242 -1.2649 -0.0940  0.1938
 9371SOL    HW239747   3.381   2.639  15.267  0.2867  1.9526 -0.6467
 9372SOL     OW39748   0.669   3.922   2.012 -0.0133 -0.1197  0.4242
 9372SOL    HW139749   0.764   3.936   2.014  0.0435  0.0291 -2.5555
 9372SOL    HW239750   0.643   4.014   2.010  0.6420  0.0445 -0.8755
 9373SOL     OW39751   3.125   4.671   2.019  0.0168  0.2909 -0.0672
 9373SOL    HW139752   3.152   0.023   1.995  1.9253 -0.5175 -0.8661
 9373SOL    HW239753   3.099   4.638   1.932  0.0451  1.4293 -0.5064
 9374SOL     OW39754   2.178   2.013   6.710  0.2794 -0.0058 -0.0435
 9374SOL    HW139755   2.260   2.013   6.759 -0.6269  0.3373  1.4595
 9374SOL    HW239756   2.174   1.926   6.670 -1.2430 -0.4073  0.9577
 9375SOL     OW39757   1.704   2.957   0.224 -0.2392 -0.3531 -0.3345
 9375SOL    HW139758   1.685   2.907   0.144  2.3035 -0.8780 -0.6074
 9375SOL    HW239759   1.800   2.953   0.223 -0.2194  0.4303 -1.2907
 9376SOL     OW39760   0.690   0.349   1.775  0.0668 -0.1007 -0.8367
 9376SOL    HW139761   0.685   0.314   1.864  2.3016  0.4893 -0.4765
 9376SOL    HW239762   0.604   0.320   1.746 -0.4892  0.6374  0.0765
 9377SOL     OW39763   0.045   2.586  17.223 -0.3660 -0.0693  0.0072
 9377SOL    HW139764   0.129   2.615  17.258  0.0122  0.3615 -1.2424
 9377SOL    HW239765   0.060   2.514  17.161  0.3994  1.7967 -1.9809
 9378SOL     OW39766   0.746   0.687   8.078  0.3165 -0.2895 -0.5836
 9378SOL    HW139767   0.816   0.751   8.087 -0.0395 -0.2023  1.5500
 9378SOL    HW239768   0.754   0.620   8.146  1.0142  1.5275  1.1298
 9379SOL     OW39769   0.210   4.681  15.724  0.1820 -0.1836 -0.2047
 9379SOL    HW139770   0.292   4.639  15.751 -0.7288 -1.2236  0.9358
 9379SOL    HW239771   0.249   0.022  15.685  0.1083  0.9815  2.0920
 9380SOL     OW39772   3.572   1.503   2.926  0.1188 -0.7711  0.0115
 9380SOL    HW139773   3.559   1.564   2.853 -0.1552 -0.6724  0.1455
 9380SOL    HW239774   3.659   1.473   2.898  0.8571  0.5932  0.8379
 9381SOL     OW39775   0.354   4.182   8.194  0.3128 -0.3060 -0.0997
 9381SOL    HW139776   0.416   4.205   8.125 -0.5336  3.2829  0.3490
 9381SOL    HW239777   0.389   4.097   8.221 -0.0649 -0.4129  0.0546
 9382SOL     OW39778   0.399   2.747   3.484  0.2908 -0.0603 -0.1939
 9382SOL    HW139779   0.340   2.790   3.547 -0.3541 -1.1186 -0.0677
 9382SOL    HW239780   0.374   2.655   3.495 -1.8669  0.4760 -0.5501
 9383SOL     OW39781   1.128   2.026   6.584  0.3361  0.4104  0.4252
 9383SOL    HW139782   1.211   2.018   6.537  1.0567  2.2256  1.3699
 9383SOL    HW239783   1.062   1.992   6.523  2.1861  2.4112 -2.7331
 9384SOL     OW39784   0.133   3.051   5.598 -0.1937 -0.6673 -0.5091
 9384SOL    HW139785   0.174   2.964   5.600  1.6586  0.1792 -2.6030
 9384SOL    HW239786   0.207   3.109   5.616 -0.4744  0.1741 -2.0835
 9385SOL     OW39787   1.081   2.461   1.828  0.1038 -0.5680 -0.0542
 9385SOL    HW139788   1.110   2.390   1.771 -1.5337 -1.0156 -0.3316
 9385SOL    HW239789   1.083   2.424   1.917 -1.8099 -2.3199 -0.7565
 9386SOL     OW39790   3.283   1.834   0.904 -0.6557 -0.1336 -0.1639
 9386SOL    HW139791   3.252   1.916   0.865  2.4865  1.2702  0.2989
 9386SOL    HW239792   3.204   1.792   0.938  0.8761 -0.4324  3.0871
 9387SOL     OW39793   3.409   2.953   4.960 -0.2489  0.2184 -0.1159
 9387SOL    HW139794   3.334   2.996   4.919 -0.1798  0.5133  0.0670
 9387SOL    HW239795   3.368   2.895   5.023 -0.4547 -0.7282 -1.1262
 9388SOL     OW39796   1.059   1.182  10.722 -0.2232  0.1235 -0.2500
 9388SOL    HW139797   1.067   1.221  10.808 -0.2547  0.0113 -0.1956
 9388SOL    HW239798   1.121   1.108  10.719  0.8350  1.0332 -0.7886
 9389SOL     OW39799   2.712   0.210   5.115 -0.3420  0.3267 -0.2103
 9389SOL    HW139800   2.752   0.284   5.161  0.7410  0.8492 -2.0352
 9389SOL    HW239801   2.627   0.212   5.160  0.0937  3.2550  0.4351
 9390SOL     OW39802   4.286   2.519   8.667  0.3521 -0.0193 -1.2013
 9390SOL    HW139803   4.222   2.481   8.607 -0.0286 -0.0987 -0.7436
 9390SOL    HW239804   4.279   2.467   8.747  0.8459  0.7941 -0.6312
 9391SOL     OW39805   3.140   3.057   4.868 -0.0332 -0.1014  0.5776
 9391SOL    HW139806   3.084   3.108   4.927  1.5836 -0.3625  2.3168
 9391SOL    HW239807   3.095   3.059   4.783  0.4847 -2.5585  0.2333
 9392SOL     OW39808   0.897   3.885  13.121  0.2930  0.2509  0.1031
 9392SOL    HW139809   0.900   3.868  13.215 -0.2574 -0.3674  0.0070
 9392SOL    HW239810   0.985   3.913  13.096  1.1785 -4.4676 -2.2607
 9393SOL     OW39811   4.012   0.705   7.815  0.2189  0.2605  0.0139
 9393SOL    HW139812   4.102   0.713   7.847 -0.1656  0.2327  1.1022
 9393SOL    HW239813   3.965   0.760   7.876  1.1143  0.0662  0.8796
 9394SOL     OW39814   2.339   3.536  13.123 -0.2012 -0.4891  0.1115
 9394SOL    HW139815   2.363   3.596  13.193 -2.0169  1.8575 -1.3048
 9394SOL    HW239816   2.366   3.583  13.044  1.2955 -1.0435  0.3011
 9395SOL     OW39817   2.813   4.580   8.425 -0.1008 -0.7750  0.1817
 9395SOL    HW139818   2.738   4.523   8.405 -0.8823  0.9408 -1.7566
 9395SOL    HW239819   2.880   4.513   8.440  0.4529  0.1445  1.8393
 9396SOL     OW39820   1.945   4.390   4.821  0.0014 -0.1146  0.8244
 9396SOL    HW139821   1.947   4.297   4.798 -0.9915  0.4807 -1.7159
 9396SOL    HW239822   1.851   4.409   4.815  0.0739  0.1893  0.6223
 9397SOL     OW39823   3.597   0.216   7.454  0.1598 -0.2372 -0.4570
 9397SOL    HW139824   3.525   0.196   7.513  0.9467  1.2425  1.0130
 9397SOL    HW239825   3.613   0.308   7.473  3.5748 -0.6456 -1.2295
 9398SOL     OW39826   3.846   3.448   1.531 -0.3437  0.6990 -0.4342
 9398SOL    HW139827   3.924   3.487   1.571 -0.4055 -0.1746  0.5461
 9398SOL    HW239828   3.781   3.504   1.572 -2.4119 -1.7565 -0.3488
 9399SOL     OW39829   3.279   1.498   3.528  0.0352  0.4482  0.0199
 9399SOL    HW139830   3.369   1.493   3.559  0.0522 -0.9504 -0.2723
 9399SOL    HW239831   3.238   1.514   3.613 -2.4429  0.9418 -1.2476
 9400SOL     OW39832   1.882   3.678  12.280 -0.0011 -0.2025  0.1163
 9400SOL    HW139833   1.887   3.607  12.344  2.3602 -0.3739 -0.2392
 9400SOL    HW239834   1.973   3.680  12.249 -0.1227  2.2369 -0.0368
 9401SOL     OW39835   0.414   4.522  11.848 -0.5827  0.0369 -0.2137
 9401SOL    HW139836   0.372   4.589  11.902  0.9752  2.3484 -1.8416
 9401SOL    HW239837   0.506   4.526  11.875 -0.2184  2.0094 -1.6741
 9402SOL     OW39838   1.329   1.414  14.894 -0.8322  0.3118  0.4935
 9402SOL    HW139839   1.348   1.469  14.818  0.5728 -1.4462 -0.4359
 9402SOL    HW239840   1.270   1.352  14.850  1.6907 -0.5930 -1.6689
 9403SOL     OW39841   2.231   0.454   7.968 -0.1730  0.4052 -0.2513
 9403SOL    HW139842   2.150   0.403   7.962 -1.0907  1.7446  0.5512
 9403SOL    HW239843   2.198   0.509   8.039  2.4489  1.4214  0.1672
 9404SOL     OW39844   2.814   3.097  13.938 -0.4166 -0.4618  0.2023
 9404SOL    HW139845   2.905   3.079  13.913 -0.8614 -0.9731 -1.0694
 9404SOL    HW239846   2.772   3.062  13.859  0.2382 -3.3786  1.1702
 9405SOL     OW39847   4.399   1.074   8.101  0.5354  0.2879 -0.2550
 9405SOL    HW139848   4.353   0.991   8.099  1.4052 -0.2458  1.7300
 9405SOL    HW239849   4.368   1.103   8.187 -1.5052  1.2129 -1.2944
 9406SOL     OW39850   2.205   3.572   1.969 -0.2614 -0.6162  0.4560
 9406SOL    HW139851   2.161   3.657   1.976 -0.4765 -0.5623 -1.5266
 9406SOL    HW239852   2.134   3.509   1.960 -2.0744  1.5849 -0.5907
 9407SOL     OW39853   1.953   3.280   3.709 -0.0498 -0.1646 -0.3917
 9407SOL    HW139854   1.990   3.348   3.652 -0.0551  0.5224  0.4193
 9407SOL    HW239855   1.884   3.327   3.756  0.6962 -0.1543  0.6817
 9408SOL     OW39856   4.109   1.278  14.921 -0.8167  0.0365  0.3165
 9408SOL    HW139857   4.116   1.372  14.907 -0.2199  0.1919  1.6483
 9408SOL    HW239858   4.077   1.279  15.011 -1.3424 -1.2355  0.1422
 9409SOL     OW39859   0.244   0.850  14.398 -0.6483  0.3433 -0.2440
 9409SOL    HW139860   0.300   0.875  14.324 -2.4943 -0.4305 -1.8922
 9409SOL    HW239861   0.261   0.919  14.462  0.2811  1.4158 -1.6223
 9410SOL     OW39862   0.138   4.719   7.825 -0.8766  0.1046 -0.3449
 9410SOL    HW139863   0.192   4.736   7.747  0.8196  1.6268  1.1409
 9410SOL    HW239864   0.146   0.064   7.874 -2.2823 -1.4563  2.4496
 9411SOL     OW39865   3.970   3.145   2.443  0.0718 -0.3738 -0.4315
 9411SOL    HW139866   4.044   3.195   2.409 -1.1627  1.9212  0.3010
 9411SOL    HW239867   3.938   3.194   2.518  0.3366  1.3704 -1.4618
 9412SOL     OW39868   3.409   0.524  15.497 -0.1354  0.6943 -0.0490
 9412SOL    HW139869   3.412   0.449  15.437 -0.5353  0.5430  0.1227
 9412SOL    HW239870   3.316   0.539  15.512 -0.2758  1.4572 -1.6228
 9413SOL     OW39871   1.920   0.238   5.164 -0.4876 -1.0917  0.5384
 9413SOL    HW139872   1.870   0.288   5.229 -1.6404 -2.6511  0.8633
 9413SOL    HW239873   2.007   0.250   5.203 -1.4988  0.3174  2.3664
 9414SOL     OW39874   0.414   0.962   0.309 -0.2357 -0.0906  0.0992
 9414SOL    HW139875   0.433   0.941   0.218  3.3448  1.9016  0.4017
 9414SOL    HW239876   0.392   1.054   0.294  2.1209 -0.0074 -2.7368
 9415SOL     OW39877   1.207   2.801  11.897 -0.3646  0.3033  0.1267
 9415SOL    HW139878   1.139   2.837  11.955 -1.5267 -0.2600 -0.8805
 9415SOL    HW239879   1.154   2.740  11.846  0.2119 -0.6007  0.6098
 9416SOL     OW39880   1.710   1.749   0.457  0.8372 -0.7771 -0.3061
 9416SOL    HW139881   1.676   1.680   0.514  2.6162 -1.3100  0.1306
 9416SOL    HW239882   1.699   1.823   0.517 -0.1123 -0.8882 -0.3427
 9417SOL     OW39883   2.851   1.658   3.276 -0.2163  0.1839  0.0039
 9417SOL    HW139884   2.818   1.579   3.232 -0.7082  0.7005 -0.5557
 9417SOL    HW239885   2.945   1.638   3.274 -0.3435 -0.3035 -1.0655
 9418SOL     OW39886   0.899   0.721   3.588  0.1718 -0.2247 -0.2746
 9418SOL    HW139887   0.863   0.688   3.505  1.4807 -0.3635 -0.7905
 9418SOL    HW239888   0.979   0.668   3.595 -1.5953 -3.0081 -1.1064
 9419SOL     OW39889   2.039   3.345   9.315 -0.5072 -0.1223  0.0952
 9419SOL    HW139890   2.013   3.252   9.313 -0.3225 -0.1847  0.5975
 9419SOL    HW239891   1.988   3.374   9.239  0.0473 -0.2781 -0.3352
 9420SOL     OW39892   1.424   0.679   6.674 -0.1178 -0.9046 -0.2865
 9420SOL    HW139893   1.381   0.662   6.758  0.3162  2.1912  0.5468
 9420SOL    HW239894   1.362   0.640   6.612 -0.8854  0.9646 -0.6969
 9421SOL     OW39895   0.796   0.793   2.573 -0.0919 -0.3877  0.7042
 9421SOL    HW139896   0.764   0.813   2.485  2.1063  1.1770  0.2758
 9421SOL    HW239897   0.886   0.813   2.549 -0.9470  0.9972 -1.2973
 9422SOL     OW39898   3.708   4.612   5.090 -0.0317 -0.1108 -0.4621
 9422SOL    HW139899   3.628   4.578   5.129 -0.4185  1.2114 -0.0920
 9422SOL    HW239900   3.729   4.531   5.042  0.1049 -1.3708  1.7253
 9423SOL     OW39901   1.816   3.040   6.688 -0.0036  0.5693 -0.1295
 9423SOL    HW139902   1.819   3.103   6.760 -1.2920  0.3325  0.1183
 9423SOL    HW239903   1.735   2.998   6.717  0.8035 -0.8211  0.1364
 9424SOL     OW39904   2.075   3.274   5.091  0.2146 -0.6304  0.5009
 9424SOL    HW139905   2.035   3.295   5.007 -0.0788  0.0242  0.8032
 9424SOL    HW239906   2.156   3.227   5.072 -0.2601 -0.4049 -2.1399
 9425SOL     OW39907   1.500   3.861   6.541 -0.2079  0.3074 -0.3001
 9425SOL    HW139908   1.446   3.787   6.571 -3.4367  2.3407 -1.1213
 9425SOL    HW239909   1.501   3.918   6.618  0.6018  1.5913 -1.2775
 9426SOL     OW39910   2.322   2.539  15.865  0.2194  0.8276  0.1283
 9426SOL    HW139911   2.408   2.504  15.891 -0.0775  1.0648  1.4246
 9426SOL    HW239912   2.337   2.571  15.777 -0.1104  1.4657  0.3046
 9427SOL     OW39913   3.609   2.897   4.306 -0.1151 -0.0027 -0.3142
 9427SOL    HW139914   3.675   2.881   4.238 -2.3206 -2.9952 -1.7790
 9427SOL    HW239915   3.639   2.827   4.364  1.0848  0.2318 -0.6556
 9428SOL     OW39916   1.802   2.276  15.120  0.1937 -0.5659 -0.3450
 9428SOL    HW139917   1.805   2.368  15.096 -1.8040 -0.2363  0.6429
 9428SOL    HW239918   1.718   2.280  15.165  0.8669  2.0094  0.6710
 9429SOL     OW39919   1.804   1.181   9.092 -0.2446  0.5952 -0.4538
 9429SOL    HW139920   1.894   1.193   9.122 -0.7326  1.2002  0.7639
 9429SOL    HW239921   1.762   1.267   9.091  0.2098  0.8046 -3.2122
 9430SOL     OW39922   2.143   2.185   5.311 -0.0624  0.4566  0.4897
 9430SOL    HW139923   2.076   2.118   5.297 -3.6595  3.2617  3.9631
 9430SOL    HW239924   2.210   2.162   5.248  0.5497  2.3729  0.4330
 9431SOL     OW39925   2.069   1.648   4.234 -0.7908 -0.6235 -0.0870
 9431SOL    HW139926   2.036   1.608   4.315 -0.7271 -0.1086  0.1868
 9431SOL    HW239927   2.085   1.572   4.177 -0.0483 -1.6578  1.5060
 9432SOL     OW39928   4.412   4.701  12.035  0.5207  0.1393  0.3012
 9432SOL    HW139929   4.465   0.041  12.053 -1.4803  1.6374 -0.2238
 9432SOL    HW239930   4.385   4.731  11.948 -2.1389  0.9941  1.4283
 9433SOL     OW39931   2.916   3.713  16.463  0.3049 -0.0944 -0.1742
 9433SOL    HW139932   2.934   3.686  16.553  2.2199 -0.6213 -0.7099
 9433SOL    HW239933   2.838   3.658  16.457  0.5852 -0.4632 -0.3740
 9434SOL     OW39934   2.231   1.366   4.404  0.3220 -0.6648 -0.0665
 9434SOL    HW139935   2.168   1.313   4.355  0.5009 -0.5096 -0.4694
 9434SOL    HW239936   2.188   1.387   4.487 -0.2344  0.2391 -0.5885
 9435SOL     OW39937   0.411   4.262  17.027 -0.6043 -0.6699  0.0696
 9435SOL    HW139938   0.362   4.193  17.073  0.6519 -1.5323  0.1238
 9435SOL    HW239939   0.465   4.209  16.968  2.5381  0.1977  2.1560
 9436SOL     OW39940   1.458   1.476   4.913 -0.0234  0.6773  0.4606
 9436SOL    HW139941   1.432   1.444   4.999 -1.5814  0.0498 -0.2549
 9436SOL    HW239942   1.396   1.548   4.899 -1.6195 -0.7663  0.1501
 9437SOL     OW39943   2.630   0.625   2.214  0.3281  0.4289  0.2165
 9437SOL    HW139944   2.563   0.648   2.279  1.2446  0.9303  0.9897
 9437SOL    HW239945   2.596   0.554   2.160  0.1485  0.3747  0.3968
 9438SOL     OW39946   2.588   4.147   6.593 -0.5913  0.1199  0.5566
 9438SOL    HW139947   2.541   4.101   6.664 -0.0778  0.9472  1.4282
 9438SOL    HW239948   2.512   4.185   6.550  1.2826  3.0985 -0.1177
 9439SOL     OW39949   3.922   0.305   7.498  0.3209 -0.0731 -0.3394
 9439SOL    HW139950   4.008   0.268   7.516  0.4647  0.6931  0.6059
 9439SOL    HW239951   3.938   0.393   7.533  0.4247  0.5941 -2.0743
 9440SOL     OW39952   1.107   3.679   2.507 -0.2418  0.1001 -0.1266
 9440SOL    HW139953   1.140   3.769   2.504  0.8872 -0.2897  0.4884
 9440SOL    HW239954   1.014   3.697   2.494 -0.1192  0.3653 -0.6329
 9441SOL     OW39955   1.664   0.521   2.294  0.2598  0.1447 -0.1814
 9441SOL    HW139956   1.588   0.467   2.271  0.4631 -0.0135 -0.4874
 9441SOL    HW239957   1.681   0.556   2.207  1.1599  2.2663  0.8740
 9442SOL     OW39958   0.138   3.235   1.815  0.2048 -0.0819 -0.0537
 9442SOL    HW139959   0.051   3.206   1.840 -0.4095  2.1457  0.3507
 9442SOL    HW239960   0.182   3.159   1.777  1.9591  0.6661  0.4793
 9443SOL     OW39961   1.236   1.819   5.140  0.2679 -0.4125  0.6936
 9443SOL    HW139962   1.318   1.868   5.148 -0.1988  0.6003 -0.6447
 9443SOL    HW239963   1.181   1.855   5.209 -1.4753 -0.3713 -0.7087
 9444SOL     OW39964   2.191   3.320   4.526  0.2465  0.1568  0.1823
 9444SOL    HW139965   2.150   3.276   4.601  0.0133  2.4501  1.3830
 9444SOL    HW239966   2.235   3.396   4.565 -1.7617 -0.4450  3.6760
 9445SOL     OW39967   3.717   1.258  15.884 -0.6067  0.3702 -0.2651
 9445SOL    HW139968   3.641   1.222  15.838 -1.1104 -1.6615  2.1419
 9445SOL    HW239969   3.691   1.347  15.906  2.1005  0.6093  1.9804
 9446SOL     OW39970   2.118   0.750  14.653  0.2803  0.0585 -0.2413
 9446SOL    HW139971   2.111   0.763  14.558  0.6625  0.6906 -0.1834
 9446SOL    HW239972   2.048   0.688  14.672 -0.8328  1.8152  1.3983
 9447SOL     OW39973   2.841   2.787  16.494 -0.1193 -0.6062  0.9039
 9447SOL    HW139974   2.765   2.767  16.438 -0.0522  1.3085  0.1509
 9447SOL    HW239975   2.831   2.727  16.568 -0.3585  0.2786  1.5867
 9448SOL     OW39976   2.095   3.703   4.856 -0.3300  0.0414  0.0582
 9448SOL    HW139977   2.045   3.764   4.910 -0.5094 -0.5606  0.5796
 9448SOL    HW239978   2.072   3.734   4.769 -0.5253  1.5207  0.6383
 9449SOL     OW39979   2.553   3.309   9.512  0.2681 -0.0436  0.5577
 9449SOL    HW139980   2.625   3.356   9.469 -0.7553 -0.7022 -1.8942
 9449SOL    HW239981   2.499   3.287   9.436  1.4930  4.4778 -1.6372
 9450SOL     OW39982   2.189   1.300   8.147 -0.3362  0.1962 -0.4602
 9450SOL    HW139983   2.098   1.273   8.158 -0.4297  0.2679 -1.1141
 9450SOL    HW239984   2.227   1.223   8.104 -0.0112  1.2361 -2.0018
 9451SOL     OW39985   0.836   4.311  12.615 -0.6801  0.3667 -0.6144
 9451SOL    HW139986   0.811   4.342  12.702 -0.5787  2.4434 -1.3047
 9451SOL    HW239987   0.793   4.228  12.634 -0.4080  0.6159  1.0943
 9452SOL     OW39988   2.517   1.402   7.425  0.0753 -0.1010 -0.1559
 9452SOL    HW139989   2.469   1.452   7.359 -0.6306 -2.0746 -1.1289
 9452SOL    HW239990   2.603   1.406   7.383  0.0024  1.4665 -0.1643
 9453SOL     OW39991   1.951   0.879   2.274  0.1040  0.2836 -0.1986
 9453SOL    HW139992   1.901   0.827   2.212  0.8337  0.7371 -1.1669
 9453SOL    HW239993   1.873   0.922   2.310 -0.1229 -1.0102  0.8316
 9454SOL     OW39994   1.137   0.223   3.755  0.7259  0.6429 -0.0325
 9454SOL    HW139995   1.208   0.250   3.814  0.0166  0.8303  0.7369
 9454SOL    HW239996   1.168   0.132   3.759 -1.9916 -0.2014  1.8770
 9455SOL     OW39997   3.415   3.637   1.283 -0.2254  0.2216  0.4923
 9455SOL    HW139998   3.343   3.697   1.267  0.3121  0.6607 -0.3169
 9455SOL    HW239999   3.370   3.557   1.310  0.7397 -0.2717  0.6685
 9456SOL     OW40000   1.846   0.986   4.114 -0.5674 -0.1095 -0.2091
 9456SOL    HW140001   1.781   0.945   4.170  0.0995 -0.8878 -0.0033
 9456SOL    HW240002   1.883   0.905   4.079  1.4590  0.9824 -0.5815
 9457SOL     OW40003   3.282   0.093   7.549 -0.2088 -0.0273  0.0385
 9457SOL    HW140004   3.340   0.150   7.598 -0.3495 -0.1835  0.3914
 9457SOL    HW240005   3.314   0.008   7.580 -0.2388  0.2304  0.7713
 9458SOL     OW40006   4.523   4.059  15.412 -0.0660 -0.6210  0.3202
 9458SOL    HW140007   4.554   3.982  15.460  1.3179 -0.7700 -0.8105
 9458SOL    HW240008   4.600   4.115  15.415  0.0063 -0.7531  0.9892
 9459SOL     OW40009   0.388   2.848   4.016 -0.1854  0.7937  0.4658
 9459SOL    HW140010   0.466   2.811   4.058 -0.7545 -1.6301 -0.6253
 9459SOL    HW240011   0.321   2.825   4.081  1.6916  0.9003  2.4796
 9460SOL     OW40012   4.099   4.365   6.650 -0.0874  0.2613 -0.1251
 9460SOL    HW140013   4.011   4.388   6.677  0.6857  1.5959  1.2608
 9460SOL    HW240014   4.077   4.329   6.564  1.1078  0.7878 -0.6607
 9461SOL     OW40015   4.259   2.665   4.021 -0.0203 -0.0061  0.0918
 9461SOL    HW140016   4.175   2.658   4.067 -0.2565  0.8260 -0.2222
 9461SOL    HW240017   4.240   2.666   3.928  0.9012  0.2328 -0.0926
 9462SOL     OW40018   2.034   2.190   1.831  0.8699  0.1816  0.5238
 9462SOL    HW140019   2.044   2.253   1.903  0.6002  2.8016 -1.7088
 9462SOL    HW240020   2.031   2.112   1.887  0.1562  0.8750  1.4647
 9463SOL     OW40021   3.082   0.934   6.082 -0.0302  0.3087  0.1219
 9463SOL    HW140022   3.048   1.017   6.049  0.3891  0.2337 -0.4940
 9463SOL    HW240023   3.030   0.924   6.162 -0.1989  1.5862  0.1669
 9464SOL     OW40024   3.254   0.968   7.517  0.1279 -0.4023  0.2846
 9464SOL    HW140025   3.330   0.962   7.459  0.1687 -1.5222  0.4483
 9464SOL    HW240026   3.285   1.043   7.567 -2.5963 -2.0014  4.3217
 9465SOL     OW40027   4.064   1.773   7.306  0.3979 -0.5577  0.0726
 9465SOL    HW140028   4.072   1.857   7.262  1.6750 -0.8415 -0.2367
 9465SOL    HW240029   4.140   1.771   7.365 -0.6109 -0.9675  1.3614
 9466SOL     OW40030   2.946   2.360   6.761 -0.0792  0.4093 -0.1310
 9466SOL    HW140031   3.010   2.372   6.690 -1.2273 -2.3519 -1.6477
 9466SOL    HW240032   2.879   2.310   6.715 -0.2688  0.3575  0.2051
 9467SOL     OW40033   3.675   3.704   1.254  0.3059 -0.6352 -0.5268
 9467SOL    HW140034   3.661   3.786   1.301 -2.0886 -0.2238 -1.9838
 9467SOL    HW240035   3.598   3.649   1.266 -0.7410  0.4960 -2.0497
 9468SOL     OW40036   0.605   3.526   7.259 -0.1558  0.6801  0.0825
 9468SOL    HW140037   0.635   3.518   7.169 -0.9838 -1.8333  0.0408
 9468SOL    HW240038   0.517   3.561   7.246  0.1891  1.4161 -0.2517
 9469SOL     OW40039   4.632   2.272  14.927  0.0458 -0.4397  0.3541
 9469SOL    HW140040   4.595   2.221  14.855  1.6980 -0.4483 -0.4828
 9469SOL    HW240041   4.648   2.357  14.885 -0.9682 -0.5053 -0.1645
 9470SOL     OW40042   4.361   0.448   5.669 -0.4775  0.3657 -0.4129
 9470SOL    HW140043   4.278   0.441   5.622 -0.8527  0.2101  0.2734
 9470SOL    HW240044   4.400   0.364   5.645  1.2880  1.4931 -1.4643
 9471SOL     OW40045   2.301   2.794   1.630 -0.0417  0.0542  0.5176
 9471SOL    HW140046   2.348   2.726   1.678 -0.9732 -0.0420  1.2894
 9471SOL    HW240047   2.334   2.874   1.673 -0.7426 -0.4740  2.0284
 9472SOL     OW40048   0.344   1.791  11.568  0.8421  0.0617 -0.6653
 9472SOL    HW140049   0.285   1.850  11.614  1.2557 -0.3050  0.3346
 9472SOL    HW240050   0.430   1.832  11.578  1.1651 -0.7769  0.0420
 9473SOL     OW40051   3.896   1.947   0.439  0.0575 -0.0225 -0.6212
 9473SOL    HW140052   3.875   1.915   0.351 -0.6713  0.2511 -0.5444
 9473SOL    HW240053   3.923   2.036   0.414 -2.1679  0.5311 -1.0453
 9474SOL     OW40054   2.622   4.535  12.869 -0.7106  0.0028 -0.2739
 9474SOL    HW140055   2.571   4.493  12.938  2.9731 -0.9103  1.9135
 9474SOL    HW240056   2.695   4.549  12.929 -0.1699  0.2306 -0.9831
 9475SOL     OW40057   1.770   1.646   5.824 -0.3554 -0.0810 -0.1859
 9475SOL    HW140058   1.771   1.606   5.911 -1.4673  1.4265  0.5161
 9475SOL    HW240059   1.737   1.735   5.841 -1.0199 -0.2184 -0.7494
 9476SOL     OW40060   4.272   1.618  10.747 -0.2815 -0.5549 -0.0283
 9476SOL    HW140061   4.286   1.625  10.653 -0.7945 -1.4224 -0.1677
 9476SOL    HW240062   4.203   1.683  10.765  0.7592  1.0332 -1.7803
 9477SOL     OW40063   3.146   4.297   5.334  0.9186 -0.2724  0.0279
 9477SOL    HW140064   3.127   4.381   5.291 -1.8178 -1.5235 -1.1729
 9477SOL    HW240065   3.202   4.314   5.410  1.6669 -0.8432 -0.3897
 9478SOL     OW40066   3.595   0.830  17.029 -0.1661 -0.5638 -0.2210
 9478SOL    HW140067   3.659   0.900  17.043 -0.8325  0.4049 -2.2432
 9478SOL    HW240068   3.557   0.840  16.942 -0.8686  1.0061  0.2779
 9479SOL     OW40069   1.601   4.504  10.768  0.2374  0.2884 -0.5509
 9479SOL    HW140070   1.512   4.539  10.757  0.7948  2.0938  0.6550
 9479SOL    HW240071   1.573   4.447  10.839  2.2285  0.7109  0.5764
 9480SOL     OW40072   1.826   2.504  11.611  0.0016  0.7109 -0.1546
 9480SOL    HW140073   1.784   2.590  11.610  0.1666  0.7772 -1.8502
 9480SOL    HW240074   1.759   2.451  11.568  0.4280  1.1507 -1.3664
 9481SOL     OW40075   2.578   2.139   9.387  0.1195 -0.2371  0.3998
 9481SOL    HW140076   2.518   2.067   9.410  0.5697 -0.4839  0.7889
 9481SOL    HW240077   2.508   2.203   9.374 -0.6495 -1.6499 -2.4608
 9482SOL     OW40078   3.663   3.802  12.316 -0.0059  0.1451  0.2367
 9482SOL    HW140079   3.657   3.752  12.398  0.6392  1.3852  1.0454
 9482SOL    HW240080   3.746   3.762  12.290 -0.9172 -2.6432  1.5689
 9483SOL     OW40081   0.567   0.276   9.736  0.4668  0.2148  0.5243
 9483SOL    HW140082   0.647   0.223   9.730  0.9199  0.9268  0.1291
 9483SOL    HW240083   0.581   0.293   9.829 -0.6201  0.2204  0.6771
 9484SOL     OW40084   4.529   4.168   1.843 -0.0363  0.3995 -0.0836
 9484SOL    HW140085   4.481   4.245   1.874  0.3657  1.1791 -1.3982
 9484SOL    HW240086   4.621   4.194   1.845  0.6312 -1.9408  0.0532
 9485SOL     OW40087   2.088   4.238   3.526  0.0493 -0.4237  0.2235
 9485SOL    HW140088   2.041   4.214   3.446  0.5799  1.2558 -0.5937
 9485SOL    HW240089   2.035   4.315   3.548 -1.2977 -0.0529 -4.3005
 9486SOL     OW40090   1.458   4.398   8.973  0.3763  0.1379 -0.1033
 9486SOL    HW140091   1.489   4.371   9.060 -3.7919  2.7430  2.2090
 9486SOL    HW240092   1.416   4.482   8.993 -0.1659 -0.5446  1.6642
 9487SOL     OW40093   1.837   1.212   6.790  0.0786  0.1447  0.1207
 9487SOL    HW140094   1.836   1.123   6.826  2.0383 -0.0263 -0.2824
 9487SOL    HW240095   1.785   1.196   6.710  2.6044 -0.6948 -1.3667
 9488SOL     OW40096   0.953   1.176  10.309 -0.4501 -0.5721 -0.1871
 9488SOL    HW140097   0.926   1.187  10.218  1.6679  2.2085 -0.4727
 9488SOL    HW240098   0.894   1.103  10.329 -0.7879  0.3471  2.1308
 9489SOL     OW40099   0.542   0.313  15.483 -0.1277  0.3240 -1.1631
 9489SOL    HW140100   0.593   0.236  15.460 -0.7915 -1.1939  2.5188
 9489SOL    HW240101   0.558   0.367  15.405  0.7883 -0.5673 -1.5817
 9490SOL     OW40102   3.942   2.776   2.010 -0.3515  0.0101  1.0952
 9490SOL    HW140103   3.936   2.683   1.986 -0.7344  0.6895 -1.4445
 9490SOL    HW240104   3.864   2.803   1.962  0.3926  0.5810  0.2209
 9491SOL     OW40105   0.572   0.970   3.193  1.1337  0.0393 -0.1002
 9491SOL    HW140106   0.634   0.910   3.153 -0.4577 -1.5780 -0.1205
 9491SOL    HW240107   0.532   1.017   3.119 -0.5528 -0.0116  0.7930
 9492SOL     OW40108   1.578   0.137   3.615  0.2786 -0.4246 -0.1037
 9492SOL    HW140109   1.545   0.099   3.697  1.5196 -3.1541 -0.8597
 9492SOL    HW240110   1.631   0.062   3.585  1.1487  0.3524 -0.5001
 9493SOL     OW40111   3.311   4.051   3.510 -0.0613  0.2987  0.2252
 9493SOL    HW140112   3.394   4.040   3.463 -0.3581 -0.4965 -0.1049
 9493SOL    HW240113   3.297   4.146   3.512  0.6639  0.4380 -1.0385
 9494SOL     OW40114   2.033   4.245   7.494  0.2873  0.5716  0.2216
 9494SOL    HW140115   2.011   4.229   7.402 -1.6652 -2.4591  1.2417
 9494SOL    HW240116   2.127   4.263   7.486  0.2480  0.0550 -1.5127
 9495SOL     OW40117   1.369   3.577   2.520 -0.0246  0.0773  0.1295
 9495SOL    HW140118   1.383   3.648   2.457  0.2181  0.3660  0.5043
 9495SOL    HW240119   1.275   3.584   2.538  0.1032  1.6967  0.1891
 9496SOL     OW40120   1.105   3.903   8.113  0.4475 -0.0171  0.0718
 9496SOL    HW140121   1.027   3.859   8.080  1.7352 -1.9561 -0.3810
 9496SOL    HW240122   1.091   3.906   8.208 -2.0815  1.1556 -0.3339
 9497SOL     OW40123   3.302   2.875   7.244  0.5612  0.8004  0.3695
 9497SOL    HW140124   3.240   2.819   7.197 -0.3625 -0.2093  2.8183
 9497SOL    HW240125   3.380   2.855   7.192 -0.2670 -2.1545  0.2871
 9498SOL     OW40126   1.697   4.393   8.218  0.1310  0.0438  0.1797
 9498SOL    HW140127   1.771   4.369   8.273  0.1923  0.2453  0.1871
 9498SOL    HW240128   1.677   4.305   8.186 -0.8708  0.3998 -0.1952
 9499SOL     OW40129   0.718   0.289  10.743 -0.5209  0.3813 -0.6392
 9499SOL    HW140130   0.702   0.366  10.689  0.1352  2.2772  1.8371
 9499SOL    HW240131   0.710   0.335  10.827 -0.1779  1.2448 -1.0777
 9500SOL     OW40132   1.769   3.986   2.596 -0.2378 -0.3131 -0.1563
 9500SOL    HW140133   1.735   4.075   2.589  0.5915  0.0155 -0.0425
 9500SOL    HW240134   1.697   3.935   2.633 -3.1291  1.4756 -3.3030
 9501SOL     OW40135   0.312   2.030   4.995 -0.0347  0.5655  0.2117
 9501SOL    HW140136   0.361   1.949   4.979 -0.3038  0.3227  0.6105
 9501SOL    HW240137   0.231   2.011   4.949  1.6816 -4.0434 -0.8963
 9502SOL     OW40138   4.157   4.606   5.726  0.1093  0.2291 -0.0119
 9502SOL    HW140139   4.163   4.602   5.630  0.1941 -0.7296  0.0362
 9502SOL    HW240140   4.161   4.512   5.739 -3.3819 -0.0945 -1.1142
 9503SOL     OW40141   0.264   2.784   3.779  0.3358  0.3555 -0.4235
 9503SOL    HW140142   0.209   2.719   3.822  0.2947  0.1432 -0.7975
 9503SOL    HW240143   0.319   2.810   3.854 -0.6803 -0.3527  0.5643
 9504SOL     OW40144   2.751   1.145   6.860 -0.1501 -0.3743 -0.4524
 9504SOL    HW140145   2.658   1.152   6.880  0.2415 -0.2683  1.3625
 9504SOL    HW240146   2.762   1.056   6.826 -0.3992 -0.3654 -0.5564
 9505SOL     OW40147   3.673   0.601  17.130  0.5939  0.0395  0.4083
 9505SOL    HW140148   3.621   0.670  17.088 -0.2452 -0.7937  0.0875
 9505SOL    HW240149   3.648   0.528  17.073 -0.0327  0.0902  0.6238
 9506SOL     OW40150   1.905   0.614   4.505  0.4912  0.0980 -0.8520
 9506SOL    HW140151   1.971   0.570   4.559  1.6037  0.2825 -2.0481
 9506SOL    HW240152   1.863   0.678   4.562  0.1388 -1.3151  0.4722
 9507SOL     OW40153   4.210   3.775   3.155  0.4968 -0.1825  0.1574
 9507SOL    HW140154   4.294   3.768   3.199  0.5736 -1.2547 -0.1532
 9507SOL    HW240155   4.156   3.793   3.233  0.1409 -0.3985 -0.0365
 9508SOL     OW40156   1.381   0.179   7.564 -0.8968  0.5689 -0.3493
 9508SOL    HW140157   1.398   0.211   7.652  2.8468  0.8790 -1.1802
 9508SOL    HW240158   1.312   0.120   7.595 -0.6803  0.9151  0.7654
 9509SOL     OW40159   3.941   1.505   6.418  0.1529 -0.0496 -0.2857
 9509SOL    HW140160   3.954   1.559   6.340 -4.7490  1.7174  0.1109
 9509SOL    HW240161   3.854   1.468   6.407  0.7145 -0.1888 -4.1349
 9510SOL     OW40162   2.131   1.339   5.846 -0.1288 -0.0523 -0.0719
 9510SOL    HW140163   2.200   1.294   5.894 -2.0068 -0.9381  1.7803
 9510SOL    HW240164   2.169   1.422   5.816  3.1713 -0.9729  1.6621
 9511SOL     OW40165   0.829   3.025   7.424 -0.3561  0.0755  0.6195
 9511SOL    HW140166   0.910   2.988   7.390  0.1327  1.2615  0.4880
 9511SOL    HW240167   0.767   2.953   7.435 -0.9351  0.3574 -0.7677
 9512SOL     OW40168   0.965   3.179  12.152  0.2957  0.1902  0.0175
 9512SOL    HW140169   1.006   3.136  12.226 -1.0312 -1.4278 -0.2016
 9512SOL    HW240170   0.901   3.233  12.197 -1.1198 -1.5212  0.0414
 9513SOL     OW40171   0.705   3.425   6.683 -0.6185 -0.2899  0.8632
 9513SOL    HW140172   0.610   3.422   6.683 -0.5948 -1.0615 -0.8659
 9513SOL    HW240173   0.730   3.488   6.750 -2.2456  0.2286  0.9798
 9514SOL     OW40174   3.401   4.607   3.049 -0.7612  0.6736  0.2651
 9514SOL    HW140175   3.467   4.651   3.103  1.2631  1.3381 -2.7547
 9514SOL    HW240176   3.318   4.646   3.077 -0.3067  1.6965  0.1762
 9515SOL     OW40177   3.934   0.611   1.630 -0.1477 -0.1242  0.3982
 9515SOL    HW140178   3.897   0.645   1.548 -0.9394 -0.8853  0.4425
 9515SOL    HW240179   3.994   0.680   1.658  0.1617  0.3981 -1.5824
 9516SOL     OW40180   1.138   4.115   9.435 -0.3368 -0.2516  0.1690
 9516SOL    HW140181   1.141   4.032   9.387 -1.0524 -1.7104  2.6704
 9516SOL    HW240182   1.048   4.134   9.411  0.2265  1.0180 -0.9633
 9517SOL     OW40183   0.304   2.471   5.501 -0.5072 -0.2437 -0.1928
 9517SOL    HW140184   0.383   2.523   5.487  0.0796 -1.5059 -1.5997
 9517SOL    HW240185   0.315   2.392   5.449  0.2881 -0.0410 -0.3228
 9518SOL     OW40186   0.950   0.409  16.507 -0.5267  0.4555 -0.4166
 9518SOL    HW140187   0.971   0.435  16.417 -4.2258  1.9392 -0.8514
 9518SOL    HW240188   0.894   0.480  16.540 -1.6880 -1.3656  1.5437
 9519SOL     OW40189   0.325   3.350   2.100 -0.2779 -0.2231  0.1566
 9519SOL    HW140190   0.301   3.324   2.011  0.0617  2.3437 -0.6886
 9519SOL    HW240191   0.355   3.440   2.087 -1.2236  0.0003 -0.4235
 9520SOL     OW40192   3.326   4.401   9.412 -0.2508 -0.5994 -0.1640
 9520SOL    HW140193   3.422   4.398   9.405 -0.0524  2.2710  1.3559
 9520SOL    HW240194   3.321   4.372   9.503 -0.5358 -1.1910 -0.3696
 9521SOL     OW40195   2.241   3.208   8.174  0.5606  0.1339 -0.2192
 9521SOL    HW140196   2.170   3.262   8.210 -1.1301 -0.5480 -2.5242
 9521SOL    HW240197   2.249   3.143   8.243 -0.8810  1.1889  0.9547
 9522SOL     OW40198   2.215   3.181   1.341  0.7238 -0.3191 -0.2575
 9522SOL    HW140199   2.292   3.153   1.390  0.2738 -2.4430 -0.8013
 9522SOL    HW240200   2.256   3.240   1.278  0.9357 -0.8346 -0.5921
 9523SOL     OW40201   4.709   1.192   7.310  0.2573 -0.1909 -0.0386
 9523SOL    HW140202   4.663   1.273   7.289 -1.0600 -0.6829  0.9506
 9523SOL    HW240203   4.722   1.206   7.404 -0.0310 -0.3343  0.0223
 9524SOL     OW40204   2.464   1.074   7.857  0.6701 -0.1742  0.6947
 9524SOL    HW140205   2.527   1.060   7.786  0.3436  0.0965  0.3522
 9524SOL    HW240206   2.455   0.981   7.875 -1.1041 -0.1951 -0.3854
 9525SOL     OW40207   0.070   2.078   1.850  0.7879  0.3239  0.0482
 9525SOL    HW140208   4.726   2.128   1.835 -0.5433 -1.2055  2.2197
 9525SOL    HW240209   0.039   1.988   1.852 -2.9963  1.6136 -1.8751
 9526SOL     OW40210   0.565   4.387  11.618  0.0301 -0.0366 -0.0781
 9526SOL    HW140211   0.516   4.466  11.595  1.9316  1.1234 -0.1429
 9526SOL    HW240212   0.587   4.407  11.709 -2.2827  0.5163  0.3542
 9527SOL     OW40213   1.736   4.503  11.400  0.4700 -0.0688  0.6742
 9527SOL    HW140214   1.720   4.483  11.308  0.2918  1.0538  0.4653
 9527SOL    HW240215   1.832   4.508  11.399  0.4632 -0.4006 -0.6736
 9528SOL     OW40216   3.401   3.718   3.257 -0.7432 -0.1662  1.0346
 9528SOL    HW140217   3.480   3.770   3.268  1.0771 -2.7648  0.2769
 9528SOL    HW240218   3.391   3.718   3.161 -2.0194  0.4901  1.1604
 9529SOL     OW40219   1.302   3.063   3.818  0.3988 -0.2829  0.1649
 9529SOL    HW140220   1.300   3.102   3.906 -1.5271  4.0370 -1.7657
 9529SOL    HW240221   1.228   3.112   3.779 -0.1448 -1.8254 -0.7318
 9530SOL     OW40222   0.492   3.656  16.610  0.5912  0.3997  0.1597
 9530SOL    HW140223   0.516   3.589  16.675  0.7382  2.1165  1.8730
 9530SOL    HW240224   0.561   3.721  16.623  0.4444  0.1583  2.1517
 9531SOL     OW40225   0.671   2.319   8.740 -0.1747 -0.3466 -0.4300
 9531SOL    HW140226   0.631   2.350   8.659  1.4716  0.7689 -0.8095
 9531SOL    HW240227   0.759   2.295   8.708 -0.4408  0.5723 -1.8377
 9532SOL     OW40228   0.766   3.410  16.184 -0.3572  0.2590 -0.5788
 9532SOL    HW140229   0.729   3.496  16.202 -3.3067 -1.2277  0.4903
 9532SOL    HW240230   0.712   3.368  16.251  2.5738  0.8982  2.1737
 9533SOL     OW40231   4.132   3.623   5.360 -0.2020 -0.2106 -0.7036
 9533SOL    HW140232   4.068   3.556   5.384 -1.3484  0.6879 -1.2429
 9533SOL    HW240233   4.199   3.572   5.314  0.2066 -1.1703  0.9861
 9534SOL     OW40234   0.707   4.688   5.778  0.1549  0.0233 -0.1651
 9534SOL    HW140235   0.612   4.694   5.778  0.2556  1.7115 -0.7252
 9534SOL    HW240236   0.730   4.731   5.861 -0.9202 -0.3098  0.3027
 9535SOL     OW40237   1.139   3.961   5.514  0.3878 -0.6781 -0.3367
 9535SOL    HW140238   1.168   4.046   5.481 -1.1403  0.3954  1.0761
 9535SOL    HW240239   1.168   3.964   5.605  0.2015 -1.4080 -0.2564
 9536SOL     OW40240   0.933   2.281  12.192  0.0084 -0.6245 -0.0625
 9536SOL    HW140241   1.022   2.304  12.163  0.8648 -1.2787  2.0340
 9536SOL    HW240242   0.945   2.189  12.212  1.5087  0.1642  2.6008
 9537SOL     OW40243   1.444   1.532   1.723 -0.3883 -0.0252  0.2035
 9537SOL    HW140244   1.369   1.492   1.679  0.6535 -0.5911 -1.0546
 9537SOL    HW240245   1.485   1.452   1.756  1.5186  0.3804 -1.1985
 9538SOL     OW40246   2.452   2.176  16.079 -0.0968 -0.4846  0.1998
 9538SOL    HW140247   2.375   2.181  16.023 -0.4489  0.5555  0.7769
 9538SOL    HW240248   2.514   2.242  16.048  0.6393 -1.0991  0.3548
 9539SOL     OW40249   4.024   2.105   2.975  0.2170  0.1814 -0.4348
 9539SOL    HW140250   4.038   2.057   3.057 -0.5498  1.5695  0.5053
 9539SOL    HW240251   4.100   2.082   2.922  0.0903  0.3338 -0.6796
 9540SOL     OW40252   2.092   0.648  10.760 -0.2279 -0.1014  0.4011
 9540SOL    HW140253   2.062   0.712  10.824 -2.7493 -1.5112  0.6314
 9540SOL    HW240254   2.073   0.566  10.805  1.0323  1.0816  3.0448
 9541SOL     OW40255   3.852   0.055   0.485  0.2842 -0.3990  0.3682
 9541SOL    HW140256   3.926   0.108   0.517  0.1984  1.0908 -1.8676
 9541SOL    HW240257   3.885   0.047   0.395  1.6052  0.9286  0.7348
 9542SOL     OW40258   1.394   3.307   9.838 -0.3230  0.1636 -0.1064
 9542SOL    HW140259   1.394   3.263   9.923 -0.9585 -1.2008 -0.8115
 9542SOL    HW240260   1.468   3.269   9.790  0.4771  1.3948  0.1470
 9543SOL     OW40261   3.444   4.115  10.349  0.5969 -0.2811 -0.2051
 9543SOL    HW140262   3.455   4.150  10.437  0.6367 -0.1239 -0.2731
 9543SOL    HW240263   3.507   4.042  10.347  3.3279  2.0781 -0.4183
 9544SOL     OW40264   1.393   1.056  17.509 -0.3750  0.1456 -0.2497
 9544SOL    HW140265   1.423   1.122  17.446  1.5415  0.2603  0.7797
 9544SOL    HW240266   1.374   0.987  17.445 -1.9270 -0.1134  0.4852
 9545SOL     OW40267   0.994   1.135   2.242 -0.0093 -0.1702 -0.3434
 9545SOL    HW140268   1.030   1.096   2.162  0.6090 -0.1948 -0.0533
 9545SOL    HW240269   0.903   1.135   2.212 -0.5823 -0.0258  1.4294
 9546SOL     OW40270   3.893   1.323   8.093 -0.3832  0.0412  1.0051
 9546SOL    HW140271   3.813   1.340   8.044 -0.3286  0.2007  0.9704
 9546SOL    HW240272   3.885   1.368   8.178 -0.3930  0.3548  0.8378
 9547SOL     OW40273   4.721   2.584  11.963 -0.1666  0.3149 -0.5190
 9547SOL    HW140274   0.065   2.558  12.008  0.2430  2.3200 -0.0789
 9547SOL    HW240275   4.667   2.554  12.036  0.5946 -2.4960 -1.1315
 9548SOL     OW40276   4.443   2.956   1.890 -0.4066  0.6423 -0.0518
 9548SOL    HW140277   4.431   2.987   1.980 -0.1293  2.4654 -0.6280
 9548SOL    HW240278   4.414   2.865   1.892 -1.4979  0.9525 -2.0749
 9549SOL     OW40279   0.959   3.930  17.278  0.1566  0.2020 -0.2007
 9549SOL    HW140280   0.947   4.014  17.235 -0.5317 -0.5739 -1.5119
 9549SOL    HW240281   0.880   3.920  17.332 -1.5783 -0.4353 -2.8794
 9550SOL     OW40282   4.237   2.396   3.354 -0.7814  0.0066 -0.2850
 9550SOL    HW140283   4.320   2.429   3.389 -0.0250 -2.2072  0.0236
 9550SOL    HW240284   4.266   2.330   3.291 -2.5984 -0.2115 -0.8966
 9551SOL     OW40285   1.333   3.397   1.329  0.0286 -0.0990  0.0304
 9551SOL    HW140286   1.409   3.340   1.334  0.3184  0.5672  2.7509
 9551SOL    HW240287   1.270   3.344   1.279 -0.5908  0.2897  0.3973
 9552SOL     OW40288   0.018   2.603   1.944 -0.3687 -0.6694 -0.4860
 9552SOL    HW140289   0.054   2.617   2.032 -2.3115  2.2325 -0.1722
 9552SOL    HW240290   4.662   2.603   1.965 -0.0215  1.0343  0.9915
 9553SOL     OW40291   1.480   2.521  11.511  0.2295  0.0326 -0.1453
 9553SOL    HW140292   1.526   2.584  11.456  0.0037 -1.4710 -2.0525
 9553SOL    HW240293   1.463   2.450  11.449  1.0769  0.8451 -1.3144
 9554SOL     OW40294   1.821   0.921   2.679  0.0837 -0.3575  0.2866
 9554SOL    HW140295   1.870   0.854   2.632  1.2175 -0.8021  2.1169
 9554SOL    HW240296   1.866   1.001   2.651 -1.2106  0.0905 -0.5067
 9555SOL     OW40297   2.405   0.605   6.033 -0.2228 -0.2129 -0.2001
 9555SOL    HW140298   2.461   0.683   6.026 -0.3705  0.1961  3.4572
 9555SOL    HW240299   2.437   0.565   6.113  0.6550 -2.3814 -1.6331
 9556SOL     OW40300   3.399   2.231  16.391  0.0922 -0.7117  0.0900
 9556SOL    HW140301   3.349   2.153  16.417 -2.5707  0.1327 -2.5596
 9556SOL    HW240302   3.456   2.233  16.468  0.4031 -1.1971 -0.1301
 9557SOL     OW40303   2.141   0.992   7.354 -0.1716  0.3293  0.1855
 9557SOL    HW140304   2.194   1.071   7.339  1.8645 -1.0369  0.0874
 9557SOL    HW240305   2.059   1.029   7.387 -0.9615 -1.2511 -0.0447
 9558SOL     OW40306   4.283   1.949   1.608 -0.1191 -0.0784  0.1665
 9558SOL    HW140307   4.270   1.897   1.687 -1.2816 -0.1452 -0.0660
 9558SOL    HW240308   4.324   1.892   1.543 -1.8017  0.2523 -1.1781
 9559SOL     OW40309   3.781   0.895   8.348 -0.1359  0.2759 -0.1021
 9559SOL    HW140310   3.877   0.899   8.352 -0.3105  3.4818  0.8773
 9559SOL    HW240311   3.769   0.969   8.288  3.0308  1.8447  1.1695
 9560SOL     OW40312   0.981   0.614   1.911  0.4794  0.1051  0.4380
 9560SOL    HW140313   0.921   0.615   1.837  0.9270  2.2685  0.0949
 9560SOL    HW240314   0.980   0.519   1.920  0.6840  0.1844  1.3867
 9561SOL     OW40315   2.831   3.694   0.511  0.6306 -0.4011  0.1837
 9561SOL    HW140316   2.921   3.662   0.503 -0.1910 -2.3520 -1.2996
 9561SOL    HW240317   2.794   3.636   0.577 -0.0433  0.5417  0.6288
 9562SOL     OW40318   3.948   0.044   6.573 -0.1625 -0.3134  0.2275
 9562SOL    HW140319   4.006   0.117   6.553 -1.5653  0.5727 -0.5461
 9562SOL    HW240320   3.972   4.713   6.510 -0.4911  0.6953 -0.9596
 9563SOL     OW40321   2.097   3.528   5.252 -0.1972 -0.6364  0.2687
 9563SOL    HW140322   2.133   3.613   5.226  1.0114 -1.1222  0.3238
 9563SOL    HW240323   2.134   3.465   5.189  0.3287 -0.7041  0.6514
 9564SOL     OW40324   1.127   1.089   8.783 -0.4797 -0.0871  0.3487
 9564SOL    HW140325   1.201   1.144   8.809  0.6396 -2.1579  1.6371
 9564SOL    HW240326   1.146   1.000   8.813  0.6840  0.2609  0.6478
 9565SOL     OW40327   1.852   2.107  14.245  0.4004  0.6811  0.1383
 9565SOL    HW140328   1.873   2.089  14.153  1.0714 -1.4067  0.7124
 9565SOL    HW240329   1.890   2.195  14.248  1.4747  0.1869  0.8293
 9566SOL     OW40330   0.971   0.477   0.529 -0.0639 -0.2215 -0.2950
 9566SOL    HW140331   1.055   0.437   0.505 -0.2957 -0.3899 -0.8311
 9566SOL    HW240332   0.912   0.436   0.466 -0.6508  1.8133 -1.0720
 9567SOL     OW40333   0.034   0.403   5.198  0.6809  0.4632 -0.6721
 9567SOL    HW140334   0.005   0.443   5.280  2.5791 -0.9647  0.6837
 9567SOL    HW240335   4.737   0.462   5.130 -0.9256 -0.4654 -0.6741
 9568SOL     OW40336   4.476   0.994   3.091 -0.8472 -0.1381  0.4536
 9568SOL    HW140337   4.404   1.039   3.134 -0.4742 -0.1225  1.0643
 9568SOL    HW240338   4.450   0.996   2.999  1.6241 -2.9499 -0.3246
 9569SOL     OW40339   3.709   3.506   5.920 -0.6101 -0.1759  0.6676
 9569SOL    HW140340   3.723   3.412   5.932 -0.6660 -0.6063 -2.6672
 9569SOL    HW240341   3.711   3.556   6.001 -2.7646  1.3082 -0.1949
 9570SOL     OW40342   1.544   3.193   7.189  0.0225  0.4973 -0.2488
 9570SOL    HW140343   1.455   3.211   7.220 -0.0604 -2.4804  1.2977
 9570SOL    HW240344   1.540   3.216   7.096  0.2623 -0.2675 -0.4470
 9571SOL     OW40345   1.948   4.581   3.840 -0.0742 -0.2767 -0.4297
 9571SOL    HW140346   1.981   4.579   3.930 -2.0757  1.9910  0.3760
 9571SOL    HW240347   1.925   4.674   3.830  1.6712  0.5159  2.8724
   4.73702   4.73702  17.74645
