Membrane in water
40347
    1TMC1    C1    1   4.492   4.453  11.373 -0.6566  0.8620  0.1717
    1TMC1    C2    2   4.584   4.548  11.344  0.2887  0.9730 -0.3455
    1TMC1    C3    3   4.589   4.597  11.214  0.3463 -0.6196 -0.0720
    1TMC1    C4    4   4.411   4.398  11.276 -0.4380 -1.0016 -0.1269
    1TMC1    C5    5   4.426   4.437  11.149  0.4907  0.3329 -0.0170
    1TMC1    C6    6   4.511   4.546  11.114  0.3430 -0.2261 -0.2665
    1TMC1     C    7   4.514   4.389  11.501 -0.1800  0.4681  0.3273
    1TMC1     O    8   4.513   4.452  11.606 -0.5627 -0.0184 -0.1323
    1TMC1     H    9   4.632   4.599  11.427  0.4969 -1.0947  0.8042
    1TMC1    H1   10   4.350   4.312  11.300 -0.3594 -1.4369 -1.4689
    1TMC1    H2   11   4.503   4.589  11.014 -3.5626 -1.0709 -0.3239
    1TMC1    C7   12   4.309   4.408  11.061 -0.5629  0.0656 -0.3815
    1TMC1    C8   13   4.683   4.711  11.197  0.2118  0.4592  0.4510
    1TMC1    O1   14   4.328   4.402  10.939  0.6663  0.2951 -0.1065
    1TMC1    O2   15   0.011   0.007  11.293 -0.6163  0.5374  0.4991
    1TMC1    O3   16   4.204   4.466  11.128  0.2156 -0.3608  0.0652
    1TMC1    H3   17   4.221   4.476  11.224  1.5192  1.2362 -0.3257
    1TMC1    O5   18   4.722   4.727  11.070 -0.2808 -0.0633 -1.0485
    1TMC1    H5   19   4.645   0.004  11.012 -0.2258  1.1754 -0.7867
    2MPD2     C   20   4.691   4.007  11.774  0.0809 -0.0347 -0.0245
    2MPD2    C1   21   4.624   4.115  11.814  0.6823  0.7833 -0.6708
    2MPD2    C2   22   4.564   4.193  11.719 -0.0084  0.4265 -0.3865
    2MPD2    C3   23   4.578   4.165  11.580  0.3195  0.2099 -0.5470
    2MPD2    C4   24   4.656   4.054  11.549  0.1851  0.2164  0.8917
    2MPD2    C5   25   4.712   3.973  11.644 -0.1086  0.9293 -0.5075
    2MPD2     H   26   4.504   4.281  11.740 -0.2925 -0.2072  1.4249
    2MPD2    H1   27   4.675   4.029  11.445 -0.3696  0.3817  0.7492
    2MPD2    H2   28   4.732   3.946  11.854  1.0180 -0.6509 -0.9772
    2MPD2    H3   29   0.031   3.886  11.613 -1.0924  0.2863 -0.5428
    2MPD2     N   30   4.527   4.252  11.482 -0.1566  0.2010  0.0204
    2MPD2    H5   31   4.538   4.226  11.385  2.2774  0.7701  0.1512
    2MPD2    N1   32   4.622   4.147  11.955  0.3022 -0.1478 -0.6190
    2MPD2    H7   33   4.549   4.217  11.970  0.6688 -0.1742  1.2011
    3TMC1    C1   34   3.447   0.049  11.307 -0.1317 -0.1019 -0.4215
    3TMC1    C2   35   3.502   0.128  11.207 -0.2212  0.6316  0.5877
    3TMC1    C3   36   3.560   0.055  11.104 -0.3450  0.2953  0.1008
    3TMC1    C4   37   3.463   4.649  11.312  0.0714 -0.5388 -0.2263
    3TMC1    C5   38   3.527   4.587  11.210  0.7438  0.2020  0.8569
    3TMC1    C6   39   3.575   4.659  11.098  0.1834  0.0343  0.1588
    3TMC1     C   40   3.411   0.099  11.442 -0.4523  0.2616 -0.5038
    3TMC1     O   41   3.405   0.026  11.539  0.4168  0.2114  1.4383
    3TMC1     H   42   3.497   0.237  11.211 -1.7469  0.5598  0.4362
    3TMC1    H1   43   3.408   4.603  11.393  3.2853  0.9578  2.8323
    3TMC1    H2   44   3.648   4.624  11.025 -0.0840  1.1972 -0.6654
    3TMC1    C7   45   3.556   4.440  11.212  0.4229  0.1360 -0.5257
    3TMC1    C8   46   3.636   0.133  11.004 -0.6178  0.3074 -0.0089
    3TMC1    O1   47   3.626   4.381  11.129 -0.4292  0.2149 -0.0283
    3TMC1    O2   48   3.677   0.092  10.898  0.2848  0.7980  0.1125
    3TMC1    O3   49   3.470   4.380  11.298 -0.0727 -0.0548  0.2364
    3TMC1    H3   50   3.410   4.441  11.346 -2.7798  0.0086 -3.3274
    3TMC1    O5   51   3.709   0.216  11.079  0.2120  0.3445  0.9688
    3TMC1    H5   52   3.680   0.235  11.171 -1.7882 -3.3922  1.1078
    4MPD2     C   53   3.456   0.492  11.768 -1.0951  0.6621 -0.9561
    4MPD2    C1   54   3.420   0.540  11.645 -0.3479  0.0615  0.5378
    4MPD2    C2   55   3.381   0.457  11.542 -0.2482  0.2427  0.0135
    4MPD2    C3   56   3.401   0.322  11.563  0.0714  0.2566  0.4591
    4MPD2    C4   57   3.417   0.269  11.693 -0.2012  0.0675 -0.6335
    4MPD2    C5   58   3.442   0.357  11.791  0.1410  0.0581  0.3792
    4MPD2     H   59   3.349   0.492  11.444 -0.4131  1.1964  0.4126
    4MPD2    H1   60   3.437   0.164  11.713 -0.5869  0.1177 -0.0131
    4MPD2    H2   61   3.495   0.556  11.847  1.3763 -2.0838  0.0595
    4MPD2    H3   62   3.479   0.327  11.889 -2.2606  2.2960  1.9495
    4MPD2     N   63   3.390   0.234  11.449  0.0518  0.2688  0.0090
    4MPD2    H5   64   3.383   0.280  11.358  3.2701 -0.6024 -0.6655
    4MPD2    N1   65   3.436   0.675  11.609  0.1408  0.2717  0.1482
    4MPD2    H7   66   3.399   0.705  11.520  0.3224 -1.3144 -0.4703
    5TCq1    O1   67   4.324   1.990  11.955 -0.2362 -0.4067  0.1944
    5TCq1    C1   68   4.332   2.077  11.857 -0.5377 -0.0798  0.3724
    5TCq1    O2   69   4.434   2.106  11.791 -0.1675 -0.5660 -0.1564
    5TCq1    C2   70   4.200   2.106  11.804  0.0117 -0.1684  0.6903
    5TCq1    C3   71   4.095   2.144  11.886 -0.6048 -0.2087 -0.2315
    5TCq1    C4   72   3.978   2.166  11.826 -0.9159 -0.1564 -0.4685
    5TCq1    C5   73   3.959   2.159  11.696 -0.4558  0.0614 -0.0284
    5TCq1    C6   74   4.064   2.124  11.614  0.6305  0.3896 -0.2891
    5TCq1    C7   75   4.192   2.102  11.669  0.3444 -0.2136  0.2524
    5TCq1    C8   76   4.050   2.088  11.474  0.8134 -0.0978 -0.6857
    5TCq1    O4   77   4.151   2.064  11.408 -0.5850 -0.4413 -0.1575
    5TCq1    C9   78   3.868   2.203  11.913 -0.6605 -0.1721 -0.1399
    5TCq1    O5   79   3.754   2.208  11.862 -0.5761 -0.2880  0.5766
    5TCq1    O6   80   3.890   2.206  12.039 -0.3252 -0.5956  0.3717
    5TCq1    H1   81   4.232   1.972  11.983 -0.4272  0.8125  0.3333
    5TCq1    H2   82   4.111   2.171  11.990 -1.3372 -0.2831 -0.0941
    5TCq1    H3   83   3.864   2.191  11.653 -0.6074 -0.0815  0.2053
    5TCq1    H4   84   4.277   2.074  11.608  0.1842 -0.7039  0.2580
    6MPD2     C   85   3.730   2.030  11.305  0.1693  0.3922 -0.3799
    6MPD2    C1   86   3.865   2.030  11.318 -0.2993  0.0151 -0.2474
    6MPD2    C2   87   3.948   2.004  11.211  0.3057 -0.2116  0.3016
    6MPD2    C3   88   3.888   1.981  11.083  0.0600  0.6058 -0.2393
    6MPD2    C4   89   3.750   1.992  11.073  0.0846  0.3744  0.0381
    6MPD2    C5   90   3.672   2.013  11.180 -0.4673 -0.3837  0.4181
    6MPD2     H   91   4.056   1.995  11.210  0.3090  0.0380 -0.8957
    6MPD2    H1   92   3.699   1.974  10.979 -1.0304  1.1879  0.4934
    6MPD2    H2   93   3.662   2.036  11.389 -0.3311  0.3452 -0.7788
    6MPD2    H3   94   3.564   2.019  11.174 -0.4812  0.1103  1.1743
    6MPD2     N   95   3.976   1.943  10.980 -0.0192  0.4520 -0.2262
    6MPD2    H5   96   4.074   1.957  11.000  0.3984 -1.6395 -0.8201
    6MPD2    N1   97   3.916   2.079  11.442  0.4357  0.0833 -0.1403
    6MPD2    H7   98   3.846   2.116  11.507 -0.2855 -0.2241 -0.7409
    7TCq1    O1   99   1.260   1.365  12.609  0.0558  0.0601  0.0690
    7TCq1    C1  100   1.299   1.360  12.741 -0.1190 -0.6776 -0.4255
    7TCq1    O2  101   1.352   1.456  12.800  0.2398  0.1611  0.0575
    7TCq1    C2  102   1.314   1.221  12.779  0.4151  0.4612 -0.1389
    7TCq1    C3  103   1.219   1.137  12.736 -0.4861 -0.1972 -0.1964
    7TCq1    C4  104   1.222   1.002  12.775 -1.7015 -0.2157  0.0289
    7TCq1    C5  105   1.327   0.955  12.849 -0.2713 -0.2581  0.4766
    7TCq1    C6  106   1.430   1.040  12.877 -0.3308 -0.7012  0.7729
    7TCq1    C7  107   1.424   1.173  12.847 -0.4499 -0.3970  0.0177
    7TCq1    C8  108   1.546   0.979  12.954 -0.1995 -0.1733  0.2994
    7TCq1    O4  109   1.548   0.857  12.962 -0.2316 -0.0504  0.6763
    7TCq1    C9  110   1.113   0.917  12.736  0.7236  0.2174 -0.4631
    7TCq1    O5  111   1.013   0.974  12.683  0.0951 -0.3743  0.8242
    7TCq1    O6  112   1.143   0.798  12.704 -0.1799  0.2515 -1.4165
    7TCq1    H1  113   1.256   1.273  12.575  0.0127  0.1420 -0.1478
    7TCq1    H2  114   1.125   1.177  12.700 -2.2546 -3.1095  1.1578
    7TCq1    H3  115   1.343   0.850  12.870  0.1426 -0.4027 -0.5995
    7TCq1    H4  116   1.502   1.243  12.877 -1.6212  0.5091  0.9477
    8MPD2     C  117   1.946   0.994  13.268 -0.3586 -0.0699  0.4168
    8MPD2    C1  118   1.854   0.898  13.252  0.2973  0.4201 -0.7584
    8MPD2    C2  119   1.750   0.916  13.158 -0.2501  0.5698  0.1420
    8MPD2    C3  120   1.746   1.034  13.078  0.7148  0.1091  0.0366
    8MPD2    C4  121   1.843   1.131  13.099  0.3693 -0.0130  0.7744
    8MPD2    C5  122   1.943   1.101  13.185  0.4349  0.2902  0.2095
    8MPD2     H  123   1.677   0.836  13.159 -0.1855  0.5249  1.4297
    8MPD2    H1  124   1.851   1.221  13.040  0.8406 -0.2064  0.5423
    8MPD2    H2  125   2.031   0.993  13.336 -0.4018 -2.3613  0.4299
    8MPD2    H3  126   2.027   1.169  13.196  0.7426  0.4053 -2.6328
    8MPD2     N  127   1.637   1.071  13.001  0.4704 -0.1448  0.4865
    8MPD2    H5  128   1.626   1.170  12.979  1.2032 -0.2478 -0.3452
    8MPD2    N1  129   1.871   0.776  13.323 -0.0573  1.0626 -0.2855
    8MPD2    H7  130   1.958   0.769  13.375 -2.2115  2.0484  3.4556
    9TMC1    C1  131   4.417   0.526  10.548  0.3845  0.2593 -0.0235
    9TMC1    C2  132   4.319   0.433  10.525  0.2269  0.6778 -0.4824
    9TMC1    C3  133   4.287   0.403  10.391  0.0314  0.3946 -0.0118
    9TMC1    C4  134   4.472   0.587  10.441  0.3269 -0.2875  0.2734
    9TMC1    C5  135   4.447   0.553  10.314 -0.2001  0.0153 -0.1750
    9TMC1    C6  136   4.354   0.461  10.286 -0.1458 -0.1834 -0.8802
    9TMC1     C  137   4.497   0.535  10.671  0.4692 -0.3229  0.3168
    9TMC1     O  138   4.597   0.611  10.667  0.1825 -0.5383  0.7241
    9TMC1     H  139   4.262   0.375  10.596 -1.0868  0.4911 -1.7059
    9TMC1    H1  140   4.533   0.673  10.464 -2.0305  1.1543  1.1175
    9TMC1    H2  141   4.342   0.423  10.185 -1.4107 -1.7330 -0.1540
    9TMC1    C7  142   4.553   0.578  10.212  0.0468  0.2307 -0.0558
    9TMC1    C8  143   4.233   0.268  10.372 -0.4119 -0.8558  0.6092
    9TMC1    O1  144   4.568   0.689  10.158  0.0810  0.1677 -0.3027
    9TMC1    O2  145   4.130   0.226  10.430 -0.2395 -0.0199 -0.0889
    9TMC1    O3  146   4.561   0.466  10.138  0.2117 -0.7198 -0.3439
    9TMC1    H3  147   4.582   0.397  10.204 -0.7771 -1.1919 -0.5377
    9TMC1    O5  148   4.348   0.200  10.356  0.6917 -0.4516 -0.0147
    9TMC1    H5  149   4.415   0.260  10.318 -1.0346 -0.5024 -3.1667
   10MPD2     C  150   4.633   0.504  10.923 -0.1969 -0.3100  0.6203
   10MPD2    C1  151   4.515   0.434  10.898  0.4770  0.3735 -0.1496
   10MPD2    C2  152   4.470   0.349  11.004  0.1972  0.0689 -0.8518
   10MPD2    C3  153   4.533   0.347  11.126 -0.1055 -0.1251  0.0453
   10MPD2    C4  154   4.652   0.420  11.145 -0.3997 -0.3597 -0.1258
   10MPD2    C5  155   4.700   0.491  11.037  0.2258 -0.1749 -0.4720
   10MPD2     H  156   4.386   0.282  10.994 -0.1249  0.6378 -2.0091
   10MPD2    H1  157   4.705   0.425  11.239 -0.3139 -1.7727 -0.1015
   10MPD2    H2  158   4.662   0.594  10.869  1.5672 -0.1394  1.8547
   10MPD2    H3  159   0.049   0.553  11.049  0.6171 -0.7162 -0.5661
   10MPD2     N  160   4.495   0.271  11.236  0.2675 -0.3612 -0.0550
   10MPD2    H5  161   4.557   0.280  11.316  0.7790  1.6753 -0.6819
   10MPD2    N1  162   4.452   0.447  10.770  0.1007 -0.0767 -0.7803
   10MPD2    H7  163   4.365   0.396  10.765 -0.2360  0.5162 -0.8787
   11TCq1    O1  164   0.103   0.850  14.211 -0.4102  0.4758  0.7422
   11TCq1    C1  165   0.034   0.730  14.233 -0.3282 -0.2151  0.3859
   11TCq1    O2  166   4.673   0.699  14.170  0.1791  0.2756 -0.7728
   11TCq1    C2  167   0.122   0.637  14.308  0.3653 -0.0401 -0.1641
   11TCq1    C3  168   0.220   0.690  14.393 -0.3613  0.4818 -0.2327
   11TCq1    C4  169   0.313   0.597  14.449  0.2052  0.1281  0.3238
   11TCq1    C5  170   0.305   0.464  14.413 -0.6236  0.0576  0.9215
   11TCq1    C6  171   0.204   0.411  14.336  0.0324 -0.9708 -0.5816
   11TCq1    C7  172   0.112   0.504  14.286 -0.0347 -0.1865 -0.6126
   11TCq1    C8  173   0.169   0.270  14.345 -0.5365  0.1310 -0.0006
   11TCq1    O4  174   0.210   0.201  14.436  0.3400  0.2181  0.4605
   11TCq1    C9  175   0.425   0.651  14.515 -0.1385  0.7541  0.6463
   11TCq1    O5  176   0.458   0.775  14.511  0.3504  0.2788 -0.2755
   11TCq1    O6  177   0.480   0.576  14.599 -0.1711  0.2683 -0.4971
   11TCq1    H1  178   0.188   0.850  14.259 -0.5389 -0.2727  0.9839
   11TCq1    H2  179   0.230   0.795  14.417  0.3400  0.7068 -1.5549
   11TCq1    H3  180   0.361   0.400  14.480  1.1555  1.1873  0.5240
   11TCq1    H4  181   0.029   0.460  14.232 -0.5727 -0.8834  0.7920
   12MPD2     C  182   0.057   4.739  14.291  0.2580  0.1022 -0.1997
   12MPD2    C1  183   0.086   0.092  14.191  0.5085  0.4036 -0.6262
   12MPD2    C2  184   0.081   0.062  14.058 -0.1612 -0.1145 -0.3611
   12MPD2    C3  185   0.033   4.677  14.016 -0.1902  0.2886 -0.2534
   12MPD2    C4  186   4.735   4.593  14.114 -0.1984 -0.3102  0.2108
   12MPD2    C5  187   0.011   4.623  14.245  0.0287 -0.0886 -0.3685
   12MPD2     H  188   0.115   0.139  13.990  1.1386 -0.2429  0.1487
   12MPD2    H1  189   4.693   4.495  14.092 -1.5909  0.9758 -2.7637
   12MPD2    H2  190   0.060   0.023  14.397  1.6505 -1.0555  0.0162
   12MPD2    H3  191   4.707   4.561  14.323  0.9051  1.8307  1.6762
   12MPD2     N  192   0.018   4.635  13.882 -0.6690  0.6239 -0.1369
   12MPD2    H5  193   4.708   4.549  13.860  0.2124  0.0912 -0.0337
   12MPD2    N1  194   0.117   0.231  14.224 -0.2041  0.1843  0.7270
   12MPD2    H7  195   0.113   0.298  14.147  0.2508 -1.2937 -0.5818
   13TCq1    O1  196   0.293   0.373  10.734 -1.1749 -0.0388  0.1468
   13TCq1    C1  197   0.237   0.253  10.761 -0.4209 -0.2681 -0.1748
   13TCq1    O2  198   0.266   0.192  10.862  0.0824  0.0136 -0.2595
   13TCq1    C2  199   0.103   0.247  10.706 -0.1875  0.2528  0.2233
   13TCq1    C3  200   0.089   0.308  10.579  0.5599 -0.4426  0.5985
   13TCq1    C4  201   4.713   0.270  10.510 -0.4962  0.3008  0.1528
   13TCq1    C5  202   4.611   0.193  10.561  0.3995 -0.0470 -0.5130
   13TCq1    C6  203   4.633   0.138  10.690 -0.8179 -0.0517  0.1248
   13TCq1    C7  204   0.008   0.162  10.757 -0.9530  0.5468  0.1674
   13TCq1    C8  205   4.524   0.073  10.767 -0.6915 -0.1178  0.3405
   13TCq1    O4  206   4.542   0.043  10.886 -0.2361 -0.7807  0.3539
   13TCq1    C9  207   4.702   0.309  10.368 -0.1651 -0.3690 -0.0385
   13TCq1    O5  208   0.065   0.341  10.307  0.0127  0.1899  0.1727
   13TCq1    O6  209   4.584   0.299  10.318 -0.1497  0.0535 -0.1998
   13TCq1    H1  210   0.263   0.424  10.656  1.4987 -1.4095 -1.7763
   13TCq1    H2  211   0.168   0.363  10.530 -0.1265  0.2517  0.2791
   13TCq1    H3  212   4.521   0.162  10.509  0.0031 -0.1327  0.2211
   13TCq1    H4  213   0.026   0.118  10.855  1.0683  0.1635 -0.3696
   14MPD2     C  214   4.185   0.008  10.646  0.9718 -0.6996  0.1029
   14MPD2    C1  215   4.282   0.025  10.742  0.3353  0.0855 -0.5920
   14MPD2    C2  216   4.247   0.009  10.879 -0.2588  0.2586  0.0047
   14MPD2    C3  217   4.117   4.719  10.911 -0.0115  0.7181 -0.2050
   14MPD2    C4  218   4.028   4.688  10.812 -0.5334  0.0531 -0.6338
   14MPD2    C5  219   4.057   4.710  10.680 -0.2116 -1.5115 -0.0114
   14MPD2     H  220   4.328   0.014  10.952 -0.0892 -2.2190 -0.0086
   14MPD2    H1  221   3.925   4.663  10.832  0.3379 -3.7202 -0.9447
   14MPD2    H2  222   4.203   0.016  10.539 -0.8691  0.8769 -0.1040
   14MPD2    H3  223   3.983   4.693  10.603 -1.1535 -0.4357  0.6580
   14MPD2     N  224   4.081   4.732  11.046 -0.2509  0.3626 -0.8891
   14MPD2    H5  225   4.147   0.051  11.098 -0.2975 -0.1253 -0.2883
   14MPD2    N1  226   4.414   0.056  10.687 -0.0459 -0.4843  0.1230
   14MPD2    H7  227   4.422   0.071  10.587  0.0444  2.4961  0.5804
   15TCq1    O1  228   1.849   4.320   2.438  0.4418  0.0455 -0.4014
   15TCq1    C1  229   1.752   4.397   2.492  0.4587  0.1429 -0.3505
   15TCq1    O2  230   1.771   4.501   2.554  0.2975  0.1941 -0.0805
   15TCq1    C2  231   1.620   4.353   2.449  1.2852  0.2453 -0.2167
   15TCq1    C3  232   1.516   4.412   2.517 -0.1650 -0.0572  0.0943
   15TCq1    C4  233   1.393   4.380   2.483 -0.0731  0.3297  0.5250
   15TCq1    C5  234   1.366   4.301   2.381  0.1561  0.1831  0.5257
   15TCq1    C6  235   1.471   4.243   2.315  0.2748  0.2289 -0.9195
   15TCq1    C7  236   1.600   4.267   2.344 -0.0480  0.2796  0.7584
   15TCq1    C8  237   1.451   4.187   2.186  0.1576  0.5803  0.2149
   15TCq1    O4  238   1.541   4.114   2.144 -0.7565  0.4332 -0.0778
   15TCq1    C9  239   1.282   4.429   2.564  0.2532 -0.4110  0.9563
   15TCq1    O5  240   1.309   4.478   2.683 -0.8278 -0.0946 -0.5262
   15TCq1    O6  241   1.173   4.409   2.516  0.8508  0.4386  0.1874
   15TCq1    H1  242   1.821   4.233   2.403 -0.2398  0.1319 -0.0634
   15TCq1    H2  243   1.540   4.483   2.595 -0.3876 -0.0091  0.1211
   15TCq1    H3  244   1.263   4.267   2.378  0.0886  0.2419  2.0028
   15TCq1    H4  245   1.682   4.224   2.286 -0.8917 -0.7909  0.3502
   16MPD2     C  246   1.185   4.239   1.918  0.3642 -0.3143 -0.2272
   16MPD2    C1  247   1.294   4.186   1.986 -0.5188 -0.2667  0.0298
   16MPD2    C2  248   1.348   4.071   1.929 -0.2249 -0.1930 -0.1195
   16MPD2    C3  249   1.314   4.031   1.801  0.0771 -0.4503 -1.1866
   16MPD2    C4  250   1.206   4.087   1.734 -0.3790  0.4425  0.0694
   16MPD2    C5  251   1.144   4.190   1.794 -0.3789  0.0342  0.0543
   16MPD2     H  252   1.426   4.015   1.982 -1.5801 -1.1948  0.8303
   16MPD2    H1  253   1.186   4.056   1.632  0.4452 -0.3233  0.1378
   16MPD2    H2  254   1.126   4.323   1.954 -1.2228 -0.5825 -2.2129
   16MPD2    H3  255   1.054   4.223   1.744  0.4611  1.0315 -0.7941
   16MPD2     N  256   1.402   3.946   1.736 -0.5665  0.7739  0.1379
   16MPD2    H5  257   1.475   3.906   1.794 -1.6055 -0.5943  0.5065
   16MPD2    N1  258   1.340   4.234   2.119 -0.2656 -0.3367  0.1878
   16MPD2    H7  259   1.287   4.315   2.152 -1.8011 -1.1974 -0.1741
   17TMC1    C1  260   3.998   3.415  10.923  0.2153  0.2184 -0.2493
   17TMC1    C2  261   4.072   3.429  11.037 -0.4744 -0.0314 -0.0093
   17TMC1    C3  262   4.081   3.320  11.116  0.2056 -0.0388 -0.0971
   17TMC1    C4  263   3.940   3.308  10.876  0.2173  0.4850 -0.3499
   17TMC1    C5  264   3.957   3.198  10.957  0.4492 -0.3536  0.2349
   17TMC1    C6  265   4.034   3.198  11.075 -0.1262 -0.0846  0.1248
   17TMC1     C  266   3.986   3.536  10.843  0.0688 -0.2563 -0.6695
   17TMC1     O  267   3.893   3.523  10.762  0.0283 -0.2091  0.1333
   17TMC1     H  268   4.118   3.524  11.063  1.9961 -1.0884 -0.4827
   17TMC1    H1  269   3.884   3.294  10.785 -0.3167 -1.0011  0.1993
   17TMC1    H2  270   4.043   3.108  11.135 -2.4387 -0.1298  0.4270
   17TMC1    C7  271   3.931   3.072  10.898  0.0838 -0.1478 -0.3093
   17TMC1    C8  272   4.182   3.318  11.217  0.2962 -0.1342  0.7108
   17TMC1    O1  273   3.915   3.059  10.777  0.6183  0.6428 -0.1740
   17TMC1    O2  274   4.246   3.217  11.246  0.4048 -0.2998 -0.5166
   17TMC1    O3  275   3.854   3.003  10.986 -0.2151  0.1064 -0.0062
   17TMC1    H3  276   3.840   3.044  11.074  0.5759 -1.8177  1.0213
   17TMC1    O5  277   4.191   3.434  11.288 -0.2258  0.4331 -0.2194
   17TMC1    H5  278   4.118   3.491  11.256 -1.8848  0.1922  3.1761
   18MPD2     C  279   3.999   3.786  10.683 -0.2014 -0.0692 -0.4655
   18MPD2    C1  280   4.094   3.747  10.776  0.6801  0.7448  0.1012
   18MPD2    C2  281   4.207   3.828  10.792  0.4464  0.0216  0.1941
   18MPD2    C3  282   4.225   3.949  10.735  0.1860  0.0453 -0.4226
   18MPD2    C4  283   4.127   3.977  10.629 -0.1278  0.2625  0.3561
   18MPD2    C5  284   4.021   3.900  10.607 -0.3158  0.9955  0.3893
   18MPD2     H  285   4.278   3.790  10.864  2.5184  0.5038 -1.5760
   18MPD2    H1  286   4.127   4.072  10.578 -2.3668  0.2846  0.4204
   18MPD2    H2  287   3.906   3.736  10.658  0.0260  0.1641 -1.7743
   18MPD2    H3  288   3.947   3.939  10.538  0.5231  0.1034 -1.0126
   18MPD2     N  289   4.329   4.041  10.773 -0.0113 -0.0695 -0.2272
   18MPD2    H5  290   4.359   4.114  10.710 -0.1709 -0.1169 -0.3593
   18MPD2    N1  291   4.082   3.629  10.847 -0.0321 -0.5345 -0.3659
   18MPD2    H7  292   4.162   3.616  10.908 -0.1757  0.8003  0.1195
   19TMC2    C1  293   0.439   4.695  14.368 -0.4723 -0.5394  0.0105
   19TMC2    C2  294   0.397   4.726  14.495  0.9286  0.4150 -0.3544
   19TMC2    C3  295   0.334   4.634  14.568  1.0497 -0.1790 -0.0005
   19TMC2    C4  296   0.419   4.569  14.317 -0.2449 -0.1347 -0.4851
   19TMC2    C5  297   0.368   4.478  14.401 -0.9365 -0.2899 -0.0842
   19TMC2    C6  298   0.320   4.505  14.521 -0.4053  0.3284  0.4372
   19TMC2     C  299   0.558   0.012  14.332 -0.3720 -0.0087 -0.8297
   19TMC2     O  300   0.553   0.122  14.278  0.6344 -0.8694 -0.6509
   19TMC2     H  301   0.426   0.087  14.527  1.1038  0.8571 -1.9309
   19TMC2    H1  302   0.443   4.547  14.214 -0.4233  2.3149 -1.0448
   19TMC2    H2  303   0.259   4.433  14.574 -0.7783  0.5794  0.3519
   19TMC2    C7  304   0.357   4.343  14.348 -0.0518 -0.0340 -0.7975
   19TMC2    C8  305   0.264   4.675  14.694  0.0211 -0.4276 -0.2415
   19TMC2    O1  306   0.348   4.327  14.229 -0.7257 -0.2729 -0.0594
   19TMC2    O2  307   0.211   4.591  14.769  0.3207  0.2488  0.0277
   19TMC2    O5  308   0.200   0.043  14.644  0.3169  0.4715  0.3642
   19TMC2    H5  309   0.245   0.079  14.564 -0.1702  1.4647  0.5386
   20MPD2     C  310   0.840   0.074  14.264  0.0431  0.8341  0.3618
   20MPD2    C1  311   0.796   4.695  14.319  0.4404  0.1094 -0.1859
   20MPD2    C2  312   0.887   4.587  14.330 -0.2497 -0.3357 -0.3361
   20MPD2    C3  313   1.016   4.595  14.281 -0.4576  0.2798  0.2608
   20MPD2    C4  314   1.052   4.716  14.226  0.1449 -0.7432  0.1719
   20MPD2    C5  315   0.969   0.088  14.224  0.0239 -0.1777 -0.1053
   20MPD2     H  316   0.845   4.497  14.373 -0.3665 -0.3362 -0.4533
   20MPD2    H1  317   1.155   4.738  14.197  0.4181  0.5049  2.0825
   20MPD2    H2  318   0.774   0.160  14.265 -0.5139  0.4189 -0.5938
   20MPD2    H3  319   1.006   0.184  14.190 -1.4920  1.3224  2.5458
   20MPD2     N  320   1.112   4.497  14.285 -0.0848  0.2248  0.4187
   20MPD2    H5  321   1.200   4.527  14.244 -1.7582  3.6969 -0.6456
   20MPD2    N1  322   0.660   4.666  14.347 -0.6013 -0.5003  0.0855
   20MPD2    H7  323   0.635   4.577  14.388  0.0219 -0.5766  0.3033
   21TMC2    C1  324   3.312   4.325  14.533 -0.0377  0.2265 -0.3771
   21TMC2    C2  325   3.237   4.213  14.578  0.0744  0.1106 -0.3474
   21TMC2    C3  326   3.134   4.238  14.678  0.1060  0.0622 -0.5599
   21TMC2    C4  327   3.300   4.443  14.605 -0.2842  0.0842  0.3739
   21TMC2    C5  328   3.205   4.460  14.702  0.1416 -0.3038  0.2131
   21TMC2    C6  329   3.115   4.367  14.731  0.2920  0.2366  0.1049
   21TMC2     C  330   3.412   4.314  14.425 -0.3157  0.5262  0.2178
   21TMC2     O  331   3.502   4.400  14.432  0.2657 -0.3704 -0.3944
   21TMC2     H  332   3.247   4.120  14.524  0.1312 -0.5564  0.7956
   21TMC2    H1  333   3.371   4.520  14.577 -2.2858  1.8416  0.1182
   21TMC2    H2  334   3.028   4.388  14.791 -0.1446 -1.3233  0.0131
   21TMC2    C7  335   3.208   4.584  14.767  0.2445 -0.4156  0.4364
   21TMC2    C8  336   3.048   4.134  14.731  0.1984  0.4024  0.0928
   21TMC2    O1  337   3.310   4.649  14.756  0.3546  0.3271  0.0735
   21TMC2    O2  338   2.941   4.150  14.786 -0.2304  0.3418  0.3396
   21TMC2    O5  339   3.082   4.027  14.662 -0.3528  0.6013 -0.2432
   21TMC2    H5  340   3.175   3.994  14.662 -0.2200  0.9811  0.9349
   22MPD2     C  341   3.611   4.169  13.975 -0.1414  0.2622 -0.1388
   22MPD2    C1  342   3.674   4.212  14.085  0.2340 -0.0565  0.2264
   22MPD2    C2  343   3.599   4.239  14.197 -0.2107 -0.0648 -0.3115
   22MPD2    C3  344   3.464   4.209  14.207 -0.6189  0.0370  0.6855
   22MPD2    C4  345   3.406   4.160  14.091  0.0318 -0.1461  0.6536
   22MPD2    C5  346   3.476   4.144  13.974  0.2247  0.6345 -0.2192
   22MPD2     H  347   3.657   4.277  14.280 -1.0094 -0.3489  0.3848
   22MPD2    H1  348   3.300   4.140  14.083  0.0349 -0.0498  0.3599
   22MPD2    H2  349   3.660   4.160  13.879  1.8789 -0.1369  0.9214
   22MPD2    H3  350   3.429   4.109  13.883  1.4352 -0.0601 -0.5732
   22MPD2     N  351   3.384   4.229  14.318 -0.8750 -0.4540 -0.2572
   22MPD2    H5  352   3.286   4.201  14.316 -1.5171  1.8339 -0.5467
   22MPD2    N1  353   3.810   4.242  14.085 -0.3223  0.0126  0.0530
   22MPD2    H7  354   3.848   4.286  14.169  0.6350 -1.9614  0.6487
   23TMC2    C1  355   4.487   1.375  14.929  0.2366 -0.5223 -0.6438
   23TMC2    C2  356   4.544   1.452  14.834 -0.4627  0.7960 -0.0191
   23TMC2    C3  357   4.548   1.402  14.700 -0.6219  0.9742  0.7983
   23TMC2    C4  358   4.429   1.250  14.904 -0.6367  0.5427 -0.0068
   23TMC2    C5  359   4.440   1.206  14.780 -0.2698 -1.0219  0.3198
   23TMC2    C6  360   4.493   1.274  14.670 -0.5312 -0.4915  0.5395
   23TMC2     C  361   4.497   1.407  15.073  0.8858  0.1423 -0.2157
   23TMC2     O  362   4.463   1.326  15.161  0.2596  0.0361 -0.2451
   23TMC2     H  363   4.599   1.541  14.860 -1.5116  1.5905 -0.5195
   23TMC2    H1  364   4.398   1.172  14.973  0.5501  0.6670  0.6691
   23TMC2    H2  365   4.517   1.218  14.580  1.3490 -0.5647  1.0837
   23TMC2    C7  366   4.378   1.079  14.758  0.2241  0.4519  0.2313
   23TMC2    C8  367   4.562   1.496  14.588 -0.4608  0.0774 -0.1576
   23TMC2    O1  368   4.379   0.995  14.846  0.1690 -0.2174 -0.2937
   23TMC2    O2  369   4.653   1.581  14.590  0.4539 -0.3613 -0.0557
   23TMC2    O5  370   4.490   1.444  14.483  0.1493 -0.2643 -0.1760
   23TMC2    H5  371   4.418   1.386  14.516  2.1755 -1.9346  1.2988
   24MPD2     C  372   4.659   1.756  15.438  0.5629 -0.2520  0.0364
   24MPD2    C1  373   4.656   1.615  15.436 -0.2796  0.3057  0.1299
   24MPD2    C2  374   4.616   1.544  15.322  0.1817 -0.2013  0.3485
   24MPD2    C3  375   4.575   1.602  15.207  0.6497  0.0526 -0.4195
   24MPD2    C4  376   4.584   1.740  15.208  0.0951  0.1075  0.7557
   24MPD2    C5  377   4.620   1.812  15.322  0.1161  0.5024  0.0228
   24MPD2     H  378   4.618   1.435  15.327  1.3708 -0.0149  3.6182
   24MPD2    H1  379   4.580   1.791  15.113 -0.2400 -0.5707  0.4025
   24MPD2    H2  380   4.684   1.814  15.527  0.2100 -1.6894  1.0649
   24MPD2    H3  381   4.614   1.920  15.311 -0.2832  0.4472 -0.3232
   24MPD2     N  382   4.531   1.538  15.091 -0.0276 -0.2942  0.3303
   24MPD2    H5  383   4.511   1.598  15.011  0.9561  3.4081  2.8765
   24MPD2    N1  384   4.687   1.531  15.549  0.7221 -0.3034 -0.3902
   24MPD2    H7  385   4.696   1.433  15.523  1.7027 -0.7229  1.5035
   25TMC2    C1  386   3.878   2.788  11.577 -0.4216  0.2352 -0.2805
   25TMC2    C2  387   3.985   2.874  11.555  0.1719  0.2541 -0.3804
   25TMC2    C3  388   3.973   2.997  11.615 -0.2932  0.1065  0.4425
   25TMC2    C4  389   3.778   2.817  11.658 -0.6619  0.1545 -0.4628
   25TMC2    C5  390   3.777   2.932  11.729 -0.0881  0.1807  0.6733
   25TMC2    C6  391   3.875   3.028  11.707 -0.0502  0.4267  0.1172
   25TMC2     C  392   3.887   2.661  11.514  0.3191  0.0824 -0.4640
   25TMC2     O  393   3.995   2.613  11.481  0.6019 -0.2220  0.4818
   25TMC2     H  394   4.067   2.847  11.491  2.8580  1.4150  2.5695
   25TMC2    H1  395   3.723   2.735  11.703 -2.5213  1.5531 -0.2206
   25TMC2    H2  396   3.864   3.128  11.748 -0.9463 -0.3088  1.6725
   25TMC2    C7  397   3.703   2.947  11.856 -0.5209  0.0519 -1.1540
   25TMC2    C8  398   4.027   3.105  11.539 -0.4369  0.1958 -0.2882
   25TMC2    O1  399   3.744   3.041  11.927  0.0364 -0.1222 -0.3314
   25TMC2    O2  400   4.020   3.211  11.595 -0.6044 -0.4252  0.0826
   25TMC2    O5  401   4.005   3.081  11.411 -0.0853  0.3638 -0.1106
   25TMC2    H5  402   3.998   2.990  11.374 -1.1826  0.6546 -0.6065
   26MPD2     C  403   3.669   2.358  11.165 -0.0071  0.2026 -0.7880
   26MPD2    C1  404   3.575   2.441  11.224  0.1687  0.7217 -0.0926
   26MPD2    C2  405   3.600   2.530  11.330 -0.5225  0.7456  1.1413
   26MPD2    C3  406   3.731   2.537  11.369  0.4000 -0.3087  0.0066
   26MPD2    C4  407   3.824   2.447  11.323  0.1754 -0.5214 -0.7064
   26MPD2    C5  408   3.789   2.355  11.229  0.2376 -0.7134  0.2244
   26MPD2     H  409   3.529   2.604  11.363 -1.2270  1.2415 -1.4350
   26MPD2    H1  410   3.928   2.446  11.351 -0.1778  4.2118  0.6936
   26MPD2    H2  411   3.653   2.307  11.071  1.5630  1.8779 -1.9838
   26MPD2    H3  412   3.868   2.301  11.177 -0.0228 -0.7557 -0.1235
   26MPD2     N  413   3.764   2.638  11.456  0.4497  0.6129  0.2891
   26MPD2    H5  414   3.687   2.700  11.478 -0.3057 -1.0114  2.3129
   26MPD2    N1  415   3.446   2.431  11.159  0.1226 -0.8159 -0.0817
   26MPD2    H7  416   3.439   2.372  11.077  0.8330 -0.5310 -0.3428
   27TMC2    C1  417   2.835   0.376  12.366  0.3937  0.3951 -1.2250
   27TMC2    C2  418   2.748   0.408  12.270  0.2125  0.2019  0.5987
   27TMC2    C3  419   2.784   0.514  12.191 -0.9061 -0.3086  0.6142
   27TMC2    C4  420   2.946   0.446  12.390  0.4504  0.5259  0.6161
   27TMC2    C5  421   2.965   0.564  12.323  0.3312  0.7206 -0.1929
   27TMC2    C6  422   2.883   0.599  12.226  0.3563  0.1852  0.4807
   27TMC2     C  423   2.775   0.319  12.481  0.0688  0.3379 -0.2368
   27TMC2     O  424   2.853   0.272  12.558  0.2430 -0.2868 -0.2114
   27TMC2     H  425   2.669   0.338  12.246 -0.0050 -0.1397  2.2753
   27TMC2    H1  426   3.016   0.410  12.464  1.0708  1.0245  0.2675
   27TMC2    H2  427   2.901   0.684  12.162  1.9878  0.0732  0.7757
   27TMC2    C7  428   2.971   0.663  12.422  0.8706  0.3646  0.0721
   27TMC2    C8  429   2.703   0.564  12.080 -0.0545 -0.4346 -0.4713
   27TMC2    O1  430   3.045   0.632  12.509 -0.5852 -0.1305 -0.2035
   27TMC2    O2  431   2.676   0.684  12.067  0.1141 -0.1671 -0.0194
   27TMC2    O5  432   2.639   0.455  12.039 -0.2299 -0.1706  0.1671
   27TMC2    H5  433   2.679   0.368  12.061  1.9983  0.0625 -3.0926
   28MPD2     C  434   2.398   0.294  12.832  0.4728  0.2967 -0.3632
   28MPD2    C1  435   2.352   0.384  12.734 -0.3013 -0.5524 -0.4335
   28MPD2    C2  436   2.438   0.402  12.620 -0.2642 -0.2025 -0.3541
   28MPD2    C3  437   2.558   0.330  12.600  0.0072  0.6914 -0.1783
   28MPD2    C4  438   2.583   0.241  12.699  0.5571  0.2582  0.5100
   28MPD2    C5  439   2.505   0.212  12.803 -0.2125  0.0169 -0.7455
   28MPD2     H  440   2.417   0.474  12.542  3.3096  3.6814  2.3261
   28MPD2    H1  441   2.671   0.178  12.683 -0.1264 -0.4038 -0.6697
   28MPD2    H2  442   2.338   0.276  12.920  0.5298 -0.7497 -0.5388
   28MPD2    H3  443   2.526   0.134  12.876 -0.2419  0.7836  0.0926
   28MPD2     N  444   2.645   0.357  12.492  0.2693 -0.4448 -0.1522
   28MPD2    H5  445   2.611   0.420  12.420  1.6325  0.5163  0.0357
   28MPD2    N1  446   2.237   0.461  12.760  0.2803 -0.4658 -0.1297
   28MPD2    H7  447   2.185   0.449  12.846  0.3006 -0.4605 -0.1167
   29TMC2    C1  448   1.858   3.418  14.267 -0.5130  0.1446 -0.0810
   29TMC2    C2  449   1.812   3.548  14.269  0.2382  0.1065 -0.3727
   29TMC2    C3  450   1.897   3.659  14.275 -0.2919  0.0920  0.2597
   29TMC2    C4  451   1.991   3.399  14.289 -0.4862  0.3423 -0.6526
   29TMC2    C5  452   2.073   3.510  14.318 -0.1716 -0.3931  0.0619
   29TMC2    C6  453   2.031   3.638  14.301 -0.6858  0.2088  0.3372
   29TMC2     C  454   1.765   3.308  14.254  0.3003  0.5215  0.3294
   29TMC2     O  455   1.649   3.345  14.261  0.2246  0.7014 -0.7447
   29TMC2     H  456   1.706   3.562  14.253  0.0670  1.0784  1.6854
   29TMC2    H1  457   2.037   3.302  14.306 -1.6177 -0.2438 -0.9337
   29TMC2    H2  458   2.091   3.722  14.333 -1.3573  1.4327 -1.5865
   29TMC2    C7  459   2.214   3.479  14.333  0.4068 -0.7658 -0.0473
   29TMC2    C8  460   1.837   3.776  14.333 -0.0050  0.2803 -0.8988
   29TMC2    O1  461   2.249   3.370  14.288  0.3781  0.0074  0.2730
   29TMC2    O2  462   1.731   3.779  14.402  0.0328 -0.2446 -0.5670
   29TMC2    O5  463   1.900   3.883  14.276 -0.3248  0.4338  0.2956
   29TMC2    H5  464   1.970   3.849  14.216 -0.2734  0.3221  0.4191
   30MPD2     C  465   1.623   2.809  14.240  0.1292 -0.4074 -0.4860
   30MPD2    C1  466   1.744   2.827  14.174  0.3851 -0.9139 -0.0049
   30MPD2    C2  467   1.807   2.949  14.175  0.5086 -0.0175 -0.4123
   30MPD2    C3  468   1.748   3.060  14.226  0.1756  0.1780 -0.7017
   30MPD2    C4  469   1.621   3.042  14.289 -0.1974  0.6211 -0.4415
   30MPD2    C5  470   1.560   2.916  14.287 -0.3424 -0.2936  0.1059
   30MPD2     H  471   1.904   2.956  14.127 -0.0386  1.3789 -1.3266
   30MPD2    H1  472   1.561   3.124  14.328 -1.3070 -0.4414  0.0659
   30MPD2    H2  473   1.576   2.711  14.242  0.0876 -0.3632  0.7196
   30MPD2    H3  474   1.458   2.909  14.322 -0.0539 -0.1951  0.9779
   30MPD2     N  475   1.819   3.185  14.213 -0.3870 -0.3694 -0.5422
   30MPD2    H5  476   1.910   3.183  14.168  1.0289  1.4905  2.1810
   30MPD2    N1  477   1.810   2.716  14.111 -0.2179 -0.3370  0.3708
   30MPD2    H7  478   1.899   2.729  14.063 -0.2417 -1.3106  0.0429
   31TMC2    C1  479   4.384   2.037  15.618  0.1028  0.8718 -0.5213
   31TMC2    C2  480   4.253   2.079  15.606  0.9464  0.2907 -0.5550
   31TMC2    C3  481   4.181   2.079  15.722 -0.2405  0.4651  0.0556
   31TMC2    C4  482   4.430   1.991  15.736  0.4683  0.0492  0.8465
   31TMC2    C5  483   4.348   1.986  15.849  0.8290 -0.5113 -0.1147
   31TMC2    C6  484   4.223   2.013  15.832  0.6171 -0.3252  0.1886
   31TMC2     C  485   4.467   2.105  15.527 -0.2698 -0.4054  0.1330
   31TMC2     O  486   4.407   2.149  15.427 -0.1773 -0.2618  0.1363
   31TMC2     H  487   4.209   2.116  15.514  1.4069  0.2123 -0.8047
   31TMC2    H1  488   4.535   1.974  15.756  0.5170  0.7889  1.2122
   31TMC2    H2  489   4.157   2.013  15.918  0.0636  0.6363 -0.2456
   31TMC2    C7  490   4.405   1.919  15.963 -0.8350  0.5269 -0.1097
   31TMC2    C8  491   4.066   2.166  15.750 -0.1276 -0.2335  0.3190
   31TMC2    O1  492   4.504   1.847  15.943 -0.1906 -0.1462  0.5628
   31TMC2    O2  493   4.003   2.169  15.856 -0.7927  0.8040  0.0317
   31TMC2    O5  494   4.062   2.265  15.658  0.3424  0.2084  0.4674
   31TMC2    H5  495   4.117   2.248  15.578  0.7078 -2.6538  1.3276
   32MPD2     C  496   0.164   2.281  15.323 -0.1335 -0.1505 -0.2643
   32MPD2    C1  497   0.049   2.229  15.261 -0.0868 -0.5181 -0.7558
   32MPD2    C2  498   4.689   2.188  15.347 -0.4292  0.4220 -0.3450
   32MPD2    C3  499   4.700   2.183  15.483  0.0465 -0.0684 -0.5927
   32MPD2    C4  500   0.083   2.220  15.534  0.1837 -0.7583  0.1802
   32MPD2    C5  501   0.187   2.271  15.460 -0.2242 -0.3780  0.6821
   32MPD2     H  502   4.600   2.140  15.306 -0.1249 -1.2506  0.9549
   32MPD2    H1  503   0.108   2.216  15.639  0.6020  0.6774  0.1325
   32MPD2    H2  504   0.240   2.331  15.264 -1.3961 -0.3937 -2.1069
   32MPD2    H3  505   0.276   2.317  15.501  0.5486 -0.2358 -1.1242
   32MPD2     N  506   4.596   2.120  15.563 -0.1881  0.2403  0.4034
   32MPD2    H5  507   4.622   2.107  15.661  0.0665  1.1846  0.4625
   32MPD2    N1  508   0.014   2.252  15.122  0.1290  0.0149  0.4591
   32MPD2    H7  509   0.091   2.295  15.071 -0.1791  0.8084  0.6539
   33TMC2    C1  510   4.635   0.028  10.140  0.6316 -0.1343 -0.4229
   33TMC2    C2  511   4.506   0.042  10.095  0.0804 -1.0827 -0.0506
   33TMC2    C3  512   4.476   0.151  10.014 -0.1428 -0.0373 -0.3096
   33TMC2    C4  513   4.732   0.114  10.093 -0.3638  0.1949  0.2709
   33TMC2    C5  514   4.699   0.207  10.000 -0.4108  0.3879  0.1134
   33TMC2    C6  515   4.571   0.235   9.962 -0.5263 -0.5115  0.3952
   33TMC2     C  516   4.654   4.715  10.273 -0.7275 -0.0579 -0.1325
   33TMC2     O  517   4.567   4.658  10.335 -0.3428  0.7949  0.2831
   33TMC2     H  518   4.421   4.738  10.148  0.2158 -0.5263  0.6179
   33TMC2    H1  519   0.099   0.094  10.100 -0.0771  1.5753 -0.1831
   33TMC2    H2  520   4.537   0.308   9.890  2.5769 -0.3777 -0.8905
   33TMC2    C7  521   0.062   0.294   9.943 -0.2733 -0.6275  0.6870
   33TMC2    C8  522   4.339   0.179   9.972 -0.3183  0.2928  0.8372
   33TMC2    O1  523   0.173   0.286   9.985 -0.2043 -0.0774 -0.3736
   33TMC2    O2  524   4.314   0.278   9.900  0.5527  0.1164  0.0117
   33TMC2    O5  525   4.248   0.115  10.042  0.3853 -0.0750 -0.1160
   33TMC2    H5  526   4.269   0.040  10.102 -4.8500  0.5150  2.4591
   34MPD2     C  527   0.244   4.569  10.659  0.3060 -0.4326  0.8086
   34MPD2    C1  528   0.111   4.543  10.636  0.3984  0.0731  0.2299
   34MPD2    C2  529   0.042   4.607  10.531  0.5318 -0.7698 -0.2337
   34MPD2    C3  530   0.109   4.671  10.431 -0.7846  0.1714  0.1456
   34MPD2    C4  531   0.250   4.682  10.450 -0.6089  0.2712  0.1707
   34MPD2    C5  532   0.309   4.634  10.561 -0.0750  0.4591 -0.8480
   34MPD2     H  533   4.678   4.582  10.509  0.0345 -0.8789  2.3348
   34MPD2    H1  534   0.309   4.735  10.376  0.1788 -1.7351 -0.6521
   34MPD2    H2  535   0.310   4.520  10.728 -0.4136 -1.4266  0.7903
   34MPD2    H3  536   0.415   4.649  10.577 -0.0643  0.0420 -0.5175
   34MPD2     N  537   0.049   4.718  10.308 -0.4811  0.5472  0.5539
   34MPD2    H5  538   0.110   0.027  10.242  0.0154 -0.7723  0.0468
   34MPD2    N1  539   0.048   4.464  10.735 -0.7749  0.1930  0.4544
   34MPD2    H7  540   0.112   4.432  10.807 -1.4968  0.2494  1.1109
   35TMC2    C1  541   0.689   0.891  12.034 -0.1241  0.9946  0.7035
   35TMC2    C2  542   0.561   0.924  12.027  0.1238 -0.2751 -0.4452
   35TMC2    C3  543   0.465   0.831  12.054  0.0077  0.1448 -0.2445
   35TMC2    C4  544   0.731   0.771  12.073  0.7396  0.4145 -0.5149
   35TMC2    C5  545   0.633   0.677  12.107  0.0187 -0.3216 -0.2526
   35TMC2    C6  546   0.500   0.709  12.103 -0.4183  0.1269 -0.6824
   35TMC2     C  547   0.791   0.986  11.992  0.6315 -0.4446 -0.2362
   35TMC2     O  548   0.755   1.071  11.906  0.2136 -0.3848 -0.0095
   35TMC2     H  549   0.537   1.026  12.000 -0.2435  0.0572  1.1417
   35TMC2    H1  550   0.838   0.752  12.063  0.1662 -2.6785 -0.7586
   35TMC2    H2  551   0.427   0.640  12.143 -1.1656  0.9813 -0.5652
   35TMC2    C7  552   0.674   0.541  12.106 -0.1401 -0.4476  0.0275
   35TMC2    C8  553   0.328   0.884  12.069  0.3343 -0.1336 -0.0652
   35TMC2    O1  554   0.610   0.459  12.048  0.8561 -0.1684 -0.2983
   35TMC2    O2  555   0.312   1.002  12.048  0.1764 -0.0554  0.1303
   35TMC2    O5  556   0.238   0.790  12.030 -0.7233  0.4503  0.4260
   35TMC2    H5  557   0.278   0.701  12.040  1.1073  1.2349  0.0140
   36MPD2     C  558   1.277   1.101  11.899 -0.2994 -0.6470 -0.3922
   36MPD2    C1  559   1.275   1.036  12.024 -0.1038  0.9954 -0.3989
   36MPD2    C2  560   1.152   1.006  12.083  0.1358 -0.1635  0.3852
   36MPD2    C3  561   1.034   1.033  12.018 -0.1075  0.7646 -0.0004
   36MPD2    C4  562   1.037   1.089  11.890 -0.2054 -0.5984 -0.2737
   36MPD2    C5  563   1.160   1.112  11.827  0.5634  0.1644  0.0014
   36MPD2     H  564   1.153   0.952  12.176 -2.1748 -1.6607 -0.4622
   36MPD2    H1  565   0.954   1.112  11.824  1.0652  2.1562 -0.8803
   36MPD2    H2  566   1.370   1.138  11.858  0.6432  0.0489  2.4158
   36MPD2    H3  567   1.172   1.170  11.736  0.4793 -0.1804 -0.2280
   36MPD2     N  568   0.910   0.979  12.066 -0.3056 -0.4578 -0.2609
   36MPD2    H5  569   0.913   0.912  12.142 -1.0041 -1.6503 -1.2917
   36MPD2    N1  570   1.407   1.001  12.075 -0.8666  0.0045  0.5123
   36MPD2    H7  571   1.485   1.028  12.016 -2.2309  0.0011 -1.3011
   37TMC2    C1  572   3.109   1.776  11.404 -0.3474  0.0980  0.2496
   37TMC2    C2  573   3.109   1.899  11.345 -0.2525  0.4732 -0.3844
   37TMC2    C3  574   3.210   1.930  11.257  0.8092  0.2100  0.2298
   37TMC2    C4  575   3.200   1.678  11.372 -0.9954  0.3304  0.8732
   37TMC2    C5  576   3.307   1.715  11.298  0.1230  0.0702  0.8304
   37TMC2    C6  577   3.310   1.839  11.241  0.0097  0.2403  0.1599
   37TMC2     C  578   3.037   1.762  11.529  0.4275  0.6034  0.3171
   37TMC2     O  579   2.944   1.836  11.557 -0.1001  0.3399 -0.2690
   37TMC2     H  580   3.031   1.971  11.365  0.7078  1.0700  1.2105
   37TMC2    H1  581   3.202   1.576  11.410  3.3611 -0.3981 -1.2490
   37TMC2    H2  582   3.384   1.868  11.168 -1.2577  0.8568 -0.8791
   37TMC2    C7  583   3.430   1.638  11.307  0.0637 -0.0135  0.5150
   37TMC2    C8  584   3.223   2.054  11.201  0.1395  0.3192  1.1754
   37TMC2    O1  585   3.431   1.570  11.413 -0.1645 -0.5491  0.1068
   37TMC2    O2  586   3.247   2.079  11.085 -0.5236  0.2499 -0.4515
   37TMC2    O5  587   3.281   2.129  11.301 -0.1463  0.2232  0.6049
   37TMC2    H5  588   3.280   2.086  11.389 -0.2605  0.1037  0.5436
   38MPD2     C  589   3.044   1.580  12.003 -0.5900 -0.6132  0.5453
   38MPD2    C1  590   3.167   1.560  11.936 -0.1614  0.1796  0.1961
   38MPD2    C2  591   3.191   1.599  11.810 -0.3133 -0.5778 -0.9341
   38MPD2    C3  592   3.084   1.650  11.741 -0.4626  0.2987  0.1759
   38MPD2    C4  593   2.958   1.669  11.797  0.8861 -0.5023  0.1280
   38MPD2    C5  594   2.935   1.632  11.932  0.4182  0.4371 -0.0168
   38MPD2     H  595   3.289   1.581  11.767  1.3202  2.0483  1.7406
   38MPD2    H1  596   2.882   1.723  11.742  0.8945 -1.0508 -0.4176
   38MPD2    H2  597   3.024   1.544  12.103  1.8466 -1.5187  0.7064
   38MPD2    H3  598   2.839   1.652  11.978 -0.0691 -1.5023 -0.2366
   38MPD2     N  599   3.115   1.689  11.610  0.6103 -0.6331  0.7205
   38MPD2    H5  600   3.210   1.671  11.581 -0.1517  0.7941 -2.7617
   38MPD2    N1  601   3.271   1.482  11.998 -0.6772 -0.5788  0.1410
   38MPD2    H7  602   3.345   1.451  11.937 -1.7264  0.0393 -1.4403
   39TMC2    C1  603   2.011   3.661   1.953 -0.2837 -0.2462 -0.1021
   39TMC2    C2  604   2.025   3.792   1.978  0.2204 -0.5573 -0.3336
   39TMC2    C3  605   2.127   3.831   2.051  0.5169 -0.3049 -0.4315
   39TMC2    C4  606   2.088   3.566   2.003  0.2163  0.5916 -0.1499
   39TMC2    C5  607   2.198   3.608   2.072 -0.4470  0.0683 -0.1795
   39TMC2    C6  608   2.219   3.740   2.100 -0.0437 -0.0550 -0.2262
   39TMC2     C  609   1.920   3.620   1.851  0.9356 -0.8360  0.0595
   39TMC2     O  610   1.812   3.674   1.849 -0.0219  0.0936 -0.2362
   39TMC2     H  611   1.972   3.865   1.917 -1.7609 -1.5666  0.1683
   39TMC2    H1  612   2.078   3.460   1.980  0.0181  0.7139 -0.6316
   39TMC2    H2  613   2.311   3.772   2.148  0.3255  1.9302 -2.2666
   39TMC2    C7  614   2.304   3.502   2.088  0.1354  0.6404 -0.3556
   39TMC2    C8  615   2.189   3.954   1.999 -0.3356  0.5857  0.2557
   39TMC2    O1  616   2.279   3.382   2.097 -0.4670  0.0237 -0.1567
   39TMC2    O2  617   2.308   3.976   1.998  0.0155  0.0047  0.5899
   39TMC2    O5  618   2.087   4.046   2.011  0.4191  0.1836  0.5990
   39TMC2    H5  619   1.995   4.014   2.002  1.0201 -1.2018 -0.6481
   40MPD2     C  620   1.972   3.389   1.569  0.8310 -0.0367  0.1171
   40MPD2    C1  621   1.905   3.463   1.655 -0.4256  0.0486  0.1110
   40MPD2    C2  622   1.770   3.454   1.660  0.2177 -0.3115  0.2184
   40MPD2    C3  623   1.695   3.382   1.565 -0.1559  0.0768 -0.3335
   40MPD2    C4  624   1.767   3.297   1.483 -0.3847 -0.3917 -0.7224
   40MPD2    C5  625   1.904   3.300   1.479 -0.3578 -0.4580  0.2079
   40MPD2     H  626   1.710   3.502   1.736 -0.6018 -3.1929  1.3546
   40MPD2    H1  627   1.722   3.233   1.408 -1.6416  0.5021 -0.7285
   40MPD2    H2  628   2.081   3.382   1.568  0.8503  0.7213 -2.1859
   40MPD2    H3  629   1.963   3.243   1.408 -0.7559 -1.4456  0.6767
   40MPD2     N  630   1.558   3.391   1.550  0.3892 -0.7379  0.4592
   40MPD2    H5  631   1.526   3.339   1.469 -4.1085  0.5449  1.3858
   40MPD2    N1  632   1.977   3.525   1.760  0.3038 -0.0966  0.3614
   40MPD2    H7  633   2.078   3.511   1.761  0.5614  1.8026  1.6907
   41TMC2    C1  634   0.921   1.475  13.814 -0.8760 -0.3074 -0.0151
   41TMC2    C2  635   1.032   1.422  13.750  0.1783  0.2952  0.2289
   41TMC2    C3  636   0.992   1.360  13.630  0.1445 -0.3569 -0.4369
   41TMC2    C4  637   0.787   1.464  13.773  0.1987 -0.9457 -0.1187
   41TMC2    C5  638   0.763   1.416  13.651  0.4575  0.2425  0.0818
   41TMC2    C6  639   0.863   1.350  13.582 -0.6292 -1.1321 -0.1332
   41TMC2     C  640   0.953   1.495  13.955  0.5429 -0.3636  0.2072
   41TMC2     O  641   1.067   1.463  13.988  1.0365  0.2850  0.0412
   41TMC2     H  642   1.135   1.433  13.779 -0.2789  3.6787  0.4826
   41TMC2    H1  643   0.715   1.517  13.834  1.6077  1.6438 -0.6791
   41TMC2    H2  644   0.850   1.313  13.481 -1.2100  1.3091 -0.9588
   41TMC2    C7  645   0.622   1.426  13.603 -0.4544  0.4614  0.0933
   41TMC2    C8  646   1.093   1.287  13.570  0.3434  0.2925  1.1895
   41TMC2    O1  647   0.539   1.479  13.678 -0.0502 -0.3172  0.0965
   41TMC2    O2  648   1.211   1.306  13.582  0.0063  0.2522  0.6237
   41TMC2    O5  649   1.042   1.171  13.523  0.2581 -0.1482  0.5053
   41TMC2    H5  650   0.951   1.157  13.555  0.2388  3.3754  2.0035
   42MPD2     C  651   0.998   1.626  14.220 -0.6579  0.3736  0.2913
   42MPD2    C1  652   0.883   1.649  14.148  1.1744  0.1910  0.1772
   42MPD2    C2  653   0.777   1.725  14.195  0.0240  0.3375  0.2689
   42MPD2    C3  654   0.794   1.794  14.323  0.2097 -0.0365 -0.2363
   42MPD2    C4  655   0.909   1.764  14.390 -0.1027 -0.3401  0.0669
   42MPD2    C5  656   1.010   1.687  14.344  0.4925  0.0189  0.0712
   42MPD2     H  657   0.690   1.731  14.131  0.5399  2.6616 -0.2335
   42MPD2    H1  658   0.930   1.805  14.489  0.0172  1.4384 -0.6880
   42MPD2    H2  659   1.073   1.552  14.197 -0.9395 -0.0896  0.8815
   42MPD2    H3  660   1.096   1.666  14.407 -0.1981  0.3686  1.1300
   42MPD2     N  661   0.710   1.889  14.379  0.5633  0.0828  0.1188
   42MPD2    H5  662   0.739   1.931  14.467 -2.4753  1.1771  0.6173
   42MPD2    N1  663   0.863   1.585  14.018 -0.7951  0.2945  0.0764
   42MPD2    H7  664   0.777   1.600  13.967 -1.2864 -0.3853  0.6977
   43TMC2    C1  665   2.133   4.089   0.884  0.7921 -0.5517  0.1136
   43TMC2    C2  666   2.005   4.132   0.894 -1.2210  0.5532  0.5946
   43TMC2    C3  667   1.975   4.227   0.990  0.3723  0.5401 -0.6069
   43TMC2    C4  668   2.230   4.144   0.959 -0.0797 -0.0295 -0.3389
   43TMC2    C5  669   2.201   4.255   1.030 -0.5232 -0.1268  0.2321
   43TMC2    C6  670   2.069   4.303   1.050 -0.1498 -0.3291  0.0373
   43TMC2     C  671   2.170   3.980   0.800  0.5134 -1.0627 -0.4551
   43TMC2     O  672   2.259   3.915   0.848  0.1179  0.1578  0.1046
   43TMC2     H  673   1.923   4.082   0.842 -0.1902 -0.5435  0.0173
   43TMC2    H1  674   2.335   4.120   0.952  0.2889  1.0257  1.5485
   43TMC2    H2  675   2.053   4.396   1.103 -2.5493 -1.5194  1.3961
   43TMC2    C7  676   2.306   4.326   1.102 -0.0838 -0.5202 -0.0338
   43TMC2    C8  677   1.839   4.272   0.978 -0.3376 -0.1803  0.4279
   43TMC2    O1  678   2.424   4.296   1.077 -0.1153 -0.3619  0.2947
   43TMC2    O2  679   1.759   4.243   0.893  0.0026 -0.2780  0.3091
   43TMC2    O5  680   1.814   4.334   1.096 -0.2724 -0.0287  0.1601
   43TMC2    H5  681   1.894   4.336   1.153 -0.4360 -0.1478  0.3909
   44MPD2     C  682   2.095   3.631   0.428 -0.2530  0.4740  0.1374
   44MPD2    C1  683   2.212   3.672   0.483 -0.0671  0.3287 -0.3194
   44MPD2    C2  684   2.197   3.773   0.574  0.7025 -0.5699  0.1996
   44MPD2    C3  685   2.085   3.841   0.608  0.2654  0.0494  0.1300
   44MPD2    C4  686   1.973   3.805   0.531 -0.1331  0.1230  0.2866
   44MPD2    C5  687   1.975   3.699   0.449 -1.1523 -0.1307 -0.8189
   44MPD2     H  688   2.288   3.806   0.623  1.8248 -0.6946 -1.8271
   44MPD2    H1  689   1.876   3.850   0.547 -0.5821 -0.9531  0.6239
   44MPD2    H2  690   2.091   3.543   0.366  2.2951  1.7437 -1.8234
   44MPD2    H3  691   1.887   3.651   0.408 -1.7470  0.8222 -0.6541
   44MPD2     N  692   2.080   3.947   0.703  0.3645  0.1271  0.3145
   44MPD2    H5  693   2.001   4.010   0.692  1.2460  1.2756  0.5872
   44MPD2    N1  694   2.336   3.611   0.467  1.1535 -0.2549  0.0332
   44MPD2    H7  695   2.406   3.641   0.534  0.4224 -0.0308  0.7048
   45TMC2    C1  696   2.896   0.844   9.678  0.1614  0.3881 -0.3226
   45TMC2    C2  697   2.994   0.754   9.712 -0.3729  0.2682  0.8637
   45TMC2    C3  698   3.083   0.793   9.810 -0.6383  0.0917  1.3292
   45TMC2    C4  699   2.892   0.974   9.731  0.1031  0.1481  0.0537
   45TMC2    C5  700   2.992   1.004   9.820 -0.3461  0.0547  0.1767
   45TMC2    C6  701   3.089   0.916   9.864 -0.2837  0.2742 -0.7541
   45TMC2     C  702   2.795   0.805   9.583  0.4897  0.2396 -0.1922
   45TMC2     O  703   2.831   0.725   9.499  0.3166 -0.4773  0.4375
   45TMC2     H  704   2.996   0.655   9.669  0.0237  0.1014  1.2611
   45TMC2    H1  705   2.835   1.049   9.678  1.2015  0.5728 -0.5211
   45TMC2    H2  706   3.176   0.952   9.917  0.3653  0.1161 -1.7232
   45TMC2    C7  707   3.010   1.139   9.870  0.2000 -0.1902  0.2834
   45TMC2    C8  708   3.189   0.700   9.847 -0.2028  0.1445  0.0891
   45TMC2    O1  709   3.100   1.150   9.947 -0.5661 -0.0638  0.4393
   45TMC2    O2  710   3.236   0.612   9.777  0.4380  0.2749 -0.3151
   45TMC2    O5  711   3.221   0.721   9.979  0.1652 -0.2675  0.3080
   45TMC2    H5  712   3.147   0.768  10.023 -0.0027 -1.3907  1.2214
   46MPD2     C  713   2.532   0.744   9.469  0.5084 -0.3511  0.2976
   46MPD2    C1  714   2.554   0.856   9.548  0.1192 -0.4606  0.0788
   46MPD2    C2  715   2.445   0.924   9.597 -0.1839  0.2812  0.1552
   46MPD2    C3  716   2.315   0.889   9.560 -0.8087  0.9292  0.2159
   46MPD2    C4  717   2.294   0.799   9.468 -0.4939 -0.6229 -0.0253
   46MPD2    C5  718   2.403   0.724   9.429  0.0266 -0.5679  0.3188
   46MPD2     H  719   2.442   0.993   9.681  1.0186  2.7203 -1.7684
   46MPD2    H1  720   2.198   0.763   9.433  0.6099 -3.7369  0.1997
   46MPD2    H2  721   2.608   0.676   9.432 -1.0646 -1.0474 -1.6188
   46MPD2    H3  722   2.376   0.636   9.371  2.0353 -0.3086 -0.9799
   46MPD2     N  723   2.203   0.959   9.621  0.5799  0.0305 -0.2903
   46MPD2    H5  724   2.228   1.004   9.709  0.4719 -1.3389  0.4404
   46MPD2    N1  725   2.684   0.882   9.600  0.3673 -0.0705 -0.3520
   46MPD2    H7  726   2.688   0.958   9.666  1.2582 -0.8137  0.4562
   47TMC2    C1  727   0.594   2.616   9.391  0.0469 -0.6784  0.1665
   47TMC2    C2  728   0.634   2.537   9.283 -0.3646 -0.3549  0.0613
   47TMC2    C3  729   0.539   2.476   9.203  0.1572  0.3086  1.3236
   47TMC2    C4  730   0.460   2.653   9.405 -0.4753 -0.1401  0.2284
   47TMC2    C5  731   0.369   2.601   9.317 -0.1150 -0.0113  0.1999
   47TMC2    C6  732   0.406   2.522   9.215 -0.4420  0.3643  0.1678
   47TMC2     C  733   0.662   2.610   9.517  0.7879  0.0652  0.1251
   47TMC2     O  734   0.635   2.693   9.600 -0.4245  0.0428  0.0988
   47TMC2     H  735   0.742   2.530   9.279 -0.2293  1.2618  0.9782
   47TMC2    H1  736   0.424   2.712   9.488  2.5085  0.4209  1.1353
   47TMC2    H2  737   0.333   2.468   9.155 -1.7670  0.9911  1.2274
   47TMC2    C7  738   0.232   2.606   9.349  0.8083  0.1366  0.1217
   47TMC2    C8  739   0.581   2.396   9.088  0.3211 -0.7528  0.0584
   47TMC2    O1  740   0.160   2.514   9.316  0.1339 -0.3812 -0.1994
   47TMC2    O2  741   0.507   2.364   8.996  0.4969  0.2336 -0.2769
   47TMC2    O5  742   0.689   2.320   9.130  0.2919  0.0946 -0.3656
   47TMC2    H5  743   0.700   2.331   9.227  0.5447  0.0221 -0.3856
   48MPD2     C  744   0.813   2.526   9.761 -0.0593 -0.0760 -0.2055
   48MPD2    C1  745   0.801   2.449   9.654  0.3791 -0.4137 -0.0714
   48MPD2    C2  746   0.869   2.327   9.654  0.0996 -0.6077 -0.4945
   48MPD2    C3  747   0.955   2.290   9.753 -0.1400 -0.5932 -0.5660
   48MPD2    C4  748   0.963   2.364   9.864 -0.0883  0.2175 -0.6031
   48MPD2    C5  749   0.889   2.478   9.868  0.5846 -0.4351  1.0245
   48MPD2     H  750   0.846   2.256   9.575 -4.2653 -0.1620  0.3914
   48MPD2    H1  751   1.029   2.346   9.948  0.6104 -2.4615 -1.7354
   48MPD2    H2  752   0.771   2.623   9.784 -1.4609 -1.2362  2.1530
   48MPD2    H3  753   0.900   2.545   9.953  1.0663 -1.3170  1.6549
   48MPD2     N  754   1.026   2.165   9.742 -0.2879  0.0280 -1.0302
   48MPD2    H5  755   1.015   2.114   9.655 -0.6061  0.2960 -1.1497
   48MPD2    N1  756   0.732   2.489   9.533 -0.4850 -0.5778  0.2898
   48MPD2    H7  757   0.703   2.416   9.468 -1.5674 -0.4021  0.5836
   49TMC2    C1  758   3.437   3.669  10.272  0.3504  0.4738  0.0675
   49TMC2    C2  759   3.401   3.687  10.144 -0.2202 -0.1595  0.4156
   49TMC2    C3  760   3.383   3.580  10.063 -0.4610 -0.1571  0.5365
   49TMC2    C4  761   3.456   3.545  10.326  0.3078  0.1220  0.3673
   49TMC2    C5  762   3.423   3.440  10.248 -0.3963  0.2221 -0.8036
   49TMC2    C6  763   3.386   3.450  10.118 -0.2530 -0.6646 -0.0615
   49TMC2     C  764   3.485   3.788  10.334  0.8712  0.4831  0.1306
   49TMC2     O  765   3.525   3.874  10.250 -0.2409  0.5902 -0.3129
   49TMC2     H  766   3.391   3.781  10.090 -0.5546 -0.9057 -0.8376
   49TMC2    H1  767   3.476   3.529  10.431  2.3448  0.1827 -0.0057
   49TMC2    H2  768   3.364   3.361  10.061 -0.3882 -1.7605  1.7015
   49TMC2    C7  769   3.441   3.301  10.293  0.2720 -0.2099  0.9481
   49TMC2    C8  770   3.333   3.612   9.936  0.3914 -0.0982  0.1952
   49TMC2    O1  771   3.368   3.215  10.242 -0.0707 -0.4415 -0.3515
   49TMC2    O2  772   3.245   3.696   9.917  0.0500 -0.1072  0.1857
   49TMC2    O5  773   3.410   3.557   9.834 -0.6965 -0.1560 -0.2492
   49TMC2    H5  774   3.482   3.506   9.878 -1.1444  0.5304  1.2702
   50MPD2     C  775   3.617   3.987  10.512 -0.4741 -0.3664  0.4306
   50MPD2    C1  776   3.534   3.885  10.553 -0.6294 -0.1696  0.5804
   50MPD2    C2  777   3.500   3.866  10.685 -0.7240  0.2451 -1.0533
   50MPD2    C3  778   3.521   3.968  10.779  0.0652 -0.0439 -0.0888
   50MPD2    C4  779   3.589   4.076  10.735  0.0785 -0.3854  0.7933
   50MPD2    C5  780   3.640   4.082  10.605 -0.0938  0.0302  0.9510
   50MPD2     H  781   3.439   3.781  10.713 -0.2195  0.0590 -0.5274
   50MPD2    H1  782   3.613   4.158  10.801  0.4436 -1.3045  1.7908
   50MPD2    H2  783   3.655   4.010  10.413  0.4619 -0.9124  0.6655
   50MPD2    H3  784   3.693   4.176  10.593  1.4152 -1.2666 -2.3780
   50MPD2     N  785   3.478   3.963  10.913 -0.0352 -0.3059  0.4415
   50MPD2    H5  786   3.492   4.052  10.961 -1.4313  0.0401  0.2164
   50MPD2    N1  787   3.489   3.785  10.472  0.3328 -0.0527  0.7154
   50MPD2    H7  788   3.446   3.709  10.523 -0.0562 -1.2197 -1.3513
   51TMC2    C1  789   3.399   4.219   1.369  0.0902 -0.8531 -0.0496
   51TMC2    C2  790   3.479   4.312   1.435  0.4911 -0.5022 -0.6662
   51TMC2    C3  791   3.585   4.375   1.369 -0.1798 -0.3543 -0.0555
   51TMC2    C4  792   3.430   4.186   1.241  0.3451  0.6806  0.5827
   51TMC2    C5  793   3.539   4.245   1.180  0.0682  0.3175 -0.4563
   51TMC2    C6  794   3.604   4.351   1.237 -0.5994  0.2659 -0.1100
   51TMC2     C  795   3.366   4.105   1.441 -0.0390 -1.4444 -0.5170
   51TMC2     O  796   3.407   3.999   1.398  0.4787  0.4018  0.0649
   51TMC2     H  797   3.472   4.322   1.543  3.5932 -0.6172 -0.4552
   51TMC2    H1  798   3.385   4.096   1.201  1.1192  1.1445 -1.3377
   51TMC2    H2  799   3.691   4.392   1.186  1.4365 -2.9634  0.7539
   51TMC2    C7  800   3.602   4.175   1.067 -0.9614 -0.8485  0.2328
   51TMC2    C8  801   3.707   4.375   1.449  0.4565  0.1257 -0.1080
   51TMC2    O1  802   3.721   4.199   1.058 -0.1073  0.2247  0.1507
   51TMC2    O2  803   3.729   4.284   1.527  0.3079  0.0480 -0.1808
   51TMC2    O5  804   3.801   4.454   1.390  0.4184 -0.0172 -0.3697
   51TMC2    H5  805   3.762   4.514   1.323 -1.7440 -3.6190 -2.3704
   52MPD2     C  806   2.990   3.863   1.668 -0.2513 -0.8725 -0.2594
   52MPD2    C1  807   3.113   3.810   1.634  0.4371  0.4260  0.4648
   52MPD2    C2  808   3.210   3.906   1.595 -0.3805  0.5728 -0.2358
   52MPD2    C3  809   3.181   4.040   1.588 -0.2760 -0.7886 -0.4642
   52MPD2    C4  810   3.060   4.084   1.642 -0.1272 -0.0161 -0.2545
   52MPD2    C5  811   2.962   3.997   1.684  0.4258  0.0788 -0.5525
   52MPD2     H  812   3.303   3.863   1.559  0.1888  2.0956 -0.5837
   52MPD2    H1  813   3.041   4.191   1.641  1.1369  0.1959 -2.7953
   52MPD2    H2  814   2.929   3.790   1.720 -2.4863  1.9568  1.1436
   52MPD2    H3  815   2.867   4.034   1.719  1.6255  3.2213 -0.6625
   52MPD2     N  816   3.273   4.134   1.534  0.6243  0.2539  0.1841
   52MPD2    H5  817   3.250   4.232   1.550 -0.1202  0.3759 -1.7324
   52MPD2    N1  818   3.142   3.673   1.607  0.2898 -0.2763  0.8245
   52MPD2    H7  819   3.232   3.648   1.566  0.6037  1.2821  0.5423
   53TMC2    C1  820   4.060   1.385  11.593 -0.2861  0.3156 -0.0918
   53TMC2    C2  821   4.192   1.355  11.611  0.4477 -0.1720  0.6768
   53TMC2    C3  822   4.242   1.382  11.734  0.5994 -0.1486  0.2408
   53TMC2    C4  823   3.979   1.429  11.695  0.6134 -0.5169 -0.3021
   53TMC2    C5  824   4.031   1.441  11.822 -0.1084 -0.3272  0.3144
   53TMC2    C6  825   4.159   1.412  11.841  0.7400  0.2031 -0.0263
   53TMC2     C  826   4.021   1.433  11.462 -0.0757  0.1467  0.1017
   53TMC2     O  827   4.116   1.443  11.386 -0.2299  0.6341 -0.2174
   53TMC2     H  828   4.238   1.299  11.531 -1.4050 -1.7147  0.7074
   53TMC2    H1  829   3.873   1.448  11.687  0.6923 -0.0027 -0.1286
   53TMC2    H2  830   4.202   1.408  11.941 -0.0632  0.5188  0.3269
   53TMC2    C7  831   3.946   1.502  11.921  0.0551 -0.6656 -0.7565
   53TMC2    C8  832   4.378   1.344  11.764 -0.5518  0.5245 -0.4950
   53TMC2    O1  833   3.828   1.511  11.895  0.0779 -0.0742  0.1129
   53TMC2    O2  834   4.427   1.327  11.873 -0.4523  0.3954  0.2824
   53TMC2    O5  835   4.445   1.359  11.651  0.0404 -0.3267 -0.3837
   53TMC2    H5  836   4.392   1.390  11.575 -0.9620  0.3440  0.5856
   54MPD2     C  837   3.914   1.559  11.212  0.0534  0.4780  0.1661
   54MPD2    C1  838   3.838   1.526  11.323  0.5653  0.0906  0.0479
   54MPD2    C2  839   3.712   1.570  11.331  0.5901  0.1554 -0.1300
   54MPD2    C3  840   3.651   1.633  11.215  0.0404  0.4305  0.5603
   54MPD2    C4  841   3.728   1.653  11.104 -0.2447 -1.1076  0.4371
   54MPD2    C5  842   3.859   1.623  11.106 -0.5756  0.8431 -0.1507
   54MPD2     H  843   3.652   1.561  11.421  2.4149 -2.1225  0.8558
   54MPD2    H1  844   3.695   1.711  11.019  1.3836 -2.1609 -0.9270
   54MPD2    H2  845   4.019   1.537  11.196  0.1784  0.4707  1.0024
   54MPD2    H3  846   3.922   1.651  11.022  2.0094 -1.6136  0.9705
   54MPD2     N  847   3.515   1.669  11.212 -0.4943 -0.7921 -0.1548
   54MPD2    H5  848   3.472   1.726  11.140 -0.2693 -0.8803 -0.3589
   54MPD2    N1  849   3.890   1.470  11.438 -0.1495  1.1325 -0.1761
   54MPD2    H7  850   3.831   1.456  11.519  2.7698 -2.9459  1.2373
   55TMC2    C1  851   0.554   4.731   0.448 -0.3967  0.0313  0.9447
   55TMC2    C2  852   0.624   0.045   0.345 -0.0214 -0.0801  0.0329
   55TMC2    C3  853   0.679   4.711   0.249  0.2765  0.1476 -0.2282
   55TMC2    C4  854   0.551   4.596   0.450 -0.3786 -0.8710 -0.4076
   55TMC2    C5  855   0.609   4.516   0.352  0.4738 -0.2930 -0.9417
   55TMC2    C6  856   0.678   4.574   0.251  0.8030  0.5323  0.7085
   55TMC2     C  857   0.437   0.066   0.490 -0.0308 -0.0503  0.2962
   55TMC2     O  858   0.339   4.731   0.507 -0.2094  0.5144 -0.5363
   55TMC2     H  859   0.616   0.151   0.320  0.7348 -0.2960 -1.0832
   55TMC2    H1  860   0.489   4.553   0.527 -0.8567  0.8802  0.1941
   55TMC2    H2  861   0.713   4.514   0.168  0.5030  1.6436 -0.2288
   55TMC2    C7  862   0.560   4.380   0.333  0.1464  0.2091  0.2297
   55TMC2    C8  863   0.737   0.035   0.139  0.5510  0.2894 -0.1298
   55TMC2    O1  864   0.578   4.346   0.216 -0.0010 -0.0907 -0.4163
   55TMC2    O2  865   0.794   0.142   0.138 -0.0281 -0.7070 -0.1913
   55TMC2    O5  866   0.663   4.721   0.037 -0.4451 -0.4913  0.2547
   55TMC2    H5  867   0.606   4.643   0.055  0.3865 -0.9990  0.6718
   56MPD2     C  868   0.390   0.424   0.513  0.2901 -0.5025  0.6273
   56MPD2    C1  869   0.357   0.291   0.517 -0.4088  0.4767  0.1322
   56MPD2    C2  870   0.222   0.263   0.529 -1.2382 -0.0728 -0.0627
   56MPD2    C3  871   0.127   0.362   0.548 -0.3889 -0.1941  0.3637
   56MPD2    C4  872   0.165   0.494   0.551 -0.1258  0.4024  0.7785
   56MPD2    C5  873   0.301   0.523   0.533  0.1942 -0.3280  0.1892
   56MPD2     H  874   0.188   0.161   0.518 -0.2641 -0.3828 -0.1754
   56MPD2    H1  875   0.104   0.580   0.574 -0.2225 -0.1498  2.6113
   56MPD2    H2  876   0.496   0.444   0.509 -0.0230  1.2817  1.2492
   56MPD2    H3  877   0.334   0.624   0.554  1.4282 -0.7103  0.1150
   56MPD2     N  878   4.733   0.320   0.573 -0.0867  0.0635 -0.4912
   56MPD2    H5  879   4.723   0.221   0.589 -1.3893  0.1592 -0.7260
   56MPD2    N1  880   0.459   0.201   0.499 -0.0774  0.3571 -0.3398
   56MPD2    H7  881   0.557   0.227   0.496 -0.0739  0.4526  0.4873
   57TMC2    C1  882   3.973   4.510  13.169  0.0097  0.0964  0.9656
   57TMC2    C2  883   3.957   4.435  13.049 -0.0285  0.7044  0.7156
   57TMC2    C3  884   4.062   4.427  12.958 -0.6784 -0.4017 -0.3826
   57TMC2    C4  885   4.090   4.567  13.197 -0.6749 -0.4217 -0.2643
   57TMC2    C5  886   4.192   4.537  13.115 -0.7846  0.1760  0.7328
   57TMC2    C6  887   4.186   4.461  13.002  0.2981  0.2658  0.7012
   57TMC2     C  888   3.861   4.528  13.266  0.8498 -0.1477 -0.2793
   57TMC2     O  889   3.892   4.602  13.354 -0.0666  0.1356 -0.1833
   57TMC2     H  890   3.858   4.402  13.019  1.0777 -1.4258 -0.6203
   57TMC2    H1  891   4.114   4.618  13.290  1.0036  0.2073 -1.0295
   57TMC2    H2  892   4.277   4.436  12.948 -0.7306  0.6448 -1.1968
   57TMC2    C7  893   4.317   4.597  13.158  0.0883 -0.3734 -0.4734
   57TMC2    C8  894   4.048   4.392  12.817 -0.0836  1.0155 -0.1167
   57TMC2    O1  895   4.305   4.714  13.202  0.6153 -0.2122  0.7342
   57TMC2    O2  896   4.141   4.366  12.747 -0.2376 -0.0430 -0.1641
   57TMC2    O5  897   3.949   4.476  12.782  0.1919  0.5942 -0.4151
   57TMC2    H5  898   3.894   4.513  12.854 -1.2497 -0.9692 -0.7185
   58MPD2     C  899   3.470   4.297  13.487 -0.3461 -0.2965 -0.4406
   58MPD2    C1  900   3.553   4.393  13.543 -0.2148  0.3626  0.6445
   58MPD2    C2  901   3.650   4.447  13.459  0.3148 -0.1945 -0.3465
   58MPD2    C3  902   3.670   4.395  13.337  0.1131 -0.5799 -0.0739
   58MPD2    C4  903   3.588   4.305  13.285  0.6388  0.9666  0.6282
   58MPD2    C5  904   3.490   4.254  13.360 -0.2809 -0.0777 -0.2666
   58MPD2     H  905   3.719   4.524  13.490 -0.0128 -0.7479  1.7303
   58MPD2    H1  906   3.607   4.255  13.190  0.5884  0.6879  0.7678
   58MPD2    H2  907   3.395   4.249  13.549  0.2968 -1.6961 -0.7333
   58MPD2    H3  908   3.422   4.180  13.320  0.4148 -0.7713 -0.1671
   58MPD2     N  909   3.773   4.428  13.253  0.7820 -0.2403 -0.4559
   58MPD2    H5  910   3.783   4.384  13.162 -0.2201  0.4882 -0.9121
   58MPD2    N1  911   3.530   4.449  13.673  0.4355  0.4147  0.6963
   58MPD2    H7  912   3.600   4.516  13.704  1.8759 -1.5401  1.6661
   59TMC2    C1  913   2.038   0.091  12.909  0.2086 -0.0418 -0.3336
   59TMC2    C2  914   2.019   4.704  12.945 -0.5543 -0.5609  0.0103
   59TMC2    C3  915   1.982   4.620  12.845 -0.4137  0.0794  0.5323
   59TMC2    C4  916   2.022   0.133  12.780  0.4763  0.0238 -0.4287
   59TMC2    C5  917   1.978   0.044  12.688 -0.3321 -0.1627  0.8276
   59TMC2    C6  918   1.955   4.654  12.716  0.2152  0.5083  0.3110
   59TMC2     C  919   2.084   0.194  13.003  0.2270  0.4979 -0.0724
   59TMC2     O  920   2.074   0.307  12.966 -0.3214  0.1793 -0.1026
   59TMC2     H  921   2.029   4.666  13.046  1.9323 -1.1507 -0.4722
   59TMC2    H1  922   2.051   0.233  12.750 -0.1872  0.3815  0.1326
   59TMC2    H2  923   1.924   4.579  12.643 -1.1746  1.7158 -0.3395
   59TMC2    C7  924   1.987   0.091  12.551 -0.6937 -0.4646 -0.6143
   59TMC2    C8  925   1.953   4.483  12.886 -0.1554 -0.3737  0.5156
   59TMC2    O1  926   2.017   0.016  12.461  0.1280  0.3057  0.0232
   59TMC2    O2  927   1.883   4.410  12.813  0.4895  0.1698  0.5755
   59TMC2    O5  928   2.046   4.438  12.971  0.4537 -0.1666 -0.0112
   59TMC2    H5  929   2.105   4.509  13.005  0.8937 -0.6696  0.2661
   60MPD2     C  930   2.187   0.335  13.246 -0.3568 -0.1620  0.1836
   60MPD2    C1  931   2.218   0.209  13.219  0.1368 -0.4982  0.3381
   60MPD2    C2  932   2.298   0.141  13.304  0.0585  0.1496  0.0443
   60MPD2    C3  933   2.354   0.203  13.414  0.3095 -0.1233 -0.3808
   60MPD2    C4  934   2.319   0.329  13.446  0.4520 -0.1471  0.3196
   60MPD2    C5  935   2.239   0.403  13.359  0.4884  0.1866  0.2138
   60MPD2     H  936   2.322   0.038  13.283 -1.5258 -0.2042 -0.0318
   60MPD2    H1  937   2.361   0.382  13.531  1.2660 -4.8324  2.9118
   60MPD2    H2  938   2.129   0.401  13.184 -2.2821  1.6721  3.9481
   60MPD2    H3  939   2.228   0.508  13.383 -0.2095 -0.0662  1.0249
   60MPD2     N  940   2.448   0.150  13.498  0.1380 -0.8884 -0.0304
   60MPD2    H5  941   2.493   0.213  13.562 -0.9858  1.4019 -1.4990
   60MPD2    N1  942   2.152   0.139  13.110  0.2392  0.1146 -0.2988
   60MPD2    H7  943   2.164   0.038  13.106 -3.1708 -0.2528 -0.8095
   61TMC2    C1  944   0.836   1.848  15.933  0.5665 -0.2852  0.1148
   61TMC2    C2  945   0.720   1.785  15.965 -0.7709 -0.0962 -0.3805
   61TMC2    C3  946   0.615   1.872  15.978 -0.7697 -0.0086  0.2945
   61TMC2    C4  947   0.853   1.988  15.922  0.5033  0.3733 -0.1596
   61TMC2    C5  948   0.742   2.062  15.919 -0.2175 -0.2622  1.0685
   61TMC2    C6  949   0.621   2.005  15.949 -0.2500  0.4820  0.1783
   61TMC2     C  950   0.938   1.768  15.868  0.4250 -0.0747 -0.5728
   61TMC2     O  951   0.949   1.647  15.895  0.0398  0.6328  0.1898
   61TMC2     H  952   0.709   1.678  15.949  0.2925 -0.2099 -0.3953
   61TMC2    H1  953   0.948   2.033  15.895  0.6136 -1.0466 -2.0825
   61TMC2    H2  954   0.532   2.067  15.954 -0.9514 -0.5433  0.4327
   61TMC2    C7  955   0.759   2.190  15.850  0.4437 -0.3745  0.0011
   61TMC2    C8  956   0.484   1.813  16.016 -0.2684  0.1212  0.5390
   61TMC2    O1  957   0.874   2.238  15.858  0.4574  0.3228  0.0933
   61TMC2    O2  958   0.384   1.880  16.012  0.5549  0.5177  0.4405
   61TMC2    O5  959   0.500   1.721  16.115  0.4087  0.1763 -0.8640
   61TMC2    H5  960   0.577   1.663  16.099  0.8825  0.9912 -1.5055
   62MPD2     C  961   1.165   1.669  15.711  0.0915 -0.1146 -0.1901
   62MPD2    C1  962   1.090   1.776  15.673 -0.6865 -0.1619 -0.1774
   62MPD2    C2  963   1.113   1.837  15.555  0.0226 -0.2537 -0.1993
   62MPD2    C3  964   1.213   1.800  15.473  0.4689 -0.2284 -0.2513
   62MPD2    C4  965   1.283   1.685  15.507  0.0199  0.7860 -0.8638
   62MPD2    C5  966   1.258   1.619  15.623 -0.1300 -0.5594 -0.0776
   62MPD2     H  967   1.071   1.935  15.538 -0.4743 -0.3775  0.3062
   62MPD2    H1  968   1.362   1.642  15.447 -1.2590 -3.0131  0.1764
   62MPD2    H2  969   1.173   1.633  15.812  4.1069  0.8008 -0.1679
   62MPD2    H3  970   1.320   1.535  15.653 -2.2931 -2.7076 -1.6386
   62MPD2     N  971   1.227   1.876  15.356 -0.4544  0.2848 -0.2006
   62MPD2    H5  972   1.168   1.958  15.351  1.3966  1.6548  0.6923
   62MPD2    N1  973   0.987   1.830  15.760  0.1910 -0.3632 -0.0738
   62MPD2    H7  974   0.953   1.922  15.733  3.0108  0.4846 -0.7502
   63TMC2    C1  975   1.221   1.768  10.649 -0.0012 -0.3883  0.5573
   63TMC2    C2  976   1.317   1.833  10.716  0.3172  0.3164  0.5076
   63TMC2    C3  977   1.310   1.973  10.703  0.3615  0.1157  0.7117
   63TMC2    C4  978   1.120   1.827  10.577 -0.2142 -0.6813 -0.7020
   63TMC2    C5  979   1.128   1.962  10.565 -0.3599  0.7000 -0.3364
   63TMC2    C6  980   1.218   2.037  10.623  0.5159  0.6097 -0.4755
   63TMC2     C  981   1.183   1.643  10.696  0.3076  0.4375 -0.1465
   63TMC2     O  982   1.091   1.584  10.635 -0.4408 -0.5996 -0.3139
   63TMC2     H  983   1.400   1.791  10.771  0.4743 -1.8749 -1.4343
   63TMC2    H1  984   1.050   1.768  10.519 -1.7423  0.6961 -0.2463
   63TMC2    H2  985   1.229   2.145  10.617 -0.4501  0.7688  0.6463
   63TMC2    C7  986   1.030   2.040  10.497  0.1562 -0.4064 -0.1971
   63TMC2    C8  987   1.410   2.062  10.772  0.3285  0.4293 -0.4489
   63TMC2    O1  988   0.926   1.981  10.486 -0.1258 -0.1886 -0.1219
   63TMC2    O2  989   1.423   2.179  10.736 -0.3122 -0.1161 -0.4163
   63TMC2    O5  990   1.462   1.999  10.876  0.3531  0.1183  0.0523
   63TMC2    H5  991   1.432   1.907  10.893 -1.0489  0.2657 -1.5932
   64MPD2     C  992   0.997   1.373  11.073  0.1927  0.4255  0.2201
   64MPD2    C1  993   1.017   1.337  10.943 -0.8400 -0.5899  0.4174
   64MPD2    C2  994   1.098   1.423  10.869  0.2725  0.4009 -0.0752
   64MPD2    C3  995   1.145   1.549  10.922  0.0098  0.1258  0.4931
   64MPD2    C4  996   1.115   1.578  11.054 -0.6311 -0.4181  0.3017
   64MPD2    C5  997   1.051   1.487  11.131 -0.5384 -0.1440  0.0406
   64MPD2     H  998   1.115   1.402  10.764  1.5084  1.2534 -0.0435
   64MPD2    H1  999   1.147   1.672  11.097  0.3823 -0.0467 -1.2589
   64MPD2    H2 1000   0.939   1.308  11.137  1.4806 -1.3118 -0.3659
   64MPD2    H3 1001   1.025   1.523  11.230 -0.8648 -0.2648 -0.0009
   64MPD2     N 1002   1.205   1.637  10.831  0.7187 -0.3902 -0.2174
   64MPD2    H5 1003   1.259   1.712  10.873 -3.8525  2.1534  1.0942
   64MPD2    N1 1004   0.976   1.210  10.890 -0.4004  0.6726  0.3824
   64MPD2    H7 1005   1.004   1.190  10.795 -0.4513 -4.1723  1.3911
   65TMC2    C1 1006   1.942   1.758  15.363  0.2928 -0.6388  0.4259
   65TMC2    C2 1007   1.968   1.751  15.230  0.0356  0.1320 -0.3384
   65TMC2    C3 1008   1.947   1.851  15.145  1.2428  1.0451  0.3882
   65TMC2    C4 1009   1.905   1.878  15.409 -0.0195 -0.8775  0.4038
   65TMC2    C5 1010   1.895   1.978  15.316  0.3588 -0.4810 -0.5218
   65TMC2    C6 1011   1.905   1.970  15.183  0.7745 -0.1489  0.2966
   65TMC2     C 1012   1.970   1.652  15.460 -0.2247  0.1094 -0.8301
   65TMC2     O 1013   1.966   1.690  15.576 -0.1049 -0.7900 -0.0930
   65TMC2     H 1014   2.011   1.657  15.196 -0.4191 -0.3671  0.4702
   65TMC2    H1 1015   1.894   1.901  15.515  0.4754  2.6153 -0.3103
   65TMC2    H2 1016   1.902   2.056  15.117 -1.2630  0.2855  0.9408
   65TMC2    C7 1017   1.841   2.103  15.363 -0.5076 -0.4494 -0.1120
   65TMC2    C8 1018   1.960   1.834  15.003  0.1634 -0.4178  0.0216
   65TMC2    O1 1019   1.850   2.203  15.295 -0.9205  0.2486 -1.0645
   65TMC2    O2 1020   1.940   1.732  14.942 -0.0514  0.0789 -0.2350
   65TMC2    O5 1021   2.064   1.917  14.981  0.2639  0.0231 -0.1481
   65TMC2    H5 1022   2.092   1.969  15.059 -0.7890  2.3842 -1.3453
   66MPD2     C 1023   2.063   1.404  15.593  0.5957 -0.2299  0.1701
   66MPD2    C1 1024   2.002   1.402  15.467 -0.7563 -0.6165 -0.2654
   66MPD2    C2 1025   1.978   1.280  15.409  0.0163 -0.2932 -0.0053
   66MPD2    C3 1026   1.983   1.159  15.478 -0.5870 -0.2077 -0.5786
   66MPD2    C4 1027   2.030   1.160  15.607 -0.3659 -0.0246 -0.4773
   66MPD2    C5 1028   2.088   1.279  15.651 -0.1198  0.1709 -0.1295
   66MPD2     H 1029   1.940   1.283  15.307 -1.5317 -2.9077  0.4922
   66MPD2    H1 1030   2.042   1.067  15.662  1.0807 -0.3087 -1.2681
   66MPD2    H2 1031   2.105   1.488  15.647  0.4129  0.9843 -1.5871
   66MPD2    H3 1032   2.137   1.274  15.747  1.6754  1.2308 -0.9967
   66MPD2     N 1033   1.918   1.049  15.431  0.4573  0.3881 -0.1617
   66MPD2    H5 1034   1.897   0.980  15.502  0.1667  0.0074 -0.6189
   66MPD2    N1 1035   1.970   1.528  15.401 -0.3023  0.4715 -0.3496
   66MPD2    H7 1036   1.949   1.520  15.302 -1.1585  1.0167 -0.2049
   67TMC2    C1 1037   2.029   0.663  14.128 -0.1223 -0.1955  0.5343
   67TMC2    C2 1038   2.023   0.800  14.144 -0.7906 -0.8271  0.5262
   67TMC2    C3 1039   2.082   0.842  14.254 -0.2421  0.8930 -0.1537
   67TMC2    C4 1040   2.097   0.575  14.208 -0.1941 -0.2053  0.3451
   67TMC2    C5 1041   2.150   0.627  14.319 -0.0097  0.4315  0.5693
   67TMC2    C6 1042   2.137   0.760  14.347  0.1507  0.7672  0.7256
   67TMC2     C 1043   1.949   0.603  14.026  0.2850  0.2452  0.1524
   67TMC2     O 1044   1.952   0.483  14.004  0.3490 -0.2117  0.5077
   67TMC2     H 1045   1.996   0.869  14.064 -0.3419 -1.5120 -0.2210
   67TMC2    H1 1046   2.100   0.468  14.193 -1.5165 -0.3848  1.3275
   67TMC2    H2 1047   2.173   0.813  14.434 -2.8538 -1.1357  3.0999
   67TMC2    C7 1048   2.189   0.534  14.421 -0.1567  0.6827 -0.3755
   67TMC2    C8 1049   2.103   0.981  14.270 -0.0290 -0.2062 -0.1904
   67TMC2    O1 1050   2.187   0.416  14.390 -0.2672  0.3878 -0.6780
   67TMC2    O2 1051   2.205   1.019  14.327 -0.6273  0.2782  0.6952
   67TMC2    O5 1052   2.018   1.054  14.193 -0.3248  0.4901 -0.5238
   67TMC2    H5 1053   1.945   1.011  14.144 -1.6029  0.1939  1.6465
   68MPD2     C 1054   1.723   0.546  13.817  0.5222  0.4392 -0.4314
   68MPD2    C1 1055   1.785   0.669  13.846  0.5799 -0.1343  0.3684
   68MPD2    C2 1056   1.747   0.777  13.764  0.0956 -0.0376 -0.1879
   68MPD2    C3 1057   1.663   0.767  13.654 -1.1993 -1.0281  0.6988
   68MPD2    C4 1058   1.590   0.643  13.650 -0.8215  0.2620 -1.1147
   68MPD2    C5 1059   1.627   0.535  13.728  0.4299  0.0130  0.8176
   68MPD2     H 1060   1.796   0.872  13.782 -1.1661  0.6017 -0.0926
   68MPD2    H1 1061   1.511   0.627  13.578  0.7268 -2.4000 -2.2428
   68MPD2    H2 1062   1.749   0.464  13.882 -1.2641  0.6631  0.5487
   68MPD2    H3 1063   1.580   0.437  13.721  1.5506 -0.4972  0.3083
   68MPD2     N 1064   1.624   0.876  13.569  0.2292 -0.5455 -0.8396
   68MPD2    H5 1065   1.538   0.868  13.517 -0.4292  0.3355  0.1266
   68MPD2    N1 1066   1.880   0.696  13.950 -0.8353  0.4730  0.5239
   68MPD2    H7 1067   1.889   0.794  13.974  0.3667  1.0638 -2.4384
   69TMC2    C1 1068   3.871   1.963  12.383 -0.2428 -0.3557 -0.2027
   69TMC2    C2 1069   3.745   2.012  12.359 -0.1177 -0.8509  0.5821
   69TMC2    C3 1070   3.710   2.009  12.228 -0.4084  0.2018 -0.0727
   69TMC2    C4 1071   3.956   1.911  12.286  0.2639  0.4013 -0.1407
   69TMC2    C5 1072   3.908   1.910  12.155  0.2837 -0.1825 -0.6614
   69TMC2    C6 1073   3.780   1.955  12.123 -0.0871  0.7002  0.6090
   69TMC2     C 1074   3.911   1.956  12.524 -0.2608 -0.0138  0.2386
   69TMC2     O 1075   3.822   1.978  12.609 -0.5343 -0.3074 -0.5819
   69TMC2     H 1076   3.680   2.061  12.430 -0.4196 -0.4639  0.0315
   69TMC2    H1 1077   4.052   1.864  12.306  0.4197  1.4418  1.5540
   69TMC2    H2 1078   3.751   1.969  12.019  2.3450 -0.3938 -0.2413
   69TMC2    C7 1079   3.997   1.857  12.051  0.0431  0.1628 -0.1931
   69TMC2    C8 1080   3.592   2.084  12.194 -0.3089  0.5528 -0.4830
   69TMC2    O1 1081   4.118   1.873  12.055  0.0784 -0.1841  0.6918
   69TMC2    O2 1082   3.491   2.075  12.265  0.0390 -0.0858 -0.5766
   69TMC2    O5 1083   3.636   2.193  12.139 -0.0516 -0.5677 -0.5869
   69TMC2    H5 1084   3.729   2.192  12.107  0.0107 -1.6171 -0.3820
   70MPD2     C 1085   4.245   1.909  12.665 -0.0148 -1.0227  0.5025
   70MPD2    C1 1086   4.109   1.895  12.664  0.5225 -0.8782  1.0059
   70MPD2    C2 1087   4.036   1.857  12.775  0.1920  0.2691 -0.0036
   70MPD2    C3 1088   4.104   1.840  12.891 -0.1272  0.1589 -0.2595
   70MPD2    C4 1089   4.244   1.841  12.893 -0.3629 -0.1469  0.0071
   70MPD2    C5 1090   4.309   1.879  12.779  0.0961 -0.2634 -0.6448
   70MPD2     H 1091   3.928   1.847  12.769  0.0678 -0.4269  3.0967
   70MPD2    H1 1092   4.304   1.814  12.979  0.9852  0.9054 -0.5980
   70MPD2    H2 1093   4.300   1.928  12.574 -1.3103  3.3928  0.6407
   70MPD2    H3 1094   4.417   1.883  12.790 -0.1167  0.0611  1.4036
   70MPD2     N 1095   4.034   1.793  13.008 -0.5273  0.0190 -0.0839
   70MPD2    H5 1096   4.090   1.768  13.088  0.4544  1.2989 -0.3501
   70MPD2    N1 1097   4.045   1.922  12.545 -0.5745 -0.2502  1.0260
   70MPD2    H7 1098   4.104   1.923  12.463 -4.3049 -0.0606 -1.6712
   71TMC2    C1 1099   0.791   3.348   1.732 -0.2555 -0.1527  0.3801
   71TMC2    C2 1100   0.869   3.405   1.822 -0.1425 -0.3953  0.3358
   71TMC2    C3 1101   0.805   3.475   1.919  1.0574  0.0276  0.5005
   71TMC2    C4 1102   0.654   3.357   1.721  0.3974 -0.1429 -0.1363
   71TMC2    C5 1103   0.599   3.433   1.822 -0.0690  0.2627 -0.3888
   71TMC2    C6 1104   0.671   3.486   1.928  0.9453 -0.2785 -0.0684
   71TMC2     C 1105   0.856   3.253   1.644  0.4188 -0.2978  0.0431
   71TMC2     O 1106   0.974   3.279   1.623 -0.5956  0.4604 -0.1684
   71TMC2     H 1107   0.977   3.404   1.812 -0.2139  1.5186 -0.5483
   71TMC2    H1 1108   0.614   3.318   1.628 -2.4958  0.3675  0.8801
   71TMC2    H2 1109   0.607   3.524   2.007  0.7156  0.7349 -0.7291
   71TMC2    C7 1110   0.454   3.445   1.823  0.1284 -0.0522 -0.5457
   71TMC2    C8 1111   0.892   3.546   2.014 -0.2239  0.7500  0.3442
   71TMC2    O1 1112   0.399   3.510   1.911 -0.0749 -0.3061 -0.2113
   71TMC2    O2 1113   1.002   3.504   2.041  0.0696  0.5097  0.1157
   71TMC2    O5 1114   0.818   3.598   2.110 -0.4246  0.1101  0.3800
   71TMC2    H5 1115   0.743   3.650   2.076  0.1609  0.8594  0.2316
   72MPD2     C 1116   0.879   2.814   1.377 -0.3547 -0.8150 -0.4580
   72MPD2    C1 1117   0.967   2.920   1.379 -0.5455  0.3206  0.6838
   72MPD2    C2 1118   0.932   3.029   1.453  0.1862 -0.1883 -0.0587
   72MPD2    C3 1119   0.816   3.032   1.531 -0.2046 -0.6790  0.8917
   72MPD2    C4 1120   0.722   2.931   1.517  0.9920  0.2823  0.3148
   72MPD2    C5 1121   0.760   2.827   1.438 -0.0295  0.1773 -0.1293
   72MPD2     H 1122   1.003   3.109   1.465  0.5148 -0.3834 -0.7244
   72MPD2    H1 1123   0.626   2.927   1.566 -0.1085 -1.1697 -1.9484
   72MPD2    H2 1124   0.885   2.729   1.311  1.2741 -2.2113  1.4979
   72MPD2    H3 1125   0.684   2.750   1.433 -1.9749  1.8797  3.3825
   72MPD2     N 1126   0.787   3.135   1.625 -0.4829 -0.0455 -0.0963
   72MPD2    H5 1127   0.695   3.132   1.670  0.2707 -0.9397  1.3896
   72MPD2    N1 1128   1.085   2.913   1.306 -0.5473 -0.6906  0.6194
   72MPD2    H7 1129   1.138   3.000   1.312 -0.9179 -0.2705 -2.6804
   73TMC2    C1 1130   0.708   4.200  14.175  0.2068 -0.3110  0.2830
   73TMC2    C2 1131   0.718   4.206  14.316  0.0872  0.8111 -0.8829
   73TMC2    C3 1132   0.697   4.089  14.382 -0.5806 -0.5299 -0.6430
   73TMC2    C4 1133   0.671   4.082  14.111 -0.6323 -0.4410 -0.1068
   73TMC2    C5 1134   0.640   3.972  14.184 -0.0688  0.1259  0.9238
   73TMC2    C6 1135   0.656   3.973  14.322  0.6922 -0.0586 -0.3140
   73TMC2     C 1136   0.837   4.240  14.119 -0.8817  0.0777  0.8400
   73TMC2     O 1137   0.898   4.136  14.092  0.2031 -0.1217 -0.0681
   73TMC2     H 1138   0.763   4.294  14.361  0.7158  0.9069 -1.7120
   73TMC2    H1 1139   0.654   4.070  14.005  1.4238  2.3922 -0.7430
   73TMC2    H2 1140   0.655   3.878  14.374  0.9615  1.2281  2.0226
   73TMC2    C7 1141   0.680   3.851  14.122  0.2172 -0.2989  0.3447
   73TMC2    C8 1142   0.750   4.081  14.518 -0.1507 -0.2047  0.0161
   73TMC2    O1 1143   0.638   3.743  14.155  1.0052 -0.0558  0.2197
   73TMC2    O2 1144   0.724   3.980  14.582 -0.5582 -0.6047  0.1470
   73TMC2    O5 1145   0.878   4.107  14.486 -0.0672  0.7373  0.3636
   73TMC2    H5 1146   0.888   4.196  14.447  1.2219  0.2883 -0.3406
   74MPD2     C 1147   1.135   4.515  13.788 -0.3279 -0.5402 -0.0593
   74MPD2    C1 1148   1.142   4.380  13.835 -0.4063  0.3600  0.1000
   74MPD2    C2 1149   1.045   4.336  13.928 -0.1634 -0.9726  0.7203
   74MPD2    C3 1150   0.935   4.416  13.968  0.9082 -0.1860  0.3595
   74MPD2    C4 1151   0.932   4.548  13.923  0.6107 -0.1831  0.4625
   74MPD2    C5 1152   1.032   4.594  13.844  0.6459  0.0888 -0.4427
   74MPD2     H 1153   1.046   4.229  13.947 -0.8423 -1.2732 -0.9094
   74MPD2    H1 1154   0.865   4.613  13.978 -1.5736 -0.8281 -1.4169
   74MPD2    H2 1155   1.209   4.551  13.719 -2.4837  1.9814 -1.0300
   74MPD2    H3 1156   1.024   4.696  13.809  1.7964  0.8645  1.5477
   74MPD2     N 1157   0.840   4.368  14.064  0.1849 -0.1745 -0.1874
   74MPD2    H5 1158   0.773   4.436  14.098 -0.3545 -1.2001  0.8234
   74MPD2    N1 1159   1.244   4.303  13.783  0.0049 -0.0845 -0.0904
   74MPD2    H7 1160   1.310   4.342  13.717  0.2831  0.6876  0.6357
   75TMC2    C1 1161   1.645   1.084  13.465 -0.2081 -0.2019  0.2639
   75TMC2    C2 1162   1.698   1.212  13.464 -0.5810  0.0580 -0.8766
   75TMC2    C3 1163   1.654   1.297  13.364  0.3705 -0.2988 -0.5418
   75TMC2    C4 1164   1.530   1.055  13.394 -0.3065  0.1504  0.2832
   75TMC2    C5 1165   1.477   1.153  13.313  0.4564 -0.1871 -0.0615
   75TMC2    C6 1166   1.540   1.274  13.291 -0.1473  0.4552 -0.0567
   75TMC2     C 1167   1.704   0.989  13.557  1.0248 -0.1020  0.8206
   75TMC2     O 1168   1.818   0.996  13.604  0.0138 -0.4744 -0.4126
   75TMC2     H 1169   1.788   1.235  13.519 -0.5312 -1.0776 -0.4802
   75TMC2    H1 1170   1.506   0.952  13.371  1.1054 -0.1505  0.1925
   75TMC2    H2 1171   1.516   1.332  13.203 -0.8649 -1.2115 -0.9582
   75TMC2    C7 1172   1.362   1.105  13.244 -0.3051 -0.4281  0.1218
   75TMC2    C8 1173   1.696   1.431  13.374 -0.3014  0.8099 -0.2996
   75TMC2    O1 1174   1.325   0.991  13.256  0.4788  0.3069 -0.6833
   75TMC2    O2 1175   1.810   1.460  13.409 -0.1616  0.0577 -0.0379
   75TMC2    O5 1176   1.605   1.524  13.329 -0.4475 -0.0559 -0.4038
   75TMC2    H5 1177   1.512   1.495  13.336  0.4648 -2.4945  1.7007
   76TMC2    C1 1178   4.546   0.866  11.966  0.2217 -0.3663  0.8080
   76TMC2    C2 1179   4.426   0.817  11.924 -0.1348 -0.1649  0.1463
   76TMC2    C3 1180   4.362   0.734  12.011  0.0905  0.2591  0.2578
   76TMC2    C4 1181   4.578   0.875  12.095 -0.8780 -0.4822  0.0774
   76TMC2    C5 1182   4.488   0.814  12.182 -0.6191  0.0415 -0.3506
   76TMC2    C6 1183   4.387   0.732  12.142  0.1746 -0.1668 -0.6033
   76TMC2     C 1184   4.583   0.975  11.880  0.8146 -0.9626 -0.0769
   76TMC2     O 1185   4.496   1.043  11.825  0.1947  0.1754  0.2772
   76TMC2     H 1186   4.383   0.841  11.827 -0.2855 -0.2220  0.1999
   76TMC2    H1 1187   4.653   0.941  12.137 -1.3097  0.5278 -0.7693
   76TMC2    H2 1188   4.327   0.672  12.209  1.7146 -2.9952 -1.7467
   76TMC2    C7 1189   4.527   0.805  12.325 -0.1634 -0.8264 -0.1893
   76TMC2    C8 1190   4.256   0.655  11.956  0.0768  0.0174  0.1949
   76TMC2    O1 1191   4.469   0.714  12.384 -0.2889  0.4830  0.6296
   76TMC2    O2 1192   4.149   0.623  12.009 -0.3014 -0.3001  0.2918
   76TMC2    O5 1193   4.307   0.591  11.848  0.8687 -0.5826 -0.3223
   76TMC2    H5 1194   4.405   0.593  11.858  0.6707  0.8398  1.3642
   77MPD2     C 1195   0.200   1.266  11.644 -0.3574  0.3237 -0.7745
   77MPD2    C1 1196   0.061   1.278  11.652  0.0586 -0.2959  0.4365
   77MPD2    C2 1197   4.724   1.182  11.723 -0.5036  0.2230 -0.0065
   77MPD2    C3 1198   0.051   1.079  11.787  0.0067  0.0592 -0.3125
   77MPD2    C4 1199   0.187   1.072  11.776  0.4089  0.4151  0.1497
   77MPD2    C5 1200   0.258   1.160  11.708  0.4819  0.9889  0.3745
   77MPD2     H 1201   4.616   1.185  11.713 -0.5330  0.1891  0.3190
   77MPD2    H1 1202   0.242   0.985  11.811  1.1045  0.7739 -0.0333
   77MPD2    H2 1203   0.261   1.336  11.589 -0.0598 -1.1139 -2.2684
   77MPD2    H3 1204   0.365   1.146  11.717  0.5160 -0.7463 -2.5548
   77MPD2     N 1205   4.723   0.981  11.865  0.6065 -0.2004 -0.3802
   77MPD2    H5 1206   0.048   0.914  11.907  0.2978 -1.4661 -1.9257
   77MPD2    N1 1207   4.734   1.395  11.612  0.1677  0.1820 -0.4923
   77MPD2    H7 1208   4.633   1.398  11.627  0.0200  0.0383 -1.4571
   78TMC2    C1 1209   0.842   2.763   1.788  0.6795 -0.8212 -0.4070
   78TMC2    C2 1210   0.797   2.640   1.755 -0.4587  0.5720 -0.4585
   78TMC2    C3 1211   0.864   2.566   1.671 -0.1788 -0.0865 -0.3962
   78TMC2    C4 1212   0.954   2.812   1.735 -0.5859 -0.0062  0.3386
   78TMC2    C5 1213   1.028   2.729   1.663 -0.0213  0.1492 -0.0615
   78TMC2    C6 1214   0.982   2.607   1.624  0.3895 -0.0532 -0.4929
   78TMC2     C 1215   0.762   2.837   1.894  0.2629 -0.1973  0.4301
   78TMC2     O 1216   0.650   2.797   1.914 -0.0187  0.1592 -0.1336
   78TMC2     H 1217   0.715   2.590   1.805  0.4659  0.1033  0.6098
   78TMC2    H1 1218   0.976   2.918   1.735  1.2181 -0.3760  0.9912
   78TMC2    H2 1219   1.038   2.538   1.562  2.9695  1.0929  0.5571
   78TMC2    C7 1220   1.169   2.749   1.641 -0.3346  0.6610 -0.4136
   78TMC2    C8 1221   0.832   2.426   1.677 -0.5879 -1.2525 -0.1559
   78TMC2    O1 1222   1.227   2.662   1.573 -0.1453 -0.6314  0.1722
   78TMC2    O2 1223   0.924   2.350   1.641 -0.0696 -0.3270  0.3933
   78TMC2    O5 1224   0.703   2.408   1.657  0.1117  0.0512 -0.3437
   78TMC2    H5 1225   0.644   2.487   1.655  1.1454  0.8068 -0.6608
   79MPD1     C 1226   0.707   3.256   2.191 -0.3801  0.5281 -0.0732
   79MPD1    C1 1227   0.607   3.172   2.143  0.8747  0.3457  0.4132
   79MPD1    C2 1228   0.653   3.061   2.075  0.5334  0.0339  0.2923
   79MPD1    C3 1229   0.785   3.045   2.039  0.2348 -0.2077  0.2650
   79MPD1    C4 1230   0.878   3.127   2.090 -0.0420 -0.3461  0.2028
   79MPD1    C5 1231   0.838   3.233   2.169  0.4593  0.1013 -0.3546
   79MPD1     H 1232   0.582   3.001   2.019 -0.7795  0.6130  1.3153
   79MPD1    H1 1233   0.981   3.129   2.058 -0.8529 -0.7911 -2.4306
   79MPD1    H2 1234   0.685   3.339   2.258  0.4358 -0.3692  1.3159
   79MPD1    H3 1235   0.909   3.303   2.213  0.7630 -0.6065  0.2762
   79MPD1     N 1236   0.829   2.946   1.942  0.2508  0.2897 -0.7058
   79MPD1    H5 1237   0.919   2.955   1.897 -0.3352  2.7475 -1.3925
   79MPD1    N1 1238   0.473   3.175   2.176  0.1762  0.4699  0.0156
   79MPD1    H6 1239   0.416   3.127   2.106  2.0958 -1.6851 -0.0648
   79MPD1    H7 1240   0.448   3.273   2.181 -0.4759  0.2518  1.2413
   80TMC2    C1 1241   3.899   0.591  11.662  0.0338 -0.3595  0.6492
   80TMC2    C2 1242   3.869   0.578  11.526  0.1126 -0.8356 -0.0265
   80TMC2    C3 1243   3.786   0.473  11.505  0.4097  0.1755  0.4646
   80TMC2    C4 1244   3.850   0.515  11.763 -0.6188 -0.4682  0.3466
   80TMC2    C5 1245   3.777   0.409  11.724 -0.2772  0.2544 -0.5088
   80TMC2    C6 1246   3.747   0.382  11.597 -0.1082 -0.0161 -0.0276
   80TMC2     C 1247   3.978   0.705  11.707 -0.1855 -0.9663  0.5785
   80TMC2     O 1248   4.053   0.762  11.635 -0.2005 -0.8492  0.4439
   80TMC2     H 1249   3.915   0.640  11.450  1.3805  0.8078  2.0838
   80TMC2    H1 1250   3.907   0.516  11.855  1.2361 -0.1334 -0.8127
   80TMC2    H2 1251   3.689   0.295  11.569  0.0100 -0.6372  1.6313
   80TMC2    C7 1252   3.761   0.306  11.819  0.2204 -0.4479  0.5602
   80TMC2    C8 1253   3.748   0.445  11.369 -0.3617  0.3031  0.4682
   80TMC2    O1 1254   3.764   0.195  11.770 -0.0301  0.1516 -0.1245
   80TMC2    O2 1255   3.694   0.344  11.334  0.4817  0.6946  0.4853
   80TMC2    O5 1256   3.730   0.556  11.302  0.2493  0.3224 -0.4202
   80TMC2    H5 1257   3.769   0.635  11.344  0.3617  0.8984 -1.6264
   81MPD2     C 1258   4.073   0.928  11.882  0.2634 -0.1025  0.3334
   81MPD2    C1 1259   3.943   0.881  11.880 -1.0650  0.2479 -1.0571
   81MPD2    C2 1260   3.856   0.959  11.952  0.0400  0.1962  0.6856
   81MPD2    C3 1261   3.889   1.079  12.016  0.4533  0.5463  0.4150
   81MPD2    C4 1262   4.017   1.113  12.017  0.5633 -0.5529  0.7341
   81MPD2    C5 1263   4.112   1.044  11.943  0.3028  0.5615  0.1265
   81MPD2     H 1264   3.750   0.937  11.962  0.2385 -1.5078 -0.8571
   81MPD2    H1 1265   4.055   1.205  12.061 -0.9091 -0.2757  1.4370
   81MPD2    H2 1266   4.142   0.869  11.824 -0.8314 -1.0921  0.0224
   81MPD2    H3 1267   4.215   1.080  11.941  0.8520 -0.9988  0.1110
   81MPD2     N 1268   3.794   1.167  12.081 -0.3109  0.1646 -0.5827
   81MPD2    H5 1269   3.837   1.242  12.135  4.3510 -0.5939 -3.1639
   81MPD2    N1 1270   3.913   0.757  11.816 -0.0265  1.1232  0.8745
   81MPD2    H7 1271   3.835   0.705  11.855 -0.7093  1.6454  0.2059
   82TMC2    C1 1272   2.564   4.103  11.113  0.0647  0.4377 -0.0732
   82TMC2    C2 1273   2.688   4.102  11.177  0.4035  0.1574 -0.5714
   82TMC2    C3 1274   2.709   4.024  11.285 -1.1937 -0.1940  0.0097
   82TMC2    C4 1275   2.467   4.017  11.150 -0.7787 -0.1364  0.3508
   82TMC2    C5 1276   2.489   3.936  11.262  0.2766 -0.2705  0.3736
   82TMC2    C6 1277   2.607   3.939  11.329 -0.1768  0.4428  0.6553
   82TMC2     C 1278   2.509   4.227  11.051  0.5350 -0.8849 -0.4141
   82TMC2     O 1279   2.388   4.233  11.038 -0.5549 -0.5769 -0.1729
   82TMC2     H 1280   2.771   4.156  11.132 -0.1620  2.2908  0.9834
   82TMC2    H1 1281   2.372   4.027  11.100 -0.1761  1.2179 -0.5309
   82TMC2    H2 1282   2.625   3.871  11.412  0.3611  0.4199  0.5233
   82TMC2    C7 1283   2.382   3.887  11.334 -0.7868  0.0226 -0.1136
   82TMC2    C8 1284   2.840   4.021  11.352 -0.4992 -1.0244  0.7462
   82TMC2    O1 1285   2.405   3.868  11.453  0.3779 -0.0325  0.3061
   82TMC2    O2 1286   2.883   3.937  11.428 -0.9860 -0.6330  0.2697
   82TMC2    O5 1287   2.895   4.139  11.333  0.1713  0.0435 -0.1178
   82TMC2    H5 1288   2.837   4.210  11.300 -3.5123 -1.5800  2.9180
   83MPD2     C 1289   2.551   4.725  10.928  0.6979  0.6142 -0.9707
   83MPD2    C1 1290   2.439   4.651  10.952 -0.4035 -0.0877  0.0926
   83MPD2    C2 1291   2.456   4.512  10.974 -0.3147 -0.2257  0.1841
   83MPD2    C3 1292   2.577   4.459  10.992  0.5918 -0.1833 -0.0979
   83MPD2    C4 1293   2.688   4.537  10.981  0.7262 -0.6977 -0.2332
   83MPD2    C5 1294   2.671   4.670  10.953 -0.5974  0.1220  0.6001
   83MPD2     H 1295   2.365   4.452  10.981 -2.2060  2.4501 -1.2587
   83MPD2    H1 1296   2.788   4.494  10.993  1.4516  0.9188 -0.5181
   83MPD2    H2 1297   2.543   0.092  10.908  0.6310  0.8823  0.4879
   83MPD2    H3 1298   2.755   4.737  10.958  0.3233 -0.9771 -0.2078
   83MPD2     N 1299   2.604   4.326  11.025  0.2024 -0.3084 -0.0640
   83MPD2    H5 1300   2.703   4.301  11.020  0.3267  0.0562  0.6117
   83MPD2    N1 1301   2.313   4.720  10.942  0.1552 -0.1228 -0.1698
   83MPD2    H7 1302   2.317   0.081  10.925  1.3164 -0.3437 -1.2087
   84TMC2    C1 1303   3.240   4.046  11.222 -0.0995  0.4360 -0.7504
   84TMC2    C2 1304   3.213   3.951  11.315  0.0291  0.2177  0.1981
   84TMC2    C3 1305   3.253   3.825  11.285  0.1120  0.3042  0.0925
   84TMC2    C4 1306   3.325   4.024  11.112  0.0728 -0.2254  0.1275
   84TMC2    C5 1307   3.359   3.888  11.094 -0.0390 -0.2284  0.8010
   84TMC2    C6 1308   3.328   3.793  11.181 -0.8384  0.2100 -0.3505
   84TMC2     C 1309   3.198   4.189  11.251 -0.1102 -0.3589 -0.1825
   84TMC2     O 1310   3.179   4.219  11.366  0.3578  0.2462  0.4920
   84TMC2     H 1311   3.157   3.976  11.405  0.0292 -1.1312  0.5757
   84TMC2    H1 1312   3.344   4.100  11.037  0.5208 -0.8192 -0.3572
   84TMC2    H2 1313   3.342   3.689  11.154 -0.0408  0.2084  0.0763
   84TMC2    C7 1314   3.421   3.853  10.970 -0.6063 -0.0416  0.3744
   84TMC2    C8 1315   3.206   3.729  11.378 -0.4201 -0.1920 -0.0728
   84TMC2    O1 1316   3.400   3.736  10.936 -0.1254  0.0145  0.0821
   84TMC2    O2 1317   3.097   3.728  11.432 -0.2689  0.1507 -0.2759
   84TMC2    O5 1318   3.303   3.634  11.409  0.3140  0.5464  0.0654
   84TMC2    H5 1319   3.397   3.660  11.399  0.4274  0.4113  0.7849
   85TMC2    C1 1320   4.171   2.695  16.487  0.0121  0.5575 -0.2170
   85TMC2    C2 1321   4.253   2.770  16.568 -0.1575 -0.6783  0.2789
   85TMC2    C3 1322   4.340   2.854  16.506  0.2599 -0.2080 -0.1736
   85TMC2    C4 1323   4.170   2.711  16.355  0.5970  0.5661 -0.0317
   85TMC2    C5 1324   4.252   2.798  16.295 -0.3026 -0.2889 -0.2814
   85TMC2    C6 1325   4.330   2.876  16.372  0.4969  0.1943  0.1309
   85TMC2     C 1326   4.087   2.602  16.558 -0.0218  0.3669  0.8856
   85TMC2     O 1327   4.121   2.582  16.668 -0.4952 -0.0211 -0.6781
   85TMC2     H 1328   4.257   2.763  16.676 -0.6052  2.0980  0.4736
   85TMC2    H1 1329   4.112   2.648  16.289 -0.8437  1.4066  0.4170
   85TMC2    H2 1330   4.392   2.953  16.327 -0.6459  0.6440 -0.6807
   85TMC2    C7 1331   4.306   2.762  16.169 -0.5532  0.2192  0.6029
   85TMC2    C8 1332   4.415   2.946  16.595 -0.9653 -0.1613  0.4322
   85TMC2    O1 1333   4.280   2.646  16.133  0.1587  0.2030  0.4731
   85TMC2    O2 1334   4.386   2.965  16.713  0.0803 -0.4719  0.0142
   85TMC2    O5 1335   4.529   2.986  16.540 -0.2715 -0.0031  0.7352
   85TMC2    H5 1336   4.544   2.950  16.450  1.7852  0.5180  0.8739
   86MPD2     C 1337   3.680   2.312  16.622  0.3707 -0.0179  0.1600
   86MPD2    C1 1338   3.703   2.326  16.490 -0.5943 -0.0484 -0.1458
   86MPD2    C2 1339   3.801   2.407  16.443  0.5471 -0.4236 -0.3830
   86MPD2    C3 1340   3.882   2.471  16.540 -0.3007  0.1720  0.2242
   86MPD2    C4 1341   3.856   2.452  16.678 -1.0653 -0.9609 -0.3282
   86MPD2    C5 1342   3.755   2.375  16.727  0.1927 -0.7531  0.3072
   86MPD2     H 1343   3.816   2.428  16.338 -0.0897 -0.2851 -0.4471
   86MPD2    H1 1344   3.926   2.488  16.753 -1.3784  3.4401 -2.1753
   86MPD2    H2 1345   3.604   2.244  16.659  1.1065 -0.9943 -0.0986
   86MPD2    H3 1346   3.728   2.355  16.830 -1.0127 -2.8955 -0.4215
   86MPD2     N 1347   3.980   2.555  16.485  0.1265 -0.1041 -0.3227
   86MPD2    H5 1348   3.978   2.584  16.388  1.6525  3.4188  0.7078
   86MPD2    N1 1349   3.625   2.268  16.388  0.1445  0.2261 -0.1800
   86MPD2    H7 1350   3.658   2.285  16.294  0.7928 -0.9042 -0.1584
   87TMC2    C1 1351   1.970   0.268   1.106 -0.1010  0.0861 -0.9214
   87TMC2    C2 1352   1.915   0.181   1.195  1.1584 -0.1303  0.6424
   87TMC2    C3 1353   1.850   0.232   1.298  0.0222  0.9066 -0.0161
   87TMC2    C4 1354   1.972   0.402   1.128  0.5195 -0.6411 -0.3995
   87TMC2    C5 1355   1.925   0.451   1.245  0.0421  0.3750  0.1050
   87TMC2    C6 1356   1.864   0.367   1.330 -0.5040 -0.4250 -0.4336
   87TMC2     C 1357   2.013   0.235   0.970  0.1807  0.3924 -0.8737
   87TMC2     O 1358   2.040   0.329   0.896 -0.1412 -0.2484  0.2676
   87TMC2     H 1359   1.919   0.078   1.160  2.5898  0.4393 -0.8996
   87TMC2    H1 1360   2.025   0.468   1.061  0.6857 -2.5375 -2.1176
   87TMC2    H2 1361   1.827   0.401   1.426 -0.3523 -1.0833 -0.1378
   87TMC2    C7 1362   1.990   0.574   1.277  0.0273  0.1767 -0.2382
   87TMC2    C8 1363   1.785   0.148   1.401  0.1419 -0.0060 -0.6114
   87TMC2    O1 1364   2.088   0.605   1.205 -0.1960 -0.9431 -0.0227
   87TMC2    O2 1365   1.771   0.182   1.518  0.3020 -0.1677 -0.0055
   87TMC2    O5 1366   1.801   0.022   1.358  0.0845 -0.1978 -0.2377
   87TMC2    H5 1367   1.796   0.014   1.261  0.2830  1.6889 -0.3872
   88MPD2     C 1368   1.883   0.845   1.493 -0.3036 -0.8434  0.4561
   88MPD2    C1 1369   1.934   0.791   1.384 -0.5417  0.3203 -0.3938
   88MPD2    C2 1370   1.980   0.868   1.288  0.1009  0.3380 -0.1155
   88MPD2    C3 1371   1.981   1.008   1.300  1.1824  0.0246 -0.9247
   88MPD2    C4 1372   1.914   1.064   1.409  0.1469  0.3510  0.0019
   88MPD2    C5 1373   1.874   0.985   1.505 -0.1246  0.6831 -0.3649
   88MPD2     H 1374   2.027   0.826   1.200 -0.8947  0.3869 -0.6616
   88MPD2    H1 1375   1.896   1.171   1.415  1.2479  0.5342  0.1206
   88MPD2    H2 1376   1.853   0.786   1.579 -0.7400  0.6821  1.3514
   88MPD2    H3 1377   1.828   1.026   1.594 -1.1094  3.3504 -2.1054
   88MPD2     N 1378   2.014   1.099   1.196  0.1924 -0.3272 -0.0200
   88MPD2    H5 1379   1.992   1.195   1.220 -0.8198  0.0374 -2.3429
   88MPD2    N1 1380   1.932   0.648   1.375  0.9570  0.0722  0.1265
   88MPD2    H7 1381   1.864   0.604   1.436  0.2266 -0.9245 -1.3790
   89TMC2    C1 1382   3.117   3.695   2.043 -0.0950  0.4493 -0.0662
   89TMC2    C2 1383   3.090   3.817   2.083 -0.3594 -0.1691 -0.5107
   89TMC2    C3 1384   3.170   3.926   2.064  0.9116 -0.5723 -0.3820
   89TMC2    C4 1385   3.227   3.673   1.958 -0.8094 -0.0565 -0.0810
   89TMC2    C5 1386   3.296   3.786   1.925 -0.0464  0.6929 -0.3822
   89TMC2    C6 1387   3.277   3.910   1.977  0.9065  0.6423 -0.4410
   89TMC2     C 1388   3.037   3.583   2.083 -0.1093  0.4589 -0.6010
   89TMC2     O 1389   3.094   3.472   2.071 -0.0979  0.3390  0.2762
   89TMC2     H 1390   3.013   3.847   2.153  1.4342  0.4172  1.1820
   89TMC2    H1 1391   3.243   3.575   1.915 -0.5857  0.0048 -0.1355
   89TMC2    H2 1392   3.329   4.001   1.950  0.3684  0.3999 -2.3182
   89TMC2    C7 1393   3.411   3.764   1.829  0.0231  0.6480 -1.0533
   89TMC2    C8 1394   3.114   4.056   2.075  0.6165 -1.2499 -0.8627
   89TMC2    O1 1395   3.415   3.657   1.773 -0.2312 -0.4510 -0.2121
   89TMC2    O2 1396   3.177   4.162   2.080  0.1654  0.2894 -0.2720
   89TMC2    O5 1397   2.990   4.046   2.018  0.5235  0.1137  0.0356
   89TMC2    H5 1398   2.957   3.953   2.012 -0.9892  0.4992  2.1489
   90MPD2     C 1399   2.568   3.366   2.140  0.0691 -0.1768 -0.1394
   90MPD2    C1 1400   2.553   3.500   2.110 -0.1747  0.0332  0.9799
   90MPD2    C2 1401   2.663   3.581   2.090 -0.2879  0.8877 -0.1184
   90MPD2    C3 1402   2.793   3.531   2.103  0.2059  0.2392 -0.1736
   90MPD2    C4 1403   2.809   3.399   2.132 -1.0461  0.3579  0.4358
   90MPD2    C5 1404   2.696   3.317   2.146  0.4209 -0.0443 -0.4465
   90MPD2     H 1405   2.642   3.680   2.051 -0.9434  1.0956  0.7695
   90MPD2    H1 1406   2.904   3.346   2.131 -1.1484  0.0924  3.9086
   90MPD2    H2 1407   2.487   3.297   2.157 -2.1963  2.6749  0.6305
   90MPD2    H3 1408   2.711   3.211   2.164  3.4767  0.8049  2.1793
   90MPD2     N 1409   2.905   3.620   2.093 -0.5809 -0.2715 -1.2096
   90MPD2    H5 1410   2.889   3.719   2.077  0.2911  0.0025 -0.3870
   90MPD2    N1 1411   2.425   3.565   2.086 -0.0379  0.2050 -0.0909
   90MPD2    H7 1412   2.424   3.662   2.057  0.8079 -1.4052 -5.5088
   91TMC2    C1 1413   3.929   3.179  16.553 -0.4254  0.3499 -0.8368
   91TMC2    C2 1414   3.966   3.189  16.683 -0.7212  0.1393 -0.8132
   91TMC2    C3 1415   3.861   3.202  16.769  0.2359  0.0888 -0.9989
   91TMC2    C4 1416   3.796   3.173  16.507  0.0128  0.2346  0.0256
   91TMC2    C5 1417   3.701   3.181  16.604 -0.4766 -0.2984  0.3823
   91TMC2    C6 1418   3.735   3.212  16.729  0.3903 -0.6173 -0.7787
   91TMC2     C 1419   4.027   3.182  16.451  0.0728 -0.3015  0.2914
   91TMC2     O 1420   4.003   3.109  16.353 -0.4173 -0.2041 -0.5332
   91TMC2     H 1421   4.068   3.194  16.721 -0.3075 -1.1652 -1.7535
   91TMC2    H1 1422   3.783   3.171  16.400 -0.2728 -0.4773  0.0732
   91TMC2    H2 1423   3.657   3.234  16.801  0.1214 -0.7667 -1.0256
   91TMC2    C7 1424   3.562   3.160  16.575 -0.4585  0.5730 -0.2344
   91TMC2    C8 1425   3.887   3.231  16.904 -0.1194  0.2875 -0.4512
   91TMC2    O1 1426   3.489   3.144  16.674  0.0269  0.2878 -0.4134
   91TMC2    O2 1427   3.995   3.277  16.940 -0.6074  0.1307  0.0519
   91TMC2    O5 1428   3.837   3.118  16.961 -0.1041  0.5779 -0.2019
   91TMC2    H5 1429   3.748   3.098  16.923 -0.0215  1.1212 -0.6804
   92MPD2     C 1430   4.250   3.226  16.279  1.0084  0.0773 -0.5566
   92MPD2    C1 1431   4.248   3.277  16.406  0.0990  0.0528 -0.3289
   92MPD2    C2 1432   4.360   3.331  16.462 -0.5708 -0.6264 -0.1206
   92MPD2    C3 1433   4.478   3.336  16.391 -0.5723  0.3754 -0.5836
   92MPD2    C4 1434   4.485   3.287  16.262  0.2158  0.4824 -0.5190
   92MPD2    C5 1435   4.364   3.239  16.206  0.0172 -0.1083  0.0573
   92MPD2     H 1436   4.350   3.366  16.564  1.5447  0.7012 -0.3750
   92MPD2    H1 1437   4.576   3.289  16.203  1.2433  1.0301  1.0823
   92MPD2    H2 1438   4.162   3.197  16.222  0.6929  1.4484 -0.7685
   92MPD2    H3 1439   4.362   3.213  16.101 -1.6976 -0.8035  0.2648
   92MPD2     N 1440   4.580   3.396  16.464  0.1863 -0.0473 -0.1460
   92MPD2    H5 1441   4.549   3.453  16.542  1.0649 -2.4264  1.9251
   92MPD2    N1 1442   4.137   3.254  16.486  0.7879 -0.0387 -0.5719
   92MPD2    H7 1443   4.137   3.301  16.576 -1.8557  0.3752 -0.7942
   93TMC2    C1 1444   1.300   3.006  14.016  0.4266  0.1070 -0.2239
   93TMC2    C2 1445   1.231   3.077  14.110 -0.1915 -0.1028  0.3497
   93TMC2    C3 1446   1.282   3.199  14.146  0.2482  0.5257  0.6700
   93TMC2    C4 1447   1.411   3.052  13.947 -0.0415  0.0327  0.6697
   93TMC2    C5 1448   1.457   3.181  13.984 -0.3368  1.0631  0.3763
   93TMC2    C6 1449   1.393   3.248  14.087 -0.8010 -0.0662  0.0248
   93TMC2     C 1450   1.262   2.872  13.968 -0.3807 -0.2802 -0.1534
   93TMC2     O 1451   1.347   2.792  13.934  0.3144  0.1386 -0.0937
   93TMC2     H 1452   1.142   3.038  14.160 -0.3704 -0.4857 -0.2755
   93TMC2    H1 1453   1.457   2.983  13.877 -0.0993  0.8970 -0.2009
   93TMC2    H2 1454   1.442   3.339  14.120 -1.1963 -0.1122  0.7519
   93TMC2    C7 1455   1.580   3.228  13.932  0.2444 -0.0370  0.5005
   93TMC2    C8 1456   1.193   3.295  14.212  0.2476 -0.9849 -0.5141
   93TMC2    O1 1457   1.661   3.150  13.889  0.3442  0.6716  0.2320
   93TMC2    O2 1458   1.232   3.411  14.216  0.3004  0.2301  0.0871
   93TMC2    O5 1459   1.070   3.260  14.199  0.0841 -0.0162 -0.0417
   93TMC2    H5 1460   1.057   3.171  14.159  1.7435 -0.4763  0.4303
   94MPD2     C 1461   1.078   2.653  13.881  0.0896 -0.5228  0.7607
   94MPD2    C1 1462   1.057   2.788  13.855 -0.2628  0.2166  0.2730
   94MPD2    C2 1463   0.953   2.831  13.781  0.6480 -0.3604 -0.6215
   94MPD2    C3 1464   0.856   2.746  13.742 -0.0495 -0.2183  0.6012
   94MPD2    C4 1465   0.875   2.609  13.764  0.9334 -0.1205 -0.2105
   94MPD2    C5 1466   0.983   2.565  13.828  0.0222 -0.0719 -0.4923
   94MPD2     H 1467   0.959   2.936  13.755  0.2003 -0.0486  0.5501
   94MPD2    H1 1468   0.805   2.538  13.722 -0.7169  0.5846  1.3532
   94MPD2    H2 1469   1.164   2.611  13.933  0.0996  0.7632  1.7992
   94MPD2    H3 1470   0.998   2.459  13.843  0.3384  0.0894  0.3148
   94MPD2     N 1471   0.752   2.786  13.654 -0.1194 -0.2598 -0.0248
   94MPD2    H5 1472   0.688   2.710  13.633  0.5793 -0.7685 -0.2821
   94MPD2    N1 1473   1.130   2.884  13.923 -0.5890  0.0187  0.4327
   94MPD2    H7 1474   1.091   2.978  13.928 -0.7466 -0.1660  2.5828
   95TMC2    C1 1475   1.126   0.512  15.955  0.6808 -0.1914 -0.2861
   95TMC2    C2 1476   1.087   0.382  15.973 -0.1271 -0.6430  0.2033
   95TMC2    C3 1477   1.091   0.335  16.101  0.7969  0.2865 -0.7803
   95TMC2    C4 1478   1.172   0.590  16.060  0.2576  0.1883  0.7480
   95TMC2    C5 1479   1.163   0.543  16.187 -0.3093 -0.1065 -0.0198
   95TMC2    C6 1480   1.126   0.414  16.215  0.4287 -0.1934  0.4010
   95TMC2     C 1481   1.202   0.537  15.836 -0.6928 -0.2690  0.1550
   95TMC2     O 1482   1.297   0.616  15.853 -0.4164 -0.2358 -0.4123
   95TMC2     H 1483   1.066   0.316  15.890 -0.6448  2.7419 -2.3435
   95TMC2    H1 1484   1.204   0.693  16.044  0.3965  0.1464  0.7613
   95TMC2    H2 1485   1.157   0.360  16.303  0.0352  1.2453  1.4329
   95TMC2    C7 1486   1.198   0.626  16.297 -0.3941  0.3534 -0.5460
   95TMC2    C8 1487   1.085   0.192  16.111 -0.3930  0.4929 -0.1670
   95TMC2    O1 1488   1.264   0.724  16.270  0.6820 -0.1290 -0.5227
   95TMC2    O2 1489   1.084   0.121  16.013 -0.0616  0.6998  0.5754
   95TMC2    O5 1490   1.031   0.159  16.232 -0.1314 -0.3990 -0.2701
   95TMC2    H5 1491   1.026   0.230  16.299 -0.4894 -0.8285  0.1550
   96MPD2     C 1492   1.220   0.596  15.335  0.2004  0.6439  0.2657
   96MPD2    C1 1493   1.310   0.631  15.429 -0.0090 -0.4450  0.3760
   96MPD2    C2 1494   1.290   0.595  15.562  0.4820 -0.1230  0.0105
   96MPD2    C3 1495   1.176   0.534  15.600  0.6394  0.4169  0.1549
   96MPD2    C4 1496   1.080   0.514  15.504 -0.6009 -0.4240 -0.1184
   96MPD2    C5 1497   1.104   0.542  15.375  1.3888 -0.5145  0.5021
   96MPD2     H 1498   1.372   0.611  15.630 -0.7300 -0.0490  1.4610
   96MPD2    H1 1499   0.982   0.470  15.516 -0.3049 -1.2623 -0.7885
   96MPD2    H2 1500   1.240   0.620  15.231 -0.5075 -3.3726 -0.7967
   96MPD2    H3 1501   1.027   0.515  15.304  1.0148  1.6803  0.0701
   96MPD2     N 1502   1.137   0.498  15.726  0.1602 -0.0862  0.4439
   96MPD2    H5 1503   1.051   0.446  15.737  0.8525 -1.4802 -0.6878
   96MPD2    N1 1504   1.432   0.676  15.378  0.5240  0.0067 -0.0398
   96MPD2    H7 1505   1.443   0.663  15.278 -1.1459  0.3015 -0.2632
   97TMC2    C1 1506   3.415   3.167   0.091  0.3108 -0.0941  0.4112
   97TMC2    C2 1507   3.484   3.063   0.028 -0.5221  0.5864  0.5589
   97TMC2    C3 1508   3.568   3.106  17.690  0.2193 -0.0785  0.1464
   97TMC2    C4 1509   3.442   3.302   0.058 -0.0614 -0.1653  0.6092
   97TMC2    C5 1510   3.522   3.333  17.708  0.1330  0.1434 -0.2895
   97TMC2    C6 1511   3.587   3.232  17.644 -0.3082 -0.5464  0.4006
   97TMC2     C 1512   3.376   3.135   0.226  0.3092 -0.4511 -0.0496
   97TMC2     O 1513   3.319   3.027   0.242 -0.3512  0.2770  0.6885
   97TMC2     H 1514   3.463   2.960   0.055 -0.3625  1.1183  2.6979
   97TMC2    H1 1515   3.393   3.372   0.124  0.7434  0.2128  0.8024
   97TMC2    H2 1516   3.672   3.250  17.580 -0.0459  0.2100  0.9630
   97TMC2    C7 1517   3.564   3.469  17.706 -0.0106 -1.2861 -0.2577
   97TMC2    C8 1518   3.690   3.024  17.677  0.3178 -0.0018 -0.1728
   97TMC2    O1 1519   3.534   3.540   0.050 -0.2012  0.3109 -0.6277
   97TMC2    O2 1520   3.803   3.063  17.694  0.3066 -0.4650 -0.2055
   97TMC2    O5 1521   3.649   2.892  17.687  0.0935 -0.2532 -0.5135
   97TMC2    H5 1522   3.557   2.892  17.654 -0.6448  0.7400  1.5613
   98MPD2     C 1523   3.399   3.221   0.728 -0.4531 -0.3368  0.1793
   98MPD2    C1 1524   3.337   3.119   0.651 -0.1799 -0.5405  0.2956
   98MPD2    C2 1525   3.346   3.122   0.518  0.5657 -0.5159  0.1808
   98MPD2    C3 1526   3.416   3.221   0.451 -0.4560  0.7355  0.1524
   98MPD2    C4 1527   3.481   3.320   0.524 -0.3764 -0.2406  0.4079
   98MPD2    C5 1528   3.476   3.317   0.668  1.0477 -0.7143 -0.6594
   98MPD2     H 1529   3.305   3.037   0.465  0.6964  0.3225 -1.2824
   98MPD2    H1 1530   3.543   3.388   0.467 -0.9847  1.1854  1.4517
   98MPD2    H2 1531   3.398   3.208   0.836 -2.3321  0.4347  0.2438
   98MPD2    H3 1532   3.544   3.380   0.724  2.0638 -0.8753 -1.7096
   98MPD2     N 1533   3.434   3.226   0.314 -0.0712 -0.3049 -0.6236
   98MPD2    H5 1534   3.492   3.295   0.267  1.4777 -1.1329  0.0710
   98MPD2    N1 1535   3.274   3.016   0.728  0.4254  0.0554 -0.6313
   98MPD2    H7 1536   3.280   3.015   0.829 -3.8938 -0.7588 -0.3809
   99TMC2    C1 1537   2.422   4.548   1.910 -0.6809 -0.2511  0.1758
   99TMC2    C2 1538   2.514   4.539   2.007 -0.2886 -0.1066  0.7269
   99TMC2    C3 1539   2.487   4.555   2.137 -0.6265  0.4657 -0.2855
   99TMC2    C4 1540   2.289   4.575   1.946 -0.2292 -0.4958 -0.2136
   99TMC2    C5 1541   2.259   4.574   2.080  0.4203 -0.5062  0.1703
   99TMC2    C6 1542   2.358   4.569   2.177  0.3739  0.7748 -0.5048
   99TMC2     C 1543   2.470   4.554   1.772 -0.0273  0.6181  0.2620
   99TMC2     O 1544   2.586   4.583   1.755 -0.2616  0.0567  0.0408
   99TMC2     H 1545   2.614   4.505   1.981 -0.3689  1.2447 -1.2949
   99TMC2    H1 1546   2.210   4.596   1.873  0.7649 -1.2737 -1.5102
   99TMC2    H2 1547   2.329   4.555   2.280 -1.1461 -1.6299 -1.2503
   99TMC2    C7 1548   2.124   4.603   2.130  0.2710  0.7241 -0.0118
   99TMC2    C8 1549   2.595   4.544   2.225  0.7385  0.4494  0.8204
   99TMC2    O1 1550   2.115   4.623   2.247  0.6013  0.0307  0.1214
   99TMC2    O2 1551   2.692   4.473   2.210 -0.2412  0.1392 -0.5703
   99TMC2    O5 1552   2.550   4.602   2.339 -0.1229  0.3964 -0.1643
   99TMC2    H5 1553   2.486   4.673   2.313 -2.5549 -2.1131 -1.0090
  100MPD2     C 1554   2.520   4.602   1.479 -0.6660  0.9919 -0.0256
  100MPD2    C1 1555   2.398   4.554   1.528  0.2615 -0.0150  0.6619
  100MPD2    C2 1556   2.309   4.480   1.443  0.1410  0.4132 -0.5143
  100MPD2    C3 1557   2.343   4.469   1.302 -0.8697  0.4091 -0.7758
  100MPD2    C4 1558   2.460   4.519   1.263  0.4600  0.3498 -0.1688
  100MPD2    C5 1559   2.550   4.581   1.348  0.6975 -0.0357 -0.0891
  100MPD2     H 1560   2.215   4.440   1.479  0.1831  1.1231  0.3750
  100MPD2    H1 1561   2.474   4.513   1.156 -0.1630  0.8585 -0.2799
  100MPD2    H2 1562   2.591   4.653   1.544  0.5412  1.1644 -1.4632
  100MPD2    H3 1563   2.648   4.612   1.314  0.5973 -0.7832 -1.0535
  100MPD2     N 1564   2.263   4.381   1.223  0.3813 -0.0749  0.2341
  100MPD2    H5 1565   2.171   4.360   1.261 -0.2587 -0.7963 -1.7002
  100MPD2    N1 1566   2.375   4.540   1.674 -0.3051 -0.0925 -0.9876
  100MPD2    H7 1567   2.279   4.524   1.703  0.1240 -2.5203 -0.9176
  101TMC2    C1 1568   2.807   0.897  13.092  0.5376 -0.1133  0.1142
  101TMC2    C2 1569   2.678   0.928  13.122  0.2881  0.4447  0.2889
  101TMC2    C3 1570   2.602   0.984  13.019  0.3301 -0.8090 -0.5413
  101TMC2    C4 1571   2.867   0.928  12.973  0.1790  0.4254  0.4085
  101TMC2    C5 1572   2.788   0.996  12.886  0.0767  0.0084 -0.3847
  101TMC2    C6 1573   2.655   1.023  12.905  0.9438  0.0419  0.0425
  101TMC2     C 1574   2.854   0.788  13.180 -0.1292  0.1395 -0.8260
  101TMC2     O 1575   2.795   0.761  13.285  0.0299 -0.2786 -0.4888
  101TMC2     H 1576   2.631   0.892  13.212 -1.2017 -1.3002 -1.1734
  101TMC2    H1 1577   2.975   0.915  12.963  0.3102  2.5175 -0.8612
  101TMC2    H2 1578   2.597   1.083  12.836  0.0667  0.4206  1.1141
  101TMC2    C7 1579   2.860   1.082  12.792  0.3957 -0.4221  0.2723
  101TMC2    C8 1580   2.466   0.991  13.044 -0.0626  0.5540  0.0498
  101TMC2    O1 1581   2.976   1.111  12.820 -0.5690 -0.4265 -0.1826
  101TMC2    O2 1582   2.424   0.969  13.156  0.1977 -0.4443  0.5753
  101TMC2    O5 1583   2.395   0.970  12.928  0.5033  0.0504  0.4405
  101TMC2    H5 1584   2.451   0.991  12.850  0.9439 -0.6487  0.5644
  102MPD2     C 1585   3.043   0.496  13.062  0.0513 -0.8552  0.2656
  102MPD2    C1 1586   2.964   0.567  13.146 -0.4790 -0.2275 -0.7769
  102MPD2    C2 1587   2.934   0.509  13.273 -0.5070 -0.0483  0.5387
  102MPD2    C3 1588   2.987   0.380  13.305 -0.3503 -0.0343  0.0665
  102MPD2    C4 1589   3.077   0.315  13.220 -0.8787  0.2122 -0.1053
  102MPD2    C5 1590   3.093   0.374  13.099  0.0128 -0.0337 -0.0350
  102MPD2     H 1591   2.873   0.559  13.347 -0.1059 -1.0228  1.5316
  102MPD2    H1 1592   3.138   0.235  13.258  1.9581  1.9063 -1.0373
  102MPD2    H2 1593   3.059   0.536  12.962  2.8213 -0.9151  0.6961
  102MPD2    H3 1594   3.160   0.331  13.025  1.0705 -0.3764  1.1202
  102MPD2     N 1595   2.951   0.322  13.427  0.1272  0.1387 -0.1322
  102MPD2    H5 1596   2.894   0.378  13.490 -1.1626 -0.0935 -1.0859
  102MPD2    N1 1597   2.923   0.694  13.104  0.4195 -0.5271  0.1877
  102MPD2    H7 1598   2.946   0.723  13.010  1.2778 -1.8465 -0.0055
  103TMC2    C1 1599   0.358   1.294  12.632 -0.2391 -0.1503  0.1932
  103TMC2    C2 1600   0.450   1.350  12.553 -0.1197  0.0187 -0.3565
  103TMC2    C3 1601   0.574   1.386  12.597 -1.0023  0.0536 -0.0059
  103TMC2    C4 1602   0.388   1.282  12.767 -0.4175  0.3423 -0.2446
  103TMC2    C5 1603   0.502   1.342  12.815  0.7141  0.3375 -0.0667
  103TMC2    C6 1604   0.601   1.384  12.734  0.1476  0.5990 -0.4045
  103TMC2     C 1605   0.241   1.231  12.576  0.4283  0.5812 -0.0555
  103TMC2     O 1606   0.200   1.265  12.465 -0.3832  0.4176  0.3263
  103TMC2     H 1607   0.426   1.375  12.450 -0.3817  1.0217 -0.0583
  103TMC2    H1 1608   0.326   1.230  12.839 -1.3830  1.3720 -0.3120
  103TMC2    H2 1609   0.696   1.418  12.772  0.6303 -1.1728 -0.0466
  103TMC2    C7 1610   0.521   1.371  12.955  0.5382  0.0542 -0.2259
  103TMC2    C8 1611   0.668   1.435  12.508  0.3817  0.1337 -0.0546
  103TMC2    O1 1612   0.630   1.410  12.998 -0.5624  0.9490 -0.0838
  103TMC2    O2 1613   0.659   1.542  12.445 -0.3536  0.0430 -0.1170
  103TMC2    O5 1614   0.780   1.377  12.546 -0.0176 -0.4732  0.2786
  103TMC2    H5 1615   0.760   1.305  12.610  2.4865  1.1137  2.8459
  104MPD2     C 1616   0.043   0.969  12.733  0.6148  0.2633  0.6445
  104MPD2    C1 1617   0.091   1.031  12.630  0.4814 -0.0243  0.0652
  104MPD2    C2 1618   0.037   1.006  12.504 -0.5219 -0.0633  0.4296
  104MPD2    C3 1619   4.668   0.919  12.488 -0.0434  0.0253  0.1690
  104MPD2    C4 1620   4.615   0.859  12.601  0.2765 -0.4920  0.1714
  104MPD2    C5 1621   4.677   0.882  12.718 -0.3230  0.4515 -0.9923
  104MPD2     H 1622   0.084   1.047  12.416 -0.7364 -0.3357  0.1899
  104MPD2    H1 1623   4.529   0.793  12.604  1.7377 -2.5083 -1.4918
  104MPD2    H2 1624   0.089   0.993  12.829 -0.6734  2.4600  0.7288
  104MPD2    H3 1625   4.641   0.838  12.811  1.4946 -0.6302 -0.7997
  104MPD2     N 1626   4.625   0.900  12.356 -0.0368 -0.0649 -0.0972
  104MPD2    H5 1627   4.673   0.955  12.285  1.6742 -0.6108  0.6260
  104MPD2    N1 1628   0.198   1.127  12.656 -0.2087 -0.3151  0.2747
  104MPD2    H7 1629   0.253   1.108  12.738  1.2310  0.7044 -0.4612
  105TMC2    C1 1630   2.461   0.214   0.140  0.1942 -0.3669 -0.0481
  105TMC2    C2 1631   2.400   0.336   0.129  0.5045 -0.4050 -0.3700
  105TMC2    C3 1632   2.301   0.370   0.212  0.7396  0.5065 -0.9361
  105TMC2    C4 1633   2.431   0.125   0.234  0.0340  0.4890 -0.1191
  105TMC2    C5 1634   2.325   0.159   0.312 -0.4584 -0.3681  0.6443
  105TMC2    C6 1635   2.260   0.281   0.305 -0.7045  0.1597  0.0261
  105TMC2     C 1636   2.539   0.170   0.025  0.4359  0.1198 -0.1486
  105TMC2     O 1637   2.615   0.078   0.055  0.6417  0.3527 -0.0691
  105TMC2     H 1638   2.414   0.405   0.047  1.0224  1.1252  1.0003
  105TMC2    H1 1639   2.472   0.025   0.236  0.1373  0.5142 -1.1115
  105TMC2    H2 1640   2.164   0.297   0.353 -0.7353  1.1590 -0.3696
  105TMC2    C7 1641   2.260   0.056   0.392 -0.5809  0.2063 -0.0560
  105TMC2    C8 1642   2.222   0.487   0.191  0.3430 -0.1324 -0.1929
  105TMC2    O1 1643   2.293   4.681   0.366  0.1996 -0.5327  0.6849
  105TMC2    O2 1644   2.279   0.573   0.124 -0.0699  0.0938 -0.0627
  105TMC2    O5 1645   2.094   0.443   0.164 -0.3232 -0.1109  0.0274
  105TMC2    H5 1646   2.096   0.345   0.169 -3.0215 -0.1855 -0.4228
  106MPD2     C 1647   2.587   0.113  17.272  0.8207  0.3395 -0.2232
  106MPD2    C1 1648   2.551   0.240  17.295 -0.4065  0.0412  0.3425
  106MPD2    C2 1649   2.532   0.288  17.426 -0.0800  0.2328  0.4400
  106MPD2    C3 1650   2.551   0.203  17.534  1.1133 -0.2909 -0.3052
  106MPD2    C4 1651   2.610   0.078  17.507 -0.0067 -0.0380  0.5365
  106MPD2    C5 1652   2.632   0.043  17.380 -0.9517  0.9050 -0.3506
  106MPD2     H 1653   2.486   0.385  17.440 -2.1119 -0.5739 -0.6826
  106MPD2    H1 1654   2.623   0.009  17.589  0.0709 -2.2120 -1.3101
  106MPD2    H2 1655   2.599   0.082  17.169  3.3530  1.1340 -0.1553
  106MPD2    H3 1656   2.667   4.680  17.367 -0.5017  1.3322 -2.5262
  106MPD2     N 1657   2.503   0.236  17.667  0.3311  0.5560  0.6007
  106MPD2    H5 1658   2.436   0.312  17.671  1.3125  1.5933 -2.4014
  106MPD2    N1 1659   2.528   0.318  17.177 -0.1730  0.4185 -0.2534
  106MPD2    H7 1660   2.541   0.267  17.090  2.7239  0.8081 -0.0556
  107TMC2    C1 1661   3.108   0.179  11.699 -0.0609 -0.2274 -0.8634
  107TMC2    C2 1662   3.032   0.288  11.704 -0.4644  0.2266  0.3162
  107TMC2    C3 1663   2.974   0.333  11.590 -0.0162  0.0404 -0.4485
  107TMC2    C4 1664   3.105   0.098  11.584  0.2881 -0.6390  0.1887
  107TMC2    C5 1665   3.041   0.145  11.470 -0.3957 -0.8156  0.1229
  107TMC2    C6 1666   2.989   0.271  11.470  0.0521 -0.4784 -0.0119
  107TMC2     C 1667   3.132   0.111  11.827 -0.3462 -1.0671 -0.8763
  107TMC2     O 1668   3.124   0.183  11.930 -0.1585 -0.2523 -0.1688
  107TMC2     H 1669   3.022   0.341  11.798  0.1376  2.3582 -0.8387
  107TMC2    H1 1670   3.174   0.014  11.581 -0.0083 -0.9144  1.0098
  107TMC2    H2 1671   2.934   0.311  11.386  1.3739 -3.0574 -2.0955
  107TMC2    C7 1672   3.064   0.090  11.343 -0.4285  1.0643 -0.0036
  107TMC2    C8 1673   2.869   0.434  11.580 -0.5870 -0.4066 -0.9571
  107TMC2    O1 1674   3.045   0.174  11.256 -0.2747  0.2891 -0.1962
  107TMC2    O2 1675   2.770   0.426  11.511 -0.1852  0.0516 -0.5234
  107TMC2    O5 1676   2.858   0.478  11.706  0.0704  0.3985  0.5181
  107TMC2    H5 1677   2.947   0.500  11.741 -0.0039 -0.0725  1.0012
  108MPD2     C 1678   3.176   4.486  11.878  0.0519  0.1322 -0.0738
  108MPD2    C1 1679   3.137   4.612  11.904  0.0416 -0.4039 -0.3847
  108MPD2    C2 1680   3.074   4.636  12.022 -0.3048  0.2932  0.7663
  108MPD2    C3 1681   3.043   4.531  12.101 -0.3891  0.1649  0.4073
  108MPD2    C4 1682   3.081   4.402  12.069  0.1159  0.2046  0.6918
  108MPD2    C5 1683   3.153   4.376  11.957  0.2752  0.3281  0.2191
  108MPD2     H 1684   3.044   4.738  12.040 -2.7278 -0.3917  0.6743
  108MPD2    H1 1685   3.071   4.322  12.142  0.3511 -1.0853 -0.6974
  108MPD2    H2 1686   3.236   4.471  11.790 -0.0067  0.9791 -0.2578
  108MPD2    H3 1687   3.176   4.277  11.919 -0.2258  0.7453 -1.1394
  108MPD2     N 1688   2.966   4.543  12.222 -0.2895 -0.8892  0.3336
  108MPD2    H5 1689   2.940   4.453  12.263 -0.4954  0.3986  3.0717
  108MPD2    N1 1690   3.144   4.717  11.808 -0.1929 -0.2524  0.0555
  108MPD2    H7 1691   3.174   4.682  11.717 -2.0670 -1.7143 -0.0108
  109TMC2    C1 1692   2.130   2.170   0.547  0.3679 -0.8122  0.0793
  109TMC2    C2 1693   2.162   2.098   0.438  0.3151 -0.2205  0.1176
  109TMC2    C3 1694   2.283   2.112   0.387  0.4555  0.7028 -0.6319
  109TMC2    C4 1695   2.225   2.233   0.628 -0.3743 -0.4550  0.0169
  109TMC2    C5 1696   2.349   2.244   0.569  0.0163 -0.3094 -0.4850
  109TMC2    C6 1697   2.380   2.190   0.449  0.0710  0.8378  0.2714
  109TMC2     C 1698   1.997   2.162   0.589 -1.0400 -0.6418  0.3554
  109TMC2     O 1699   1.939   2.051   0.565 -0.6595 -0.0793 -0.4162
  109TMC2     H 1700   2.083   2.048   0.383  0.4506 -0.1990 -0.0961
  109TMC2    H1 1701   2.198   2.269   0.727 -1.7636 -0.7605 -0.2414
  109TMC2    H2 1702   2.468   2.226   0.396 -0.9799 -0.9092 -2.6993
  109TMC2    C7 1703   2.433   2.358   0.609 -0.5796  0.3145 -0.3431
  109TMC2    C8 1704   2.306   2.083   0.249 -0.1523  0.7725  0.3648
  109TMC2    O1 1705   2.545   2.373   0.565 -0.0035 -0.2448 -0.5165
  109TMC2    O2 1706   2.219   2.035   0.174  0.2464 -0.4494 -0.2773
  109TMC2    O5 1707   2.433   2.063   0.230  0.2153  0.1328  0.3067
  109TMC2    H5 1708   2.492   2.082   0.306 -1.0250 -0.3911  1.4093
  110MPD2     C 1709   1.635   2.318   0.924  0.5049 -0.3315  0.3860
  110MPD2    C1 1710   1.730   2.415   0.911 -0.2597 -0.2901  0.3260
  110MPD2    C2 1711   1.837   2.395   0.828 -0.1076 -1.1010 -0.1637
  110MPD2    C3 1712   1.850   2.273   0.759 -0.3970 -0.1281 -0.5154
  110MPD2    C4 1713   1.747   2.180   0.761  0.6718  0.4656  0.4134
  110MPD2    C5 1714   1.645   2.205   0.845  0.1177 -0.2616  0.3893
  110MPD2     H 1715   1.919   2.466   0.828 -0.4380 -0.7343  1.0605
  110MPD2    H1 1716   1.734   2.096   0.693 -2.7859 -0.5954  2.3709
  110MPD2    H2 1717   1.543   2.346   0.974  0.2076  0.2913 -0.5173
  110MPD2    H3 1718   1.562   2.135   0.840  1.0901 -1.3899 -0.1679
  110MPD2     N 1719   1.965   2.264   0.681  0.0811  0.0459  0.4226
  110MPD2    H5 1720   2.027   2.344   0.689  3.2651 -2.2467 -1.4532
  110MPD2    N1 1721   1.715   2.537   0.986 -0.3458 -0.2595  0.4820
  110MPD2    H7 1722   1.658   2.538   1.069  0.4226 -1.3429  1.0276
  111TMC2    C1 1723   2.511   1.828  11.693  0.2497  0.1198 -0.8441
  111TMC2    C2 1724   2.401   1.841  11.768 -0.0799  0.5049  0.1977
  111TMC2    C3 1725   2.404   1.875  11.896  0.0809  0.2456  0.2022
  111TMC2    C4 1726   2.638   1.867  11.742 -0.5033  0.1927  0.2915
  111TMC2    C5 1727   2.633   1.923  11.865 -0.3716  0.5569  0.3455
  111TMC2    C6 1728   2.517   1.926  11.946  0.1655  0.6420 -0.5393
  111TMC2     C 1729   2.496   1.854  11.549 -0.6322 -0.0440 -0.7286
  111TMC2     O 1730   2.598   1.842  11.491  0.3103  0.1423  0.5386
  111TMC2     H 1731   2.302   1.822  11.728  0.5482  0.0239 -1.1236
  111TMC2    H1 1732   2.728   1.870  11.682 -0.8740  2.8676 -0.1279
  111TMC2    H2 1733   2.530   1.972  12.043 -0.2993 -0.7021  0.1585
  111TMC2    C7 1734   2.759   1.937  11.931  0.0356 -0.1353  0.7358
  111TMC2    C8 1735   2.324   1.789  11.978 -0.4678  1.0756  1.0252
  111TMC2    O1 1736   2.756   1.931  12.052 -0.2042 -0.0836  0.3055
  111TMC2    O2 1737   2.291   1.679  11.946 -0.4063  0.1093  0.2985
  111TMC2    O5 1738   2.317   1.831  12.101  0.3538 -0.0210  0.2537
  111TMC2    H5 1739   2.343   1.924  12.115  3.1098 -0.9991  1.8833
  112MPD2     C 1740   2.258   2.067  11.135 -0.1557 -0.5968 -0.0816
  112MPD2    C1 1741   2.384   2.003  11.149 -0.6861 -0.8487 -0.8174
  112MPD2    C2 1742   2.425   1.947  11.273 -0.0149  0.3271 -0.3753
  112MPD2    C3 1743   2.338   1.947  11.380 -0.0436 -0.2480 -0.5703
  112MPD2    C4 1744   2.212   1.997  11.366 -0.8796 -0.5836  0.2083
  112MPD2    C5 1745   2.174   2.059  11.248 -0.5245  0.1752  0.5071
  112MPD2     H 1746   2.529   1.919  11.290 -0.1785 -1.8362 -2.9910
  112MPD2    H1 1747   2.138   1.986  11.444 -2.1555 -0.7611 -1.0274
  112MPD2    H2 1748   2.234   2.127  11.048  0.2608  0.3946  0.4911
  112MPD2    H3 1749   2.087   2.123  11.252 -1.1691 -0.7127  0.4490
  112MPD2     N 1750   2.374   1.906  11.513 -0.2389 -0.2172  0.5166
  112MPD2    H5 1751   2.305   1.921  11.586  0.1665 -1.5011  1.1660
  112MPD2    N1 1752   2.488   2.015  11.053 -0.0085 -0.1376  0.2669
  112MPD2    H7 1753   2.574   1.971  11.083  0.4914  1.2099  0.7804
  113TMC2    C1 1754   1.108   4.670   0.897  0.1761 -0.1428  0.8311
  113TMC2    C2 1755   1.090   0.034   0.812  0.4523 -0.8515  0.0790
  113TMC2    C3 1756   1.008   0.010   0.706  0.0308 -0.1544 -0.3802
  113TMC2    C4 1757   1.057   4.541   0.879 -0.0414  0.3617  0.5309
  113TMC2    C5 1758   0.966   4.531   0.779  0.1412  0.3591  1.1837
  113TMC2    C6 1759   0.944   4.628   0.686 -0.0733 -0.2496  0.3461
  113TMC2     C 1760   1.208   4.697   0.998  0.2332  0.3367 -0.6382
  113TMC2     O 1761   1.236   0.073   1.021  0.1303 -0.2622 -0.8120
  113TMC2     H 1762   1.135   0.132   0.824 -0.9208  0.2292 -3.4835
  113TMC2    H1 1763   1.077   4.457   0.944  0.5781 -0.2525 -0.4480
  113TMC2    H2 1764   0.872   4.612   0.608 -0.0822 -1.4480  0.5951
  113TMC2    C7 1765   0.892   4.410   0.761  0.4565  0.8067  0.4700
  113TMC2    C8 1766   0.950   0.119   0.628  0.1500  0.0661 -0.0172
  113TMC2    O1 1767   0.844   4.401   0.650 -0.1823 -0.1229 -0.4543
  113TMC2    O2 1768   0.831   0.137   0.612 -0.1627  0.0912 -0.0550
  113TMC2    O5 1769   1.048   0.175   0.559 -0.3991 -0.0066 -0.2638
  113TMC2    H5 1770   1.137   0.157   0.597 -0.9800 -0.6958  0.7821
  114MPD2     C 1771   1.556   4.553   1.330 -0.2608 -0.0794 -0.3963
  114MPD2    C1 1772   1.467   4.658   1.346  0.4985  0.4334 -0.4901
  114MPD2    C2 1773   1.380   4.678   1.241 -0.0928  0.2289 -0.5625
  114MPD2    C3 1774   1.371   4.578   1.143 -0.6613 -0.6779  0.3263
  114MPD2    C4 1775   1.454   4.462   1.141  0.6989  0.2500 -0.5570
  114MPD2    C5 1776   1.556   4.457   1.232 -0.1415  0.3286 -0.6904
  114MPD2     H 1777   1.314   0.025   1.248 -1.5560 -0.9175 -0.1396
  114MPD2    H1 1778   1.444   4.380   1.071 -0.4910 -1.0012  1.0731
  114MPD2    H2 1779   1.644   4.557   1.393 -0.3447  0.5399 -0.3135
  114MPD2    H3 1780   1.628   4.376   1.228  2.6785  2.8057 -0.3941
  114MPD2     N 1781   1.268   4.580   1.041 -0.5282 -0.5075  0.2752
  114MPD2    H5 1782   1.276   4.507   0.971  0.0619  1.3956 -1.6550
  114MPD2    N1 1783   1.461   0.001   1.461  0.2338  0.2486 -0.0476
  114MPD2    H7 1784   1.394   0.078   1.467  1.8138  1.7149 -1.5852
  115TMC2    C1 1785   1.891   2.294  17.701 -0.0124  0.4842 -0.1557
  115TMC2    C2 1786   2.018   2.254  17.710 -1.0012  0.0313  0.0186
  115TMC2    C3 1787   2.119   2.344  17.701 -0.4487  0.1692  0.1677
  115TMC2    C4 1788   1.861   2.424  17.674 -0.0012  0.2890  0.1601
  115TMC2    C5 1789   1.967   2.509  17.662  0.5924 -0.1129  0.1431
  115TMC2    C6 1790   2.097   2.474  17.675 -0.2093  0.4303 -0.0642
  115TMC2     C 1791   1.804   2.200  17.645 -0.5215 -0.8263 -0.1300
  115TMC2     O 1792   1.849   2.092  17.613 -0.5209 -0.0332 -0.0284
  115TMC2     H 1793   2.039   2.149  17.725 -1.2157 -0.4903 -3.3285
  115TMC2    H1 1794   1.759   2.454  17.650 -0.4710  0.2631  2.1693
  115TMC2    H2 1795   2.179   2.543  17.655 -0.0429  0.1228 -0.4328
  115TMC2    C7 1796   1.942   2.636  17.590  0.0610 -0.2358  0.0096
  115TMC2    C8 1797   2.263   2.303  17.692 -1.0181 -0.5560  0.1446
  115TMC2    O1 1798   2.042   2.676  17.528 -0.0904 -0.2801 -0.0298
  115TMC2    O2 1799   2.355   2.367  17.741  0.1945  0.6245 -0.0499
  115TMC2    O5 1800   2.277   2.231  17.584 -0.2989 -0.1832 -0.0911
  115TMC2    H5 1801   2.198   2.182  17.555  0.3728 -2.2147  1.5174
  116MPD2     C 1802   1.359   2.080  17.420  0.1361 -0.5945  0.3478
  116MPD2    C1 1803   1.479   2.012  17.411 -0.2258 -0.3774  0.5569
  116MPD2    C2 1804   1.587   2.062  17.482  0.4237 -0.3541  0.0624
  116MPD2    C3 1805   1.568   2.176  17.567  0.4378 -0.2894  0.2911
  116MPD2    C4 1806   1.446   2.234  17.571  0.0769 -0.3322  0.3752
  116MPD2    C5 1807   1.342   2.190  17.500 -0.6878 -0.2837  0.4527
  116MPD2     H 1808   1.686   2.018  17.472 -0.2173 -2.2543  2.1919
  116MPD2    H1 1809   1.428   2.320  17.634 -0.8485 -1.8024  2.0959
  116MPD2    H2 1810   1.269   2.054  17.365  0.5063 -0.6905 -0.2032
  116MPD2    H3 1811   1.251   2.248  17.494 -0.4503 -0.1890 -2.0989
  116MPD2     N 1812   1.674   2.241  17.638  0.4366 -0.4841  0.6838
  116MPD2    H5 1813   1.655   2.324  17.694  0.2979  0.8056 -1.2320
  116MPD2    N1 1814   1.483   1.904  17.320  0.2878  0.0433  0.4555
  116MPD2    H7 1815   1.403   1.893  17.258  2.3306  0.3914 -2.2567
  117TMC2    C1 1816   0.482   3.757  13.742  0.4989 -0.0050 -0.0007
  117TMC2    C2 1817   0.511   3.633  13.784 -0.0077 -0.6881  0.1397
  117TMC2    C3 1818   0.475   3.589  13.905  0.1858 -0.5483  0.4440
  117TMC2    C4 1819   0.418   3.840  13.833 -0.1454  0.1818 -0.2764
  117TMC2    C5 1820   0.367   3.788  13.948  0.4052 -0.8527  0.7222
  117TMC2    C6 1821   0.399   3.659  13.993 -0.8067  0.2550  0.3748
  117TMC2     C 1822   0.536   3.808  13.620  0.7893 -0.0443  0.3844
  117TMC2     O 1823   0.647   3.774  13.580  0.2142  0.5053 -0.9543
  117TMC2     H 1824   0.589   3.576  13.735 -1.4149  0.8399 -3.8155
  117TMC2    H1 1825   0.401   3.942  13.802 -1.1353 -0.0546 -0.5083
  117TMC2    H2 1826   0.385   3.610  14.089 -0.8970 -2.8167 -1.2016
  117TMC2    C7 1827   0.317   3.884  14.049 -0.0173  0.0804  0.6501
  117TMC2    C8 1828   0.519   3.459  13.953 -0.5184  0.9107  1.0153
  117TMC2    O1 1829   0.295   3.999  14.016  0.1279 -0.6912 -0.4072
  117TMC2    O2 1830   0.613   3.391  13.910  0.0931 -0.1605  0.3440
  117TMC2    O5 1831   0.396   3.400  13.979  0.8188  0.0707  0.1638
  117TMC2    H5 1832   0.322   3.462  13.962  2.0552  1.0346 -1.6888
  118MPD2     C 1833   0.351   3.836  14.403 -0.4853  0.4931  1.3049
  118MPD2    C1 1834   0.333   3.913  14.288 -0.3239 -0.1365  0.6882
  118MPD2    C2 1835   0.334   4.052  14.301  0.2516  0.9671  0.0660
  118MPD2    C3 1836   0.342   4.107  14.428 -0.7760 -0.3136  0.1066
  118MPD2    C4 1837   0.341   4.029  14.541  0.3049 -0.1329 -0.5963
  118MPD2    C5 1838   0.335   3.892  14.527  0.0338 -0.0020  0.0433
  118MPD2     H 1839   0.359   4.109  14.212  0.2243  1.2435  0.2353
  118MPD2    H1 1840   0.343   4.073  14.640  4.9509 -1.3002 -0.1718
  118MPD2    H2 1841   0.357   3.728  14.403 -2.9368  0.3381  0.8937
  118MPD2    H3 1842   0.318   3.839  14.619  0.0677  2.2550  1.3595
  118MPD2     N 1843   0.360   4.248  14.448 -0.5778 -0.3111  0.4821
  118MPD2    H5 1844   0.374   4.275  14.545  0.2160  0.9114  0.0411
  118MPD2    N1 1845   0.332   3.836  14.177  0.2115 -0.4320  0.3979
  118MPD2    H7 1846   0.373   3.744  14.187  0.6156 -0.1020  1.7315
  119TMC2    C1 1847   3.395   0.031  13.490 -0.5058 -0.8564  0.7142
  119TMC2    C2 1848   3.450   0.008  13.364  0.3254  0.3793 -0.5200
  119TMC2    C3 1849   3.384   4.662  13.284  0.1811 -0.0524 -0.2112
  119TMC2    C4 1850   3.281   4.706  13.532 -0.9786 -0.1158 -0.0386
  119TMC2    C5 1851   3.225   4.612  13.445  0.5159  0.0701  0.6787
  119TMC2    C6 1852   3.273   4.587  13.321  0.5665  0.2420 -0.5043
  119TMC2     C 1853   3.482   0.071  13.600  0.9317 -0.0989 -0.1828
  119TMC2     O 1854   3.433   0.093  13.708  0.5503  0.4797 -0.7406
  119TMC2     H 1855   3.530   0.068  13.322  1.0388  0.2703  0.6767
  119TMC2    H1 1856   3.238   4.729  13.628 -0.6318  1.9173 -0.3756
  119TMC2    H2 1857   3.231   4.517  13.249 -0.6386 -0.5393  0.9681
  119TMC2    C7 1858   3.115   4.531  13.486 -0.0824 -0.4028  0.0084
  119TMC2    C8 1859   3.425   4.657  13.143 -0.4186 -0.1213  0.2456
  119TMC2    O1 1860   3.055   4.475  13.395  0.1275 -0.2433  0.0166
  119TMC2    O2 1861   3.541   4.685  13.113  0.9858  0.0438 -0.6765
  119TMC2    O5 1862   3.325   4.660  13.056  0.0464 -0.1331 -0.1590
  119TMC2    H5 1863   3.242   4.671  13.108  0.8467  0.9667  0.8645
  120MPD2     C 1864   3.938   0.020  13.839 -0.8385 -0.2444 -0.7586
  120MPD2    C1 1865   3.806   0.010  13.889 -0.5012 -0.5606  0.4591
  120MPD2    C2 1866   3.702   0.039  13.800 -0.0287 -0.8865 -0.0288
  120MPD2    C3 1867   3.719   0.044  13.660  0.1220  0.1768  0.3506
  120MPD2    C4 1868   3.850   0.055  13.618 -0.0728 -1.2817 -0.4415
  120MPD2    C5 1869   3.955   0.049  13.703  0.1361  0.5158 -0.1225
  120MPD2     H 1870   3.604   0.034  13.845 -0.3841 -0.7627 -0.7818
  120MPD2    H1 1871   3.872   0.056  13.512 -3.2940 -0.7045 -1.1219
  120MPD2    H2 1872   4.022   4.734  13.903 -0.9272 -3.3482 -1.8331
  120MPD2    H3 1873   4.053   0.054  13.657 -0.2637  0.8307 -0.9411
  120MPD2     N 1874   3.612   0.050  13.570  0.0262  0.6054 -0.4828
  120MPD2    H5 1875   3.637   0.044  13.472 -0.0555  1.3380 -0.5459
  120MPD2    N1 1876   3.794   4.717  14.026 -0.4135 -0.1780 -0.0984
  120MPD2    H7 1877   3.882   4.731  14.075 -1.0244 -0.9750  1.1896
  121TMC2    C1 1878   0.007   1.699  13.964 -0.8070 -0.1073 -0.7904
  121TMC2    C2 1879   0.081   1.591  13.909  0.0262  0.0130 -0.5038
  121TMC2    C3 1880   0.017   1.474  13.898 -0.6962 -0.5554  0.3182
  121TMC2    C4 1881   4.616   1.696  13.998  0.1363 -0.1809 -0.7564
  121TMC2    C5 1882   4.553   1.580  13.960 -0.7327 -0.1377  0.2288
  121TMC2    C6 1883   4.621   1.472  13.910  0.1195 -0.4166 -0.1707
  121TMC2     C 1884   0.064   1.831  13.981 -0.7159  0.0581  0.1404
  121TMC2     O 1885   0.012   1.916  14.054  0.1923  0.1935 -0.0532
  121TMC2     H 1886   0.189   1.593  13.897  0.0484  0.2607 -0.2668
  121TMC2    H1 1887   4.571   1.767  14.066 -2.9069 -2.5871 -0.2592
  121TMC2    H2 1888   4.565   1.379  13.900  0.0220 -0.4154  0.3981
  121TMC2    C7 1889   4.407   1.573  13.982 -0.4107  0.0687 -0.3686
  121TMC2    C8 1890   0.071   1.387  13.797 -0.0841 -0.2000 -0.8434
  121TMC2    O1 1891   4.344   1.465  13.985  0.3895 -0.7404  0.8140
  121TMC2    O2 1892   0.158   1.422  13.716  0.3673 -0.4350  0.3084
  121TMC2    O5 1893   0.009   1.270  13.793 -0.5143 -0.3052 -0.2145
  121TMC2    H5 1894   4.697   1.249  13.874  2.1368 -2.9278  0.7573
  122MPD2     C 1895   0.279   2.036  14.007 -0.2902  0.0221  0.0164
  122MPD2    C1 1896   0.255   1.954  13.894  1.0325  0.6478 -0.2196
  122MPD2    C2 1897   0.326   1.982  13.781 -0.9605 -0.0641  0.2347
  122MPD2    C3 1898   0.410   2.094  13.774  0.0889 -0.5234 -0.0286
  122MPD2    C4 1899   0.416   2.181  13.881 -0.6662  0.0232 -0.2957
  122MPD2    C5 1900   0.352   2.154  13.996  0.0142 -0.2250  0.3723
  122MPD2     H 1901   0.311   1.924  13.690  2.4706  1.4113 -1.2735
  122MPD2    H1 1902   0.488   2.262  13.883  2.1519 -2.4967 -0.0024
  122MPD2    H2 1903   0.229   2.015  14.100  1.9285  0.3115  1.2578
  122MPD2    H3 1904   0.364   2.218  14.083  3.6010 -0.8560  0.3644
  122MPD2     N 1905   0.471   2.143  13.654  0.4876  1.3516 -0.2221
  122MPD2    H5 1906   0.526   2.225  13.675  2.2485  0.1099 -0.0221
  122MPD2    N1 1907   0.167   1.848  13.897 -0.5754  0.0292  0.7165
  122MPD2    H7 1908   0.174   1.781  13.821 -0.4784  0.8600 -0.0141
  123TMC2    C1 1909   3.779   0.658  10.827 -0.3497 -0.2370  1.3458
  123TMC2    C2 1910   3.768   0.792  10.847 -0.1873 -0.6723 -0.6554
  123TMC2    C3 1911   3.845   0.866  10.760 -0.4383 -0.3521  0.2355
  123TMC2    C4 1912   3.858   0.607  10.731  0.2494  0.8742 -0.0441
  123TMC2    C5 1913   3.920   0.685  10.639  0.5306  0.0819  0.2522
  123TMC2    C6 1914   3.918   0.820  10.653  0.1378 -0.0316 -0.5561
  123TMC2     C 1915   3.678   0.576  10.889 -0.4964 -0.4841 -0.0367
  123TMC2     O 1916   3.609   0.633  10.973  0.7407  0.1299  0.3664
  123TMC2     H 1917   3.697   0.840  10.914 -0.1915  2.1320 -2.6595
  123TMC2    H1 1918   3.865   0.499  10.722 -2.2963  0.7699 -0.7971
  123TMC2    H2 1919   3.975   0.883  10.586  2.8292 -0.7900  1.0109
  123TMC2    C7 1920   3.930   0.623  10.509 -0.0665  0.0783 -0.3505
  123TMC2    C8 1921   3.865   1.007  10.787 -0.0878 -0.5653 -0.5155
  123TMC2    O1 1922   3.866   0.519  10.491  0.4593 -0.4030 -0.3094
  123TMC2    O2 1923   3.908   1.085  10.701  0.1957  0.9193 -0.2497
  123TMC2    O5 1924   3.897   1.018  10.915 -0.2992  0.1865 -0.7728
  123TMC2    H5 1925   3.883   0.935  10.965 -0.2214 -1.0063 -2.7200
  124MPD2     C 1926   3.320   0.206  10.815  0.4793 -0.0488  0.5447
  124MPD2    C1 1927   3.391   0.224  10.702  0.4808  0.1182 -0.2445
  124MPD2    C2 1928   3.498   0.313  10.688 -0.4005 -0.4023 -0.2744
  124MPD2    C3 1929   3.525   0.397  10.803  0.6850 -0.3179  0.2425
  124MPD2    C4 1930   3.449   0.378  10.920 -0.8986  0.0034 -0.0999
  124MPD2    C5 1931   3.347   0.289  10.916 -0.0297  0.3406 -0.2162
  124MPD2     H 1932   3.554   0.323  10.596 -0.3478 -0.7578 -0.2819
  124MPD2    H1 1933   3.472   0.439  11.007  1.0662 -3.8313  2.0482
  124MPD2    H2 1934   3.230   0.147  10.825 -0.4143  0.8246 -2.2247
  124MPD2    H3 1935   3.284   0.294  11.005  0.9644 -0.8329  0.5600
  124MPD2     N 1936   3.636   0.486  10.793  0.1613  0.5525  0.6212
  124MPD2    H5 1937   3.677   0.498  10.701 -0.1821 -0.2850  0.3608
  124MPD2    N1 1938   3.360   0.144  10.588  0.3442  0.2507 -0.0574
  124MPD2    H7 1939   3.399   0.181  10.502 -0.5250  1.0292 -0.1198
  125TMC2    C1 1940   4.281   2.215   9.435  0.3781  0.3883  0.4786
  125TMC2    C2 1941   4.160   2.193   9.487  0.3810  0.8540 -0.3626
  125TMC2    C3 1942   4.096   2.294   9.550  0.0888 -0.7486 -0.5584
  125TMC2    C4 1943   4.334   2.344   9.414  0.1951 -0.3547  0.1671
  125TMC2    C5 1944   4.270   2.447   9.468 -0.3017  0.3063  0.0611
  125TMC2    C6 1945   4.153   2.419   9.543 -0.0650  0.7074 -0.5305
  125TMC2     C 1946   4.367   2.112   9.394  0.5223  1.1355 -0.2710
  125TMC2     O 1947   4.461   2.148   9.324  0.3193 -0.3937  0.1882
  125TMC2     H 1948   4.121   2.092   9.485  1.7674  0.3004  0.6824
  125TMC2    H1 1949   4.433   2.358   9.374  0.1369  1.3054  0.6042
  125TMC2    H2 1950   4.102   2.507   9.582  0.9989  1.2896 -0.4560
  125TMC2    C7 1951   4.334   2.577   9.493  0.4492  0.0391 -0.1656
  125TMC2    C8 1952   3.955   2.275   9.589  0.1834 -0.5624  0.0563
  125TMC2    O1 1953   4.258   2.663   9.541  0.1414 -0.0205 -0.7234
  125TMC2    O2 1954   3.890   2.178   9.556 -0.6300  0.3897 -0.5141
  125TMC2    O5 1955   3.934   2.336   9.704  0.1679  0.5649 -0.3543
  125TMC2    H5 1956   3.996   2.408   9.728  3.6550 -2.6070  0.1347
  126MPD1     C 1957   4.614   1.658   9.421  0.2601  0.1143  0.1334
  126MPD1    C1 1958   4.502   1.656   9.501  0.2058  0.2577  0.5881
  126MPD1    C2 1959   4.405   1.754   9.500  0.3711  0.6423 -0.4032
  126MPD1    C3 1960   4.428   1.870   9.434 -0.1774 -0.1349 -0.4102
  126MPD1    C4 1961   4.536   1.870   9.344  0.8724 -0.4130 -0.2662
  126MPD1    C5 1962   4.630   1.767   9.340  0.5885  0.3315  0.5589
  126MPD1     H 1963   4.320   1.748   9.566  0.9049  0.8170  0.3019
  126MPD1    H1 1964   4.558   1.958   9.285  2.3410 -0.6627 -0.0774
  126MPD1    H2 1965   4.699   1.590   9.421  0.8513  0.8660 -2.1388
  126MPD1    H3 1966   4.720   1.769   9.280  0.9375 -0.2365  1.0690
  126MPD1     N 1967   4.341   1.991   9.452 -0.3886 -0.0880  0.3426
  126MPD1    H5 1968   4.271   1.989   9.525 -1.5730  2.0594 -0.7359
  126MPD1    N1 1969   4.477   1.549   9.585  0.3178 -0.2382  0.0168
  126MPD1    H6 1970   4.501   1.460   9.542  0.6983 -0.2272  0.2074
  126MPD1    H7 1971   4.377   1.544   9.602  0.2569  2.9644  0.6474
  127TMC2    C1 1972   0.761   0.963   9.801 -0.0386  0.2829 -0.2397
  127TMC2    C2 1973   0.806   0.895   9.913 -0.9473  0.6189 -0.0173
  127TMC2    C3 1974   0.739   0.788   9.962 -0.1101 -0.9095  0.7495
  127TMC2    C4 1975   0.660   0.907   9.721  0.9473 -0.5573  0.5230
  127TMC2    C5 1976   0.608   0.786   9.755  0.2357 -0.2916  0.6765
  127TMC2    C6 1977   0.648   0.723   9.876  0.1087 -0.1267  0.2486
  127TMC2     C 1978   0.798   1.101   9.768  0.9395 -0.1655 -1.3127
  127TMC2     O 1979   0.856   1.155   9.857 -0.2713  0.2746  0.1937
  127TMC2     H 1980   0.880   0.945   9.973 -1.0347 -2.5199  2.7260
  127TMC2    H1 1981   0.606   0.967   9.648 -0.0404 -0.3968  1.3812
  127TMC2    H2 1982   0.614   0.624   9.902 -1.5018 -0.0419 -1.5854
  127TMC2    C7 1983   0.482   0.753   9.686 -0.7570  0.2092 -0.2019
  127TMC2    C8 1984   0.796   0.726  10.072 -0.2522 -0.0000 -1.0826
  127TMC2    O1 1985   0.464   0.816   9.580 -0.4669 -0.1514 -0.0393
  127TMC2    O2 1986   0.907   0.745  10.115  0.4052  0.4143 -0.0258
  127TMC2    O5 1987   0.694   0.666  10.135 -0.6267  0.5345 -0.2871
  127TMC2    H5 1988   0.610   0.675  10.085 -0.9131  0.2710  0.1554
  128MPD2     C 1989   0.837   1.253   9.427 -0.1961  0.0178 -0.1379
  128MPD2    C1 1990   0.854   1.242   9.562  0.0730  0.1972  0.0670
  128MPD2    C2 1991   0.934   1.344   9.620  0.0685 -0.0664 -0.0868
  128MPD2    C3 1992   0.962   1.465   9.551 -0.2966  0.0409 -0.3778
  128MPD2    C4 1993   0.951   1.464   9.416  0.3288 -0.1845 -1.1081
  128MPD2    C5 1994   0.890   1.356   9.355  0.7157  0.0585  0.0192
  128MPD2     H 1995   0.951   1.336   9.726 -1.3101  0.6933  0.1895
  128MPD2    H1 1996   0.989   1.546   9.357 -3.5270  1.4878 -1.3023
  128MPD2    H2 1997   0.799   1.169   9.370  1.9209 -2.1161  1.5832
  128MPD2    H3 1998   0.871   1.355   9.249 -2.1466 -1.3839  0.5584
  128MPD2     N 1999   1.020   1.567   9.626  0.1681  0.0490 -0.0979
  128MPD2    H5 2000   1.036   1.539   9.722  2.5993  0.4584 -0.3648
  128MPD2    N1 2001   0.798   1.130   9.628 -0.2914 -0.6752 -0.2288
  128MPD2    H7 2002   0.741   1.062   9.578  1.0547 -1.9316 -0.0720
  129TMC2    C1 2003   3.264   2.293   1.608 -0.2395  0.0405 -0.9446
  129TMC2    C2 2004   3.380   2.354   1.581  0.2361 -0.3325  0.0915
  129TMC2    C3 2005   3.471   2.277   1.515  0.2128 -0.5456 -0.9166
  129TMC2    C4 2006   3.244   2.160   1.587 -0.5078 -1.1639  0.3095
  129TMC2    C5 2007   3.352   2.084   1.549  0.4031 -0.0545  0.7056
  129TMC2    C6 2008   3.466   2.144   1.496 -0.1856 -0.3934  0.4623
  129TMC2     C 2009   3.170   2.364   1.689 -0.0997  0.0692 -0.5501
  129TMC2     O 2010   3.104   2.309   1.779 -0.1869  0.0769  0.2368
  129TMC2     H 2011   3.408   2.452   1.619  0.0965 -0.5838  0.8406
  129TMC2    H1 2012   3.149   2.116   1.615  0.0626 -2.7486 -0.2216
  129TMC2    H2 2013   3.547   2.084   1.455  2.1409  1.3070  2.6121
  129TMC2    C7 2014   3.340   1.943   1.550  0.1344 -0.5751 -0.8940
  129TMC2    C8 2015   3.601   2.345   1.490 -0.4239 -0.0713 -0.2308
  129TMC2    O1 2016   3.228   1.907   1.567 -0.3929  0.3321  0.0848
  129TMC2    O2 2017   3.710   2.289   1.489  0.5316  0.0497 -0.7968
  129TMC2    O5 2018   3.576   2.470   1.441  0.5755  0.0068 -0.5497
  129TMC2    H5 2019   3.485   2.504   1.456  0.3319 -1.1331  0.5803
  130MPD2     C 2020   3.031   2.589   1.833  0.1966 -0.5075  0.0883
  130MPD2    C1 2021   3.093   2.603   1.712  0.1465 -0.7792 -0.2366
  130MPD2    C2 2022   3.102   2.731   1.663  0.1494 -0.4385 -0.0818
  130MPD2    C3 2023   3.057   2.845   1.726  0.0649  0.0504 -0.0382
  130MPD2    C4 2024   2.994   2.827   1.843 -0.2259 -0.3656  0.6530
  130MPD2    C5 2025   2.972   2.697   1.886 -0.2648 -0.4595 -0.1584
  130MPD2     H 2026   3.141   2.741   1.563 -0.1379 -1.6185 -0.3046
  130MPD2    H1 2027   2.958   2.910   1.902  1.1447  0.2376  0.6171
  130MPD2    H2 2028   3.026   2.490   1.877 -2.1613  0.7026  2.5050
  130MPD2    H3 2029   2.915   2.688   1.979 -2.6657  1.3853 -1.4531
  130MPD2     N 2030   3.077   2.967   1.668 -0.0445 -0.3337 -0.2802
  130MPD2    H5 2031   3.120   2.972   1.577  0.0770  0.3676 -0.1888
  130MPD2    N1 2032   3.159   2.501   1.642 -0.2380  0.2759  0.7750
  130MPD2    H7 2033   3.220   2.523   1.564 -0.2745 -0.8657  0.4152
  131TMC2    C1 2034   3.760   0.672  10.025  1.1121 -0.5858  0.4034
  131TMC2    C2 2035   3.836   0.700   9.915 -0.0887  0.1159 -0.1039
  131TMC2    C3 2036   3.894   0.816   9.893  0.3222 -0.0754  0.2012
  131TMC2    C4 2037   3.747   0.774  10.115 -0.7161 -0.5273 -1.2047
  131TMC2    C5 2038   3.817   0.890  10.092  0.2931 -0.5662 -0.4095
  131TMC2    C6 2039   3.898   0.910   9.986 -0.1764  0.4171  0.4199
  131TMC2     C 2040   3.676   0.552  10.033 -0.3472  0.9172  0.0526
  131TMC2     O 2041   3.617   0.532  10.140 -0.5714 -0.4175  0.5646
  131TMC2     H 2042   3.854   0.617   9.847 -0.0613  1.1622 -1.3669
  131TMC2    H1 2043   3.677   0.778  10.198 -0.4014  1.8905 -1.0404
  131TMC2    H2 2044   3.963   0.996   9.975  1.2472 -0.8916 -1.2596
  131TMC2    C7 2045   3.780   0.998  10.181 -0.2647 -0.2080  0.0762
  131TMC2    C8 2046   3.974   0.821   9.777 -0.1456 -0.2208 -0.4843
  131TMC2    O1 2047   3.733   0.985  10.294 -0.3762 -0.4336 -0.4396
  131TMC2    O2 2048   4.045   0.731   9.748  0.2268 -0.0843  0.2598
  131TMC2    O5 2049   3.980   0.947   9.719 -0.1782  0.1779  0.1326
  131TMC2    H5 2050   3.917   1.010   9.761 -2.0672  0.3327 -2.9121
  132MPD2     C 2051   3.550   0.333   9.780 -0.4296 -0.0877 -0.7366
  132MPD2    C1 2052   3.580   0.374   9.904  0.5763 -0.1457 -0.4928
  132MPD2    C2 2053   3.542   0.287  10.010  0.3758 -0.4326 -0.0570
  132MPD2    C3 2054   3.476   0.168   9.985  0.1296 -0.8085 -0.1528
  132MPD2    C4 2055   3.435   0.138   9.858  0.1618  0.1538 -0.1634
  132MPD2    C5 2056   3.479   0.218   9.758  0.2132  0.0557 -0.4675
  132MPD2     H 2057   3.564   0.300  10.116 -0.6673  1.7481 -0.0969
  132MPD2    H1 2058   3.378   0.047   9.841 -0.4656  0.7755 -1.3743
  132MPD2    H2 2059   3.572   0.395   9.694  0.1848 -2.2211 -2.1148
  132MPD2    H3 2060   3.461   0.190   9.654  1.8594  1.1948 -1.0532
  132MPD2     N 2061   3.446   0.087  10.100 -0.2694  0.4307  0.5456
  132MPD2    H5 2062   3.486   0.113  10.190  0.1374  0.1246  0.4558
  132MPD2    N1 2063   3.639   0.500   9.914 -0.4391 -0.2205 -0.0699
  132MPD2    H7 2064   3.663   0.550   9.829 -1.3786  1.4549  0.6499
  133TMC2    C1 2065   1.241   1.572   9.211  0.3696 -0.0448  0.4899
  133TMC2    C2 2066   1.274   1.680   9.128  1.1948 -0.6269 -0.3192
  133TMC2    C3 2067   1.211   1.693   9.010 -0.1512  0.5946 -0.4020
  133TMC2    C4 2068   1.157   1.477   9.172 -0.1956 -0.0830  0.8068
  133TMC2    C5 2069   1.103   1.487   9.044  0.1411  1.1636  0.1704
  133TMC2    C6 2070   1.121   1.600   8.966  0.0048 -0.1113 -0.4513
  133TMC2     C 2071   1.330   1.532   9.316  0.4620 -0.8010 -0.6218
  133TMC2     O 2072   1.341   1.410   9.333  0.4408  0.0856 -0.7845
  133TMC2     H 2073   1.358   1.743   9.155  1.1376  0.5338 -2.8857
  133TMC2    H1 2074   1.141   1.388   9.231  1.2319 -0.4415  0.6562
  133TMC2    H2 2075   1.068   1.620   8.874 -0.2400 -1.1258 -0.5373
  133TMC2    C7 2076   1.003   1.390   8.996 -0.8094 -0.4371 -0.3194
  133TMC2    C8 2077   1.278   1.787   8.920 -0.2469 -0.6062 -0.6989
  133TMC2    O1 2078   0.933   1.419   8.894 -0.2874  0.9286  0.4426
  133TMC2    O2 2079   1.354   1.872   8.963  0.4321  0.0057  0.5184
  133TMC2    O5 2080   1.283   1.731   8.797  0.3490 -0.3755 -0.3795
  133TMC2    H5 2081   1.266   1.635   8.791  0.2726 -0.2804 -1.6404
  134MPD2     C 2082   1.491   1.758   9.567 -0.8845 -0.3801  0.5318
  134MPD2    C1 2083   1.466   1.633   9.503  0.1329 -0.1950 -0.7281
  134MPD2    C2 2084   1.538   1.521   9.535  0.4373  0.6118 -0.0823
  134MPD2    C3 2085   1.635   1.526   9.631  0.6924 -0.3321 -0.0188
  134MPD2    C4 2086   1.655   1.641   9.701  0.4756 -0.0622  0.2689
  134MPD2    C5 2087   1.584   1.756   9.663  0.3993  0.0833 -0.2766
  134MPD2     H 2088   1.524   1.430   9.479 -1.3453 -0.2886  1.8191
  134MPD2    H1 2089   1.727   1.653   9.781  0.1766 -1.1304  0.7034
  134MPD2    H2 2090   1.420   1.840   9.558  0.3902  0.5338 -1.2154
  134MPD2    H3 2091   1.612   1.847   9.715  2.2423  1.0448 -2.9076
  134MPD2     N 2092   1.726   1.429   9.666  0.1557  0.0023  0.4048
  134MPD2    H5 2093   1.807   1.458   9.721  1.9994 -1.2739 -1.6295
  134MPD2    N1 2094   1.377   1.633   9.393 -0.0595 -0.0548 -0.7515
  134MPD2    H7 2095   1.353   1.725   9.359 -2.0661 -0.5440 -0.7203
  135TMC2    C1 2096   4.708   2.949   9.926 -0.2002  0.4189 -0.4897
  135TMC2    C2 2097   4.572   2.945   9.910  0.6335  0.7978  0.0244
  135TMC2    C3 2098   4.516   2.822   9.895  0.0712  0.4766 -0.9777
  135TMC2    C4 2099   0.040   2.832   9.932  0.5395 -0.0490 -0.2778
  135TMC2    C5 2100   4.711   2.711   9.935 -0.2209 -0.2321 -0.1943
  135TMC2    C6 2101   4.579   2.701   9.906  0.0853  0.4394  0.7521
  135TMC2     C 2102   0.040   3.067   9.875 -0.3266 -0.1470  0.7096
  135TMC2     O 2103   4.729   3.180   9.889  0.6064  0.1782  0.4881
  135TMC2     H 2104   4.516   3.037   9.917  1.1421  1.0229  1.2578
  135TMC2    H1 2105   0.146   2.834   9.957  0.3671  0.8211  0.3639
  135TMC2    H2 2106   4.530   2.607   9.883  0.5522  0.8847 -2.0589
  135TMC2    C7 2107   0.047   2.588   9.943  0.4707 -0.2622  0.3063
  135TMC2    C8 2108   4.370   2.807   9.866 -0.1880 -0.3338 -0.1989
  135TMC2    O1 2109   0.151   2.585   9.884 -0.1566  0.0672 -0.3306
  135TMC2    O2 2110   4.312   2.705   9.890 -0.2008  0.1716 -0.2223
  135TMC2    O5 2111   4.323   2.916   9.803 -0.7612 -0.0783 -0.4988
  135TMC2    H5 2112   4.386   2.990   9.796  2.2480 -2.5462  0.5466
  136MPD2     C 2113   0.268   3.234   9.775  0.3605 -0.5655 -0.0084
  136MPD2    C1 2114   0.237   3.111   9.726 -0.7654  0.9372  0.2048
  136MPD2    C2 2115   0.317   3.059   9.624  0.0900 -0.5371 -0.1134
  136MPD2    C3 2116   0.426   3.135   9.571  0.7078 -0.3094 -0.1563
  136MPD2    C4 2117   0.445   3.265   9.613 -0.3047  0.8319 -0.5399
  136MPD2    C5 2118   0.358   3.313   9.710  0.4665 -0.8067 -0.7283
  136MPD2     H 2119   0.294   2.958   9.595  2.3866 -0.4672 -2.1601
  136MPD2    H1 2120   0.521   3.326   9.566 -0.3500  0.1022 -1.5588
  136MPD2    H2 2121   0.216   3.282   9.858  1.7851  1.9745 -0.5619
  136MPD2    H3 2122   0.371   3.411   9.753 -2.6392  0.4436 -2.6068
  136MPD2     N 2123   0.503   3.090   9.464 -0.8375  0.5294  0.4029
  136MPD2    H5 2124   0.585   3.145   9.441  1.7442 -2.4046  2.6143
  136MPD2    N1 2125   0.137   3.024   9.787  0.1430  0.6175 -0.2942
  136MPD2    H7 2126   0.140   2.926   9.761 -0.2217  0.2462  1.0818
  137TMC2    C1 2127   0.228   1.988   9.582  0.5035  0.4297 -0.2439
  137TMC2    C2 2128   0.294   2.035   9.468  0.2572 -0.5477  0.6275
  137TMC2    C3 2129   0.233   2.138   9.406 -0.0338  0.2825  0.2885
  137TMC2    C4 2130   0.107   2.042   9.619 -0.2272  0.4314  0.3242
  137TMC2    C5 2131   0.062   2.156   9.563  0.5511 -0.2428 -0.6240
  137TMC2    C6 2132   0.129   2.211   9.453  0.1894 -0.0188 -0.2087
  137TMC2     C 2133   0.237   1.854   9.623 -0.0233 -0.1319 -0.5242
  137TMC2     O 2134   0.217   1.828   9.742  0.1510 -0.0484  0.0572
  137TMC2     H 2135   0.391   2.000   9.435 -1.8661 -4.8824 -0.9366
  137TMC2    H1 2136   0.065   2.000   9.709 -0.9773  2.0190  0.7102
  137TMC2    H2 2137   0.098   2.304   9.407  0.6037  0.2008 -0.0432
  137TMC2    C7 2138   4.676   2.218   9.612 -0.4677 -0.6582 -0.3933
  137TMC2    C8 2139   0.315   2.211   9.306 -0.4132 -0.2717  0.0468
  137TMC2    O1 2140   4.665   2.339   9.580  0.1954 -0.0008 -0.2587
  137TMC2    O2 2141   0.435   2.215   9.315 -0.7590 -0.4387 -0.1575
  137TMC2    O5 2142   0.252   2.210   9.193 -0.5949 -0.0053 -0.1604
  137TMC2    H5 2143   0.155   2.193   9.199 -0.7315  1.0267  0.6362
  138MPD2     C 2144   0.242   1.575   9.395 -0.0798 -0.5880 -0.4471
  138MPD2    C1 2145   0.218   1.635   9.515 -0.0011 -0.4692 -0.0924
  138MPD2    C2 2146   0.162   1.567   9.619 -0.0161 -0.2413  0.0030
  138MPD2    C3 2147   0.136   1.433   9.608  0.7899 -0.2565 -0.0436
  138MPD2    C4 2148   0.175   1.366   9.493  0.3426 -0.0440 -0.1276
  138MPD2    C5 2149   0.221   1.442   9.385  0.0456  0.3128 -0.0474
  138MPD2     H 2150   0.141   1.617   9.713  1.3950 -1.7850  1.1265
  138MPD2    H1 2151   0.168   1.258   9.491 -1.0380  0.0128  0.9035
  138MPD2    H2 2152   0.282   1.634   9.313 -1.8381 -0.4809 -1.2195
  138MPD2    H3 2153   0.265   1.394   9.299 -1.2305  0.6212 -0.8637
  138MPD2     N 2154   0.102   1.375   9.733 -0.0486  0.3828 -0.0887
  138MPD2    H5 2155   0.087   1.438   9.812 -1.5453 -0.8943  0.6406
  138MPD2    N1 2156   0.240   1.776   9.508  0.1183 -0.1217 -0.7299
  138MPD2    H7 2157   0.240   1.822   9.418  0.9413 -0.4721 -0.9114
  139TMC2    C1 2158   0.527   0.193  13.930  0.1333 -0.0990  0.2507
  139TMC2    C2 2159   0.592   0.260  14.030 -0.0485 -0.8367  0.5474
  139TMC2    C3 2160   0.527   0.371  14.084 -0.3059  0.6098  0.5346
  139TMC2    C4 2161   0.405   0.237  13.887  0.1192 -0.3979  0.4239
  139TMC2    C5 2162   0.340   0.340  13.942  0.8238  0.0097  0.1098
  139TMC2    C6 2163   0.401   0.413  14.044 -0.5875 -0.0667  0.0112
  139TMC2     C 2164   0.580   0.065  13.893 -0.4640  0.0861  0.0170
  139TMC2     O 2165   0.700   0.048  13.905  0.3729 -0.4002 -0.1402
  139TMC2     H 2166   0.692   0.229  14.059  0.2523 -1.0985 -0.7718
  139TMC2    H1 2167   0.363   0.189  13.799 -0.1459  1.1599 -0.2956
  139TMC2    H2 2168   0.353   0.494  14.099 -0.4891 -1.0015  1.4809
  139TMC2    C7 2169   0.200   0.383  13.898 -0.1295 -0.2690 -0.3694
  139TMC2    C8 2170   0.599   0.454  14.182  0.6103  0.7280 -0.8149
  139TMC2    O1 2171   0.153   0.470  13.979 -0.0172 -0.5049 -0.2279
  139TMC2    O2 2172   0.573   0.574  14.188  0.1304 -0.5445 -0.0296
  139TMC2    O5 2173   0.633   0.374  14.287 -0.0397  0.2799  0.0919
  139TMC2    H5 2174   0.603   0.282  14.276  1.6468 -0.1444 -0.9253
  140MPD2     C 2175   0.382   4.504  13.899 -1.0403 -0.0057  0.4572
  140MPD2    C1 2176   0.496   4.570  13.872 -0.5208  0.5838 -0.2956
  140MPD2    C2 2177   0.610   4.506  13.821 -0.9719 -0.2824  0.2915
  140MPD2    C3 2178   0.609   4.368  13.794  0.2147  0.3394  0.0985
  140MPD2    C4 2179   0.493   4.298  13.826  0.5884 -0.0752 -0.8486
  140MPD2    C5 2180   0.379   4.365  13.880 -0.2963  0.4749 -0.5680
  140MPD2     H 2181   0.701   4.563  13.809 -1.2445 -0.2159 -1.3436
  140MPD2    H1 2182   0.480   4.193  13.803  0.0828 -0.4799  1.2507
  140MPD2    H2 2183   0.303   4.550  13.958 -1.1605 -0.0293  0.3138
  140MPD2    H3 2184   0.292   4.301  13.884 -0.2740  0.4411 -0.6302
  140MPD2     N 2185   0.722   4.300  13.736  0.1043  0.0295 -0.5619
  140MPD2    H5 2186   0.802   4.358  13.713 -0.1403 -0.7265 -3.3188
  140MPD2    N1 2187   0.480   4.711  13.893  0.4484 -1.0312  0.1024
  140MPD2    H7 2188   0.384   0.001  13.903  0.8003  0.9548 -2.1426
  141TMC2    C1 2189   0.526   2.031  14.400  0.6701 -0.4787 -0.4358
  141TMC2    C2 2190   0.396   2.048  14.379 -0.0169  0.3271  0.0008
  141TMC2    C3 2191   0.332   2.150  14.440 -0.3074  0.7986 -0.3063
  141TMC2    C4 2192   0.599   2.125  14.474  0.1613 -0.3739  0.2183
  141TMC2    C5 2193   0.526   2.220  14.540 -0.0847  0.6110 -0.3586
  141TMC2    C6 2194   0.392   2.232  14.529  0.0701 -0.4422 -0.0457
  141TMC2     C 2195   0.586   1.923  14.328  0.3520  0.0349  0.1015
  141TMC2     O 2196   0.514   1.876  14.239  0.0858 -0.0150 -0.2472
  141TMC2     H 2197   0.336   1.977  14.324  2.2934 -0.4189 -1.5449
  141TMC2    H1 2198   0.700   2.154  14.447 -0.5475  0.7009 -1.3247
  141TMC2    H2 2199   0.324   2.306  14.569 -0.8934 -0.3227 -1.9028
  141TMC2    C7 2200   0.592   2.307  14.632 -0.5099 -0.3315 -0.3322
  141TMC2    C8 2201   0.190   2.153  14.438 -0.4732  0.0268 -0.3500
  141TMC2    O1 2202   0.523   2.401  14.665  0.6684  0.0265 -0.5000
  141TMC2    O2 2203   0.132   2.109  14.338  0.5543 -0.4484 -0.2508
  141TMC2    O5 2204   0.148   2.137  14.570  0.5411  0.2017 -0.0877
  141TMC2    H5 2205   0.222   2.147  14.634 -1.0212  0.1571  1.7230
  142TMC2    C1 2206   3.827   4.707   9.971 -0.1695 -0.3873 -0.4058
  142TMC2    C2 2207   3.898   4.678   9.857 -0.7100 -0.0330 -0.7698
  142TMC2    C3 2208   3.978   0.037   9.806 -0.6372  0.0404 -0.2776
  142TMC2    C4 2209   3.832   0.088  10.035 -0.1305  0.4512 -0.9011
  142TMC2    C5 2210   3.922   0.174   9.987  0.0473 -0.0705  0.0915
  142TMC2    C6 2211   3.988   0.160   9.867  0.4595 -0.1674  0.0863
  142TMC2     C 2212   3.731   4.610  10.030 -0.0862 -0.3228 -0.4872
  142TMC2     O 2213   3.700   4.524   9.947  0.0278 -0.3301  0.1320
  142TMC2     H 2214   3.884   4.584   9.806 -0.2235 -0.6258  0.2036
  142TMC2    H1 2215   3.767   0.114  10.118  0.2757  1.5855 -0.9357
  142TMC2    H2 2216   4.061   0.230   9.828 -0.0498 -0.6307 -1.7033
  142TMC2    C7 2217   3.966   0.272  10.081 -0.2221 -0.2856  0.5600
  142TMC2    C8 2218   4.078   0.012   9.703  0.0173  0.1712  0.0395
  142TMC2    O1 2219   3.926   0.250  10.196 -0.2808 -0.4228 -0.0704
  142TMC2    O2 2220   4.132   4.643   9.676  0.1136  0.2485  0.5544
  142TMC2    O5 2221   4.060   0.118   9.617  0.1670  0.1632  0.2908
  142TMC2    H5 2222   3.983   0.170   9.649  0.6635  1.6028 -0.8137
  143MPD2     C 2223   3.510   4.363  10.433  0.4375  0.5429  0.6713
  143MPD2    C1 2224   3.480   4.352  10.297 -0.0386  0.0096  0.4694
  143MPD2    C2 2225   3.549   4.433  10.205  0.4062 -0.2451 -0.1670
  143MPD2    C3 2226   3.638   4.527  10.252 -0.0091 -0.6612 -0.1588
  143MPD2    C4 2227   3.648   4.548  10.381 -0.0966 -1.1592  0.2263
  143MPD2    C5 2228   3.587   4.466  10.465 -0.9607 -0.2662  0.5905
  143MPD2     H 2229   3.529   4.418  10.100  2.8295  1.8621 -0.9376
  143MPD2    H1 2230   3.711   4.623  10.428  0.2415 -1.4824  0.2902
  143MPD2    H2 2231   3.470   4.295  10.508  1.7449 -0.9719 -0.0121
  143MPD2    H3 2232   3.630   4.477  10.564  0.6807 -0.3744 -0.1039
  143MPD2     N 2233   3.715   4.615  10.171 -0.1346 -0.4778 -0.1102
  143MPD2    H5 2234   3.770   4.676  10.231 -1.6648 -0.1675  0.9624
  143MPD2    N1 2235   3.374   4.268  10.265  0.4874  0.1563  0.2120
  143MPD2    H7 2236   3.333   4.208  10.336 -1.1979 -2.1350 -2.6824
  144TMC2    C1 2237   1.546   3.622   0.684  0.5295 -0.1716 -0.0733
  144TMC2    C2 2238   1.603   3.522   0.610 -0.0799 -0.6291  0.3548
  144TMC2    C3 2239   1.733   3.485   0.639 -0.0641 -0.2521  0.0139
  144TMC2    C4 2240   1.617   3.689   0.785  0.6214  0.9072 -0.0979
  144TMC2    C5 2241   1.754   3.662   0.790  0.3473  0.5109 -1.0536
  144TMC2    C6 2242   1.809   3.545   0.734 -0.1330  0.5094 -0.8368
  144TMC2     C 2243   1.408   3.654   0.656  0.3783 -0.5350  0.0338
  144TMC2     O 2244   1.357   3.609   0.552  0.3711 -0.3492  0.1152
  144TMC2     H 2245   1.541   3.484   0.529  1.8428 -1.8298 -0.5518
  144TMC2    H1 2246   1.576   3.784   0.819  1.6248  1.4271 -0.3495
  144TMC2    H2 2247   1.912   3.512   0.744 -0.2200  0.0578 -1.4804
  144TMC2    C7 2248   1.835   3.715   0.897 -0.5590  0.3531 -0.5481
  144TMC2    C8 2249   1.793   3.382   0.562  0.6422  1.1758 -0.2318
  144TMC2    O1 2250   1.952   3.686   0.895  0.0149  0.9254  0.9820
  144TMC2    O2 2251   1.874   3.299   0.603  0.2924 -0.1918 -0.1322
  144TMC2    O5 2252   1.742   3.379   0.437 -0.4799  0.1962  0.5773
  144TMC2    H5 2253   1.713   3.469   0.409 -0.6635  0.3757  1.3355
  145MPD2     C 2254   0.962   3.898   0.716 -0.0095  0.5573 -0.0264
  145MPD2    C1 2255   0.996   3.787   0.645  0.1663 -0.7025 -0.4642
  145MPD2    C2 2256   1.122   3.735   0.659 -0.3677 -0.1906  0.1008
  145MPD2    C3 2257   1.213   3.788   0.746  0.6328 -0.4711  0.2231
  145MPD2    C4 2258   1.173   3.890   0.825  1.0259  0.1008  0.5331
  145MPD2    C5 2259   1.047   3.945   0.814  0.4387 -0.1155 -0.0609
  145MPD2     H 2260   1.145   3.638   0.617 -3.2185 -1.3294  1.2109
  145MPD2    H1 2261   1.238   3.925   0.904  1.8903  1.1252 -0.6211
  145MPD2    H2 2262   0.866   3.945   0.697 -0.9191 -1.4786 -0.5110
  145MPD2    H3 2263   1.012   4.020   0.884  1.4893 -0.1454  0.5070
  145MPD2     N 2264   1.352   3.741   0.749  0.2597  0.8383 -0.3051
  145MPD2    H5 2265   1.412   3.780   0.821 -0.2280 -1.9502  1.6296
  145MPD2    N1 2266   0.911   3.725   0.546 -0.1175 -0.5107  0.1567
  145MPD2    H7 2267   0.939   3.633   0.514 -1.1456 -0.9681  0.5614
  146TMC2    C1 2268   2.215   2.543  12.758  0.1853 -0.2100 -0.2420
  146TMC2    C2 2269   2.105   2.612  12.722  0.3800  0.0741 -0.0109
  146TMC2    C3 2270   1.999   2.543  12.664  0.0530 -0.0405  0.2001
  146TMC2    C4 2271   2.228   2.410  12.718  0.4333 -0.3096 -0.4347
  146TMC2    C5 2272   2.128   2.352  12.648  0.0514  1.1128 -0.2412
  146TMC2    C6 2273   2.011   2.419  12.616 -0.1744  0.0493  0.5005
  146TMC2     C 2274   2.330   2.611  12.818 -0.2123  0.5950 -0.6465
  146TMC2     O 2275   2.335   2.729  12.791 -0.0120 -0.0800 -0.1588
  146TMC2     H 2276   2.092   2.706  12.776  1.0863  1.1339 -1.6743
  146TMC2    H1 2277   2.320   2.357  12.741 -0.5610 -1.0629  1.8585
  146TMC2    H2 2278   1.924   2.373  12.572  0.8747  0.7764 -2.3309
  146TMC2    C7 2279   2.134   2.215  12.596 -0.0289 -0.9990 -0.1268
  146TMC2    C8 2280   1.880   2.616  12.623  0.3591 -0.0615  0.4526
  146TMC2    O1 2281   2.035   2.177  12.538  0.1373 -1.2043 -0.6604
  146TMC2    O2 2282   1.800   2.575  12.539  0.3324  0.4578 -0.6801
  146TMC2    O5 2283   1.871   2.732  12.686  0.0664 -0.6419  1.0318
  146TMC2    H5 2284   1.920   2.744  12.770  0.4857  0.1210  0.6777
  147MPD2     C 2285   2.351   1.752  12.536  0.4349 -0.3585  0.3859
  147MPD2    C1 2286   2.435   1.828  12.613  0.4303 -0.5898 -0.3212
  147MPD2    C2 2287   2.397   1.958  12.639  0.2778 -0.1977  0.4907
  147MPD2    C3 2288   2.277   2.015  12.602 -0.3009  0.2317  0.2879
  147MPD2    C4 2289   2.190   1.935  12.533 -0.5544 -0.0767  0.5810
  147MPD2    C5 2290   2.234   1.811  12.497  0.2660 -0.1512 -0.3104
  147MPD2     H 2291   2.468   2.025  12.687 -1.1465  2.2140 -0.7595
  147MPD2    H1 2292   2.097   1.966  12.488 -0.4780  0.2209  0.6323
  147MPD2    H2 2293   2.383   1.654  12.502 -1.1750 -1.3172  1.6407
  147MPD2    H3 2294   2.173   1.749  12.432  1.7701 -2.6689  0.6997
  147MPD2     N 2295   2.244   2.147  12.642 -0.5927  0.1260 -0.2291
  147MPD2    H5 2296   2.309   2.203  12.696 -0.1122 -0.4164 -0.2378
  147MPD2    N1 2297   2.560   1.766  12.655  0.0241  0.2658  0.5772
  147MPD2    H7 2298   2.588   1.681  12.608  0.2307  0.3721  0.5082
  148TMC2    C1 2299   2.821   1.295  10.581  0.4153  0.4393 -0.1045
  148TMC2    C2 2300   2.823   1.321  10.714  1.0542 -0.9949  0.1025
  148TMC2    C3 2301   2.884   1.235  10.803  0.0534 -0.3229 -0.0260
  148TMC2    C4 2302   2.897   1.191  10.526 -0.0867 -0.0972 -0.2798
  148TMC2    C5 2303   2.975   1.118  10.615  0.0702  0.7727 -0.2290
  148TMC2    C6 2304   2.961   1.129  10.751 -0.4857  0.0812 -0.0665
  148TMC2     C 2305   2.689   1.298  10.528 -0.2049  0.0094 -0.0320
  148TMC2     O 2306   2.622   1.390  10.570 -0.7018  0.1058  0.0402
  148TMC2     H 2307   2.764   1.404  10.752 -2.4926 -3.2801 -0.3594
  148TMC2    H1 2308   2.902   1.173  10.419 -0.9875  0.8003 -0.4618
  148TMC2    H2 2309   2.998   1.064  10.830  1.8905  1.1140 -0.3571
  148TMC2    C7 2310   3.012   0.987  10.564 -0.8373 -0.7447  0.7049
  148TMC2    C8 2311   2.848   1.258  10.940  0.6063  0.1545  0.0778
  148TMC2    O1 2312   2.974   0.969  10.451  0.0812 -0.1938  0.2334
  148TMC2    O2 2313   2.751   1.315  10.985  0.5724 -0.4965  0.0685
  148TMC2    O5 2314   2.949   1.201  11.012 -0.6699 -0.4561 -0.5161
  148TMC2    H5 2315   3.029   1.162  10.971 -0.3839  0.1910 -0.5766
  149MPD2     C 2316   2.435   1.230  10.394 -0.5035  0.2025  0.2611
  149MPD2    C1 2317   2.541   1.145  10.407 -0.7880 -0.2736 -0.5648
  149MPD2    C2 2318   2.529   1.018  10.360  0.2636 -0.1262 -0.2480
  149MPD2    C3 2319   2.417   0.973  10.301 -0.3080 -0.3611  0.5919
  149MPD2    C4 2320   2.314   1.065  10.282  0.2718  0.2183  0.1201
  149MPD2    C5 2321   2.322   1.190  10.339 -0.7498 -0.0470  0.0120
  149MPD2     H 2322   2.613   0.957  10.388  0.7904  0.3902 -0.7073
  149MPD2    H1 2323   2.217   1.036  10.244  0.1060 -0.8983  1.3949
  149MPD2    H2 2324   2.432   1.335  10.424 -4.5615  0.4157 -0.8149
  149MPD2    H3 2325   2.237   1.258  10.336 -3.1361 -3.1424 -2.1459
  149MPD2     N 2326   2.396   0.833  10.273  0.3109 -0.1090 -0.0679
  149MPD2    H5 2327   2.312   0.802  10.225  0.4483  0.6563 -0.8009
  149MPD2    N1 2328   2.662   1.180  10.470 -0.3791  0.2546  0.2768
  149MPD2    H7 2329   2.730   1.106  10.480 -2.2306 -1.4028  0.6254
  150TMC2    C1 2330   4.649   0.435  12.320 -0.7513  0.0690  0.6205
  150TMC2    C2 2331   4.598   0.449  12.443  0.1261 -0.3483 -0.1563
  150TMC2    C3 2332   4.663   0.533  12.539  0.7011  0.0514  0.1475
  150TMC2    C4 2333   0.036   0.490  12.290 -0.0788  0.0838  0.0657
  150TMC2    C5 2334   0.098   0.560  12.388 -0.0696  0.4181 -0.5321
  150TMC2    C6 2335   0.046   0.587  12.508  0.4035 -0.3357 -0.7307
  150TMC2     C 2336   4.568   0.377  12.214 -0.1004  0.1954  0.7980
  150TMC2     O 2337   4.628   0.347  12.112  0.4208  0.1184  0.2085
  150TMC2     H 2338   4.505   0.404  12.476  0.2486 -0.3751  0.1509
  150TMC2    H1 2339   0.091   0.461  12.201  1.3075  0.8599  0.6772
  150TMC2    H2 2340   0.102   0.636  12.586 -0.6303  1.1565 -0.9281
  150TMC2    C7 2341   0.244   0.571  12.395  0.2280  0.0769  0.3140
  150TMC2    C8 2342   4.666   0.497  12.678  0.7551 -0.3936 -0.5366
  150TMC2    O1 2343   0.286   0.677  12.439  0.0889 -0.2780 -0.0475
  150TMC2    O2 2344   0.028   0.468  12.739 -0.0419  0.4142  0.3752
  150TMC2    O5 2345   4.538   0.466  12.711 -0.1695  0.6870 -0.3161
  150TMC2    H5 2346   4.472   0.511  12.655 -1.8628  0.0856  1.1922
  151MPD2     C 2347   4.115   0.223  12.011 -0.4096  0.0874 -0.4098
  151MPD2    C1 2348   4.239   0.233  11.955  0.4644  0.0271 -0.5071
  151MPD2    C2 2349   4.347   0.282  12.031  0.0521 -0.7155  0.9048
  151MPD2    C3 2350   4.330   0.324  12.156  1.0069  0.5420  0.6517
  151MPD2    C4 2351   4.204   0.318  12.216 -0.3958  0.5938 -0.2844
  151MPD2    C5 2352   4.101   0.261  12.143  0.4997 -0.2631  0.8974
  151MPD2     H 2353   4.443   0.286  11.981 -0.3825  1.1460  0.1940
  151MPD2    H1 2354   4.192   0.354  12.318 -2.2156  2.5393 -1.1692
  151MPD2    H2 2355   4.025   0.208  11.953 -0.3806  0.5836 -0.5822
  151MPD2    H3 2356   4.007   0.251  12.198  0.3444  1.9260  1.0323
  151MPD2     N 2357   4.430   0.383  12.243 -0.4176 -0.4839 -0.3468
  151MPD2    H5 2358   4.405   0.414  12.336  0.3198 -2.4934  0.5316
  151MPD2    N1 2359   4.249   0.204  11.813 -0.1583 -0.2684  0.6027
  151MPD2    H7 2360   4.167   0.163  11.770 -0.0149  2.6518 -2.4590
  152TMC2    C1 2361   4.391   0.136  12.850 -0.4333 -0.3064 -1.1592
  152TMC2    C2 2362   4.436   0.119  12.721  0.0638 -0.2088 -0.2597
  152TMC2    C3 2363   4.572   0.122  12.707 -0.2000  0.1413  0.8734
  152TMC2    C4 2364   4.478   0.181  12.949 -0.6791 -0.5516  0.5500
  152TMC2    C5 2365   4.613   0.203  12.921  0.0888  0.2146 -0.9787
  152TMC2    C6 2366   4.661   0.166  12.799 -0.2140 -0.0762 -0.0100
  152TMC2     C 2367   4.245   0.162  12.872  0.4262  0.2609 -0.8458
  152TMC2     O 2368   4.179   0.153  12.771 -0.7564 -0.4052  0.2798
  152TMC2     H 2369   4.367   0.082  12.646  2.0817 -2.0695 -1.2262
  152TMC2    H1 2370   4.435   0.214  13.043 -0.3847 -0.6041  0.7023
  152TMC2    H2 2371   0.027   0.162  12.774 -0.7939  0.7050 -2.5910
  152TMC2    C7 2372   4.701   0.253  13.024  0.1021  0.4903 -0.2308
  152TMC2    C8 2373   4.618   0.120  12.575  0.1618 -0.4181 -0.0849
  152TMC2    O1 2374   4.655   0.253  13.139 -0.3995  0.2484  0.0230
  152TMC2    O2 2375   4.540   0.141  12.482  0.2977  0.1945 -0.2205
  152TMC2    O5 2376   4.719   0.032  12.575 -0.3202  0.5137  0.2016
  152TMC2    H5 2377   0.012   0.020  12.668 -1.3913  0.7652  0.6035
  153MPD2     C 2378   4.030   0.135  13.173  0.3340 -0.3972  0.5358
  153MPD2    C1 2379   4.065   0.161  13.042 -0.2976 -0.7810 -0.1461
  153MPD2    C2 2380   3.957   0.175  12.955  0.1868  0.1475 -0.4294
  153MPD2    C3 2381   3.825   0.176  12.996  0.0291 -0.5979  0.0799
  153MPD2    C4 2382   3.798   0.166  13.129  0.7995  0.1177 -0.6812
  153MPD2    C5 2383   3.902   0.137  13.211 -0.5550 -0.3643 -0.8949
  153MPD2     H 2384   3.982   0.183  12.850  2.1584 -1.0818 -0.0766
  153MPD2    H1 2385   3.695   0.149  13.159  1.2357 -1.3221  0.0193
  153MPD2    H2 2386   4.109   0.094  13.235 -0.5459 -3.3001 -0.2601
  153MPD2    H3 2387   3.874   0.107  13.311 -1.1038  0.5007 -0.7959
  153MPD2     N 2388   3.719   0.196  12.899  0.5324 -0.2604 -0.1235
  153MPD2    H5 2389   3.745   0.204  12.801  0.2352 -1.4759 -0.3072
  153MPD2    N1 2390   4.201   0.161  13.006  0.4893  0.0791 -0.7559
  153MPD2    H7 2391   4.264   0.148  13.084  0.6605  1.6493 -0.6420
  154TMC2    C1 2392   2.064   4.465   0.030 -0.2153 -0.2905  0.0209
  154TMC2    C2 2393   2.194   4.493   0.059 -0.0059  0.6925 -0.0968
  154TMC2    C3 2394   2.289   4.455  17.728 -0.8067  0.5176  0.0082
  154TMC2    C4 2395   2.021   4.397  17.674  0.5241  0.2559 -0.4479
  154TMC2    C5 2396   2.126   4.340  17.603  0.5419  0.3049  0.7686
  154TMC2    C6 2397   2.263   4.365  17.624 -0.1559 -0.8351 -0.2064
  154TMC2     C 2398   1.963   4.524   0.119 -0.3705  0.6932 -0.0997
  154TMC2     O 2399   2.007   4.615   0.183 -0.0622  0.1991 -0.3451
  154TMC2     H 2400   2.220   4.559   0.141 -0.1658  0.5450  0.0714
  154TMC2    H1 2401   1.919   4.371  17.650  1.6129 -1.3420 -3.3352
  154TMC2    H2 2402   2.349   4.322  17.575  1.0127  1.0491  0.1931
  154TMC2    C7 2403   2.092   4.257  17.496  0.4316 -0.3501  0.7573
  154TMC2    C8 2404   2.425   4.459   0.021  0.7500 -0.6265 -0.5044
  154TMC2    O1 2405   1.983   4.265  17.438  0.4700  0.0211 -0.4415
  154TMC2    O2 2406   2.453   4.497   0.133 -0.1146  0.3400 -0.0222
  154TMC2    O5 2407   2.509   4.467  17.664 -0.1715  0.0370  0.1663
  154TMC2    H5 2408   2.460   4.473  17.579 -0.4106  0.4121  0.3320
  155MPD2     C 2409   1.639   4.419   0.229 -0.8328  0.2796  0.0133
  155MPD2    C1 2410   1.752   4.496   0.220 -0.2374  0.0697 -0.3170
  155MPD2    C2 2411   1.752   4.614   0.294  0.2467  0.1908  0.3608
  155MPD2    C3 2412   1.666   4.635   0.401  0.4803 -0.5139  0.0120
  155MPD2    C4 2413   1.554   4.558   0.408  0.1485  0.6651 -0.3819
  155MPD2    C5 2414   1.540   4.453   0.319  0.5096  0.3292 -0.4097
  155MPD2     H 2415   1.838   4.680   0.286  0.0201  0.3024 -1.2421
  155MPD2    H1 2416   1.476   4.589   0.477 -0.4613 -3.1385  0.6765
  155MPD2    H2 2417   1.628   4.333   0.163  1.2565 -0.9341  1.2619
  155MPD2    H3 2418   1.446   4.400   0.314  0.8683 -0.3930  0.3566
  155MPD2     N 2419   1.694   0.000   0.491  0.1924 -0.1166 -0.8994
  155MPD2    H5 2420   1.777   0.056   0.475 -0.6333  1.2609 -0.4298
  155MPD2    N1 2421   1.848   4.459   0.128  0.4377  0.2764 -0.4417
  155MPD2    H7 2422   1.838   4.370   0.079  0.2069 -1.0992  2.0970
  156TMC2    C1 2423   4.628   2.479  11.161 -0.2705  0.7795  0.0638
  156TMC2    C2 2424   0.011   2.525  11.109  0.0539  0.1054  0.3031
  156TMC2    C3 2425   0.031   2.654  11.075  0.2452  0.3575  0.0340
  156TMC2    C4 2426   4.537   2.573  11.187 -0.4483 -0.1207  0.0457
  156TMC2    C5 2427   4.562   2.701  11.152  0.1720 -0.0042  0.9957
  156TMC2    C6 2428   4.677   2.754  11.097  0.0384  0.9606  0.9857
  156TMC2     C 2429   4.649   2.418  11.287 -0.7163 -0.2338  0.2693
  156TMC2     O 2430   4.596   2.481  11.379 -0.1376 -0.0715 -0.5291
  156TMC2     H 2431   0.077   2.449  11.068 -0.6788 -0.6837  0.5891
  156TMC2    H1 2432   4.435   2.545  11.213 -0.0566 -1.8544 -0.2766
  156TMC2    H2 2433   4.698   2.859  11.087 -0.4258  0.9233 -0.3600
  156TMC2    C7 2434   4.474   2.792  11.220  0.3806 -0.1833  0.0300
  156TMC2    C8 2435   0.164   2.685  11.020 -0.2064 -0.4832  0.5308
  156TMC2    O1 2436   4.470   2.909  11.184  0.5585 -0.0382  0.4389
  156TMC2    O2 2437   0.259   2.612  11.032 -0.1116 -0.4085  0.1477
  156TMC2    O5 2438   0.159   2.778  10.927 -0.3429  0.5453  0.1563
  156TMC2    H5 2439   0.073   2.826  10.932  0.2431  1.5052  0.9092
  157MPD2     C 2440   0.106   2.130  11.393  0.2468  0.1633 -0.6960
  157MPD2    C1 2441   0.019   2.235  11.419 -0.1442  0.1484 -0.9201
  157MPD2    C2 2442   0.001   2.279  11.544 -0.2287  0.2153 -0.7503
  157MPD2    C3 2443   0.066   2.216  11.651 -0.4914 -0.3826  0.0443
  157MPD2    C4 2444   0.158   2.119  11.627  0.5544 -0.8662 -0.2083
  157MPD2    C5 2445   0.172   2.065  11.494 -0.7845 -0.2406 -0.5061
  157MPD2     H 2446   4.668   2.359  11.562 -0.6417 -0.6054  1.2945
  157MPD2    H1 2447   0.216   2.078  11.708 -0.4889 -0.6102  0.6632
  157MPD2    H2 2448   0.116   2.094  11.292 -0.2452 -1.0742 -0.3005
  157MPD2    H3 2449   0.230   1.973  11.485 -0.5010 -0.3532  2.3304
  157MPD2     N 2450   0.042   2.268  11.773 -0.7759 -0.7985  0.0080
  157MPD2    H5 2451   4.706   2.336  11.782 -1.6467 -1.7685  0.0946
  157MPD2    N1 2452   4.722   2.301  11.298  0.4093 -0.9676  0.1768
  157MPD2    H7 2453   0.016   2.263  11.210 -0.4249 -1.0058 -0.1238
  158TMC2    C1 2454   0.633   0.949  13.581 -0.0136 -0.5535 -0.3426
  158TMC2    C2 2455   0.714   0.887  13.488  0.4570  0.4848 -0.0287
  158TMC2    C3 2456   0.648   0.841  13.372  0.1452 -0.1728  0.4864
  158TMC2    C4 2457   0.499   0.976  13.558  0.6103 -0.0754  0.7429
  158TMC2    C5 2458   0.446   0.932  13.440  0.0714  0.6280  0.3895
  158TMC2    C6 2459   0.509   0.848  13.353 -0.1515 -0.2709  0.3121
  158TMC2     C 2460   0.710   1.043  13.670 -0.1859 -0.6731 -0.0983
  158TMC2     O 2461   0.825   1.069  13.640  0.1330 -0.4447  0.3320
  158TMC2     H 2462   0.818   0.879  13.515  0.1842  0.9038  1.1509
  158TMC2    H1 2463   0.442   1.043  13.622 -1.1751 -1.0795  0.1785
  158TMC2    H2 2464   0.472   0.806  13.260  0.8172  1.9010 -1.0505
  158TMC2    C7 2465   0.326   0.993  13.402  0.1820 -0.6175  0.4925
  158TMC2    C8 2466   0.713   0.749  13.279 -0.4970  0.3708 -0.0578
  158TMC2    O1 2467   0.311   1.017  13.284 -0.0953  0.0954  0.6421
  158TMC2    O2 2468   0.650   0.677  13.203 -0.0621  0.6007  0.1081
  158TMC2    O5 2469   0.849   0.738  13.293 -0.0628  0.3251  0.3096
  158TMC2    H5 2470   0.901   0.809  13.337  1.0331 -0.8005  0.8061
  159MPD2     C 2471   0.779   1.250  14.135 -0.5173 -0.0372  0.2728
  159MPD2    C1 2472   0.646   1.270  14.098 -0.1376  0.8106 -0.8491
  159MPD2    C2 2473   0.604   1.214  13.978  0.4090 -0.3384  0.0320
  159MPD2    C3 2474   0.686   1.153  13.886 -0.6563 -0.2434 -0.8034
  159MPD2    C4 2475   0.819   1.140  13.923 -0.0239  0.4200 -0.8919
  159MPD2    C5 2476   0.862   1.191  14.044  0.3882  0.3620 -0.4799
  159MPD2     H 2477   0.500   1.214  13.949  0.2009 -0.6228  0.7675
  159MPD2    H1 2478   0.885   1.078  13.863  1.1896  2.7642 -1.9888
  159MPD2    H2 2479   0.821   1.286  14.229  1.2114  1.2888 -0.9964
  159MPD2    H3 2480   0.964   1.172  14.075 -0.2328  0.0735  1.4095
  159MPD2     N 2481   0.628   1.094  13.775 -0.4017 -0.7384  0.0019
  159MPD2    H5 2482   0.528   1.075  13.775 -0.7189  0.9700  1.0550
  159MPD2    N1 2483   0.552   1.327  14.186 -0.0081  0.3383 -0.4207
  159MPD2    H7 2484   0.595   1.340  14.277 -1.0602  1.1232 -0.0361
  160TMC2    C1 2485   4.662   4.739   1.579  0.2297  0.3528  0.3510
  160TMC2    C2 2486   4.566   4.688   1.655  0.2831  0.3398 -0.2574
  160TMC2    C3 2487   4.551   4.556   1.665  0.4804  0.0508 -0.7536
  160TMC2    C4 2488   0.030   4.659   1.540 -0.0138  0.0257 -0.3968
  160TMC2    C5 2489   0.017   4.521   1.562 -0.6513  0.0112 -1.0522
  160TMC2    C6 2490   4.645   4.474   1.617 -0.6106 -0.7489 -0.4240
  160TMC2     C 2491   4.690   0.138   1.574  0.4790 -0.2251  0.2476
  160TMC2     O 2492   0.067   0.176   1.557 -0.3225  0.3873 -0.3601
  160TMC2     H 2493   4.505   0.016   1.715 -3.0323 -1.1742 -1.9553
  160TMC2    H1 2494   0.112   4.706   1.487  1.1493 -0.2887  1.1364
  160TMC2    H2 2495   4.629   4.367   1.620  2.7226 -1.3237 -3.0401
  160TMC2    C7 2496   0.085   4.431   1.469 -0.4173  0.1207 -0.3912
  160TMC2    C8 2497   4.437   4.500   1.735  0.3294  0.1378 -0.6879
  160TMC2    O1 2498   0.035   4.329   1.428 -0.9113 -1.0161  0.5460
  160TMC2    O2 2499   4.375   4.560   1.814  0.0373 -0.3528  0.5347
  160TMC2    O5 2500   4.402   4.379   1.676  0.0497  0.3811  0.4198
  160TMC2    H5 2501   4.458   4.347   1.601  0.7367 -0.7163  1.3984
  161MPD2     C 2502   4.666   0.434   1.564 -0.2780 -0.0511 -0.4855
  161MPD2    C1 2503   4.561   0.351   1.576 -0.3253  0.3942  0.1628
  161MPD2    C2 2504   4.434   0.400   1.585  0.0367 -0.4359 -0.7967
  161MPD2    C3 2505   4.414   0.532   1.574 -0.6855  0.1387 -1.2149
  161MPD2    C4 2506   4.519   0.619   1.555  0.6792  0.9442 -0.4916
  161MPD2    C5 2507   4.652   0.570   1.549 -0.3059 -0.3182 -0.2691
  161MPD2     H 2508   4.346   0.336   1.595 -0.7618  0.9947  1.2488
  161MPD2    H1 2509   4.494   0.724   1.546  0.1348  0.8916  0.4001
  161MPD2    H2 2510   0.029   0.404   1.541  0.9244  1.0044  3.4687
  161MPD2    H3 2511   4.732   0.642   1.532  0.3554 -0.6889  1.2925
  161MPD2     N 2512   4.287   0.592   1.566 -0.4696 -0.3399  0.7594
  161MPD2    H5 2513   4.283   0.685   1.528  3.2696 -0.0608  1.1215
  161MPD2    N1 2514   4.575   0.211   1.586 -0.0181  0.3626  0.1947
  161MPD2    H7 2515   4.487   0.160   1.586  0.3337 -0.2437 -0.2599
  162TMC2    C1 2516   2.158   1.683   1.046 -0.3977 -0.1885 -0.5233
  162TMC2    C2 2517   2.032   1.737   1.067  0.5129 -0.1799 -0.7514
  162TMC2    C3 2518   1.988   1.768   1.191  0.4789 -0.0284  0.0883
  162TMC2    C4 2519   2.245   1.671   1.151  0.5035 -0.5978  0.4110
  162TMC2    C5 2520   2.199   1.698   1.276  0.8896  0.3242 -0.0974
  162TMC2    C6 2521   2.072   1.751   1.301  0.1760 -0.2125 -0.1926
  162TMC2     C 2522   2.187   1.625   0.916  0.5653 -0.4074 -0.1614
  162TMC2     O 2523   2.286   1.556   0.913  0.5449 -0.0390  0.0127
  162TMC2     H 2524   1.959   1.734   0.987  1.1695 -3.4139 -1.2252
  162TMC2    H1 2525   2.341   1.622   1.135  0.0380 -1.8674  1.4740
  162TMC2    H2 2526   2.042   1.756   1.405  0.2489  1.5145 -0.2553
  162TMC2    C7 2527   2.290   1.723   1.385 -0.7298  0.3286  0.3961
  162TMC2    C8 2528   1.864   1.837   1.207  0.3443  0.5284 -0.4548
  162TMC2    O1 2529   2.270   1.825   1.447  0.8404  0.1685  0.0150
  162TMC2    O2 2530   1.822   1.860   1.317 -0.1473  0.0808 -0.3584
  162TMC2    O5 2531   1.851   1.924   1.107 -0.5473 -0.1537  0.2751
  162TMC2    H5 2532   1.902   1.908   1.025  0.2261  2.2919  0.2727
  163MPD2     C 2533   2.170   1.625   0.393 -0.7626 -0.0592  0.1873
  163MPD2    C1 2534   2.247   1.544   0.478 -1.2514  0.3722  0.0136
  163MPD2    C2 2535   2.238   1.569   0.620 -0.2886 -0.3574 -0.0929
  163MPD2    C3 2536   2.150   1.663   0.674 -0.3376 -0.1387 -0.4574
  163MPD2    C4 2537   2.085   1.743   0.585  0.0429  0.0156 -0.5010
  163MPD2    C5 2538   2.093   1.719   0.454 -1.3773 -0.8495 -0.3050
  163MPD2     H 2539   2.290   1.502   0.687 -2.3752 -0.2746  1.5744
  163MPD2    H1 2540   2.016   1.823   0.611 -1.0454 -1.0039 -0.2870
  163MPD2    H2 2541   2.180   1.619   0.285 -0.9213 -1.5464  0.2572
  163MPD2    H3 2542   2.043   1.793   0.393 -0.1750  0.7869  0.6731
  163MPD2     N 2543   2.123   1.682   0.812  0.2567 -0.2295 -0.2199
  163MPD2    H5 2544   2.057   1.758   0.827 -0.9085 -1.5592  1.4263
  163MPD2    N1 2545   2.317   1.433   0.420 -0.1231  0.1545  0.3627
  163MPD2    H7 2546   2.292   1.407   0.325 -1.4949 -1.6386  1.2100
  164TMC2    C1 2547   3.528   0.894  11.608  0.2306 -0.5896 -0.2264
  164TMC2    C2 2548   3.646   0.959  11.632  0.0593  0.4167  0.0342
  164TMC2    C3 2549   3.665   1.082  11.568  0.2494 -0.1973 -0.0300
  164TMC2    C4 2550   3.423   0.941  11.539  0.0918  0.0489  0.8353
  164TMC2    C5 2551   3.454   1.056  11.467  0.5198 -0.2499 -0.2347
  164TMC2    C6 2552   3.569   1.122  11.480 -0.0702  0.0800  0.3244
  164TMC2     C 2553   3.520   0.764  11.675 -0.0942 -0.2296  0.3696
  164TMC2     O 2554   3.597   0.733  11.763 -0.0482 -0.7624 -0.3133
  164TMC2     H 2555   3.724   0.913  11.691  1.3588  3.9037  1.0759
  164TMC2    H1 2556   3.334   0.879  11.530 -1.2856  1.7803  2.6408
  164TMC2    H2 2557   3.583   1.222  11.442  1.7067 -0.0874  0.5142
  164TMC2    C7 2558   3.338   1.109  11.395 -0.3901  0.1086 -0.4089
  164TMC2    C8 2559   3.723   1.195  11.634  0.6642 -0.1069 -0.0498
  164TMC2    O1 2560   3.232   1.090  11.451  0.3979  0.2891 -0.0221
  164TMC2    O2 2561   3.658   1.297  11.655  0.4389 -0.2811  0.4603
  164TMC2    O5 2562   3.841   1.163  11.690  0.2456  0.1973 -1.0836
  164TMC2    H5 2563   3.881   1.086  11.644 -0.3692  0.7417 -2.5314
  165TMC2    C1 2564   4.087   3.706   1.017 -0.4438  0.5407 -0.5996
  165TMC2    C2 2565   4.106   3.578   0.961 -0.1929  0.7056 -0.2114
  165TMC2    C3 2566   4.233   3.524   0.965  0.2147  0.2579 -0.5742
  165TMC2    C4 2567   4.192   3.766   1.078 -0.3488  0.2518 -0.3588
  165TMC2    C5 2568   4.314   3.703   1.086  0.0994 -0.1038 -0.1877
  165TMC2    C6 2569   4.342   3.586   1.028 -0.7643  0.3166  0.1163
  165TMC2     C 2570   3.956   3.761   1.037 -0.5549  0.9960  0.9546
  165TMC2     O 2571   3.947   3.839   1.129  0.6330  0.4532 -0.1145
  165TMC2     H 2572   4.017   3.522   0.933  1.7588 -2.3502 -0.1905
  165TMC2    H1 2573   4.182   3.870   1.109  0.8502  0.0825  0.5952
  165TMC2    H2 2574   4.441   3.543   1.023 -2.0111 -2.6059  0.3736
  165TMC2    C7 2575   4.415   3.754   1.173 -0.2462  0.2498  0.6073
  165TMC2    C8 2576   4.237   3.389   0.921  0.0063  0.0900  0.0385
  165TMC2    O1 2577   4.526   3.703   1.158  0.2301 -0.6549 -0.0634
  165TMC2    O2 2578   4.137   3.342   0.868 -0.7631 -0.5982  0.2195
  165TMC2    O5 2579   4.361   3.345   0.897 -0.1772 -0.5418  0.5051
  165TMC2    H5 2580   4.432   3.412   0.893 -1.1562  0.6072  2.2175
  166MPD2     C 2581   3.489   3.914   0.844 -0.0943  0.7527 -0.6194
  166MPD2    C1 2582   3.580   3.975   0.928 -0.3318  0.1081  0.5924
  166MPD2    C2 2583   3.708   3.929   0.957  0.2842  0.0253 -0.2388
  166MPD2    C3 2584   3.745   3.805   0.906 -0.4787  0.9964 -0.7226
  166MPD2    C4 2585   3.656   3.746   0.812 -1.0228  0.1568  1.1646
  166MPD2    C5 2586   3.529   3.799   0.787  0.8524 -0.2028 -0.6832
  166MPD2     H 2587   3.779   3.984   1.017  1.2142 -1.9440  0.4600
  166MPD2    H1 2588   3.681   3.653   0.763  1.3813  1.1548  0.5380
  166MPD2    H2 2589   3.400   3.959   0.800 -1.0961 -0.8765 -0.2607
  166MPD2    H3 2590   3.471   3.753   0.707  0.3425 -1.8457  0.6226
  166MPD2     N 2591   3.873   3.744   0.930  0.0777 -0.8350  0.2638
  166MPD2    H5 2592   3.895   3.666   0.869 -2.4114  0.1880 -1.9085
  166MPD2    N1 2593   3.520   4.086   0.997 -0.7588 -0.0406 -0.2521
  166MPD2    H7 2594   3.426   4.120   0.977 -1.5121 -2.0500 -0.1121
  167TMC2    C1 2595   2.620   0.534  13.041  0.0497  0.0023  0.0233
  167TMC2    C2 2596   2.572   0.572  13.163 -0.6973 -0.2589 -0.3676
  167TMC2    C3 2597   2.585   0.473  13.261  0.3330 -0.3512 -0.1521
  167TMC2    C4 2598   2.671   0.411  13.009 -0.0270  0.5418 -0.1362
  167TMC2    C5 2599   2.676   0.321  13.107 -0.5178 -0.2847  1.0751
  167TMC2    C6 2600   2.629   0.343  13.231 -0.4698  0.1807 -0.1256
  167TMC2     C 2601   2.588   0.628  12.941  0.9924  0.8478 -0.1382
  167TMC2     O 2602   2.489   0.699  12.961 -0.0807  0.1392 -0.4326
  167TMC2     H 2603   2.549   0.675  13.187 -2.5116 -0.6159 -0.6051
  167TMC2    H1 2604   2.683   0.393  12.903  2.4489 -0.3486  0.3167
  167TMC2    H2 2605   2.631   0.261  13.302 -1.8315  0.0332 -0.2731
  167TMC2    C7 2606   2.710   0.179  13.073 -0.1726  0.2239  0.5538
  167TMC2    C8 2607   2.599   0.516  13.397  0.1011  0.4644  0.0029
  167TMC2    O1 2608   2.641   0.086  13.119 -0.1963 -0.2378  0.1717
  167TMC2    O2 2609   2.653   0.445  13.481 -0.3055  0.1312 -0.2744
  167TMC2    O5 2610   2.504   0.611  13.432 -0.1298 -0.0863  0.3263
  167TMC2    H5 2611   2.455   0.645  13.354  1.5824  1.2939 -0.1708
  168MPD2     C 2612   2.556   0.776  12.682 -0.1104 -0.0613 -0.4495
  168MPD2    C1 2613   2.659   0.686  12.710  0.0605 -0.4629  0.4454
  168MPD2    C2 2614   2.766   0.675  12.625  0.0237 -0.0588 -0.2134
  168MPD2    C3 2615   2.757   0.754  12.506  0.0388 -0.0552  0.1106
  168MPD2    C4 2616   2.659   0.846  12.474 -0.8448  0.2377  0.0732
  168MPD2    C5 2617   2.552   0.854  12.560 -0.0267  0.7636  0.2206
  168MPD2     H 2618   2.841   0.601  12.652  0.2090 -0.4217 -1.7576
  168MPD2    H1 2619   2.661   0.896  12.377 -0.1103  1.5751  0.7774
  168MPD2    H2 2620   2.465   0.779  12.740 -0.9200 -2.2354 -1.5954
  168MPD2    H3 2621   2.462   0.910  12.537 -1.1442 -1.0756  0.0938
  168MPD2     N 2622   2.852   0.732  12.408  0.0072 -0.0592 -1.0092
  168MPD2    H5 2623   2.821   0.755  12.314 -1.6412  0.5037 -0.3085
  168MPD2    N1 2624   2.671   0.612  12.833  0.3895 -0.1213 -0.0572
  168MPD2    H7 2625   2.741   0.538  12.842  0.3650 -0.4542 -2.5658
  169MPD1     C 2626   0.547   0.305   8.705 -0.0333  0.7345 -0.3708
  169MPD1    C1 2627   0.431   0.252   8.745 -0.0142  0.9668 -0.3909
  169MPD1    C2 2628   0.394   0.249   8.877 -0.3609  0.7589 -0.4964
  169MPD1    C3 2629   0.467   0.312   8.974  0.3772 -0.0534  0.3787
  169MPD1    C4 2630   0.579   0.383   8.930 -0.2821 -0.6115  0.2848
  169MPD1    C5 2631   0.627   0.368   8.800  0.1759 -0.3603  0.0296
  169MPD1     H 2632   0.308   0.197   8.919  0.5674  1.9148  2.7867
  169MPD1    H1 2633   0.644   0.436   8.998  0.8318  0.7029 -1.7784
  169MPD1    H2 2634   0.571   0.292   8.601  0.1331 -0.4149 -0.1905
  169MPD1    H3 2635   0.719   0.419   8.774  0.3993 -0.1854  1.1426
  169MPD1     N 2636   0.428   0.304   9.115 -0.5080  0.6128 -0.1843
  169MPD1    H5 2637   0.353   0.239   9.137  1.7507 -1.7175  0.6269
  169MPD1    N1 2638   0.359   0.175   8.657 -0.2665  0.3060 -0.2564
  169MPD1    H6 2639   0.261   0.181   8.685  0.7085  1.5627  2.8154
  169MPD1    H7 2640   0.363   0.198   8.558  0.7387  1.3954  0.0413
  170MPD1     C 2641   3.329   2.749  12.831  0.9791  0.5271 -0.0240
  170MPD1    C1 2642   3.447   2.786  12.778 -0.7025 -0.7333  0.5660
  170MPD1    C2 2643   3.532   2.859  12.865  0.3546  0.5952 -0.9137
  170MPD1    C3 2644   3.495   2.892  12.999  0.3007  0.0375  0.1663
  170MPD1    C4 2645   3.368   2.863  13.029 -0.8461  0.3307  0.9710
  170MPD1    C5 2646   3.290   2.787  12.951  0.3056  0.0059 -0.2841
  170MPD1     H 2647   3.627   2.889  12.823  1.9762 -0.1650  2.1790
  170MPD1    H1 2648   3.318   2.893  13.121 -2.3510 -3.7945  1.5021
  170MPD1    H2 2649   3.254   2.695  12.774  2.2080 -2.7669  1.5050
  170MPD1    H3 2650   3.190   2.764  12.986  0.4530 -2.6578 -1.6126
  170MPD1     N 2651   3.582   2.979  13.072  0.0037  0.2895  0.0219
  170MPD1    H5 2652   3.672   3.001  13.031  0.7305 -3.4687 -0.3484
  170MPD1    N1 2653   3.479   2.768  12.641 -0.6259  0.3100  0.3159
  170MPD1    H6 2654   3.452   2.677  12.604 -0.8932  0.9106 -0.9730
  170MPD1    H7 2655   3.578   2.786  12.623 -0.5996 -1.0409 -0.8344
  171MPD1     C 2656   1.875   3.607  14.654 -0.5299 -0.1734  0.2237
  171MPD1    C1 2657   1.775   3.656  14.739  0.2046 -0.1479  0.5218
  171MPD1    C2 2658   1.814   3.714  14.858 -0.9612  0.3604  0.1283
  171MPD1    C3 2659   1.940   3.704  14.910  0.6143 -0.0703  0.1892
  171MPD1    C4 2660   2.040   3.650  14.826 -0.5605 -0.1583  0.0992
  171MPD1    C5 2661   2.007   3.608  14.701 -0.1925  0.2476 -0.3083
  171MPD1     H 2662   1.739   3.761  14.920 -3.5092 -1.0156 -1.9044
  171MPD1    H1 2663   2.143   3.645  14.859 -0.5960  1.2831  0.4491
  171MPD1    H2 2664   1.852   3.559  14.559 -0.7240  1.0721 -0.3563
  171MPD1    H3 2665   2.079   3.566  14.632  0.9693 -0.7400  1.5123
  171MPD1     N 2666   1.987   3.744  15.040 -0.7262 -0.0537 -0.1002
  171MPD1    H5 2667   2.085   3.719  15.048 -1.4236 -2.1721  1.5761
  171MPD1    N1 2668   1.649   3.701  14.694 -0.4064 -0.6169 -0.6007
  171MPD1    H6 2669   1.583   3.724  14.768 -1.1320 -1.3240 -1.0171
  171MPD1    H7 2670   1.608   3.634  14.628 -0.4063 -0.7649 -0.4486
  172MPD1     C 2671   1.168   3.449   0.027  0.0361 -0.4710 -1.1418
  172MPD1    C1 2672   1.105   3.569  17.747 -0.3519  0.1388  0.7618
  172MPD1    C2 2673   1.119   3.665   0.092 -0.2214 -0.0569 -0.7021
  172MPD1    C3 2674   1.176   3.645   0.215 -0.2704  0.2536  0.0776
  172MPD1    C4 2675   1.215   3.520   0.248  0.1311  0.6721 -0.6944
  172MPD1    C5 2676   1.223   3.424   0.152 -0.0198  0.1407  0.4209
  172MPD1     H 2677   1.079   3.764   0.071  1.0672  0.5473 -0.2414
  172MPD1    H1 2678   1.249   3.501   0.349  0.4380 -1.3039 -1.1684
  172MPD1    H2 2679   1.192   3.364  17.718 -0.8095  0.2888 -2.4982
  172MPD1    H3 2680   1.270   3.331   0.183  0.5919  0.7735  1.3874
  172MPD1     N 2681   1.196   3.745   0.317  0.4520  0.1335  0.0849
  172MPD1    H5 2682   1.243   3.721   0.404  1.2961 -0.4374 -0.5240
  172MPD1    N1 2683   1.081   3.597  17.610  0.7346  0.4926 -0.8322
  172MPD1    H6 2684   1.003   3.662  17.599  0.6975  0.8400  1.4001
  172MPD1    H7 2685   1.054   3.514  17.557 -2.7290  1.1658 -0.1555
  173MPD1     C 2686   3.474   3.448  13.786 -0.5543  0.7134  0.0278
  173MPD1    C1 2687   3.332   3.439  13.800 -0.2439 -0.0263 -0.2284
  173MPD1    C2 2688   3.270   3.383  13.914 -0.6772  0.2946 -0.1380
  173MPD1    C3 2689   3.354   3.353  14.019  0.1443  0.2013 -0.2203
  173MPD1    C4 2690   3.488   3.386  14.011 -0.0449  0.0405  0.7315
  173MPD1    C5 2691   3.545   3.430  13.900 -0.0964  0.5995  0.1118
  173MPD1     H 2692   3.163   3.368  13.918 -0.7817  0.9038 -0.5629
  173MPD1    H1 2693   3.552   3.375  14.098  0.5365  0.3388  0.3415
  173MPD1    H2 2694   3.522   3.496  13.701 -1.7655 -0.5218 -1.3580
  173MPD1    H3 2695   3.653   3.441  13.900 -0.1847  1.4967  0.2921
  173MPD1     N 2696   3.302   3.294  14.134 -0.1238  0.0996  0.1466
  173MPD1    H5 2697   3.201   3.282  14.140 -0.0113  0.4375  3.0535
  173MPD1    N1 2698   3.246   3.485  13.696  0.0335 -0.1673 -0.2098
  173MPD1    H6 2699   3.293   3.504  13.608 -1.2526  2.3189 -0.3600
  173MPD1    H7 2700   3.162   3.429  13.683  0.7767 -1.3771  0.2210
  174MPD1     C 2701   3.304   2.643  15.030  0.0601 -0.1767  0.0439
  174MPD1    C1 2702   3.413   2.688  14.960  0.6607 -0.5296 -0.2634
  174MPD1    C2 2703   3.399   2.778  14.853 -0.5702  0.2669 -0.4512
  174MPD1    C3 2704   3.267   2.822  14.821 -0.0772  0.3275  0.4576
  174MPD1    C4 2705   3.164   2.775  14.893  0.2408 -0.4649  0.5181
  174MPD1    C5 2706   3.175   2.682  14.992  0.4066 -0.4847 -0.2441
  174MPD1     H 2707   3.491   2.823  14.817  1.0169 -2.1993  0.5386
  174MPD1    H1 2708   3.062   2.798  14.863  1.0368 -0.8215 -2.4539
  174MPD1    H2 2709   3.322   2.588  15.121  0.9767  0.8681  0.4912
  174MPD1    H3 2710   3.086   2.648  15.045 -1.9808 -0.2744 -4.1146
  174MPD1     N 2711   3.240   2.906  14.713  0.1640  0.4486  0.6929
  174MPD1    H5 2712   3.147   2.923  14.675 -1.3262 -2.2786  3.0926
  174MPD1    N1 2713   3.536   2.643  14.998  0.1442 -0.2427 -0.3646
  174MPD1    H6 2714   3.593   2.659  14.915 -0.0505  0.2228 -0.4083
  174MPD1    H7 2715   3.518   2.544  15.010  1.2747 -0.5327 -1.0515
  175MPD1     C 2716   1.154   0.177  15.406  0.3357 -0.0781 -0.3125
  175MPD1    C1 2717   1.044   0.090  15.387  0.0573 -0.6417 -0.1185
  175MPD1    C2 2718   0.979   0.061  15.507 -0.4309 -0.4473  0.2374
  175MPD1    C3 2719   1.032   0.073  15.633  0.7269  0.2593  0.1754
  175MPD1    C4 2720   1.159   0.137  15.641 -0.2042 -0.1470 -0.0048
  175MPD1    C5 2721   1.204   0.192  15.529 -0.8438 -0.6070  0.1186
  175MPD1     H 2722   0.877   0.026  15.499 -0.1531 -1.7313  2.3463
  175MPD1    H1 2723   1.209   0.171  15.730 -2.7731  1.2362  0.9182
  175MPD1    H2 2724   1.203   0.228  15.324  0.2221 -0.2520 -0.4868
  175MPD1    H3 2725   1.280   0.265  15.554  0.3000 -1.1558 -1.7616
  175MPD1     N 2726   0.970   0.042  15.752  0.2745  0.0175 -0.1849
  175MPD1    H5 2727   1.014   0.057  15.842  0.6375 -1.1818 -0.1616
  175MPD1    N1 2728   0.975   0.090  15.264 -0.0376  0.0983 -0.4509
  175MPD1    H6 2729   0.926   0.001  15.271  0.9816 -0.6694 -3.0078
  175MPD1    H7 2730   1.031   0.105  15.180  1.1326 -0.4498  0.2286
  176MPD1     C 2731   2.141   1.333  17.563 -0.5009  0.3234 -0.0040
  176MPD1    C1 2732   2.099   1.455  17.528  0.1977 -0.9772 -0.4350
  176MPD1    C2 2733   2.201   1.548  17.510 -0.2437 -0.4068 -0.6177
  176MPD1    C3 2734   2.335   1.516  17.503 -0.3877  0.5309  0.1841
  176MPD1    C4 2735   2.374   1.385  17.536 -0.0768 -0.0293 -0.2272
  176MPD1    C5 2736   2.273   1.296  17.573  0.1568 -0.2071 -0.0398
  176MPD1     H 2737   2.178   1.652  17.490  0.4971 -0.3450 -1.1486
  176MPD1    H1 2738   2.479   1.357  17.537  0.0008  0.2752  0.3610
  176MPD1    H2 2739   2.073   1.252  17.589 -0.3619  0.4990  0.9079
  176MPD1    H3 2740   2.294   1.197  17.611  0.6748  0.7967  2.3418
  176MPD1     N 2741   2.423   1.621  17.460 -0.1233  0.5053  0.1389
  176MPD1    H5 2742   2.382   1.695  17.404  2.0877  0.4433 -1.5435
  176MPD1    N1 2743   1.962   1.491  17.515 -0.1533  0.0956  0.2991
  176MPD1    H6 2744   1.958   1.578  17.462 -0.3713  0.8458  1.5398
  176MPD1    H7 2745   1.909   1.422  17.463 -0.3782  1.8585 -1.7988
  177MPD1     C 2746   1.618   1.346  10.193 -0.5224  0.8172 -0.2830
  177MPD1    C1 2747   1.492   1.297  10.146 -0.4190 -0.2495  0.4127
  177MPD1    C2 2748   1.416   1.367  10.054 -1.0991  0.3421  0.0998
  177MPD1    C3 2749   1.460   1.495  10.019  0.4118  0.2209 -0.7306
  177MPD1    C4 2750   1.584   1.538  10.054 -0.5202  0.5063 -0.3864
  177MPD1    C5 2751   1.662   1.464  10.141 -0.8169  0.0256  0.1672
  177MPD1     H 2752   1.326   1.326  10.011 -1.3792 -0.5111  1.5039
  177MPD1    H1 2753   1.628   1.633  10.026 -0.0135  0.4412  0.1910
  177MPD1    H2 2754   1.680   1.295  10.265 -0.8160  0.1806 -0.4844
  177MPD1    H3 2755   1.756   1.508  10.174  0.8840 -2.2144 -1.6557
  177MPD1     N 2756   1.365   1.579   9.944 -0.0231 -0.1268 -0.0150
  177MPD1    H5 2757   1.294   1.534   9.888 -2.9855  0.3301  3.4095
  177MPD1    N1 2758   1.456   1.164  10.180 -0.2048  0.7294 -0.6012
  177MPD1    H6 2759   1.500   1.145  10.269  1.2434 -2.2958 -1.9798
  177MPD1    H7 2760   1.356   1.143  10.190  0.3532 -2.1482 -1.1982
  178MPD1     C 2761   3.097   2.673   0.116  0.5528 -0.1734  0.8123
  178MPD1    C1 2762   3.234   2.658   0.105  0.5578  0.3040  0.0291
  178MPD1    C2 2763   3.284   2.542   0.055  0.5322 -0.2085 -0.5128
  178MPD1    C3 2764   3.198   2.439   0.025 -0.1158 -0.3462 -0.1443
  178MPD1    C4 2765   3.066   2.457   0.039 -0.1405 -0.8314  0.6020
  178MPD1    C5 2766   3.008   2.573   0.081 -0.5110 -0.0618  0.0973
  178MPD1     H 2767   3.392   2.531   0.046  0.7264  2.1209 -1.0792
  178MPD1    H1 2768   3.001   2.385  17.744  0.2482 -0.5931 -0.2721
  178MPD1    H2 2769   3.050   2.764   0.152 -0.8071 -0.3226 -0.5875
  178MPD1    H3 2770   2.902   2.592   0.077 -0.7698 -1.3919  0.7734
  178MPD1     N 2771   3.243   2.319  17.733 -0.3678 -0.0079 -0.5828
  178MPD1    H5 2772   3.173   2.264  17.684 -1.5824  0.2544  0.8420
  178MPD1    N1 2773   3.321   2.760   0.145 -0.2550  0.4161  0.1110
  178MPD1    H6 2774   3.386   2.738   0.221  0.8665  0.2167 -0.9012
  178MPD1    H7 2775   3.281   2.852   0.162  2.6102  1.1557  2.8396
  179MPD1     C 2776   2.808   0.845  16.150  0.0697 -0.0340  0.1110
  179MPD1    C1 2777   2.726   0.853  16.039  0.0753  0.3665  1.0370
  179MPD1    C2 2778   2.711   0.748  15.954  0.5428 -0.1856 -0.4206
  179MPD1    C3 2779   2.790   0.636  15.980 -0.3002 -0.1171  0.0607
  179MPD1    C4 2780   2.871   0.633  16.092 -0.1501  0.2446  0.3706
  179MPD1    C5 2781   2.875   0.732  16.183 -0.0109  0.7764  0.6137
  179MPD1     H 2782   2.647   0.749  15.866  1.3448  0.1176 -1.0081
  179MPD1    H1 2783   2.932   0.546  16.113  2.0740  2.1725  1.9286
  179MPD1    H2 2784   2.804   0.932  16.215 -2.2667  0.2190 -0.3791
  179MPD1    H3 2785   2.939   0.726  16.270  0.5940 -2.7922 -0.0475
  179MPD1     N 2786   2.784   0.527  15.894  0.2198 -0.3234  0.2855
  179MPD1    H5 2787   2.858   0.466  15.927 -0.2523 -0.5730  0.8816
  179MPD1    N1 2788   2.655   0.975  16.038  0.2616 -0.3433  0.0718
  179MPD1    H6 2789   2.673   1.047  16.108 -0.4546 -0.2434  0.1507
  179MPD1    H7 2790   2.646   1.011  15.944 -0.5986  0.1325  0.3372
  180MPD1     C 2791   3.197   1.954  15.008  0.7195  0.6956  0.1487
  180MPD1    C1 2792   3.283   1.875  14.939  0.4176 -0.4873  0.3573
  180MPD1    C2 2793   3.239   1.819  14.824  0.3459  0.3144  0.4646
  180MPD1    C3 2794   3.119   1.849  14.767  0.3237 -0.3772  0.9332
  180MPD1    C4 2795   3.038   1.940  14.828  0.4022 -0.1869  0.1663
  180MPD1    C5 2796   3.076   1.996  14.950  0.6941 -0.3725  0.0909
  180MPD1     H 2797   3.292   1.735  14.782  0.6168  0.7515 -0.0787
  180MPD1    H1 2798   2.944   1.967  14.781 -0.0491 -1.6661  0.2057
  180MPD1    H2 2799   3.224   1.990  15.107  0.2707  0.1983  0.4518
  180MPD1    H3 2800   3.012   2.059  15.012  1.1606 -0.2929  0.4894
  180MPD1     N 2801   3.089   1.789  14.644  0.0547  0.3875  0.6958
  180MPD1    H5 2802   3.153   1.718  14.612 -0.8697 -1.0732  2.1006
  180MPD1    N1 2803   3.401   1.826  15.000 -0.3336 -0.5198  0.0771
  180MPD1    H6 2804   3.441   1.888  15.070  1.2472 -0.9428 -0.4716
  180MPD1    H7 2805   3.469   1.784  14.938  0.1547  0.1724  0.1456
  181MPD1     C 2806   4.521   3.955  10.553  0.4813 -0.6507 -1.2038
  181MPD1    C1 2807   4.547   4.081  10.496  0.4288  0.3137  0.4395
  181MPD1    C2 2808   4.684   4.123  10.495 -0.8152  0.7577  0.3488
  181MPD1    C3 2809   0.046   4.027  10.530  0.4237  0.7038 -0.3793
  181MPD1    C4 2810   0.012   3.895  10.561 -0.3087  0.4500 -0.5908
  181MPD1    C5 2811   4.618   3.864  10.581  0.2673 -0.5300  0.4205
  181MPD1     H 2812   4.707   4.226  10.471  1.9105 -0.4278 -2.1053
  181MPD1    H1 2813   0.088   3.821  10.585 -1.3825  0.0900  1.7968
  181MPD1    H2 2814   4.420   3.917  10.562  0.4452 -0.8322 -2.3046
  181MPD1    H3 2815   4.597   3.760  10.601 -0.8554 -0.3233  0.3209
  181MPD1     N 2816   0.184   4.052  10.541  0.1844  0.2428 -0.1712
  181MPD1    H5 2817   0.235   3.977  10.586 -0.8283 -0.6450 -0.5206
  181MPD1    N1 2818   4.443   4.164  10.486  0.1743 -0.4016  0.1083
  181MPD1    H6 2819   4.358   4.117  10.455 -1.2245  0.6852  2.2976
  181MPD1    H7 2820   4.459   4.247  10.430 -0.6347  0.3221  0.9514
  182MPD1     C 2821   0.251   3.748   1.683 -0.1179  0.1507 -0.0416
  182MPD1    C1 2822   0.392   3.766   1.683 -0.3134  0.5580 -0.1807
  182MPD1    C2 2823   0.451   3.778   1.563  0.2472  0.4962 -0.8904
  182MPD1    C3 2824   0.391   3.761   1.439  0.1954  0.5460  0.2728
  182MPD1    C4 2825   0.252   3.744   1.442  0.0445 -0.1365 -0.2552
  182MPD1    C5 2826   0.190   3.726   1.569  0.2466  0.0205  0.9877
  182MPD1     H 2827   0.558   3.778   1.577 -0.3495  2.0179  3.6081
  182MPD1    H1 2828   0.197   3.705   1.357  1.3796  0.5682 -1.4329
  182MPD1    H2 2829   0.203   3.749   1.780 -0.3879  0.1526 -0.1752
  182MPD1    H3 2830   0.084   3.706   1.570 -0.3188  2.9480 -0.2953
  182MPD1     N 2831   0.450   3.750   1.310 -0.0970  0.0625 -0.3373
  182MPD1    H5 2832   0.394   3.741   1.226 -0.9985  0.5000  0.2147
  182MPD1    N1 2833   0.462   3.809   1.800  0.0406  0.2582 -0.1531
  182MPD1    H6 2834   0.557   3.772   1.797  1.3335  3.4307  1.7158
  182MPD1    H7 2835   0.417   3.782   1.887  1.3025  0.4981  0.5664
  183MPD1     C 2836   0.993   3.352   9.246  0.4078 -0.1973  0.3544
  183MPD1    C1 2837   1.026   3.286   9.364 -0.1967  0.4658  0.3944
  183MPD1    C2 2838   1.044   3.361   9.474 -0.1950 -0.7821  0.9273
  183MPD1    C3 2839   1.049   3.497   9.471  0.0257  0.2058 -0.3529
  183MPD1    C4 2840   1.018   3.564   9.359  0.6231 -0.3615  0.1753
  183MPD1    C5 2841   0.988   3.491   9.246  0.3146  0.6034  0.3179
  183MPD1     H 2842   1.050   3.309   9.569 -1.1619  0.2729  1.5645
  183MPD1    H1 2843   1.024   3.669   9.334 -0.6921 -0.1289  0.8081
  183MPD1    H2 2844   0.965   3.303   9.154  1.6023 -0.9082  0.3786
  183MPD1    H3 2845   0.956   3.536   9.153  1.1909  1.2657  0.3396
  183MPD1     N 2846   1.072   3.568   9.590  0.1029 -0.1238  1.0105
  183MPD1    H5 2847   1.095   3.515   9.674  0.8625  0.4349  1.1441
  183MPD1    N1 2848   0.999   3.149   9.370 -0.0608  0.2632 -0.6196
  183MPD1    H6 2849   1.058   3.110   9.443 -2.3907 -0.5000  0.8550
  183MPD1    H7 2850   1.029   3.105   9.283 -0.5937  0.2192 -0.7821
  184MPD1     C 2851   0.432   0.990  10.115 -0.0875 -0.6155 -0.0973
  184MPD1    C1 2852   0.373   0.988   9.993  0.4309 -0.3664  0.0927
  184MPD1    C2 2853   0.401   1.086   9.893  0.3368 -0.6100  0.3397
  184MPD1    C3 2854   0.479   1.199   9.927 -0.2164  0.1617  0.0807
  184MPD1    C4 2855   0.527   1.202  10.048 -0.4040 -0.1104 -0.2628
  184MPD1    C5 2856   0.509   1.103  10.140  0.8790  0.2362  0.6467
  184MPD1     H 2857   0.359   1.071   9.794 -0.7765 -0.0709  0.7295
  184MPD1    H1 2858   0.570   1.295  10.084 -0.7739 -0.2199  0.4597
  184MPD1    H2 2859   0.406   0.914  10.188 -2.1983 -0.5676 -0.8060
  184MPD1    H3 2860   0.560   1.109  10.235 -0.3914 -0.2192  1.3537
  184MPD1     N 2861   0.514   1.299   9.839 -0.0445 -0.5382 -0.0894
  184MPD1    H5 2862   0.562   1.382   9.871  0.8936 -0.0670 -2.6887
  184MPD1    N1 2863   0.300   0.874   9.957 -0.1238  0.3373  0.2399
  184MPD1    H6 2864   0.237   0.844  10.030 -1.1243  1.4632 -0.1564
  184MPD1    H7 2865   0.240   0.886   9.876 -3.2857 -0.1186  2.5335
  185MPD1     C 2866   0.407   1.279   8.861 -0.7861  0.0113 -0.3109
  185MPD1    C1 2867   0.484   1.397   8.870  0.3330 -0.2065 -0.1250
  185MPD1    C2 2868   0.528   1.437   8.996 -0.4406 -0.3616 -0.6457
  185MPD1    C3 2869   0.503   1.360   9.108 -0.1769 -0.0858  0.4377
  185MPD1    C4 2870   0.425   1.246   9.098 -0.1329  0.3797 -1.1482
  185MPD1    C5 2871   0.380   1.210   8.973 -0.3959  1.2288 -0.6346
  185MPD1     H 2872   0.594   1.523   9.004 -1.3398  0.2682 -0.0964
  185MPD1    H1 2873   0.404   1.184   9.185  1.2164 -0.2204 -1.2495
  185MPD1    H2 2874   0.358   1.257   8.766  4.0086  3.0256 -3.4584
  185MPD1    H3 2875   0.326   1.117   8.956  0.4971  0.6543 -0.3103
  185MPD1     N 2876   0.535   1.394   9.243 -0.7026 -0.4344 -0.1894
  185MPD1    H5 2877   0.513   1.316   9.303 -0.5974 -3.1387 -3.6384
  185MPD1    N1 2878   0.503   1.485   8.762  0.5519  0.5562  0.1108
  185MPD1    H6 2879   0.583   1.545   8.778  1.6320 -0.4834 -1.4216
  185MPD1    H7 2880   0.508   1.455   8.665  1.9337  0.8163  0.1016
  186MPD1     C 2881   3.713   0.987  15.680 -0.3911 -0.5321 -0.3273
  186MPD1    C1 2882   3.599   1.030  15.611  0.9569  0.2586 -0.0826
  186MPD1    C2 2883   3.521   1.121  15.683 -0.2264  0.0886  0.7857
  186MPD1    C3 2884   3.547   1.156  15.816  0.7823 -0.7003  1.1002
  186MPD1    C4 2885   3.663   1.117  15.870 -0.0128  0.1829  0.3774
  186MPD1    C5 2886   3.744   1.033  15.806 -0.1912  0.3077 -0.1387
  186MPD1     H 2887   3.425   1.142  15.636  0.7312 -0.5708 -1.4669
  186MPD1    H1 2888   3.684   1.145  15.973  0.1808  2.0914 -0.1711
  186MPD1    H2 2889   3.774   0.909  15.635 -0.0885  0.7219 -2.0791
  186MPD1    H3 2890   3.837   1.001  15.851  0.4919  1.2921 -0.8326
  186MPD1     N 2891   3.450   1.233  15.897  0.0043  0.3888  0.3978
  186MPD1    H5 2892   3.480   1.258  15.991  1.2333  1.6553 -0.3154
  186MPD1    N1 2893   3.563   0.985  15.483  0.0992  0.6616  0.6777
  186MPD1    H6 2894   3.634   0.925  15.441  1.0663  0.7140  2.2549
  186MPD1    H7 2895   3.468   0.951  15.478  0.6970 -1.0651  1.0733
  187MPD1     C 2896   2.255   2.991   0.199 -0.1849 -0.9511  0.2885
  187MPD1    C1 2897   2.383   2.961   0.168  0.2569  0.6841  0.1381
  187MPD1    C2 2898   2.406   2.893   0.051  0.1925 -0.4133  0.1701
  187MPD1    C3 2899   2.298   2.856  17.721 -0.4691 -0.5517  0.5908
  187MPD1    C4 2900   2.166   2.872   0.017  0.4152  0.8689  0.4260
  187MPD1    C5 2901   2.146   2.939   0.133 -0.4176  0.2822  0.0895
  187MPD1     H 2902   2.509   2.891   0.016  0.6480  0.6229  1.4644
  187MPD1    H1 2903   2.074   2.844  17.722  0.6479 -1.3430  1.2943
  187MPD1    H2 2904   2.244   3.058   0.283 -1.4377  0.7083 -1.2113
  187MPD1    H3 2905   2.041   2.959   0.152 -0.2212  1.4060 -0.0357
  187MPD1     N 2906   2.310   2.798  17.595 -0.2752  0.7684 -0.6625
  187MPD1    H5 2907   2.227   2.781  17.539  0.2492 -2.2567 -0.5076
  187MPD1    N1 2908   2.493   3.022   0.234 -0.4790 -0.2685  0.0570
  187MPD1    H6 2909   2.472   3.053   0.329  0.5195  2.3468 -0.5609
  187MPD1    H7 2910   2.578   2.966   0.227  0.9795  1.5467  2.9806
  188MPD1     C 2911   2.745   2.851  10.612 -0.2098  0.4444  0.3198
  188MPD1    C1 2912   2.812   2.848  10.491 -0.7915 -0.0728  0.1717
  188MPD1    C2 2913   2.797   2.740  10.405  0.6619  0.5704  0.0696
  188MPD1    C3 2914   2.712   2.634  10.439  0.3994  0.1215  0.1839
  188MPD1    C4 2915   2.626   2.651  10.546 -0.1084  0.3584 -0.5828
  188MPD1    C5 2916   2.650   2.754  10.634  0.2645 -0.2842 -0.3027
  188MPD1     H 2917   2.852   2.743  10.312 -0.2722 -0.2080 -0.4979
  188MPD1    H1 2918   2.562   2.566  10.569 -0.6843  0.5963 -1.3042
  188MPD1    H2 2919   2.751   2.936  10.678  0.2148  2.0610 -1.8133
  188MPD1    H3 2920   2.598   2.748  10.730 -3.1158 -1.9576 -2.2396
  188MPD1     N 2921   2.694   2.512  10.358  0.0146 -0.2110 -0.6038
  188MPD1    H5 2922   2.629   2.440  10.387 -0.9865  0.6237 -0.7454
  188MPD1    N1 2923   2.914   2.944  10.450  0.4169 -0.0651  0.3173
  188MPD1    H6 2924   2.912   2.943  10.348 -0.4563 -0.3544  0.3326
  188MPD1    H7 2925   2.890   3.038  10.481 -0.7015  0.1956 -1.3098
  189MPD1     C 2926   4.591   4.117   0.563  1.0618 -0.6070  0.3637
  189MPD1    C1 2927   4.510   4.219   0.602 -0.1295  0.2324 -0.0611
  189MPD1    C2 2928   4.378   4.206   0.554  0.2529 -0.8356  0.2373
  189MPD1    C3 2929   4.338   4.111   0.466  0.1036 -0.2173  0.5603
  189MPD1    C4 2930   4.425   4.018   0.422 -0.4335  0.8593  0.2387
  189MPD1    C5 2931   4.552   4.022   0.474 -0.3668  1.0680 -0.4387
  189MPD1     H 2932   4.308   4.279   0.592  1.2644 -1.0143  2.4786
  189MPD1    H1 2933   4.400   3.931   0.363 -0.6920  1.2744 -0.2608
  189MPD1    H2 2934   4.693   4.109   0.599  1.0750 -1.5169  0.1258
  189MPD1    H3 2935   4.627   3.952   0.439 -1.8974  0.2839 -2.2055
  189MPD1     N 2936   4.199   4.113   0.438  0.3980  0.0738  0.0734
  189MPD1    H5 2937   4.140   4.182   0.483 -0.8568 -1.3545  0.6420
  189MPD1    N1 2938   4.546   4.315   0.701  0.0877  0.3692  0.4584
  189MPD1    H6 2939   4.646   4.334   0.695  0.1572 -0.1329  0.0040
  189MPD1    H7 2940   4.512   4.409   0.682  0.4182  0.7093  1.5275
  190MPD1     C 2941   3.408   2.982  15.428 -0.7019 -0.3111  0.2461
  190MPD1    C1 2942   3.365   2.894  15.326  0.1360  0.4200  0.4979
  190MPD1    C2 2943   3.332   2.763  15.366 -0.2271 -0.0476 -0.4957
  190MPD1    C3 2944   3.362   2.716  15.493 -0.1347 -0.5955 -0.4428
  190MPD1    C4 2945   3.405   2.806  15.588 -0.2464  0.1005 -0.4776
  190MPD1    C5 2946   3.438   2.933  15.551 -0.3491 -0.3342 -0.8823
  190MPD1     H 2947   3.289   2.691  15.296  0.6375 -0.2614 -0.8093
  190MPD1    H1 2948   3.404   2.777  15.692 -2.8995  0.8949 -0.2663
  190MPD1    H2 2949   3.436   3.085  15.407 -0.1783 -0.4393  0.3182
  190MPD1    H3 2950   3.473   3.003  15.626 -1.0521 -0.2380 -0.6423
  190MPD1     N 2951   3.339   2.584  15.531 -0.3315 -0.0325 -0.8931
  190MPD1    H5 2952   3.338   2.516  15.456 -1.5509  0.0527 -0.9445
  190MPD1    N1 2953   3.315   2.945  15.208 -0.4535  0.3584 -1.0021
  190MPD1    H6 2954   3.309   2.872  15.137  0.8784 -1.3203  0.5934
  190MPD1    H7 2955   3.369   3.024  15.173  0.6813 -0.9793 -2.2950
  191MPD1     C 2956   3.224   3.761  13.201  0.7179 -0.0790  0.2968
  191MPD1    C1 2957   3.236   3.796  13.062  0.2201 -0.7070  0.0406
  191MPD1    C2 2958   3.118   3.800  12.987 -0.8234  0.3635  0.3061
  191MPD1    C3 2959   2.998   3.783  13.050 -0.3466 -0.2841 -0.5921
  191MPD1    C4 2960   2.985   3.758  13.189  0.1262 -0.0348  0.5553
  191MPD1    C5 2961   3.101   3.729  13.259 -0.5240 -0.0964  0.1996
  191MPD1     H 2962   3.114   3.835  12.885  1.7239  1.8725  0.7412
  191MPD1    H1 2963   2.893   3.731  13.240  0.7327 -1.2608  1.0098
  191MPD1    H2 2964   3.308   3.760  13.270  0.2285  2.5940  0.9274
  191MPD1    H3 2965   3.101   3.699  13.363  0.9442 -0.8407 -0.0161
  191MPD1     N 2966   2.885   3.787  12.964  0.2601 -0.2759  0.4135
  191MPD1    H5 2967   2.906   3.795  12.865 -0.9669 -0.1399  0.1597
  191MPD1    N1 2968   3.367   3.803  13.000  0.0076 -0.5238  0.4762
  191MPD1    H6 2969   3.377   3.866  12.921  4.0264 -0.4273  1.0518
  191MPD1    H7 2970   3.371   3.707  12.966  0.2530 -0.8768  1.4995
  192MPD1     C 2971   1.811   3.786  12.967  0.3410  0.1119  0.4791
  192MPD1    C1 2972   1.907   3.709  13.035  0.4595  0.5134  0.2223
  192MPD1    C2 2973   2.041   3.704  12.998  0.2081 -0.4281  0.0069
  192MPD1    C3 2974   2.089   3.784  12.892  0.5926  0.1944  0.8739
  192MPD1    C4 2975   2.002   3.870  12.834  0.2691 -0.3574  0.6344
  192MPD1    C5 2976   1.864   3.865  12.871 -0.5588 -0.3373  0.0600
  192MPD1     H 2977   2.114   3.650  13.058  2.6716  0.3015 -2.3208
  192MPD1    H1 2978   2.029   3.940  12.756  0.3785 -0.2573  0.7630
  192MPD1    H2 2979   1.706   3.797  12.989  0.0708 -0.8351 -0.3333
  192MPD1    H3 2980   1.804   3.938  12.818 -1.3093 -3.0750 -2.9223
  192MPD1     N 2981   2.219   3.783  12.845 -0.9616 -0.4771 -0.3080
  192MPD1    H5 2982   2.240   3.857  12.778 -0.1122 -0.1728  0.2869
  192MPD1    N1 2983   1.868   3.642  13.156  0.3562 -0.3537  0.8270
  192MPD1    H6 2984   1.904   3.699  13.232 -2.2282 -0.1951  1.9259
  192MPD1    H7 2985   1.768   3.655  13.162  0.3247 -0.3001  0.1616
  193MPD1     C 2986   1.815   4.237  16.661  0.1056  0.6880 -0.3066
  193MPD1    C1 2987   1.914   4.148  16.673 -0.0469 -1.1690  0.1740
  193MPD1    C2 2988   2.033   4.178  16.745  0.5269  0.0451 -0.4335
  193MPD1    C3 2989   2.042   4.289  16.825 -0.4639 -0.1632  0.2296
  193MPD1    C4 2990   1.924   4.360  16.839 -0.6905 -0.0364  0.3619
  193MPD1    C5 2991   1.816   4.334  16.759  0.3087  0.0631 -0.3233
  193MPD1     H 2992   2.113   4.105  16.744  2.2952  1.9832 -3.4818
  193MPD1    H1 2993   1.914   4.448  16.902  1.4688  1.6408 -1.6409
  193MPD1    H2 2994   1.731   4.226  16.593 -1.4492  0.2564  1.6964
  193MPD1    H3 2995   1.725   4.394  16.758  0.1811 -0.1191  0.8239
  193MPD1     N 2996   2.153   4.330  16.904 -0.2339  0.3864  0.1525
  193MPD1    H5 2997   2.136   4.406  16.968  1.6956  0.7072  0.2693
  193MPD1    N1 2998   1.913   4.031  16.589  0.3301  0.0478 -0.4880
  193MPD1    H6 2999   1.965   3.951  16.624  0.8772  1.8930  2.9765
  193MPD1    H7 3000   1.819   4.000  16.566  0.3213  0.7134 -1.3451
  194MPD1     C 3001   3.484   0.672  17.115 -0.3247  0.5588 -0.0546
  194MPD1    C1 3002   3.546   0.550  17.103  0.5738  0.2911  0.3782
  194MPD1    C2 3003   3.671   0.537  17.161  0.0723  0.1072  0.6331
  194MPD1    C3 3004   3.721   0.631  17.247  0.0620  0.2143  0.1089
  194MPD1    C4 3005   3.660   0.756  17.254 -0.8269  0.7330  0.3273
  194MPD1    C5 3006   3.539   0.769  17.188  0.0417 -0.9236  0.2841
  194MPD1     H 3007   3.731   0.448  17.145  0.3007  0.5230 -0.7535
  194MPD1    H1 3008   3.707   0.840  17.304  0.3655 -0.1539  0.7017
  194MPD1    H2 3009   3.391   0.687  17.062  0.7655 -0.0472 -2.1436
  194MPD1    H3 3010   3.493   0.865  17.203  0.4369 -0.6687 -0.1343
  194MPD1     N 3011   3.846   0.606  17.319  0.3361  0.3773  0.1036
  194MPD1    H5 3012   3.892   0.516  17.311  0.3361  0.3258  0.7177
  194MPD1    N1 3013   3.505   0.468  17.000 -0.1657 -0.2425 -0.1103
  194MPD1    H6 3014   3.404   0.468  16.988 -0.0106 -0.3414 -1.4159
  194MPD1    H7 3015   3.529   0.371  17.022 -0.8823 -0.0517  1.5409
  195MPD1     C 3016   2.299   3.310   0.700 -0.4771  0.1933  0.1857
  195MPD1    C1 3017   2.412   3.235   0.725  0.8534  0.7985  0.6054
  195MPD1    C2 3018   2.429   3.111   0.671  0.5875  0.5392  0.6836
  195MPD1    C3 3019   2.336   3.057   0.584  0.7279  0.3411 -0.2304
  195MPD1    C4 3020   2.228   3.130   0.552  0.8725 -0.4639  0.3172
  195MPD1    C5 3021   2.211   3.255   0.607  0.3347  0.2939  0.1793
  195MPD1     H 3022   2.514   3.054   0.709  0.3535 -0.2400  0.0164
  195MPD1    H1 3023   2.151   3.098   0.482 -0.6034  1.6442  0.9671
  195MPD1    H2 3024   2.285   3.406   0.747  2.9835  1.6691 -1.8052
  195MPD1    H3 3025   2.124   3.311   0.577 -0.4349 -0.5304  0.8784
  195MPD1     N 3026   2.343   2.928   0.531 -0.1562  0.1672 -0.0814
  195MPD1    H5 3027   2.255   2.892   0.496 -0.1843 -0.3521  0.5174
  195MPD1    N1 3028   2.499   3.277   0.830 -1.2100 -0.0942 -0.4190
  195MPD1    H6 3029   2.597   3.264   0.806 -0.5048  1.1456  1.6906
  195MPD1    H7 3030   2.488   3.375   0.854  1.3337 -0.1201  0.8940
  196MPD1     C 3031   1.266   2.429   0.499 -0.3299 -0.1567  0.7643
  196MPD1    C1 3032   1.333   2.549   0.485  0.0727  0.2308 -0.2881
  196MPD1    C2 3033   1.370   2.611   0.600  0.3955 -0.1596  0.3960
  196MPD1    C3 3034   1.366   2.550   0.721  0.0255 -1.2488  0.1769
  196MPD1    C4 3035   1.327   2.420   0.725 -0.8726 -0.2782 -0.2544
  196MPD1    C5 3036   1.264   2.367   0.622  0.8109 -0.8153  0.4048
  196MPD1     H 3037   1.389   2.717   0.594  1.2089 -0.4264 -1.7050
  196MPD1    H1 3038   1.332   2.362   0.816 -0.7903 -1.2391 -0.8706
  196MPD1    H2 3039   1.220   2.377   0.417 -0.2872 -0.8246  1.1667
  196MPD1    H3 3040   1.213   2.271   0.630  0.7140 -0.9963 -2.6089
  196MPD1     N 3041   1.386   2.614   0.845 -0.6814  0.3195  0.2082
  196MPD1    H5 3042   1.366   2.558   0.927  0.9472  0.4622  0.6925
  196MPD1    N1 3043   1.316   2.626   0.369  0.2969 -0.1882 -0.5340
  196MPD1    H6 3044   1.389   2.697   0.357  1.2106 -1.1182 -0.4922
  196MPD1    H7 3045   1.316   2.581   0.278  0.7030  2.5373 -1.8996
  197MPD1     C 3046   0.425   0.502  17.138  0.1499  0.0637  0.1733
  197MPD1    C1 3047   0.492   0.624  17.152  0.0223  0.0033 -0.0418
  197MPD1    C2 3048   0.629   0.616  17.165 -0.4185 -0.6077  0.3466
  197MPD1    C3 3049   0.696   0.503  17.195  0.2944  0.1940  0.3873
  197MPD1    C4 3050   0.620   0.385  17.195  0.7293 -0.7057  0.5817
  197MPD1    C5 3051   0.489   0.385  17.164 -0.3119  0.4320 -0.2997
  197MPD1     H 3052   0.688   0.706  17.151 -0.5355 -0.6026 -0.1342
  197MPD1    H1 3053   0.678   0.293  17.201  1.9245  0.0509  0.6837
  197MPD1    H2 3054   0.319   0.492  17.119 -0.0756  0.7174  1.0766
  197MPD1    H3 3055   0.435   0.291  17.155  0.6928 -0.3335  1.8579
  197MPD1     N 3056   0.837   0.494  17.198 -0.3655  0.4226 -0.4157
  197MPD1    H5 3057   0.879   0.402  17.208 -0.2589  0.4284 -0.8251
  197MPD1    N1 3058   0.427   0.740  17.121  0.7276  0.3572  0.7315
  197MPD1    H6 3059   0.463   0.823  17.167  2.2928 -0.2864  0.6761
  197MPD1    H7 3060   0.326   0.746  17.129  0.6640  0.8866 -0.3416
  198MPD1     C 3061   2.827   2.473  15.391 -0.0283  0.8926 -0.2083
  198MPD1    C1 3062   2.908   2.448  15.499  0.5746  0.3456 -0.6577
  198MPD1    C2 3063   2.974   2.553  15.554  0.4013  0.5454 -0.0516
  198MPD1    C3 3064   2.936   2.686  15.530 -0.5087 -0.1074  0.0974
  198MPD1    C4 3065   2.830   2.704  15.435  0.0659  0.3384  0.5907
  198MPD1    C5 3066   2.783   2.596  15.361 -0.4899  0.1709 -0.4068
  198MPD1     H 3067   3.056   2.536  15.622  0.1615 -0.4871 -0.0193
  198MPD1    H1 3068   2.788   2.803  15.421 -3.1715 -1.0226  0.6659
  198MPD1    H2 3069   2.784   2.394  15.330 -0.1130 -0.7407  1.9238
  198MPD1    H3 3070   2.704   2.605  15.287  0.9774  1.3568 -1.7965
  198MPD1     N 3071   2.998   2.796  15.585  0.3155  0.1996  0.2795
  198MPD1    H5 3072   3.077   2.778  15.646 -0.4496  2.1332  1.8488
  198MPD1    N1 3073   2.948   2.322  15.526 -0.7250 -0.4288 -0.2967
  198MPD1    H6 3074   2.875   2.252  15.514 -0.8682 -0.2114 -0.7370
  198MPD1    H7 3075   2.991   2.307  15.617 -2.3088 -0.5861  0.4246
  199MPD1     C 3076   0.526   3.877  10.249  0.1617  0.2978  0.1144
  199MPD1    C1 3077   0.411   3.802  10.261 -0.5468  0.1398 -0.7756
  199MPD1    C2 3078   0.287   3.863  10.228 -0.7665  0.6224  0.0067
  199MPD1    C3 3079   0.281   3.996  10.193  0.2926 -0.2204  0.2046
  199MPD1    C4 3080   0.397   4.068  10.192  0.3720 -0.2767  0.4742
  199MPD1    C5 3081   0.519   4.008  10.216 -0.1563  0.0792  0.1213
  199MPD1     H 3082   0.200   3.798  10.228  1.0378 -1.7829  1.9885
  199MPD1    H1 3083   0.404   4.174  10.174 -0.7996 -0.4599 -1.0410
  199MPD1    H2 3084   0.628   3.847  10.266 -0.9044 -2.5245  1.5985
  199MPD1    H3 3085   0.610   4.065  10.203 -0.0913 -0.1629 -0.4979
  199MPD1     N 3086   0.167   4.070  10.154 -0.6301 -0.6462  0.3082
  199MPD1    H5 3087   0.184   4.167  10.128 -2.4176 -0.3559  0.2101
  199MPD1    N1 3088   0.423   3.660  10.283  0.3648  0.1061 -0.0187
  199MPD1    H6 3089   0.367   3.617  10.357 -0.7909 -0.8977 -1.4957
  199MPD1    H7 3090   0.519   3.652  10.316  0.3309 -0.6575 -0.1253
  200MPD1     C 3091   3.994   0.114  15.333  0.0291 -0.2751 -1.2701
  200MPD1    C1 3092   3.969   0.016  15.239  0.1859 -0.0991 -0.6804
  200MPD1    C2 3093   4.055   0.003  15.121 -0.2348 -0.4369 -0.9847
  200MPD1    C3 3094   4.156   0.100  15.100 -1.1730 -0.3658 -0.9171
  200MPD1    C4 3095   4.178   0.195  15.195  0.5655  0.2597 -0.4114
  200MPD1    C5 3096   4.100   0.201  15.306 -0.1862  0.4053  0.5133
  200MPD1     H 3097   4.044   4.658  15.053  1.8368 -1.7883  0.3352
  200MPD1    H1 3098   4.255   0.271  15.183 -0.4701  1.1756 -1.2010
  200MPD1    H2 3099   3.949   0.134  15.429 -2.2657  0.4839 -2.5192
  200MPD1    H3 3100   4.123   0.284  15.372 -1.2180  0.6306  0.5793
  200MPD1     N 3101   4.233   0.085  14.987  0.3925  0.8566 -0.2519
  200MPD1    H5 3102   4.206   0.009  14.926 -0.4317  1.3789 -0.5340
  200MPD1    N1 3103   3.880   4.653  15.278  0.4547 -0.2235 -0.4421
  200MPD1    H6 3104   3.842   4.602  15.198  1.5902  0.9063 -1.7026
  200MPD1    H7 3105   3.813   4.698  15.340  1.6126  1.4724 -0.4235
  201MPD1     C 3106   1.448   3.462  13.421  0.1384  0.0159 -0.0426
  201MPD1    C1 3107   1.499   3.441  13.296 -0.4054 -0.7711  0.3176
  201MPD1    C2 3108   1.543   3.307  13.269  0.0352 -0.5178  0.2850
  201MPD1    C3 3109   1.551   3.203  13.361  0.3703 -0.1848  0.0128
  201MPD1    C4 3110   1.487   3.234  13.477  0.4739  0.1160  0.1768
  201MPD1    C5 3111   1.444   3.358  13.513  1.0384 -0.0797 -0.5974
  201MPD1     H 3112   1.578   3.279  13.171 -3.4462 -1.6209 -0.6445
  201MPD1    H1 3113   1.456   3.159  13.549 -1.9312 -0.5608 -1.5644
  201MPD1    H2 3114   1.422   3.558  13.465  1.8836  1.1804 -1.5803
  201MPD1    H3 3115   1.408   3.369  13.614 -0.4879  0.7896 -1.2275
  201MPD1     N 3116   1.602   3.081  13.331  0.0286  0.4191  0.0907
  201MPD1    H5 3117   1.608   3.043  13.238  0.3525  1.4146 -0.2966
  201MPD1    N1 3118   1.524   3.551  13.210  0.1140  0.1088 -0.0657
  201MPD1    H6 3119   1.449   3.620  13.217  0.0286 -0.2711  2.8155
  201MPD1    H7 3120   1.540   3.534  13.111 -0.5999  0.4145 -0.2311
  202MPD1     C 3121   1.569   2.522   9.309 -1.4574 -0.1504 -0.2535
  202MPD1    C1 3122   1.482   2.616   9.356  0.5385 -0.9612 -0.1964
  202MPD1    C2 3123   1.510   2.663   9.487  0.0531  0.3143  0.4646
  202MPD1    C3 3124   1.601   2.597   9.568 -0.6751 -0.4856  0.3572
  202MPD1    C4 3125   1.679   2.485   9.521 -0.2758  0.2921 -0.1581
  202MPD1    C5 3126   1.666   2.455   9.384 -0.0108  0.0604  0.1172
  202MPD1     H 3127   1.477   2.763   9.513 -1.8578 -0.1488 -0.2277
  202MPD1    H1 3128   1.762   2.453   9.584  1.0948 -0.0006 -2.1098
  202MPD1    H2 3129   1.567   2.492   9.205 -1.2747  0.0037 -0.3026
  202MPD1    H3 3130   1.734   2.392   9.328  0.5768  1.2653 -0.5291
  202MPD1     N 3131   1.612   2.632   9.703 -0.1789 -0.4623  0.8147
  202MPD1    H5 3132   1.685   2.589   9.759  0.5996  1.2451  1.1277
  202MPD1    N1 3133   1.431   2.704   9.264  0.4257  0.0186 -0.1481
  202MPD1    H6 3134   1.386   2.654   9.188  1.4218 -1.7510  0.4411
  202MPD1    H7 3135   1.362   2.761   9.312 -1.1013 -0.8916 -1.2478
  203MPD1     C 3136   0.484   3.466  12.382 -0.3833  0.1458 -0.0481
  203MPD1    C1 3137   0.493   3.332  12.355 -0.1807  0.2473  0.1344
  203MPD1    C2 3138   0.536   3.246  12.461  0.4906 -0.3574 -0.3340
  203MPD1    C3 3139   0.573   3.292  12.586 -0.6565  0.0344 -0.0082
  203MPD1    C4 3140   0.559   3.426  12.608  0.3644 -0.2901 -0.2184
  203MPD1    C5 3141   0.517   3.513  12.504 -0.0506 -0.8272  0.1161
  203MPD1     H 3142   0.541   3.138  12.448  3.5337 -0.4684  1.7738
  203MPD1    H1 3143   0.577   3.465  12.708  0.2464  0.1308 -0.3651
  203MPD1    H2 3144   0.465   3.544  12.308  1.3417 -0.0294 -0.6948
  203MPD1    H3 3145   0.510   3.619  12.523 -0.0679 -0.8253  0.0985
  203MPD1     N 3146   0.632   3.196  12.664  0.1506 -0.1281  0.0156
  203MPD1    H5 3147   0.646   3.100  12.633 -0.6507 -0.3000  0.1741
  203MPD1    N1 3148   0.454   3.270  12.235  0.2532 -0.6181  0.1338
  203MPD1    H6 3149   0.443   3.341  12.163 -1.2045 -0.2156  0.7615
  203MPD1    H7 3150   0.523   3.201  12.206  0.0841 -0.5651 -0.4022
  204MPD1     C 3151   4.014   0.306  17.556  0.3249  0.1608  0.0502
  204MPD1    C1 3152   4.032   0.266  17.426  0.7047  0.2283 -0.1462
  204MPD1    C2 3153   4.148   0.204  17.392  0.0187 -0.2782  0.0386
  204MPD1    C3 3154   4.241   0.164  17.487 -0.3946  0.7609 -0.1758
  204MPD1    C4 3155   4.214   0.197  17.621  0.5416  0.2299  0.5850
  204MPD1    C5 3156   4.108   0.279  17.653 -0.1644  0.5129  0.5906
  204MPD1     H 3157   4.169   0.169  17.292 -1.1499 -1.7826  0.3152
  204MPD1    H1 3158   4.280   0.174  17.704  1.7757 -1.5685 -0.8799
  204MPD1    H2 3159   3.924   0.361  17.582 -0.7187 -1.7466  0.4006
  204MPD1    H3 3160   4.087   0.308   0.001 -0.6331 -0.9476  0.9163
  204MPD1     N 3161   4.338   0.073  17.449 -0.3025 -0.2496 -0.7128
  204MPD1    H5 3162   4.336   0.043  17.352 -0.7326 -0.7928 -0.5371
  204MPD1    N1 3163   3.934   0.301  17.330 -0.0988 -1.1589 -0.0721
  204MPD1    H6 3164   3.927   0.234  17.253 -1.0236  0.3868 -1.3329
  204MPD1    H7 3165   3.842   0.313  17.372  0.1540  2.6284 -0.6674
  205MPD1     C 3166   0.385   3.067  17.086  0.5032 -0.5672  0.4578
  205MPD1    C1 3167   0.392   3.206  17.074 -0.1466 -0.4005  0.3407
  205MPD1    C2 3168   0.336   3.289  17.171 -0.2265  0.0482  0.0038
  205MPD1    C3 3169   0.298   3.231  17.285 -0.7143  0.2585  0.1264
  205MPD1    C4 3170   0.311   3.096  17.308 -0.5735  0.7651 -0.0296
  205MPD1    C5 3171   0.355   3.011  17.209  0.2427  0.1346 -0.2647
  205MPD1     H 3172   0.338   3.393  17.141  1.5237  0.2954  0.9708
  205MPD1    H1 3173   0.277   3.048  17.399 -0.5848  0.5985 -0.1213
  205MPD1    H2 3174   0.419   2.998  17.010  0.5899  0.0846 -0.0940
  205MPD1    H3 3175   0.348   2.904  17.225 -0.2613  0.0965 -0.7172
  205MPD1     N 3176   0.243   3.300  17.394  0.1684  0.0498 -0.5301
  205MPD1    H5 3177   0.215   3.243  17.473  1.9606  0.7724  0.6193
  205MPD1    N1 3178   0.420   3.255  16.943  0.0246 -0.2061 -0.5947
  205MPD1    H6 3179   0.490   3.203  16.891 -1.1464 -0.4320 -1.9702
  205MPD1    H7 3180   0.461   3.346  16.957 -1.4371  0.6763 -1.9793
  206MPD1     C 3181   0.521   1.085  17.002 -0.1806 -0.8012  0.0395
  206MPD1    C1 3182   0.429   1.175  17.044 -0.1331  0.2620 -0.1580
  206MPD1    C2 3183   0.330   1.212  16.960  0.6559  0.0511 -0.0154
  206MPD1    C3 3184   0.339   1.173  16.822  0.1094 -0.0134 -0.3200
  206MPD1    C4 3185   0.449   1.103  16.774 -0.5829 -0.1637  0.1305
  206MPD1    C5 3186   0.531   1.056  16.868  0.2388 -0.3679  0.2119
  206MPD1     H 3187   0.259   1.284  16.999  1.5486  2.3881 -2.6490
  206MPD1    H1 3188   0.464   1.074  16.671  1.5685 -1.7220  0.8998
  206MPD1    H2 3189   0.600   1.057  17.071 -0.7582  0.8456  1.3701
  206MPD1    H3 3190   0.601   0.979  16.839  1.3701  1.0431 -0.8460
  206MPD1     N 3191   0.243   1.208  16.721 -0.0852 -0.4592  0.6013
  206MPD1    H5 3192   0.267   1.188  16.625  1.5807  1.3237  0.6540
  206MPD1    N1 3193   0.424   1.214  17.176  1.0985 -0.1633  0.0604
  206MPD1    H6 3194   0.512   1.208  17.228  1.9819 -0.4997 -1.4689
  206MPD1    H7 3195   0.365   1.294  17.198 -1.2700 -1.9965  0.2828
  207MPD1     C 3196   2.693   3.826   9.528 -0.0309 -0.1613 -0.2847
  207MPD1    C1 3197   2.776   3.934   9.514 -0.3487  0.4946  0.1558
  207MPD1    C2 3198   2.858   3.967   9.619 -0.5394  0.3858  0.8052
  207MPD1    C3 3199   2.857   3.892   9.740  0.1035 -0.4328 -0.5935
  207MPD1    C4 3200   2.757   3.798   9.755 -0.5798 -0.1954  0.1181
  207MPD1    C5 3201   2.681   3.763   9.651  0.1244  0.2739 -0.1016
  207MPD1     H 3202   2.919   4.055   9.601 -0.2812  0.2414  0.9789
  207MPD1    H1 3203   2.753   3.738   9.845 -0.1465 -2.5202 -1.4315
  207MPD1    H2 3204   2.626   3.792   9.451  0.4321 -0.0931 -0.7192
  207MPD1    H3 3205   2.618   3.675   9.649 -0.2174  0.4901  0.8073
  207MPD1     N 3206   2.940   3.919   9.851 -0.0742  0.5091 -1.3169
  207MPD1    H5 3207   2.913   3.873   9.938  0.1067 -0.4948 -1.7984
  207MPD1    N1 3208   2.767   4.017   9.399 -0.1791  0.5962  0.7775
  207MPD1    H6 3209   2.841   4.085   9.383  0.7560 -0.9223 -1.4132
  207MPD1    H7 3210   2.749   3.961   9.316 -0.0671  1.8515 -0.0905
  208MPD1     C 3211   1.110   3.098  17.582 -0.0991  0.3074 -0.3072
  208MPD1    C1 3212   1.177   3.089  17.700  0.3819  0.2666  0.1740
  208MPD1    C2 3213   1.105   3.036   0.054  0.4393 -0.1096 -0.3726
  208MPD1    C3 3214   0.967   3.026   0.056 -0.0448 -0.4194 -0.3911
  208MPD1    C4 3215   0.896   3.062  17.697 -0.7686 -0.0557  0.6707
  208MPD1    C5 3216   0.971   3.085  17.580 -0.6711 -0.5943  0.1118
  208MPD1     H 3217   1.159   3.032   0.148  0.9642  1.9568 -0.5878
  208MPD1    H1 3218   0.788   3.046  17.699 -0.8429  0.2415 -1.3258
  208MPD1    H2 3219   1.157   3.130  17.490 -0.5520  0.9798 -0.3056
  208MPD1    H3 3220   0.928   3.103  17.482  3.5241  0.4764 -1.5213
  208MPD1     N 3221   0.904   2.986   0.180  0.1628 -0.1522 -0.2061
  208MPD1    H5 3222   0.970   2.975   0.257 -1.2901 -2.0253  0.7722
  208MPD1    N1 3223   1.314   3.088  17.704 -0.5987 -0.5851 -0.4544
  208MPD1    H6 3224   1.354   3.160  17.644 -0.1027  0.2589  0.8918
  208MPD1    H7 3225   1.356   3.108   0.041  0.5748 -1.3088 -0.8309
  209MPD1     C 3226   2.998   2.719  10.987 -0.2307 -1.2123  0.9150
  209MPD1    C1 3227   3.001   2.776  10.862 -0.7518 -0.6551  0.2533
  209MPD1    C2 3228   3.054   2.897  10.852  0.1223  0.0268  0.3642
  209MPD1    C3 3229   3.101   2.970  10.969 -0.6574 -0.0934 -0.6738
  209MPD1    C4 3230   3.084   2.914  11.092  0.7992 -0.3462  0.1319
  209MPD1    C5 3231   3.040   2.786  11.094  0.4610 -0.0900 -0.1208
  209MPD1     H 3232   3.063   2.938  10.752 -2.7790  0.4983  0.2931
  209MPD1    H1 3233   3.106   2.969  11.182 -0.1955  0.0063  0.1512
  209MPD1    H2 3234   2.945   2.625  10.993  0.8222 -1.9261 -1.2056
  209MPD1    H3 3235   3.031   2.741  11.192 -0.4811 -1.8105 -0.9992
  209MPD1     N 3236   3.156   3.099  10.948 -0.4673 -0.1852 -0.1319
  209MPD1    H5 3237   3.166   3.129  10.852 -1.4523 -1.5428 -0.6624
  209MPD1    N1 3238   2.971   2.698  10.754  0.2464  0.3927 -0.1328
  209MPD1    H6 3239   2.936   2.757  10.678  0.3678  0.3333 -0.2349
  209MPD1    H7 3240   2.906   2.620  10.764  0.2208  0.6112  1.3184
  210MPD1     C 3241   3.942   3.804  11.150 -0.0153 -0.1802  0.2000
  210MPD1    C1 3242   3.910   3.690  11.217 -0.5324 -0.5744 -0.2528
  210MPD1    C2 3243   3.817   3.605  11.167  0.4386 -0.6779 -0.1197
  210MPD1    C3 3244   3.742   3.636  11.058 -0.0322  0.1807  0.4203
  210MPD1    C4 3245   3.769   3.758  10.997 -0.3329  0.0725 -0.3099
  210MPD1    C5 3246   3.864   3.844  11.044  0.1398  0.2168 -0.2581
  210MPD1     H 3247   3.812   3.507  11.212 -1.4257 -1.1491 -1.3699
  210MPD1    H1 3248   3.700   3.788  10.920  1.6904  3.4040 -0.7980
  210MPD1    H2 3249   4.027   3.869  11.170 -0.9686  0.8373  0.9153
  210MPD1    H3 3250   3.886   3.937  10.993 -1.8112  1.1581  0.6007
  210MPD1     N 3251   3.648   3.556  10.995 -0.4509 -0.2329  0.2611
  210MPD1    H5 3252   3.606   3.597  10.912  1.0692  1.0179  0.1003
  210MPD1    N1 3253   3.987   3.653  11.325 -0.4110 -0.3521 -0.2471
  210MPD1    H6 3254   3.933   3.604  11.396 -0.6000  0.1231 -0.0642
  210MPD1    H7 3255   4.033   3.728  11.375 -2.1289  0.4637  0.1120
  211MPD1     C 3256   0.916   3.499  16.720 -0.5339 -0.2436  0.4337
  211MPD1    C1 3257   0.866   3.618  16.661  0.3958  0.1624 -0.2538
  211MPD1    C2 3258   0.729   3.625  16.639 -0.1842 -0.2091 -0.1269
  211MPD1    C3 3259   0.640   3.528  16.669  0.3448  0.4304  0.1000
  211MPD1    C4 3260   0.687   3.418  16.742 -0.3518 -0.3807 -0.5120
  211MPD1    C5 3261   0.822   3.403  16.755  0.6396 -0.0525 -0.2745
  211MPD1     H 3262   0.686   3.704  16.579 -3.5126 -1.0509  1.1808
  211MPD1    H1 3263   0.623   3.339  16.778  0.1930 -0.7918 -0.4495
  211MPD1    H2 3264   1.018   3.472  16.744  0.2057  3.7599  1.9350
  211MPD1    H3 3265   0.858   3.306  16.788 -0.7899 -0.5147 -0.0636
  211MPD1     N 3266   0.511   3.535  16.618  0.1491  0.3889 -0.5867
  211MPD1    H5 3267   0.474   3.626  16.594 -0.5086  0.1160 -0.6018
  211MPD1    N1 3268   0.946   3.733  16.641  0.0188 -0.6672  0.3926
  211MPD1    H6 3269   0.912   3.793  16.566  0.5222 -0.3917  0.3846
  211MPD1    H7 3270   1.046   3.717  16.638 -0.1955 -1.7460 -1.5923
  212MPD1     C 3271   4.108   1.855  16.773 -0.2623 -0.0269 -0.1272
  212MPD1    C1 3272   4.086   1.876  16.908 -0.4337 -0.3209  0.4019
  212MPD1    C2 3273   3.983   1.797  16.966  0.4667 -0.0618 -0.0757
  212MPD1    C3 3274   3.891   1.722  16.891 -0.3190 -0.1241 -1.0224
  212MPD1    C4 3275   3.902   1.728  16.749 -0.3939  0.8316  0.5774
  212MPD1    C5 3276   4.020   1.785  16.699  0.7991 -0.2529  0.8870
  212MPD1     H 3277   3.974   1.792  17.074  3.4383 -1.4837  0.1226
  212MPD1    H1 3278   3.829   1.692  16.677 -0.6063 -0.9753  1.7091
  212MPD1    H2 3279   4.196   1.901  16.730 -0.9352  2.1109  0.7623
  212MPD1    H3 3280   4.043   1.788  16.593 -0.0222  1.0998  0.7506
  212MPD1     N 3281   3.788   1.649  16.944  0.1203 -0.0668 -1.1382
  212MPD1    H5 3282   3.718   1.607  16.883  1.0421 -0.4133 -1.9462
  212MPD1    N1 3283   4.191   1.931  16.987  0.8860  0.5821  0.2906
  212MPD1    H6 3284   4.159   1.970  17.075  2.1082  0.6023  0.7291
  212MPD1    H7 3285   4.260   1.987  16.937  0.9137 -0.0537 -0.3838
  213MPD1     C 3286   2.312   2.411  16.088 -0.2277 -0.0797 -0.6750
  213MPD1    C1 3287   2.333   2.279  16.054 -0.4245  0.0694 -0.4692
  213MPD1    C2 3288   2.341   2.266  15.918 -0.6182  0.0357 -0.0471
  213MPD1    C3 3289   2.366   2.365  15.821 -0.4192 -0.4047 -0.6499
  213MPD1    C4 3290   2.370   2.492  15.865  0.5540  0.2361 -0.1117
  213MPD1    C5 3291   2.351   2.504  15.999  0.1022  0.2349 -0.6364
  213MPD1     H 3292   2.335   2.162  15.886 -0.0651 -0.2580  0.8157
  213MPD1    H1 3293   2.391   2.577  15.801 -2.0185  1.5541  0.7880
  213MPD1    H2 3294   2.296   2.435  16.193  0.2990 -2.0590 -0.1539
  213MPD1    H3 3295   2.370   2.605  16.036  3.4060 -0.2367 -0.9881
  213MPD1     N 3296   2.378   2.323  15.680 -0.0610  0.6136 -0.3102
  213MPD1    H5 3297   2.361   2.226  15.656  0.0832  0.5528 -0.1685
  213MPD1    N1 3298   2.289   2.176  16.133  0.7679  0.4270  0.1012
  213MPD1    H6 3299   2.294   2.174  16.235  0.8616 -0.2165  0.0895
  213MPD1    H7 3300   2.318   2.086  16.094  0.3935  0.5509 -0.4537
  214MPD1     C 3301   2.296   1.553  15.311 -0.3404 -0.3773 -0.6406
  214MPD1    C1 3302   2.279   1.632  15.205 -0.3085 -0.0459 -0.5810
  214MPD1    C2 3303   2.278   1.769  15.222 -0.2403  0.3331 -0.1886
  214MPD1    C3 3304   2.297   1.826  15.345  0.2226  0.1559  0.1617
  214MPD1    C4 3305   2.327   1.747  15.453  0.2484  0.5528  0.7142
  214MPD1    C5 3306   2.321   1.611  15.432  0.4461  0.1859  0.0651
  214MPD1     H 3307   2.273   1.837  15.138 -0.1752 -0.9064 -1.2029
  214MPD1    H1 3308   2.356   1.792  15.547 -1.9854  3.3927  0.0470
  214MPD1    H2 3309   2.280   1.446  15.306  1.8907 -0.6945 -0.8815
  214MPD1    H3 3310   2.339   1.549  15.519  0.5168  1.9042  1.2763
  214MPD1     N 3311   2.294   1.968  15.359 -0.0938 -0.8761 -0.3805
  214MPD1    H5 3312   2.342   2.004  15.441  0.8011  0.3427 -1.4319
  214MPD1    N1 3313   2.245   1.584  15.077 -0.0106  0.2535  0.4108
  214MPD1    H6 3314   2.305   1.510  15.042  0.7082  0.3090  1.5417
  214MPD1    H7 3315   2.255   1.662  15.012 -0.6025 -0.0783 -0.0883
  215MPD1     C 3316   2.100   2.653  10.987  0.0887 -0.4742  0.5189
  215MPD1    C1 3317   2.170   2.640  11.100  0.2032  0.5476  0.2009
  215MPD1    C2 3318   2.288   2.718  11.116  0.2075 -0.4192  0.3089
  215MPD1    C3 3319   2.325   2.804  11.017 -0.1727  0.6400 -0.0168
  215MPD1    C4 3320   2.235   2.829  10.909 -0.2389  0.2946 -0.1466
  215MPD1    C5 3321   2.126   2.747  10.895 -0.1188  0.8118  0.1847
  215MPD1     H 3322   2.355   2.706  11.200  0.0323  1.5543  0.7284
  215MPD1    H1 3323   2.247   2.899  10.826  0.5622  1.5725  1.0498
  215MPD1    H2 3324   2.011   2.596  10.963  0.3898 -0.1813 -1.3017
  215MPD1    H3 3325   2.058   2.764  10.812 -0.2216 -0.7054 -0.0553
  215MPD1     N 3326   2.446   2.872  11.040 -0.1239 -0.4664  0.0012
  215MPD1    H5 3327   2.503   2.836  11.116  0.0377 -2.0814 -0.8904
  215MPD1    N1 3328   2.141   2.526  11.174  0.5937 -0.0053  0.5598
  215MPD1    H6 3329   2.042   2.503  11.171  0.5793  0.1524 -0.2396
  215MPD1    H7 3330   2.176   2.543  11.268 -1.0929  0.1308  1.1634
  216MPD1     C 3331   3.231   4.230   0.727 -0.2033 -1.3139  0.6508
  216MPD1    C1 3332   3.260   4.286   0.848  0.9262 -0.4609  0.2077
  216MPD1    C2 3333   3.334   4.402   0.846 -1.1461  0.2274 -0.0644
  216MPD1    C3 3334   3.366   4.478   0.734 -0.4186  0.0025  0.2853
  216MPD1    C4 3335   3.329   4.420   0.614  0.7849  1.1650 -0.6997
  216MPD1    C5 3336   3.256   4.307   0.618  0.2242 -0.6615 -0.6309
  216MPD1     H 3337   3.376   4.440   0.939  1.5061 -3.2209  0.1254
  216MPD1    H1 3338   3.357   4.452   0.514  2.3478  2.2448  0.0941
  216MPD1    H2 3339   3.186   4.132   0.718 -0.7310 -0.9481 -0.7185
  216MPD1    H3 3340   3.252   4.250   0.526  0.8889 -0.7231 -0.6170
  216MPD1     N 3341   3.458   4.585   0.741  0.8008  0.1143 -0.7063
  216MPD1    H5 3342   3.496   4.593   0.835 -0.7080  1.5526 -0.2212
  216MPD1    N1 3343   3.248   4.213   0.965 -0.0179  0.4933 -0.1525
  216MPD1    H6 3344   3.238   4.268   1.050  0.4948  0.0343  0.2027
  216MPD1    H7 3345   3.157   4.169   0.953  0.3981 -0.2850 -0.4226
  217MPD1     C 3346   0.539   2.635   8.450 -0.0883 -0.4050  0.3233
  217MPD1    C1 3347   0.425   2.651   8.536  0.8296  0.6315  0.2771
  217MPD1    C2 3348   0.448   2.702   8.659 -0.0916  0.6482  0.1024
  217MPD1    C3 3349   0.571   2.747   8.698 -0.8789 -0.1960 -0.4175
  217MPD1    C4 3350   0.674   2.742   8.605 -0.2941  0.3580 -0.1346
  217MPD1    C5 3351   0.663   2.683   8.485 -0.2999 -0.1412  0.1650
  217MPD1     H 3352   0.366   2.700   8.730  0.9930  0.4607  1.3507
  217MPD1    H1 3353   0.775   2.771   8.629  0.2194 -1.1747 -0.4399
  217MPD1    H2 3354   0.519   2.597   8.350 -2.5682 -0.1987  0.7602
  217MPD1    H3 3355   0.747   2.656   8.421 -1.3013 -1.4717 -0.5792
  217MPD1     N 3356   0.607   2.801   8.822 -0.2685 -0.4656 -0.5426
  217MPD1    H5 3357   0.701   2.838   8.834 -0.9684  0.9758  0.4265
  217MPD1    N1 3358   0.305   2.592   8.501 -0.2353 -0.6733  0.2872
  217MPD1    H6 3359   0.229   2.637   8.552  0.7055  1.2373  0.0309
  217MPD1    H7 3360   0.288   2.603   8.401  1.4278 -0.7319 -0.0059
  218MPD1     C 3361   2.207   3.362  13.290 -0.6613  0.7348  0.6476
  218MPD1    C1 3362   2.296   3.449  13.346  0.7992 -0.3404  0.2750
  218MPD1    C2 3363   2.418   3.463  13.285 -0.0620  0.1846 -0.3276
  218MPD1    C3 3364   2.450   3.402  13.168  0.2214 -0.8038  0.4036
  218MPD1    C4 3365   2.354   3.322  13.109 -0.3502  0.4490 -0.3407
  218MPD1    C5 3366   2.239   3.296  13.174 -0.5000  0.0498 -0.1322
  218MPD1     H 3367   2.486   3.526  13.342 -1.3176  1.0720  0.1855
  218MPD1    H1 3368   2.367   3.276  13.011  0.3529  3.3915 -1.6226
  218MPD1    H2 3369   2.106   3.345  13.326 -0.5440  0.0772  0.6624
  218MPD1    H3 3370   2.161   3.236  13.128  0.7820 -0.9539 -0.9887
  218MPD1     N 3371   2.579   3.431  13.109  0.1487 -0.5295 -0.4616
  218MPD1    H5 3372   2.632   3.500  13.160 -1.2140  0.7004 -0.7036
  218MPD1    N1 3373   2.282   3.495  13.478 -0.2251  0.6603 -0.0186
  218MPD1    H6 3374   2.324   3.588  13.475  0.1057  0.5271  0.5524
  218MPD1    H7 3375   2.186   3.521  13.499 -1.2549  0.0040 -3.9727
  219MPD1     C 3376   3.268   3.501  12.271  0.7096  0.4459  0.1442
  219MPD1    C1 3377   3.149   3.566  12.302 -0.0495 -0.1564  0.1060
  219MPD1    C2 3378   3.083   3.543  12.422 -0.3214  0.1878  0.1616
  219MPD1    C3 3379   3.153   3.472  12.519  0.0407  0.4730 -0.2678
  219MPD1    C4 3380   3.276   3.421  12.493  0.0812 -0.2451  0.7456
  219MPD1    C5 3381   3.332   3.436  12.371  1.1058  0.0999  0.4404
  219MPD1     H 3382   2.997   3.605  12.448 -0.5576  0.4860 -1.2984
  219MPD1    H1 3383   3.332   3.379  12.575  0.0646 -2.6942 -0.4876
  219MPD1    H2 3384   3.312   3.516  12.173 -1.1668 -5.3592 -1.5926
  219MPD1    H3 3385   3.433   3.402  12.352  0.9609  0.3366 -0.7401
  219MPD1     N 3386   3.102   3.453  12.648 -0.0554  0.5480  0.6007
  219MPD1    H5 3387   3.159   3.395  12.708  0.2624  2.5025  2.1902
  219MPD1    N1 3388   3.088   3.648  12.204  0.5186 -0.4983 -0.1253
  219MPD1    H6 3389   3.032   3.724  12.241 -0.6494 -0.6085 -1.6718
  219MPD1    H7 3390   3.145   3.668  12.122 -0.4550  0.8023 -0.4834
  220MPD1     C 3391   1.985   4.172   9.710 -1.0926 -0.1089 -0.7537
  220MPD1    C1 3392   1.912   4.080   9.777  0.1775  1.1711 -0.9743
  220MPD1    C2 3393   1.962   4.030   9.896 -0.2129 -0.8559  0.7565
  220MPD1    C3 3394   2.084   4.075   9.945 -0.2574  0.6243 -0.4186
  220MPD1    C4 3395   2.166   4.164   9.870 -1.3496  0.1378 -0.4858
  220MPD1    C5 3396   2.113   4.211   9.752 -0.4935  0.2873  0.2141
  220MPD1     H 3397   1.911   3.942   9.934 -0.7852 -1.2471 -0.9169
  220MPD1    H1 3398   2.266   4.195   9.898 -2.5006  1.5699  2.0469
  220MPD1    H2 3399   1.942   4.221   9.623  0.7858  1.2760 -0.8936
  220MPD1    H3 3400   2.165   4.274   9.682 -1.4744 -0.4906 -1.2112
  220MPD1     N 3401   2.127   4.016  10.067  0.1749 -0.3752 -0.2180
  220MPD1    H5 3402   2.070   3.941  10.104  0.7313 -0.6783  0.0182
  220MPD1    N1 3403   1.773   4.073   9.751  0.5061 -0.2898  0.1750
  220MPD1    H6 3404   1.755   4.112   9.659 -2.5884  0.0849  0.9233
  220MPD1    H7 3405   1.730   3.982   9.765  2.0086 -0.9243  0.6217
  221MPD1     C 3406   0.366   1.901  17.231  0.6151 -0.0336 -0.4179
  221MPD1    C1 3407   0.405   1.928  17.101  0.1505 -0.1119 -0.5476
  221MPD1    C2 3408   0.313   1.974  17.012  0.3163 -0.2280  0.2999
  221MPD1    C3 3409   0.189   2.012  17.060 -0.4385 -0.2014  0.6762
  221MPD1    C4 3410   0.152   1.987  17.195  0.0855 -0.1616  0.4411
  221MPD1    C5 3411   0.243   1.925  17.277  0.1171 -0.0788 -0.2169
  221MPD1     H 3412   0.346   1.987  16.910 -2.5158  2.6598 -0.2245
  221MPD1    H1 3413   0.059   2.017  17.242 -0.4890  0.3163 -1.0275
  221MPD1    H2 3414   0.430   1.838  17.292 -1.9336 -0.9743  1.2971
  221MPD1    H3 3415   0.222   1.904  17.381 -0.5429  1.8403  0.0350
  221MPD1     N 3416   0.095   2.092  16.988  0.2588  0.4759 -0.6481
  221MPD1    H5 3417   0.004   2.104  17.033  0.3920  2.2993 -0.8364
  221MPD1    N1 3418   0.530   1.892  17.053 -0.5321  0.2982 -0.6844
  221MPD1    H6 3419   0.561   1.942  16.970 -0.9391  3.2576  0.9697
  221MPD1    H7 3420   0.600   1.914  17.124  1.7518 -1.7731 -2.2678
  222MPD1     C 3421   2.634   1.548   1.063  0.7931  0.1618  0.7452
  222MPD1    C1 3422   2.642   1.632   0.958 -0.0756 -0.0689 -0.4840
  222MPD1    C2 3423   2.761   1.709   0.947  0.3598  0.3589  0.3290
  222MPD1    C3 3424   2.854   1.712   1.042  0.1951  0.0383  0.3833
  222MPD1    C4 3425   2.840   1.634   1.155  0.2290  0.3442  0.2587
  222MPD1    C5 3426   2.728   1.552   1.165 -0.2804 -0.1622 -0.0595
  222MPD1     H 3427   2.766   1.770   0.858 -1.2431 -0.5316 -0.3873
  222MPD1    H1 3428   2.907   1.631   1.239  2.0202  3.2921 -1.0429
  222MPD1    H2 3429   2.550   1.479   1.059  0.6189  0.4014  0.3073
  222MPD1    H3 3430   2.718   1.485   1.250  0.0566  2.4088  2.0070
  222MPD1     N 3431   2.974   1.784   1.023 -0.1731  0.3363  0.3766
  222MPD1    H5 3432   3.051   1.748   1.078  0.8984  4.2577  1.4031
  222MPD1    N1 3433   2.559   1.618   0.843 -0.1336 -0.1101 -0.0341
  222MPD1    H6 3434   2.461   1.599   0.867 -0.1181 -2.4549 -1.9298
  222MPD1    H7 3435   2.557   1.699   0.782 -1.3902  1.0635  1.5484
  223MPD1     C 3436   3.608   1.226   0.875  0.3238 -0.3563  0.2431
  223MPD1    C1 3437   3.673   1.337   0.915 -0.7019 -0.0040  0.2182
  223MPD1    C2 3438   3.613   1.464   0.896  0.0527  0.6048 -0.3327
  223MPD1    C3 3439   3.484   1.480   0.835  0.2342  1.0098  0.0866
  223MPD1    C4 3440   3.427   1.361   0.787  0.0783 -0.7244 -0.0465
  223MPD1    C5 3441   3.489   1.241   0.810  0.0632 -0.1986  0.2393
  223MPD1     H 3442   3.674   1.550   0.919 -0.9730  0.1594  4.1773
  223MPD1    H1 3443   3.328   1.376   0.746 -0.3808  1.7044  1.8649
  223MPD1    H2 3444   3.649   1.127   0.891 -0.8660 -0.8861  0.0834
  223MPD1    H3 3445   3.449   1.147   0.773 -0.6305  0.0623  0.3201
  223MPD1     N 3446   3.418   1.602   0.812 -0.3975 -0.1417 -0.1989
  223MPD1    H5 3447   3.330   1.599   0.762 -1.3103 -1.5518  1.4547
  223MPD1    N1 3448   3.812   1.330   0.953  0.3698 -0.3695  0.2274
  223MPD1    H6 3449   3.823   1.396   1.029 -1.6928 -1.7744  1.7553
  223MPD1    H7 3450   3.831   1.237   0.992  2.3266 -0.9733 -2.1764
  224MPD1     C 3451   0.583   3.783   9.443 -0.4485 -0.0518 -0.4546
  224MPD1    C1 3452   0.674   3.685   9.428 -0.0565  1.0210 -0.4700
  224MPD1    C2 3453   0.714   3.612   9.537 -0.4404  0.1446  0.2441
  224MPD1    C3 3454   0.666   3.644   9.665  0.3714  0.6423  0.7325
  224MPD1    C4 3455   0.574   3.740   9.672 -0.0618 -0.5854  0.6420
  224MPD1    C5 3456   0.534   3.809   9.567 -0.1942 -0.5300 -0.2082
  224MPD1     H 3457   0.782   3.528   9.528 -0.1062 -0.0255  4.2690
  224MPD1    H1 3458   0.537   3.771   9.769  0.2856  1.3183  0.1695
  224MPD1    H2 3459   0.543   3.840   9.359  0.6546  0.5562 -0.5709
  224MPD1    H3 3460   0.463   3.889   9.581  0.6238  0.2584 -0.5669
  224MPD1     N 3461   0.705   3.572   9.777 -0.1679 -0.7460 -0.1748
  224MPD1    H5 3462   0.675   3.599   9.870 -0.7985 -1.8347 -0.0597
  224MPD1    N1 3463   0.699   3.624   9.307 -0.2657  0.0717 -0.5323
  224MPD1    H6 3464   0.791   3.582   9.293 -0.9989 -1.9587  0.7766
  224MPD1    H7 3465   0.683   3.677   9.221  1.5287 -0.2024 -1.0327
  225MPD1     C 3466   2.428   4.601  12.772 -0.3560 -0.3460 -0.0699
  225MPD1    C1 3467   2.378   4.475  12.796 -0.2934  0.2307 -0.6395
  225MPD1    C2 3468   2.275   4.430  12.719  0.1905  0.3864 -0.1750
  225MPD1    C3 3469   2.234   4.499  12.606 -1.1269 -0.3410  0.9161
  225MPD1    C4 3470   2.281   4.626  12.581  0.4206  0.3617 -0.4404
  225MPD1    C5 3471   2.380   4.677  12.666 -0.3167  0.1162 -0.3218
  225MPD1     H 3472   2.253   4.325  12.729  0.2865  0.4429  0.6171
  225MPD1    H1 3473   2.242   4.692  12.505  1.1037  0.7203 -0.4792
  225MPD1    H2 3474   2.512   4.640  12.828  0.3021  1.7128 -2.4953
  225MPD1    H3 3475   2.422   0.038  12.658 -0.1481  0.1263  0.7205
  225MPD1     N 3476   2.134   4.451  12.531 -0.1129 -0.4346 -0.2865
  225MPD1    H5 3477   2.098   4.505  12.452 -0.8537  0.2541  0.5227
  225MPD1    N1 3478   2.418   4.404  12.911 -0.2628 -0.1232  0.9102
  225MPD1    H6 3479   2.518   4.395  12.924  0.0967  0.2637 -1.6997
  225MPD1    H7 3480   2.377   4.311  12.919 -2.1839  0.5989 -0.6601
  226MPD1     C 3481   0.370   4.641   9.426 -0.4388  0.1942  0.2093
  226MPD1    C1 3482   0.377   4.603   9.556 -0.3324  0.8504 -0.4439
  226MPD1    C2 3483   0.492   4.640   9.625  0.1159 -0.7284 -0.2259
  226MPD1    C3 3484   0.591   4.721   9.575 -0.1298  0.0207  0.2525
  226MPD1    C4 3485   0.578   0.020   9.440  0.0787  0.2476  0.3747
  226MPD1    C5 3486   0.468   4.723   9.371 -0.1803 -0.0560 -0.2497
  226MPD1     H 3487   0.504   4.594   9.722  0.1683 -1.4496 -0.5733
  226MPD1    H1 3488   0.654   0.084   9.396  0.1954 -1.2953 -1.6780
  226MPD1    H2 3489   0.285   4.618   9.362 -0.2599 -0.4925  0.2270
  226MPD1    H3 3490   0.459   0.015   9.268  1.8976  1.0025 -0.1219
  226MPD1     N 3491   0.702   0.006   9.658  0.2300  0.2282 -0.1358
  226MPD1    H5 3492   0.712   4.701   9.749 -1.7130 -0.4380 -0.2571
  226MPD1    N1 3493   0.296   4.495   9.608  0.4306  0.2535  0.5148
  226MPD1    H6 3494   0.285   4.491   9.709 -0.7509  2.7823  0.4873
  226MPD1    H7 3495   0.206   4.487   9.561  1.2162 -1.1768 -0.7099
  227MPD1     C 3496   1.515   0.718   9.826  0.7007 -0.2914 -0.2387
  227MPD1    C1 3497   1.432   0.704   9.930 -0.3458  0.2504 -0.3617
  227MPD1    C2 3498   1.361   0.587   9.945  0.3435 -0.2197 -0.0130
  227MPD1    C3 3499   1.361   0.486   9.848  0.6615 -0.0736 -0.5293
  227MPD1    C4 3500   1.439   0.504   9.736  0.1240  1.0559  0.1701
  227MPD1    C5 3501   1.512   0.620   9.730 -0.7154 -0.1319  0.3424
  227MPD1     H 3502   1.307   0.563  10.036  2.0118 -1.6749  0.5975
  227MPD1    H1 3503   1.450   0.438   9.651 -2.3985  1.5049 -0.4881
  227MPD1    H2 3504   1.570   0.809   9.802 -0.0016 -0.1661 -1.3869
  227MPD1    H3 3505   1.587   0.626   9.652 -1.6112  0.0816 -0.4989
  227MPD1     N 3506   1.269   0.378   9.860  0.8562 -0.4339  0.0426
  227MPD1    H5 3507   1.217   0.379   9.948  0.1405  1.3720 -0.4012
  227MPD1    N1 3508   1.437   0.800  10.029  0.5463  0.5839  0.5155
  227MPD1    H6 3509   1.467   0.891   9.995 -3.1341  1.2658 -0.8680
  227MPD1    H7 3510   1.339   0.816  10.053  1.3265  0.0944  4.0893
  228MPD1     C 3511   3.486   1.902  13.213  0.0254  0.1564 -0.4402
  228MPD1    C1 3512   3.423   1.791  13.272 -0.9773 -0.4374 -0.4762
  228MPD1    C2 3513   3.327   1.736  13.197 -0.6563 -0.7194  0.0360
  228MPD1    C3 3514   3.283   1.790  13.074  0.1502  0.1850 -0.3880
  228MPD1    C4 3515   3.353   1.893  13.021 -0.0210  0.5146 -0.2508
  228MPD1    C5 3516   3.450   1.952  13.093  0.0796 -0.1594 -0.0894
  228MPD1     H 3517   3.280   1.643  13.227  0.5329 -0.7109  1.9420
  228MPD1    H1 3518   3.330   1.941  12.926  1.3372  4.1106  1.2410
  228MPD1    H2 3519   3.566   1.944  13.273 -0.4222 -2.6987  2.1573
  228MPD1    H3 3520   3.508   2.036  13.057 -0.9909  0.3648 -0.6112
  228MPD1     N 3521   3.162   1.747  13.009 -0.4174 -0.6441 -0.2190
  228MPD1    H5 3522   3.108   1.681  13.063  0.7556 -1.7599 -0.4151
  228MPD1    N1 3523   3.471   1.726  13.390 -0.9122 -0.3172  0.3679
  228MPD1    H6 3524   3.513   1.785  13.462 -0.7808  1.4420 -1.1491
  228MPD1    H7 3525   3.397   1.672  13.434 -0.5310 -0.3356  0.9917
  229MPD1     C 3526   3.084   0.467  16.458 -0.0295  0.0903  0.7972
  229MPD1    C1 3527   3.035   0.366  16.388 -0.6754 -0.1611 -0.5255
  229MPD1    C2 3528   3.072   0.351  16.255  0.3883  0.3539  0.1061
  229MPD1    C3 3529   3.172   0.435  16.205 -0.2302 -0.1012  0.4296
  229MPD1    C4 3530   3.232   0.528  16.285  0.2033 -0.7022  0.4440
  229MPD1    C5 3531   3.183   0.547  16.412 -0.3612  0.2911 -0.2447
  229MPD1     H 3532   3.021   0.280  16.191  3.8553  0.2870 -2.5811
  229MPD1    H1 3533   3.323   0.584  16.264  0.5507 -0.8718  1.4481
  229MPD1    H2 3534   3.060   0.476  16.563  2.4725 -1.0479  1.4580
  229MPD1    H3 3535   3.227   0.613  16.486 -1.8218 -1.5246  2.2073
  229MPD1     N 3536   3.209   0.423  16.068 -0.9318 -0.2740 -0.4283
  229MPD1    H5 3537   3.294   0.475  16.048 -0.6804 -0.1812  0.8610
  229MPD1    N1 3538   2.927   0.295  16.445  0.0278  0.0114  0.0917
  229MPD1    H6 3539   2.916   0.275  16.544  0.1512  0.5574  0.2182
  229MPD1    H7 3540   2.900   0.211  16.395  1.1305  1.0638 -2.3116
  230MPD1     C 3541   3.980   0.407  15.773 -0.3743 -0.3453  0.4001
  230MPD1    C1 3542   3.894   0.454  15.867 -0.1960  0.1500  0.5925
  230MPD1    C2 3543   3.764   0.406  15.877 -0.0849 -0.8276  0.4623
  230MPD1    C3 3544   3.710   0.345  15.764 -0.2813  0.4697 -0.4777
  230MPD1    C4 3545   3.792   0.323  15.651 -0.6214  0.5785  0.0280
  230MPD1    C5 3546   3.928   0.342  15.662 -0.0353  0.3955  0.1609
  230MPD1     H 3547   3.706   0.431  15.966  0.2476 -2.2592  1.0871
  230MPD1    H1 3548   3.755   0.268  15.565  0.7887  0.4629 -0.5026
  230MPD1    H2 3549   4.084   0.438  15.769 -1.2471  2.4608 -0.1724
  230MPD1    H3 3550   3.995   0.305  15.585  0.3131 -0.4786  0.8895
  230MPD1     N 3551   3.574   0.311  15.773 -0.4345 -0.5980  0.3089
  230MPD1    H5 3552   3.523   0.355  15.849  0.1183  2.4324 -1.0880
  230MPD1    N1 3553   3.951   0.509  15.984  0.2778 -0.1131 -0.1126
  230MPD1    H6 3554   3.891   0.580  16.025 -0.0103 -0.4250  0.0080
  230MPD1    H7 3555   4.043   0.552  15.975 -0.1923  0.3965 -2.3248
  231MPD1     C 3556   1.944   2.925  15.480 -0.2111 -0.5099  0.2569
  231MPD1    C1 3557   1.889   2.811  15.424  0.0934 -0.3595  0.4716
  231MPD1    C2 3558   1.944   2.761  15.308 -0.3925  0.5022 -0.9087
  231MPD1    C3 3559   2.050   2.822  15.252 -0.5668 -0.0856 -0.0076
  231MPD1    C4 3560   2.109   2.931  15.310  0.4931  0.4053 -0.0043
  231MPD1    C5 3561   2.055   2.986  15.421  0.6730 -0.7180  0.0505
  231MPD1     H 3562   1.903   2.668  15.270 -1.2340  0.6036 -0.2404
  231MPD1    H1 3563   2.179   2.993  15.254 -0.1289  0.2596 -0.9335
  231MPD1    H2 3564   1.901   2.975  15.566  0.7625  0.2780  0.2887
  231MPD1    H3 3565   2.089   3.079  15.466  1.5707 -1.5383  1.0823
  231MPD1     N 3566   2.096   2.766  15.127  0.1155 -0.0141  0.0319
  231MPD1    H5 3567   2.044   2.685  15.093  0.1981  0.4664 -1.2325
  231MPD1    N1 3568   1.780   2.745  15.486  0.4971 -0.0138 -0.0075
  231MPD1    H6 3569   1.730   2.811  15.546  1.1661 -1.6028  2.2626
  231MPD1    H7 3570   1.713   2.710  15.418  0.5834  0.8773 -0.5606
  232MPD1     C 3571   4.231   0.738   1.089 -0.4432  0.6847 -0.3971
  232MPD1    C1 3572   4.119   0.767   1.014 -0.1299  0.2962 -0.1255
  232MPD1    C2 3573   4.009   0.683   1.030 -0.0560  0.1907 -0.2460
  232MPD1    C3 3574   4.007   0.573   1.120 -0.0013  0.4236 -0.2981
  232MPD1    C4 3575   4.123   0.538   1.176  0.1432  0.4956  0.0462
  232MPD1    C5 3576   4.227   0.619   1.164 -0.7641  1.1244  0.1720
  232MPD1     H 3577   3.913   0.711   0.989 -0.4362  0.1220  0.5884
  232MPD1    H1 3578   4.139   0.446   1.232 -0.9627 -0.1042 -0.6241
  232MPD1    H2 3579   4.325   0.792   1.090 -0.4294  0.6595  0.0481
  232MPD1    H3 3580   4.317   0.601   1.222 -1.1446  1.3910  0.8493
  232MPD1     N 3581   3.887   0.491   1.117  0.2096 -0.1124  0.3812
  232MPD1    H5 3582   3.817   0.520   1.050  0.5705 -0.0808  0.0193
  232MPD1    N1 3583   4.117   0.891   0.949  0.5337  0.1103 -0.1709
  232MPD1    H6 3584   4.212   0.916   0.921  0.3768  0.3077 -0.5190
  232MPD1    H7 3585   4.058   0.892   0.867  0.7766 -2.7117 -0.3625
  233MPD1     C 3586   4.443   3.618  17.440 -0.6328  0.7899 -0.2453
  233MPD1    C1 3587   4.434   3.725  17.525  0.0306 -0.4664  0.1638
  233MPD1    C2 3588   4.424   3.704  17.662 -0.2815 -0.0638  0.3684
  233MPD1    C3 3589   4.451   3.582  17.716 -0.8369  0.0892 -0.0518
  233MPD1    C4 3590   4.469   3.471  17.630 -0.2665  0.2494  0.1337
  233MPD1    C5 3591   4.466   3.496  17.494 -0.3429  0.2308  0.8590
  233MPD1     H 3592   4.374   3.785  17.715  1.5336  2.5806 -1.9855
  233MPD1    H1 3593   4.476   3.371  17.670 -1.5803  0.0271 -0.2131
  233MPD1    H2 3594   4.443   3.619  17.332  1.0845 -2.5194 -0.2771
  233MPD1    H3 3595   4.484   3.417  17.422 -0.0934  0.1767  0.9813
  233MPD1     N 3596   4.452   3.552   0.100 -0.4596  0.3707 -0.5317
  233MPD1    H5 3597   4.471   3.454   0.119  0.6038  0.3210 -1.8892
  233MPD1    N1 3598   4.416   3.854  17.478  0.3043 -0.3168 -0.6254
  233MPD1    H6 3599   4.424   3.929  17.546  0.6612 -1.0762  0.1726
  233MPD1    H7 3600   4.464   3.881  17.392  1.3596  0.4244  0.1961
  234MPD1     C 3601   1.882   1.957   9.569  0.5715  0.3458 -0.0013
  234MPD1    C1 3602   1.779   1.968   9.478  0.1652 -0.2654 -0.2552
  234MPD1    C2 3603   1.682   2.064   9.516  0.0073 -0.2460 -0.2215
  234MPD1    C3 3604   1.681   2.134   9.640 -0.1513 -0.0596  0.1468
  234MPD1    C4 3605   1.793   2.125   9.718  0.0157 -0.1738  0.3991
  234MPD1    C5 3606   1.893   2.039   9.678 -1.0033  0.7976 -0.1189
  234MPD1     H 3607   1.591   2.073   9.456  0.9687  0.0925 -1.6357
  234MPD1    H1 3608   1.802   2.172   9.815  0.0965  0.7625 -0.0584
  234MPD1    H2 3609   1.963   1.887   9.554 -0.6885 -1.2145  0.4503
  234MPD1    H3 3610   1.977   2.015   9.742 -1.5792 -0.1250  0.2862
  234MPD1     N 3611   1.564   2.207   9.672 -0.3604 -0.5535 -0.2721
  234MPD1    H5 3612   1.493   2.229   9.603 -0.7849  1.6482  0.8770
  234MPD1    N1 3613   1.776   1.907   9.354 -0.4624 -0.2588  0.2453
  234MPD1    H6 3614   1.798   1.809   9.365 -1.1410 -0.3629  0.6490
  234MPD1    H7 3615   1.684   1.917   9.312 -0.6310 -0.1742  0.6303
  235MPD1     C 3616   2.778   4.100  10.094  0.2943 -0.2358 -1.0800
  235MPD1    C1 3617   2.814   4.201  10.009  0.5920  0.5014 -0.0798
  235MPD1    C2 3618   2.890   4.302  10.072 -0.2593 -0.1435  0.1310
  235MPD1    C3 3619   2.944   4.284  10.194 -0.0306 -0.1026  0.1391
  235MPD1    C4 3620   2.913   4.173  10.267  0.0114 -0.4294 -0.2219
  235MPD1    C5 3621   2.838   4.075  10.215 -1.2244  0.2634  0.0029
  235MPD1     H 3622   2.907   4.391  10.013 -0.6656  0.9883  1.7174
  235MPD1    H1 3623   2.959   4.166  10.365 -3.6857  1.5370  1.6419
  235MPD1    H2 3624   2.723   4.019  10.047  0.3582 -0.8680 -0.0803
  235MPD1    H3 3625   2.806   3.989  10.273 -0.6929 -1.6725 -2.5650
  235MPD1     N 3626   3.017   4.396  10.241 -0.6045  0.5231 -0.0036
  235MPD1    H5 3627   3.024   4.470  10.172  0.6259  0.3163 -0.1024
  235MPD1    N1 3628   2.728   4.227   9.899 -0.1553 -0.5456 -0.0621
  235MPD1    H6 3629   2.769   4.282   9.824 -1.0575 -1.2667 -1.0752
  235MPD1    H7 3630   2.690   4.143   9.857 -2.0455  0.2302  0.0743
  236MPD1     C 3631   1.916   0.612   9.644 -1.1985 -0.6099  0.1842
  236MPD1    C1 3632   2.013   0.507   9.639  0.2498 -0.1075  0.0331
  236MPD1    C2 3633   2.095   0.486   9.747 -0.0326 -0.3132 -0.3273
  236MPD1    C3 3634   2.089   0.571   9.862  0.3073 -0.6837  0.6331
  236MPD1    C4 3635   1.999   0.679   9.857 -0.3512 -0.0845  0.6326
  236MPD1    C5 3636   1.914   0.697   9.756 -0.0707  0.9972 -0.9838
  236MPD1     H 3637   2.182   0.423   9.736  0.6118  0.8928 -2.1206
  236MPD1    H1 3638   1.981   0.746   9.941  3.7687  0.6917  0.8815
  236MPD1    H2 3639   1.851   0.638   9.561  0.3015  0.6322 -0.6065
  236MPD1    H3 3640   1.844   0.780   9.761  0.3775  1.1739  2.1241
  236MPD1     N 3641   2.162   0.559   9.980  0.1943 -0.3256  0.4989
  236MPD1    H5 3642   2.148   0.628  10.053 -0.5139 -1.6776  1.6318
  236MPD1    N1 3643   2.028   0.432   9.523  0.6724  0.1873 -0.9356
  236MPD1    H6 3644   1.936   0.408   9.488  1.3650 -0.6728 -2.1697
  236MPD1    H7 3645   2.065   0.341   9.551  0.5358  0.4219 -0.0024
  237MPD1     C 3646   2.216   3.156  14.601  0.2850 -0.0276  0.2273
  237MPD1    C1 3647   2.102   3.107  14.535  0.8489 -0.3112  0.6011
  237MPD1    C2 3648   1.973   3.146  14.577  0.0591 -0.9790 -0.1716
  237MPD1    C3 3649   1.965   3.223  14.695 -0.5303  0.4210  0.5065
  237MPD1    C4 3650   2.079   3.254  14.768  0.7732 -0.3213 -0.0583
  237MPD1    C5 3651   2.201   3.222  14.719 -0.1183 -0.0567 -0.1131
  237MPD1     H 3652   1.886   3.110  14.522 -1.3089  2.1483 -0.0664
  237MPD1    H1 3653   2.068   3.298  14.866  0.5769  0.0473 -0.2467
  237MPD1    H2 3654   2.311   3.132  14.556 -0.3550 -1.8955 -0.1423
  237MPD1    H3 3655   2.292   3.256  14.769  1.5215 -3.6173 -0.6952
  237MPD1     N 3656   1.840   3.264  14.745  0.6387  0.2298 -0.3718
  237MPD1    H5 3657   1.842   3.308  14.836  0.8614 -2.1773  0.7879
  237MPD1    N1 3658   2.122   3.036  14.415  0.1153 -0.1259  0.5482
  237MPD1    H6 3659   2.206   2.978  14.414  0.9448  1.0742  0.7580
  237MPD1    H7 3660   2.043   2.978  14.388  1.6605 -1.5372 -1.0208
  238MPD1     C 3661   3.967   2.112  14.478 -0.4020  0.2671  0.2508
  238MPD1    C1 3662   3.931   2.185  14.591  0.9676 -0.4190  0.8401
  238MPD1    C2 3663   3.796   2.222  14.605 -0.5540 -0.8434 -0.2516
  238MPD1    C3 3664   3.718   2.208  14.491  0.7316 -0.3666  0.1737
  238MPD1    C4 3665   3.749   2.120  14.383  0.7275 -0.3686  0.3365
  238MPD1    C5 3666   3.876   2.063  14.387 -0.1604  0.6298 -0.0655
  238MPD1     H 3667   3.771   2.287  14.688 -1.4131 -1.3464 -0.1184
  238MPD1    H1 3668   3.677   2.107  14.303  1.1677  1.6594 -0.4026
  238MPD1    H2 3669   4.072   2.085  14.471  0.0208  2.0134 -0.1682
  238MPD1    H3 3670   3.901   2.008  14.296  0.1623 -0.7034  0.8316
  238MPD1     N 3671   3.587   2.260  14.477 -0.3566  0.0587  0.9009
  238MPD1    H5 3672   3.522   2.217  14.412 -0.2582 -0.9849  1.4740
  238MPD1    N1 3673   4.021   2.191  14.701  0.6157 -0.5170 -0.1730
  238MPD1    H6 3674   4.112   2.216  14.664  1.3763 -4.5770 -1.1022
  238MPD1    H7 3675   3.999   2.267  14.765 -1.3978  0.0379 -1.5444
  239MPD1     C 3676   4.011   2.911  14.861 -0.3830  0.0782  0.3282
  239MPD1    C1 3677   4.099   3.016  14.845  0.2409  0.1743  0.4616
  239MPD1    C2 3678   4.068   3.129  14.775 -0.0053  1.1442 -0.3902
  239MPD1    C3 3679   3.948   3.136  14.708  0.3366  0.3611 -0.1452
  239MPD1    C4 3680   3.859   3.026  14.716  0.0151  0.1195 -0.5762
  239MPD1    C5 3681   3.894   2.914  14.790  0.6455 -0.7560 -0.2424
  239MPD1     H 3682   4.141   3.210  14.769  1.6980 -0.3166  0.8322
  239MPD1    H1 3683   3.762   3.013  14.669 -0.4034 -1.0043  0.6029
  239MPD1    H2 3684   4.038   2.823  14.918  1.4208  1.8490  2.1837
  239MPD1    H3 3685   3.820   2.837  14.807  0.7454 -1.0471 -1.1016
  239MPD1     N 3686   3.922   3.249  14.623  0.4832 -0.0874 -0.0933
  239MPD1    H5 3687   3.843   3.232  14.560 -0.0188  0.8424  0.2904
  239MPD1    N1 3688   4.232   3.002  14.895 -0.2977  0.0985  0.1463
  239MPD1    H6 3689   4.276   3.087  14.930  1.8423 -0.5664 -0.9137
  239MPD1    H7 3690   4.239   2.929  14.965 -1.1811  0.4347  0.5828
  240MPD1     C 3691   2.724   3.307  13.478 -0.1674 -0.5302  0.0595
  240MPD1    C1 3692   2.622   3.224  13.524  0.1641  0.2565 -0.2190
  240MPD1    C2 3693   2.648   3.126  13.617  1.0113 -0.4052 -0.3910
  240MPD1    C3 3694   2.767   3.136  13.689 -0.3443 -0.0554 -0.8766
  240MPD1    C4 3695   2.869   3.230  13.650 -0.6461  0.3954 -0.6122
  240MPD1    C5 3696   2.846   3.301  13.541 -0.4049 -0.2672 -0.5153
  240MPD1     H 3697   2.570   3.054  13.637  0.2269  0.7787  0.7802
  240MPD1    H1 3698   2.966   3.240  13.697 -1.3212 -0.9002  1.1016
  240MPD1    H2 3699   2.710   3.369  13.390  0.1315 -0.8832 -0.2376
  240MPD1    H3 3700   2.938   3.337  13.496 -0.2872 -0.1522 -0.1828
  240MPD1     N 3701   2.790   3.053  13.800 -0.4035  0.6433 -0.1411
  240MPD1    H5 3702   2.710   2.996  13.828  0.9762 -0.3974  1.7181
  240MPD1    N1 3703   2.501   3.208  13.458  0.2479 -0.4275  0.1671
  240MPD1    H6 3704   2.462   3.289  13.410  1.2949 -0.2743 -0.4412
  240MPD1    H7 3705   2.430   3.179  13.524 -0.3596  1.7022  0.4396
  241MPD1     C 3706   3.645   2.827  14.069  0.2592 -0.5131  0.4616
  241MPD1    C1 3707   3.576   2.748  14.163  0.3153 -0.1425  0.2571
  241MPD1    C2 3708   3.435   2.777  14.168  0.4495 -0.5147 -0.2780
  241MPD1    C3 3709   3.370   2.862  14.087  0.1787  0.2515 -0.3128
  241MPD1    C4 3710   3.444   2.920  13.988 -0.4095  0.1719 -0.1658
  241MPD1    C5 3711   3.575   2.900  13.976  0.2015  0.0536 -0.2574
  241MPD1     H 3712   3.377   2.713  14.234 -0.5920 -1.6941 -2.3586
  241MPD1    H1 3713   3.397   2.982  13.913  0.0043  0.9605  0.2287
  241MPD1    H2 3714   3.754   2.830  14.063  0.1716  2.1341  0.1144
  241MPD1    H3 3715   3.621   2.952  13.893  0.8638  0.4582  0.3565
  241MPD1     N 3716   3.233   2.886  14.092  0.0220 -0.0250  0.0616
  241MPD1    H5 3717   3.194   2.950  14.024 -2.5017 -0.2519  1.2857
  241MPD1    N1 3718   3.640   2.647  14.231 -0.2279  0.2074 -0.3336
  241MPD1    H6 3719   3.607   2.644  14.328 -1.8675  1.4563 -0.8514
  241MPD1    H7 3720   3.741   2.655  14.233 -0.1291 -1.0899 -0.2621
  242MPD1     C 3721   2.852   1.588  15.831 -0.9984 -0.0523  0.1812
  242MPD1    C1 3722   2.766   1.506  15.896  1.1243  0.0468  0.2531
  242MPD1    C2 3723   2.781   1.373  15.875  0.0168  0.0955 -0.0469
  242MPD1    C3 3724   2.865   1.321  15.775 -0.0997 -0.6603 -0.2141
  242MPD1    C4 3725   2.951   1.400  15.709  0.0324  0.1507 -0.0337
  242MPD1    C5 3726   2.935   1.538  15.727 -0.2228  0.2999 -0.5012
  242MPD1     H 3727   2.706   1.311  15.923  1.2535 -1.3688 -0.0068
  242MPD1    H1 3728   3.022   1.366  15.635 -1.6797  0.6126 -1.8795
  242MPD1    H2 3729   2.849   1.696  15.843 -1.4295  0.0663 -1.0160
  242MPD1    H3 3730   3.006   1.604  15.680 -0.5617  3.4853  3.4486
  242MPD1     N 3731   2.867   1.185  15.735 -0.0485  0.1052  0.0181
  242MPD1    H5 3732   2.943   1.154  15.675  0.0253  0.1091  0.1092
  242MPD1    N1 3733   2.676   1.557  15.994  0.2831  0.4242  0.4450
  242MPD1    H6 3734   2.628   1.643  15.970 -1.2747 -0.3964  0.6288
  242MPD1    H7 3735   2.608   1.482  16.007 -1.1788  2.0221  1.9387
  243MPD1     C 3736   3.409   4.729   0.041 -0.0006 -0.1447 -0.5498
  243MPD1    C1 3737   3.494   4.623   0.072 -0.2282 -0.4414  0.1578
  243MPD1    C2 3738   3.586   4.580  17.737  0.1800 -0.3664  0.5742
  243MPD1    C3 3739   3.615   4.656  17.624 -0.1551 -0.1977  0.1282
  243MPD1    C4 3740   3.547   0.030  17.595 -0.1989  0.4280 -0.2646
  243MPD1    C5 3741   3.438   0.061  17.679  0.6553 -0.0513  0.1831
  243MPD1     H 3742   3.650   4.498   0.013  0.2576 -1.0282 -1.4693
  243MPD1    H1 3743   3.567   0.088  17.505  0.3551 -0.6278 -0.8241
  243MPD1    H2 3744   3.324   0.017   0.103 -0.1000  1.0862 -1.2362
  243MPD1    H3 3745   3.373   0.143  17.652  1.3105  0.4109  0.0281
  243MPD1     N 3746   3.734   4.620  17.554 -0.4108 -0.4751 -0.0547
  243MPD1    H5 3747   3.789   4.552  17.604 -2.3959 -2.1105 -0.0956
  243MPD1    N1 3748   3.460   4.543   0.187 -0.0044 -0.6176  0.3421
  243MPD1    H6 3749   3.403   4.596   0.253  1.4515  1.2701  0.0617
  243MPD1    H7 3750   3.531   4.482   0.226 -0.8807 -0.8786  1.5498
  244MPD1     C 3751   4.411   4.465   0.258 -0.0449  0.5501 -0.1392
  244MPD1    C1 3752   4.366   4.596   0.232  0.1883  0.6997 -0.2572
  244MPD1    C2 3753   4.277   4.609   0.128  0.4985 -0.1867 -0.3827
  244MPD1    C3 3754   4.262   4.506   0.038 -0.1754  0.1097  0.3114
  244MPD1    C4 3755   4.317   4.383   0.063 -0.5940 -0.4541 -0.0027
  244MPD1    C5 3756   4.382   4.361   0.179 -0.2621 -0.0928 -0.4290
  244MPD1     H 3757   4.230   4.703   0.105 -1.6311 -1.0241  0.6246
  244MPD1    H1 3758   4.298   4.300  17.749 -0.1635 -0.7671  0.2590
  244MPD1    H2 3759   4.480   4.438   0.338 -0.5048 -3.0315 -0.9505
  244MPD1    H3 3760   4.398   4.258   0.207  0.0851  0.1340  0.2310
  244MPD1     N 3761   4.183   4.528  17.679 -0.3795  0.4839  0.6294
  244MPD1    H5 3762   4.130   4.615  17.679  2.4913  2.2164  0.2070
  244MPD1    N1 3763   4.403   4.708   0.315 -0.1148  0.2808 -0.2991
  244MPD1    H6 3764   4.496   4.700   0.355 -0.1260 -1.2699 -0.5561
  244MPD1    H7 3765   4.400   0.055   0.261  0.3199  0.2377 -0.3896
  245MPD1     C 3766   1.650   4.589  13.011 -0.1402  0.1220 -0.5583
  245MPD1    C1 3767   1.652   4.716  12.957 -0.4301 -0.1806  0.3969
  245MPD1    C2 3768   1.694   0.088  13.033  1.1322 -0.9273  0.1781
  245MPD1    C3 3769   1.731   0.069  13.168  0.3248 -0.1543 -0.2019
  245MPD1    C4 3770   1.734   4.677  13.225 -0.0453 -1.0601 -0.7518
  245MPD1    C5 3771   1.686   4.573  13.145  0.0768  0.1462 -0.4396
  245MPD1     H 3772   1.704   0.188  12.991 -0.7170 -0.2235  1.4043
  245MPD1    H1 3773   1.763   4.657  13.327 -3.6918 -1.9549  0.0938
  245MPD1    H2 3774   1.623   4.501  12.955 -0.4476  0.6168 -1.1856
  245MPD1    H3 3775   1.700   4.473  13.185 -0.4387  1.1020  2.1741
  245MPD1     N 3776   1.773   0.186  13.233 -0.5888 -0.0263 -0.1243
  245MPD1    H5 3777   1.758   0.274  13.186  0.5889  0.2009 -0.0590
  245MPD1    N1 3778   1.620   4.723  12.818 -0.2542 -0.0491  0.2621
  245MPD1    H6 3779   1.551   4.654  12.790  0.4785 -0.7294  0.1259
  245MPD1    H7 3780   1.603   0.079  12.785  2.2993 -0.4796 -2.3011
  246MPD1     C 3781   0.737   0.965   9.077 -0.8889  0.5674  0.2226
  246MPD1    C1 3782   0.858   0.948   9.141  0.6738  0.1070  1.3524
  246MPD1    C2 3783   0.947   1.054   9.126 -0.3943 -0.1319  0.6843
  246MPD1    C3 3784   0.918   1.165   9.058 -0.6316 -0.0032 -0.1062
  246MPD1    C4 3785   0.796   1.176   8.999 -0.7333 -0.3967 -0.3461
  246MPD1    C5 3786   0.701   1.083   9.021 -0.1760  0.1341 -0.3951
  246MPD1     H 3787   1.050   1.047   9.157  0.2954  3.6477 -0.7222
  246MPD1    H1 3788   0.763   1.262   8.942 -2.8079 -1.1709 -0.3267
  246MPD1    H2 3789   0.669   0.881   9.074  0.1954 -0.3482  1.1113
  246MPD1    H3 3790   0.599   1.080   8.983 -0.7442  1.7163  1.0117
  246MPD1     N 3791   1.016   1.269   9.059 -0.1242 -0.4002 -0.0426
  246MPD1    H5 3792   1.099   1.255   9.116 -0.7584  3.7932  1.8771
  246MPD1    N1 3793   0.910   0.821   9.173  0.0296  0.2034 -0.0810
  246MPD1    H6 3794   0.989   0.829   9.237  0.0219 -1.9745  0.2073
  246MPD1    H7 3795   0.839   0.755   9.205  0.8795 -0.5010  0.3555
  247MPD1     C 3796   1.195   0.747  16.798  0.9050 -0.1480  0.5576
  247MPD1    C1 3797   1.274   0.800  16.695 -0.4775 -0.2296  0.3228
  247MPD1    C2 3798   1.260   0.734  16.572 -0.2024  0.3804 -0.0776
  247MPD1    C3 3799   1.158   0.643  16.543 -0.3914 -0.3443 -0.8761
  247MPD1    C4 3800   1.086   0.597  16.654 -0.2869  0.1448  0.9359
  247MPD1    C5 3801   1.104   0.648  16.779 -0.0726 -0.0830 -0.0117
  247MPD1     H 3802   1.329   0.762  16.493 -0.5175 -0.2006 -0.5569
  247MPD1    H1 3803   1.027   0.512  16.622  2.1395 -0.5593 -1.6436
  247MPD1    H2 3804   1.201   0.784  16.900  1.4187 -0.8155  0.7714
  247MPD1    H3 3805   1.037   0.624  16.861 -0.2571 -2.0905 -0.7578
  247MPD1     N 3806   1.139   0.583  16.413 -0.2856  0.0519 -0.2279
  247MPD1    H5 3807   1.065   0.514  16.406 -0.2453 -0.2057  1.9775
  247MPD1    N1 3808   1.385   0.880  16.734 -0.1513 -0.2368  0.2752
  247MPD1    H6 3809   1.354   0.937  16.811  1.8369  1.1577  0.0497
  247MPD1    H7 3810   1.424   0.940  16.662  2.7467 -1.2615  0.9722
  248MPD1     C 3811   2.277   4.003  17.080 -0.0412 -0.3877 -0.1044
  248MPD1    C1 3812   2.381   4.014  17.172 -0.0461 -0.3409 -0.1136
  248MPD1    C2 3813   2.349   4.078  17.289  0.5084 -0.2053  0.1661
  248MPD1    C3 3814   2.220   4.111  17.327 -0.2969  0.6324 -0.3696
  248MPD1    C4 3815   2.116   4.081  17.240 -0.1842 -0.3439  0.0372
  248MPD1    C5 3816   2.149   4.037  17.118 -0.4346 -0.0042 -0.5869
  248MPD1     H 3817   2.424   4.110  17.361  0.9193 -1.2506  0.2004
  248MPD1    H1 3818   2.012   4.111  17.256 -0.1142  0.1226 -0.3594
  248MPD1    H2 3819   2.289   3.952  16.985  0.4926 -0.6788  0.1212
  248MPD1    H3 3820   2.075   4.024  17.040 -1.1604  0.0168  0.0966
  248MPD1     N 3821   2.203   4.178  17.453 -0.0803  0.0166  0.7584
  248MPD1    H5 3822   2.292   4.179  17.502  1.5024  0.0543 -2.0771
  248MPD1    N1 3823   2.513   4.000  17.137  0.8874  0.0145 -0.3275
  248MPD1    H6 3824   2.528   3.928  17.066  2.3091  0.4568 -0.4819
  248MPD1    H7 3825   2.571   3.975  17.217 -0.0931  0.9992  0.6845
  249MPD1     C 3826   3.523   2.952  10.666  0.1208 -0.4042 -0.4870
  249MPD1    C1 3827   3.561   3.077  10.709  0.1044  0.0587  0.8879
  249MPD1    C2 3828   3.549   3.181  10.621 -0.6869  0.1553 -0.2758
  249MPD1    C3 3829   3.507   3.169  10.495 -0.1111  0.1892 -0.3185
  249MPD1    C4 3830   3.481   3.047  10.451  0.4296  0.6977 -1.0198
  249MPD1    C5 3831   3.493   2.936  10.535 -0.0004 -0.3730 -0.9441
  249MPD1     H 3832   3.562   3.282  10.657 -3.0429  0.0086  1.0057
  249MPD1    H1 3833   3.466   3.025  10.346 -1.2236 -0.2362 -0.5948
  249MPD1    H2 3834   3.516   2.864  10.728  0.3048 -0.9197 -1.2043
  249MPD1    H3 3835   3.448   2.844  10.499 -0.2922 -0.8439  0.6279
  249MPD1     N 3836   3.501   3.284  10.412 -0.1464 -0.5770  0.2766
  249MPD1    H5 3837   3.553   3.362  10.449  0.7801 -0.4164 -1.3410
  249MPD1    N1 3838   3.587   3.099  10.843 -0.3221  0.3602  0.3710
  249MPD1    H6 3839   3.631   3.019  10.888  0.9316  1.5069  1.2015
  249MPD1    H7 3840   3.640   3.183  10.866  1.3076 -0.8870  1.1736
  250MPD2     C 3841   0.636   3.594  13.233  0.3884 -0.3371 -0.5112
  250MPD2    C1 3842   0.516   3.637  13.185  0.0083 -0.1354 -0.5408
  250MPD2    C2 3843   0.433   3.550  13.126  0.4539 -1.0096 -0.7999
  250MPD2    C3 3844   0.471   3.418  13.104  1.0095  0.3019 -0.3482
  250MPD2    C4 3845   0.580   3.373  13.168  0.4313 -0.3367  0.2738
  250MPD2    C5 3846   0.671   3.461  13.222 -0.4968  0.6808  0.1807
  250MPD2     H 3847   0.337   3.587  13.093  0.7293 -0.1085 -0.5939
  250MPD2    H1 3848   0.616   3.270  13.160  1.5738  0.3440 -3.8010
  250MPD2    H2 3849   0.700   3.664  13.285 -1.2450  0.2031  0.7909
  250MPD2    H3 3850   0.767   3.428  13.259 -1.2176 -2.0741 -0.3575
  250MPD2     N 3851   0.396   3.329  13.019  0.7597  0.2494 -0.2084
  250MPD2    H5 3852   0.425   3.232  13.012  0.5570  0.2201 -0.6323
  250MPD2    N1 3853   0.489   3.776  13.188  0.3628  0.3950  0.1785
  250MPD2    H7 3854   0.567   3.837  13.210  1.2884 -0.0965 -1.7580
  251TMC3    C1 3855   0.386   3.982  13.140 -0.6443  0.4636 -0.0711
  251TMC3    C2 3856   0.274   4.055  13.142 -0.6076  0.3809 -0.2111
  251TMC3    C3 3857   0.276   4.186  13.111  1.1848  0.5352 -0.8564
  251TMC3    C4 3858   0.502   4.038  13.089  0.4192  0.2539 -0.0792
  251TMC3    C5 3859   0.506   4.166  13.044 -0.0733  0.2950 -0.1840
  251TMC3    C6 3860   0.389   4.239  13.054 -0.8655  0.4389 -0.3023
  251TMC3     C 3861   0.370   3.840  13.158  0.7106  0.2428  0.0195
  251TMC3     O 3862   0.256   3.799  13.149 -0.1959 -0.1172 -0.2079
  251TMC3     H 3863   0.183   4.009  13.177  0.1165  0.3601  1.6568
  251TMC3    H1 3864   0.596   3.985  13.074  0.7659  0.7017  0.5317
  251TMC3    H2 3865   0.405   4.342  13.027 -1.8159  1.3389  2.5707
  251TMC3    C7 3866   0.637   4.231  13.041  0.2614  0.2518 -0.3404
  251TMC3    C8 3867   0.155   4.257  13.105  0.3252  0.0037 -0.0596
  251TMC3    O1 3868   0.639   4.347  13.073  0.1442 -0.2162  0.4664
  251TMC3    O2 3869   0.048   4.198  13.098  0.1118 -0.3743  0.0867
  252TMC3    C1 3870   0.426   0.350   9.345 -0.1738  0.6476 -0.4951
  252TMC3    C2 3871   0.522   0.360   9.445 -0.5522  0.7145  0.0268
  252TMC3    C3 3872   0.484   0.307   9.564  0.4017  0.4512  0.1228
  252TMC3    C4 3873   0.301   0.306   9.370 -0.0776 -0.2131  0.2590
  252TMC3    C5 3874   0.270   0.255   9.489 -0.6593  0.6579  0.5549
  252TMC3    C6 3875   0.363   0.255   9.591 -0.2610  0.7042 -0.1975
  252TMC3     C 3876   0.487   0.373   9.217  0.1856 -0.2001  0.4146
  252TMC3     O 3877   0.550   0.476   9.203  0.4418 -0.2382 -0.2451
  252TMC3     H 3878   0.626   0.384   9.424 -0.0777 -0.7183  0.6637
  252TMC3    H1 3879   0.228   0.314   9.290 -0.9315 -0.3193  1.0258
  252TMC3    H2 3880   0.342   0.223   9.692 -0.1701  0.5473 -0.2287
  252TMC3    C7 3881   0.138   0.199   9.511  0.4613 -0.4750  0.9164
  252TMC3    C8 3882   0.571   0.341   9.679 -0.2749 -1.1125 -0.4482
  252TMC3    O1 3883   0.067   0.208   9.410 -0.3859 -0.0973  0.5424
  252TMC3    O2 3884   0.548   0.290   9.785  0.1518  0.2563 -0.2974
  253MPD2     C 3885   1.407   3.809  15.266 -0.1959 -0.1605 -0.2759
  253MPD2    C1 3886   1.270   3.820  15.296  0.5888  0.2150 -0.1427
  253MPD2    C2 3887   1.234   3.893  15.409 -0.0680  0.5266  0.2540
  253MPD2    C3 3888   1.327   3.951  15.489  0.0252  0.3328  0.1340
  253MPD2    C4 3889   1.459   3.919  15.471  0.6714 -0.2696  0.5736
  253MPD2    C5 3890   1.500   3.855  15.356 -1.2394  0.7517 -0.0966
  253MPD2     H 3891   1.130   3.911  15.432 -0.6048  0.6524 -2.3184
  253MPD2    H1 3892   1.537   3.950  15.539  0.4810  0.8463  0.2859
  253MPD2    H2 3893   1.440   3.791  15.165  1.6946 -1.5428  0.5991
  253MPD2    H3 3894   1.607   3.858  15.339 -1.3415 -1.2236 -1.0828
  253MPD2     N 3895   1.292   4.037  15.592 -0.6896  0.2880  0.0706
  253MPD2    H5 3896   1.365   4.051  15.661 -0.4383  1.1410 -0.3632
  253MPD2    N1 3897   1.164   3.775  15.214  0.3329  0.0506  0.1505
  253MPD2    H7 3898   1.068   3.794  15.241 -0.2920 -1.0239 -1.4043
  254TMC3    C1 3899   1.149   4.180  15.720  1.0504  0.1122  0.0452
  254TMC3    C2 3900   1.017   4.186  15.755 -0.4698 -0.8974 -0.5247
  254TMC3    C3 3901   0.989   4.176  15.890  0.0138  0.3473  0.6056
  254TMC3    C4 3902   1.249   4.185  15.813 -0.3160  0.5461 -0.2741
  254TMC3    C5 3903   1.219   4.174  15.946  0.4251  0.0116  0.6762
  254TMC3    C6 3904   1.087   4.175  15.984 -0.0689  0.6464  0.2396
  254TMC3     C 3905   1.169   4.099  15.609 -0.2725  0.0557  0.5455
  254TMC3     O 3906   1.079   4.111  15.527  0.0878 -0.5747  0.9847
  254TMC3     H 3907   0.934   4.169  15.688  0.1251  0.1103 -1.5019
  254TMC3    H1 3908   1.353   4.187  15.784  0.0554  0.7256  1.0360
  254TMC3    H2 3909   1.053   4.170  16.087  1.8195 -1.2737  0.7635
  254TMC3    C7 3910   1.320   4.197  16.045  0.1361  0.0114 -0.5068
  254TMC3    C8 3911   0.850   4.189  15.936  0.4370 -0.0481 -0.2643
  254TMC3    O1 3912   1.412   4.271  16.005 -0.0823  0.0754 -0.3488
  254TMC3    O2 3913   0.819   4.142  16.045  0.0932  0.4524 -0.0573
  255MPD2     C 3914   4.204   1.277   9.931  0.1831 -0.6304 -0.5044
  255MPD2    C1 3915   4.279   1.301  10.043 -0.1056 -1.1892  0.2195
  255MPD2    C2 3916   4.378   1.209  10.077  0.4122 -0.4133 -0.3963
  255MPD2    C3 3917   4.392   1.096   9.997  0.1859  0.1734 -0.0880
  255MPD2    C4 3918   4.317   1.075   9.885 -0.1005  0.2518  0.4033
  255MPD2    C5 3919   4.219   1.164   9.860  0.5286  0.1924  0.2655
  255MPD2     H 3920   4.459   1.227  10.147  0.0549  0.9954 -0.3452
  255MPD2    H1 3921   4.336   0.993   9.816 -0.5773  0.1355  0.4062
  255MPD2    H2 3922   4.126   1.346   9.903 -1.0242 -1.5559  0.5964
  255MPD2    H3 3923   4.165   1.158   9.766 -0.0104  2.4222  0.4329
  255MPD2     N 3924   4.501   1.006  10.015 -0.3992  0.0957  0.2823
  255MPD2    H5 3925   4.526   0.933   9.948 -1.4343  0.9320 -1.0020
  255MPD2    N1 3926   4.260   1.427  10.104  0.2178 -0.1970  0.3436
  255MPD2    H7 3927   4.205   1.495  10.054  1.9152  0.1372 -1.0795
  256TMC3    C1 3928   4.336   1.623  10.205  0.2920  0.0525  0.0326
  256TMC3    C2 3929   4.453   1.686  10.181  0.1406  0.2198  1.1828
  256TMC3    C3 3930   4.445   1.824  10.143 -0.1456 -1.1395  0.5768
  256TMC3    C4 3931   4.214   1.688  10.198  0.4992  0.2307  0.5965
  256TMC3    C5 3932   4.212   1.817  10.168  0.2188 -0.7067  0.7136
  256TMC3    C6 3933   4.325   1.891  10.133 -0.1892  0.4368 -0.6953
  256TMC3     C 3934   4.346   1.478  10.200 -0.6757  0.0129  0.3731
  256TMC3     O 3935   4.436   1.422  10.268 -0.3032  0.7887 -0.3227
  256TMC3     H 3936   4.548   1.635  10.186  0.5141  0.7473 -0.7265
  256TMC3    H1 3937   4.122   1.633  10.216  0.4961  0.4099  1.1388
  256TMC3    H2 3938   4.312   1.981  10.074 -0.8425 -1.8059 -4.0004
  256TMC3    C7 3939   4.080   1.881  10.156 -0.1754 -0.3953 -0.0152
  256TMC3    C8 3940   4.565   1.884  10.080 -0.7909  1.1883 -0.6551
  256TMC3    O1 3941   3.985   1.818  10.128  0.3936 -0.1767  0.5189
  256TMC3    O2 3942   4.643   1.807  10.029  0.7386  0.2459  0.2344
  257MPD2     C 3943   3.805   3.829  12.972  0.1267 -0.3773  0.5834
  257MPD2    C1 3944   3.746   3.732  12.899 -0.1143  0.1335  0.2021
  257MPD2    C2 3945   3.742   3.599  12.946  0.2434 -0.3035  0.0144
  257MPD2    C3 3946   3.794   3.572  13.072 -0.3921  0.3831  0.1608
  257MPD2    C4 3947   3.848   3.676  13.146 -0.4637  0.0900 -0.6561
  257MPD2    C5 3948   3.857   3.801  13.097 -1.3018  0.0235 -0.5474
  257MPD2     H 3949   3.703   3.520  12.883  0.9647 -0.6702  0.0260
  257MPD2    H1 3950   3.899   3.669  13.241  1.7186 -0.9140 -1.9301
  257MPD2    H2 3951   3.797   3.935  12.954 -2.0317 -0.8989 -1.5567
  257MPD2    H3 3952   3.901   3.887  13.145  1.2819 -1.0743 -0.9574
  257MPD2     N 3953   3.800   3.436  13.106  0.0095  0.2047 -0.3239
  257MPD2    H5 3954   3.763   3.369  13.040  0.2363 -0.5042  0.2656
  257MPD2    N1 3955   3.682   3.768  12.776  0.1116  0.1915 -0.0186
  257MPD2    H7 3956   3.700   3.864  12.747 -4.0495  1.8166  2.6620
  258TMC3    C1 3957   3.829   3.249  13.262  0.4763 -0.3202  0.0743
  258TMC3    C2 3958   3.743   3.162  13.195 -0.0994 -0.5135 -0.3202
  258TMC3    C3 3959   3.684   3.057  13.266  0.2314  0.0245 -0.7995
  258TMC3    C4 3960   3.849   3.223  13.395  0.2684  0.1171 -0.4873
  258TMC3    C5 3961   3.798   3.114  13.455  0.0577  0.3061  0.2898
  258TMC3    C6 3962   3.709   3.027  13.394  0.4661  0.8649 -0.2851
  258TMC3     C 3963   3.844   3.394  13.231 -0.8057  0.0546 -0.7017
  258TMC3     O 3964   3.858   3.459  13.331 -0.4869 -0.4801  0.2238
  258TMC3     H 3965   3.727   3.187  13.091  1.0966 -1.4246 -0.7334
  258TMC3    H1 3966   3.907   3.293  13.455  1.8297  0.3517 -2.2753
  258TMC3    H2 3967   3.674   2.939  13.445 -0.5836  0.6891 -1.3167
  258TMC3    C7 3968   3.785   3.121  13.594 -0.0740 -0.1494  0.3961
  258TMC3    C8 3969   3.573   2.986  13.205 -0.2950  0.0953 -0.4238
  258TMC3    O1 3970   3.673   3.087  13.629  0.8823  0.1542 -0.2209
  258TMC3    O2 3971   3.489   2.941  13.278 -0.0553  0.4658  0.1363
  259MPD2     C 3972   2.360   0.496   0.700  0.3365 -0.5030 -0.0061
  259MPD2    C1 3973   2.409   0.391   0.774 -0.1118  0.5651 -0.2519
  259MPD2    C2 3974   2.491   0.303   0.705  0.4014  0.0819 -0.3281
  259MPD2    C3 3975   2.519   0.321   0.567 -0.2797 -0.8821  0.1803
  259MPD2    C4 3976   2.456   0.427   0.495  0.1789 -0.5330 -0.1453
  259MPD2    C5 3977   2.375   0.507   0.566  0.1565  0.1319  0.2676
  259MPD2     H 3978   2.539   0.225   0.763  1.0705  1.3365  0.8118
  259MPD2    H1 3979   2.480   0.450   0.392 -0.2992 -0.4095 -0.2251
  259MPD2    H2 3980   2.294   0.565   0.752  0.4423 -2.3879  2.5820
  259MPD2    H3 3981   2.325   0.593   0.523 -3.4565 -1.9556  0.2635
  259MPD2     N 3982   2.620   0.247   0.515 -0.0591 -0.4712 -0.3800
  259MPD2    H5 3983   2.653   0.172   0.575 -3.2732 -2.1347 -0.7301
  259MPD2    N1 3984   2.375   0.390   0.911 -0.2896  0.2031 -0.1218
  259MPD2    H7 3985   2.324   0.476   0.927 -0.2621 -0.0653  1.4504
  260TMC3    C1 3986   2.790   0.181   0.374 -0.5022 -0.1218  0.1312
  260TMC3    C2 3987   2.907   0.240   0.321 -0.9812  0.4826  0.0975
  260TMC3    C3 3988   3.025   0.176   0.350  0.0832  0.2552 -0.1819
  260TMC3    C4 3989   2.794   0.067   0.448  0.2257  0.8675 -0.3475
  260TMC3    C5 3990   2.918   0.003   0.453  0.6136  0.2613 -0.0947
  260TMC3    C6 3991   3.032   0.055   0.409 -0.0325  0.1900  0.4380
  260TMC3     C 3992   2.689   0.278   0.395  0.0873 -0.0055  0.1947
  260TMC3     O 3993   2.673   0.366   0.315  0.0144 -0.2512 -0.0242
  260TMC3     H 3994   2.905   0.344   0.293  1.3169  0.9059  1.5842
  260TMC3    H1 3995   2.706   0.004   0.451  1.1249 -0.4253 -0.9729
  260TMC3    H2 3996   3.129   0.015   0.439  0.1868  0.0169 -0.5015
  260TMC3    C7 3997   2.917   4.599   0.506 -0.5684 -0.1106 -0.1066
  260TMC3    C8 3998   3.138   0.269   0.369 -0.0723  0.6981 -1.2699
  260TMC3    O1 3999   3.000   4.530   0.453 -0.2790 -0.3381 -0.0393
  260TMC3    O2 4000   3.145   0.375   0.311  0.2801  0.4953  0.6798
  261MPD2     C 4001   4.483   3.326  12.422  0.0061 -0.4328  0.0026
  261MPD2    C1 4002   4.589   3.408  12.463  0.0816  0.9222  0.4414
  261MPD2    C2 4003   4.600   3.535  12.418  0.3865 -0.0987 -0.6157
  261MPD2    C3 4004   4.504   3.586  12.328  0.6141 -0.3219 -0.2617
  261MPD2    C4 4005   4.406   3.497  12.285 -0.5569  0.1011 -1.1486
  261MPD2    C5 4006   4.394   3.373  12.334  0.3575 -0.4221  0.1807
  261MPD2     H 4007   4.681   3.598  12.453 -1.0995  1.0855  0.6700
  261MPD2    H1 4008   4.332   3.515  12.208  0.0971  0.2465 -1.7468
  261MPD2    H2 4009   4.461   3.223  12.450 -0.7003 -0.2914 -0.0247
  261MPD2    H3 4010   4.320   3.307  12.289  2.3147 -2.7243  0.3573
  261MPD2     N 4011   4.505   3.723  12.304 -0.5180 -0.2506 -0.1793
  261MPD2    H5 4012   4.566   3.780  12.362  0.1099 -2.1477  0.9950
  261MPD2    N1 4013   4.699   3.370  12.545 -0.1137  0.3376  0.5067
  261MPD2    H7 4014   0.034   3.438  12.555 -0.4238  0.4649  1.9580
  262TMC3    C1 4015   4.438   3.938  12.227  0.9601  0.1803 -0.5447
  262TMC3    C2 4016   4.334   4.014  12.179 -0.0774 -0.4499 -0.2076
  262TMC3    C3 4017   4.369   4.145  12.144 -0.2874 -0.1006 -0.1940
  262TMC3    C4 4018   4.564   3.983  12.227  0.5957  0.1196 -0.4947
  262TMC3    C5 4019   4.598   4.103  12.180 -0.4343  0.5940 -0.7063
  262TMC3    C6 4020   4.496   4.191  12.155  0.1129  0.3930  0.0978
  262TMC3     C 4021   4.419   3.792  12.226 -0.4676  0.2210  0.8151
  262TMC3     O 4022   4.341   3.747  12.142  0.6979  0.1583  0.1481
  262TMC3     H 4023   4.235   3.975  12.160  0.5821 -0.5647 -3.4615
  262TMC3    H1 4024   4.640   3.909  12.252 -1.0773 -1.6400 -0.5571
  262TMC3    H2 4025   4.522   4.296  12.154 -3.3704  1.2432 -1.7203
  262TMC3    C7 4026   4.680   4.079  12.056  0.4046 -0.5204  0.5988
  262TMC3    C8 4027   4.303   4.213  12.037  0.6417  0.6008 -0.3406
  262TMC3    O1 4028   0.035   3.999  12.057  0.0150 -0.1511 -0.1026
  262TMC3    O2 4029   4.321   4.331  12.041 -0.7345  0.2906 -0.1503
  263MPD2     C 4030   0.364   3.008  11.919 -0.8151 -0.6655  0.3276
  263MPD2    C1 4031   0.444   2.944  11.832 -0.2981 -0.1408  0.8017
  263MPD2    C2 4032   0.446   2.983  11.699  0.0769 -0.4251  0.0416
  263MPD2    C3 4033   0.366   3.085  11.652  1.0614  0.2577 -0.0450
  263MPD2    C4 4034   0.282   3.148  11.738 -0.9855  0.0641  0.5283
  263MPD2    C5 4035   0.275   3.106  11.875  0.8323  0.3385 -0.1736
  263MPD2     H 4036   0.498   2.925  11.624  0.2948 -2.5332  1.8427
  263MPD2    H1 4037   0.208   3.221  11.707 -0.8399  0.6059  1.4402
  263MPD2    H2 4038   0.370   2.990  12.026  0.9117 -2.9965 -0.1731
  263MPD2    H3 4039   0.203   3.150  11.943  1.4020  0.8417  0.1034
  263MPD2     N 4040   0.373   3.116  11.515 -0.0815  0.1331 -0.2930
  263MPD2    H5 4041   0.430   3.054  11.458 -0.9733 -1.1949  0.2467
  263MPD2    N1 4042   0.528   2.843  11.883 -0.3470  0.2630 -0.5900
  263MPD2    H7 4043   0.523   2.823  11.982 -1.2320  2.2139 -0.2446
  264TMC3    C1 4044   0.361   3.228  11.315  0.1867 -0.2098  0.1165
  264TMC3    C2 4045   0.291   3.303  11.227  0.2358 -0.3889  0.1170
  264TMC3    C3 4046   0.356   3.341  11.107  0.2468 -0.0350 -0.6046
  264TMC3    C4 4047   0.489   3.184  11.276  0.3337 -0.5860 -0.1244
  264TMC3    C5 4048   0.540   3.210  11.150  0.1670 -0.4255  0.2945
  264TMC3    C6 4049   0.473   3.291  11.065  0.3206  0.4713  0.4609
  264TMC3     C 4050   0.323   3.225  11.455 -0.3191  0.1641  0.7082
  264TMC3     O 4051   0.246   3.308  11.495  0.6229  0.1841 -0.1553
  264TMC3     H 4052   0.187   3.310  11.259  0.1344 -2.1756  0.2161
  264TMC3    H1 4053   0.548   3.122  11.343  0.8394  1.5673  1.4411
  264TMC3    H2 4054   0.515   3.328  10.972  1.3311 -0.4988  0.5325
  264TMC3    C7 4055   0.681   3.238  11.138 -0.0162 -0.8763 -0.0017
  264TMC3    C8 4056   0.340   3.481  11.073 -0.2137 -0.2905  0.5740
  264TMC3    O1 4057   0.731   3.201  11.029 -0.2000 -0.8886 -0.1567
  264TMC3    O2 4058   0.402   3.521  10.974 -0.0314  0.0073 -0.1034
  265MPD2     C 4059   2.463   3.474  15.491 -0.7209  0.0088 -0.0970
  265MPD2    C1 4060   2.438   3.543  15.368 -0.2708  0.3637  0.1741
  265MPD2    C2 4061   2.500   3.495  15.255 -0.3619  0.0666 -0.2716
  265MPD2    C3 4062   2.599   3.397  15.273 -0.1186 -0.4927  0.3018
  265MPD2    C4 4063   2.615   3.333  15.387 -0.2553  0.1613 -0.1252
  265MPD2    C5 4064   2.550   3.369  15.501 -0.0004 -0.3418 -0.0556
  265MPD2     H 4065   2.484   3.543  15.160 -1.1809 -0.5509 -0.4438
  265MPD2    H1 4066   2.679   3.247  15.404  0.5434  0.7571 -0.1190
  265MPD2    H2 4067   2.419   3.499  15.587 -0.7031  3.0180 -0.8570
  265MPD2    H3 4068   2.557   3.304  15.588  0.2371  0.4283  0.4963
  265MPD2     N 4069   2.679   3.342  15.167 -0.6438 -0.5308  0.6289
  265MPD2    H5 4070   2.732   3.259  15.192  0.7806  0.1553 -0.1244
  265MPD2    N1 4071   2.348   3.652  15.346  0.2032 -0.4000  0.0853
  265MPD2    H7 4072   2.338   3.683  15.250  0.9561  1.4957  0.6005
  266TMC3    C1 4073   2.163   3.801  15.402 -0.3253 -0.1591  0.0875
  266TMC3    C2 4074   2.100   3.876  15.504  0.4423  1.1010 -0.2133
  266TMC3    C3 4075   1.980   3.935  15.471  0.3682  0.8317  0.2118
  266TMC3    C4 4076   2.117   3.797  15.268  0.3288 -0.5269  0.2308
  266TMC3    C5 4077   1.993   3.854  15.245  0.1965  0.0721 -0.3108
  266TMC3    C6 4078   1.933   3.923  15.344 -0.1592 -0.1173 -0.4697
  266TMC3     C 4079   2.273   3.713  15.447 -0.5930  1.0760  0.6921
  266TMC3     O 4080   2.280   3.686  15.564 -0.3531  0.3210  0.6288
  266TMC3     H 4081   2.146   3.877  15.602  3.2860  1.6577 -1.5417
  266TMC3    H1 4082   2.165   3.740  15.189  0.6174 -0.8773  0.6652
  266TMC3    H2 4083   1.834   3.962  15.322 -0.6841 -0.3733  1.4137
  266TMC3    C7 4084   1.915   3.816  15.134 -0.2267  0.1012  0.3489
  266TMC3    C8 4085   1.909   4.038  15.554  0.2443 -0.0906 -0.0706
  266TMC3    O1 4086   1.797   3.857  15.125  0.3928 -0.1375  0.0390
  266TMC3    O2 4087   1.835   4.105  15.486  0.6206  0.2426 -0.7080
  267MPD2     C 4088   4.318   0.265   1.085 -0.1510  0.7420 -0.0493
  267MPD2    C1 4089   4.301   0.327   0.964 -0.5925  0.0415 -0.5395
  267MPD2    C2 4090   4.185   0.302   0.894  1.0690 -0.4185  0.7288
  267MPD2    C3 4091   4.090   0.213   0.943  0.1686 -0.3603 -0.4841
  267MPD2    C4 4092   4.110   0.158   1.066  0.6918  0.3966 -0.7216
  267MPD2    C5 4093   4.227   0.168   1.132  0.0951 -0.0772 -0.2668
  267MPD2     H 4094   4.177   0.359   0.802 -0.2302  1.6107  2.1000
  267MPD2    H1 4095   4.035   0.091   1.106  0.5831  0.2751 -1.1276
  267MPD2    H2 4096   4.410   0.272   1.143  0.5602  0.4803 -1.1414
  267MPD2    H3 4097   4.251   0.100   1.213  1.5592  0.2042 -0.4533
  267MPD2     N 4098   3.990   0.184   0.854  0.4000  0.3949 -0.0552
  267MPD2    H5 4099   3.994   0.233   0.765 -0.5223  0.1574 -0.2232
  267MPD2    N1 4100   4.390   0.435   0.932  0.5066  0.1626 -0.3356
  267MPD2    H7 4101   4.466   0.450   0.999 -0.0867  1.0757  0.1223
  268TMC3    C1 4102   4.492   0.617   0.827  0.5549  0.0324 -0.2885
  268TMC3    C2 4103   4.482   0.714   0.738 -0.2837  0.0309 -0.2153
  268TMC3    C3 4104   4.594   0.794   0.713 -0.3076  0.4355  0.0077
  268TMC3    C4 4105   4.615   0.577   0.872  0.2839  0.3003 -0.6255
  268TMC3    C5 4106   4.723   0.651   0.834 -1.0813  0.6072 -0.0178
  268TMC3    C6 4107   4.717   0.766   0.765 -0.1619 -0.9947 -0.6236
  268TMC3     C 4108   4.377   0.525   0.832  0.3062  0.2094 -0.4604
  268TMC3     O 4109   4.295   0.536   0.740 -0.3888 -0.9235  0.0091
  268TMC3     H 4110   4.382   0.745   0.709 -0.5159 -1.8797 -1.4317
  268TMC3    H1 4111   4.630   0.497   0.943 -2.0327  0.1408 -0.3310
  268TMC3    H2 4112   0.064   0.825   0.736  0.3643 -1.2470  0.4379
  268TMC3    C7 4113   0.113   0.609   0.898 -0.0327 -0.3421 -0.4371
  268TMC3    C8 4114   4.573   0.882   0.600  0.6768  0.4541 -0.3619
  268TMC3    O1 4115   0.121   0.489   0.924 -0.0808 -0.3507 -0.3262
  268TMC3    O2 4116   4.663   0.961   0.589  0.1779 -0.2643  0.2053
  269MPD2     C 4117   0.236   4.444  15.572 -0.3921 -0.2306 -0.1743
  269MPD2    C1 4118   0.143   4.453  15.673 -1.0855 -0.4265 -0.5787
  269MPD2    C2 4119   0.081   4.581  15.698  0.3650 -0.7432 -0.2040
  269MPD2    C3 4120   0.121   4.695  15.634  0.1329  0.6521  0.1201
  269MPD2    C4 4121   0.217   4.680  15.532  0.2812  0.0370 -0.1427
  269MPD2    C5 4122   0.281   4.559  15.511  0.8281  0.6721  0.0770
  269MPD2     H 4123   4.738   4.584  15.769  1.6584 -0.0921  1.2676
  269MPD2    H1 4124   0.230   0.023  15.462  1.6958 -0.1592 -0.1191
  269MPD2    H2 4125   0.284   4.350  15.545 -1.5006 -0.5666 -0.9751
  269MPD2    H3 4126   0.353   4.539  15.433  1.0786  2.5043 -0.1720
  269MPD2     N 4127   0.047   0.076  15.671  0.2188  0.5739  0.1149
  269MPD2    H5 4128   4.730   0.070  15.756 -2.6952  1.7812 -1.7449
  269MPD2    N1 4129   0.122   4.328  15.742  0.0350 -0.4422 -0.4342
  269MPD2    H7 4130   0.171   4.244  15.711  1.8557  0.9320 -1.3232
  270TMC3    C1 4131   0.041   4.170  15.877 -0.2227  0.1505  0.0852
  270TMC3    C2 4132   4.693   4.088  15.812 -0.0605  0.3335 -0.8622
  270TMC3    C3 4133   4.711   3.957  15.815  0.2658 -0.4466 -0.3575
  270TMC3    C4 4134   0.167   4.132  15.913  0.3445  0.4333 -0.3311
  270TMC3    C5 4135   0.185   3.999  15.910 -0.5577 -0.3607  0.0531
  270TMC3    C6 4136   0.089   3.915  15.869 -0.7127 -0.1987 -0.0899
  270TMC3     C 4137   0.036   4.310  15.845 -0.7475  0.5120  0.3081
  270TMC3     O 4138   4.686   4.383  15.898 -0.3400 -0.2983 -0.0264
  270TMC3     H 4139   4.608   4.134  15.763 -0.2921  0.5805 -0.2291
  270TMC3    H1 4140   0.244   4.203  15.941  0.7161 -0.0176 -0.2139
  270TMC3    H2 4141   0.108   3.808  15.875 -0.9705 -0.0792  2.6845
  270TMC3    C7 4142   0.320   3.956  15.859 -0.5680 -0.3579  0.3002
  270TMC3    C8 4143   4.702   3.894  15.683  0.3228 -0.2779 -0.0215
  270TMC3    O1 4144   0.410   4.004  15.920 -0.0068 -0.1776  0.3685
  270TMC3    O2 4145   0.068   3.834  15.645 -0.4015  0.1713  0.1839
  271MPD2     C 4146   4.259   3.971  13.865  0.7564  0.2414 -0.4845
  271MPD2    C1 4147   4.192   3.911  13.973 -0.5433 -0.3800 -0.2439
  271MPD2    C2 4148   4.051   3.904  13.972  0.3058 -0.1844 -0.3579
  271MPD2    C3 4149   3.981   3.933  13.859 -0.5490  0.9023  0.3369
  271MPD2    C4 4150   4.048   3.991  13.748 -0.1737  0.1257 -0.3205
  271MPD2    C5 4151   4.186   4.005  13.758  0.5269 -0.6728  1.0419
  271MPD2     H 4152   3.999   3.875  14.062  2.0756  2.4830  1.5309
  271MPD2    H1 4153   3.988   4.008  13.659 -0.3264 -4.6892 -1.1538
  271MPD2    H2 4154   4.367   3.977  13.859  0.7279  2.1666  1.0025
  271MPD2    H3 4155   4.241   4.050  13.676 -1.1334  0.1813  0.4047
  271MPD2     N 4156   3.834   3.915  13.851  0.0490  0.5660 -0.4164
  271MPD2    H5 4157   3.791   3.954  13.768 -1.9839 -0.0024  0.3649
  271MPD2    N1 4158   4.266   3.874  14.088  0.0933  0.0591  0.3840
  271MPD2    H7 4159   4.212   3.845  14.169  1.8184 -1.3659  1.0280
  272TMC3    C1 4160   4.472   3.839  14.218 -0.2667 -0.8189 -0.5862
  272TMC3    C2 4161   4.601   3.797  14.212 -0.2756  0.2289  0.2435
  272TMC3    C3 4162   4.661   3.732  14.320  0.1955  0.0762  0.0284
  272TMC3    C4 4163   4.410   3.838  14.338  0.4493  0.1263  0.8791
  272TMC3    C5 4164   4.463   3.770  14.444 -0.3805 -0.2198 -0.2715
  272TMC3    C6 4165   4.586   3.711  14.436 -0.2683 -0.7207  0.1869
  272TMC3     C 4166   4.406   3.881  14.091 -0.0744 -0.0828 -0.2900
  272TMC3     O 4167   4.487   3.876  13.999 -0.1047  0.1575  0.0383
  272TMC3     H 4168   4.664   3.811  14.125 -2.3435  2.0452 -0.9774
  272TMC3    H1 4169   4.309   3.879  14.342 -0.3949 -1.8775  0.0678
  272TMC3    H2 4170   4.624   3.641  14.509  1.8530 -1.7508 -1.9124
  272TMC3    C7 4171   4.379   3.749  14.560  0.1793  0.4284  0.2752
  272TMC3    C8 4172   0.045   3.667  14.297  0.2626 -0.0171 -0.9427
  272TMC3    O1 4173   4.256   3.763  14.546 -0.3838  0.7915  0.7236
  272TMC3    O2 4174   0.083   3.676  14.179  0.1593 -0.7451  0.0136
  273MPD2     C 4175   0.823   1.589  11.628 -1.0668 -0.1573 -0.1264
  273MPD2    C1 4176   0.956   1.581  11.660 -0.2211  0.0008  0.1416
  273MPD2    C2 4177   1.051   1.644  11.581  0.0313 -0.0695 -0.0033
  273MPD2    C3 4178   1.004   1.705  11.467 -0.4313  0.6764  0.1717
  273MPD2    C4 4179   0.875   1.704  11.435  0.0437 -0.4281 -0.5382
  273MPD2    C5 4180   0.780   1.657  11.514 -0.0302  0.5063  0.1399
  273MPD2     H 4181   1.157   1.645  11.603 -0.2878 -4.6083  1.8156
  273MPD2    H1 4182   0.845   1.762  11.349  0.2254  1.0966  0.4283
  273MPD2    H2 4183   0.743   1.543  11.685 -0.5303 -0.1189  0.6641
  273MPD2    H3 4184   0.678   1.656  11.478 -0.8263 -0.0502  2.4245
  273MPD2     N 4185   1.084   1.782  11.386 -0.7356 -0.6269  0.0260
  273MPD2    H5 4186   1.038   1.804  11.298 -0.9965 -0.8281  0.1110
  273MPD2    N1 4187   1.005   1.512  11.777  0.7774 -0.3303  0.6820
  273MPD2    H7 4188   0.933   1.489  11.844 -1.7834 -2.7957 -2.9455
  274TMC3    C1 4189   1.256   1.930  11.324 -0.1341  0.5468  0.4002
  274TMC3    C2 4190   1.185   1.962  11.208 -0.4664 -0.8137  0.3602
  274TMC3    C3 4191   1.227   2.067  11.134 -0.0750 -0.3150  0.5418
  274TMC3    C4 4192   1.346   2.016  11.371 -0.2437 -0.5650  0.4788
  274TMC3    C5 4193   1.380   2.125  11.294 -0.4672  0.7227 -0.6365
  274TMC3    C6 4194   1.332   2.148  11.167 -0.0430 -0.0016 -0.2427
  274TMC3     C 4195   1.211   1.829  11.416  0.3578  0.6337  0.3974
  274TMC3     O 4196   1.291   1.794  11.506 -0.2847  0.2072  0.2002
  274TMC3     H 4197   1.105   1.900  11.170 -1.0855  0.7536 -0.8890
  274TMC3    H1 4198   1.397   1.997  11.465  1.3890  1.6257  0.0256
  274TMC3    H2 4199   1.357   2.241  11.119 -0.3219  0.4614  0.5154
  274TMC3    C7 4200   1.411   2.242  11.361  0.3488 -0.4023  0.8423
  274TMC3    C8 4201   1.140   2.111  11.025  0.6028 -0.0212 -0.0524
  274TMC3    O1 4202   1.474   2.334  11.308  0.6536 -0.2644  0.0168
  274TMC3    O2 4203   1.032   2.053  11.022 -0.0750  0.2274  0.8271
  275MPD2     C 4204   0.683   0.204  14.678  0.1130  0.0351 -0.3546
  275MPD2    C1 4205   0.739   0.090  14.742  0.4160 -0.7398 -0.3654
  275MPD2    C2 4206   0.665   0.026  14.840  0.6693 -0.0608  0.3683
  275MPD2    C3 4207   0.538   0.076  14.879  0.3924 -1.0345  0.8307
  275MPD2    C4 4208   0.488   0.191  14.824  0.4056  0.3385 -0.0867
  275MPD2    C5 4209   0.564   0.248  14.725 -0.4600  0.0262 -0.5298
  275MPD2     H 4210   0.712   4.680  14.887 -1.6362 -0.5176  1.8613
  275MPD2    H1 4211   0.398   0.238  14.863  0.7499 -0.4538  1.6780
  275MPD2    H2 4212   0.727   0.260  14.596  0.2397 -0.2493 -0.4823
  275MPD2    H3 4213   0.527   0.342  14.686 -3.3434 -0.7121  0.4284
  275MPD2     N 4214   0.448   0.022  14.978 -0.0855 -0.0354 -0.2585
  275MPD2    H5 4215   0.357   0.067  14.989  0.3428  0.7102  0.1869
  275MPD2    N1 4216   0.867   0.038  14.712 -0.4015 -0.0196 -0.2344
  275MPD2    H7 4217   0.885   4.686  14.754 -0.1237 -0.0964 -0.5137
  276TMC3    C1 4218   1.106   0.048  14.657 -0.1392  0.1984 -0.5358
  276TMC3    C2 4219   1.128   4.647  14.646 -0.3250 -0.5968 -0.6123
  276TMC3    C3 4220   1.260   4.605  14.660  1.0018  0.0348  0.1941
  276TMC3    C4 4221   1.206   0.133  14.682  0.0977  0.2472 -0.1057
  276TMC3    C5 4222   1.330   0.085  14.706 -0.0559 -0.3819  0.3487
  276TMC3    C6 4223   1.357   4.689  14.705 -0.2328  0.0283  0.5997
  276TMC3     C 4224   0.970   0.109  14.649  0.0149  0.1842  0.1256
  276TMC3     O 4225   0.970   0.222  14.601  0.1715 -0.1769 -0.0480
  276TMC3     H 4226   1.052   4.580  14.606 -1.4547 -0.5930  1.5036
  276TMC3    H1 4227   1.172   0.234  14.704 -0.0267  0.3733 -0.8678
  276TMC3    H2 4228   1.458   4.660  14.732 -0.0085 -0.3574 -0.6463
  276TMC3    C7 4229   1.422   0.174  14.782 -0.9166 -0.3846  0.7214
  276TMC3    C8 4230   1.311   4.476  14.612  0.5455 -0.0449  0.0221
  276TMC3    O1 4231   1.368   0.268  14.847  0.1794 -0.5015  0.2489
  276TMC3    O2 4232   1.420   4.474  14.553 -0.1712  0.0504 -0.1991
  277MPD2     C 4233   2.801   3.730  13.507 -0.2551 -0.8971  0.0090
  277MPD2    C1 4234   2.662   3.737  13.514 -0.1656  0.2574  0.6632
  277MPD2    C2 4235   2.610   3.686  13.630 -0.1559  0.1226  0.0251
  277MPD2    C3 4236   2.689   3.627  13.721  0.5033  1.3595  0.1407
  277MPD2    C4 4237   2.825   3.628  13.718 -0.0976 -0.1488 -0.3639
  277MPD2    C5 4238   2.878   3.681  13.609  0.7333 -0.3918 -0.7903
  277MPD2     H 4239   2.504   3.667  13.642  0.6663 -4.4383 -0.0231
  277MPD2    H1 4240   2.885   3.558  13.775 -1.3573  0.8101  2.1439
  277MPD2    H2 4241   2.857   3.786  13.432  0.3331  0.1596  1.2288
  277MPD2    H3 4242   2.986   3.688  13.600  1.0446 -1.5292  2.0717
  277MPD2     N 4243   2.614   3.560  13.815 -0.3544 -0.6860  0.1723
  277MPD2    H5 4244   2.517   3.591  13.815  0.2897  1.2828 -0.5872
  277MPD2    N1 4245   2.587   3.793  13.401  0.7984 -0.0971 -0.3024
  277MPD2    H7 4246   2.635   3.808  13.312  1.5637 -0.6791  0.0103
  278TMC3    C1 4247   2.537   3.412  13.965 -0.3303  0.7552  0.4631
  278TMC3    C2 4248   2.533   3.277  13.947 -0.3736  0.3545  0.0113
  278TMC3    C3 4249   2.413   3.214  13.920  0.9568  0.0254  0.1170
  278TMC3    C4 4250   2.420   3.483  13.966  0.2733 -0.4343  0.4001
  278TMC3    C5 4251   2.302   3.416  13.962 -0.5734 -0.7881 -0.3255
  278TMC3    C6 4252   2.296   3.281  13.925  0.2215 -0.3406  1.0725
  278TMC3     C 4253   2.649   3.473  13.910  0.0702  0.0365  0.2224
  278TMC3     O 4254   2.764   3.430  13.931 -0.0951  0.2985 -0.2627
  278TMC3     H 4255   2.625   3.222  13.933  0.4595  2.2064 -1.8150
  278TMC3    H1 4256   2.427   3.589  13.987  3.4509 -0.4026 -0.7511
  278TMC3    H2 4257   2.201   3.229  13.937 -0.4541  1.0860  1.8432
  278TMC3    C7 4258   2.180   3.494  13.965  0.8105  0.1883 -0.5797
  278TMC3    C8 4259   2.417   3.074  13.888  0.0552  0.0333  0.3415
  278TMC3    O1 4260   2.199   3.614  13.999  0.2166  0.0654 -0.8429
  278TMC3    O2 4261   2.519   3.010  13.919 -0.2448  0.2861  0.6339
  279MPD2     C 4262   1.817   4.264   0.461 -0.3346  0.0858 -0.1109
  279MPD2    C1 4263   1.756   4.149   0.422  0.3646  0.0705  1.0049
  279MPD2    C2 4264   1.807   4.066   0.325  0.8165 -0.0843 -0.7063
  279MPD2    C3 4265   1.920   4.106   0.258 -0.5293 -0.3573  0.5240
  279MPD2    C4 4266   1.985   4.221   0.296 -0.4980  0.0041 -0.7677
  279MPD2    C5 4267   1.937   4.287   0.407 -0.5738  0.5265  0.3254
  279MPD2     H 4268   1.745   3.979   0.306 -1.4201  0.6247  3.1963
  279MPD2    H1 4269   2.081   4.257   0.259  0.7460 -0.8529  1.5656
  279MPD2    H2 4270   1.761   4.328   0.529  2.5781  0.6572  1.7351
  279MPD2    H3 4271   1.987   4.382   0.424  0.3401  0.0688  0.1867
  279MPD2     N 4272   1.972   4.023   0.151 -0.1758 -0.7778  0.2697
  279MPD2    H5 4273   1.914   3.941   0.133  1.9366 -2.4203  0.8569
  279MPD2    N1 4274   1.625   4.124   0.478 -0.1950 -0.0712 -0.4059
  279MPD2    H7 4275   1.562   4.189   0.525 -0.5465  0.5179 -1.7040
  280TMC3    C1 4276   1.428   4.002   0.514 -0.3207 -0.1792  0.5006
  280TMC3    C2 4277   1.348   3.909   0.446 -0.3110  0.3845 -0.1993
  280TMC3    C3 4278   1.222   3.943   0.419  0.1063 -0.5262 -0.7616
  280TMC3    C4 4279   1.368   4.110   0.570  0.0854 -0.3321 -0.5816
  280TMC3    C5 4280   1.239   4.145   0.529  0.4986 -0.3814 -0.0225
  280TMC3    C6 4281   1.160   4.063   0.455  0.0241 -0.0620  0.8202
  280TMC3     C 4282   1.571   3.991   0.484 -0.3895 -0.3792  0.3165
  280TMC3     O 4283   1.613   3.882   0.454 -0.4810  0.8557 -1.1844
  280TMC3     H 4284   1.395   3.822   0.401 -0.7601 -0.7858  1.5905
  280TMC3    H1 4285   1.422   4.181   0.632 -0.9527 -0.9103  0.9997
  280TMC3    H2 4286   1.057   4.088   0.435  0.9793  0.4254 -3.4438
  280TMC3    C7 4287   1.219   4.288   0.500 -0.5105  0.2997 -0.3057
  280TMC3    C8 4288   1.155   3.881   0.312  0.5491 -0.4622 -0.4398
  280TMC3    O1 4289   1.305   4.367   0.532  0.4085  0.1442  0.5424
  280TMC3    O2 4290   1.066   3.936   0.249  0.2579  0.5541  0.4090
  281TMC3    C1 4291   0.863   4.128  13.649 -0.5962 -0.2213  0.2119
  281TMC3    C2 4292   0.946   4.222  13.605  0.5911 -0.0626  0.1764
  281TMC3    C3 4293   1.037   4.196  13.510  0.2872  0.4158  0.8642
  281TMC3    C4 4294   0.878   3.992  13.625 -0.2835  0.9272  0.9032
  281TMC3    C5 4295   0.968   3.962  13.523  0.2019 -0.0339  0.5153
  281TMC3    C6 4296   1.046   4.059  13.469 -0.2267 -0.4436  0.4519
  281TMC3     C 4297   0.745   4.165  13.725  0.7918  0.2054  0.4362
  281TMC3     O 4298   0.676   4.075  13.769  0.4135 -0.2067 -0.3160
  281TMC3     H 4299   0.935   4.328  13.623 -1.2927 -0.3033  0.4351
  281TMC3    H1 4300   0.825   3.915  13.679 -0.7725  2.4164  2.5183
  281TMC3    H2 4301   1.113   4.040  13.385 -0.1775 -0.7295  0.5544
  281TMC3    C7 4302   1.004   3.830  13.482  0.2475 -0.1776 -0.1046
  281TMC3    C8 4303   1.019   4.293  13.396 -0.0445 -0.3507  0.1687
  281TMC3    O1 4304   1.104   3.819  13.412  0.1313  0.4092 -0.0432
  281TMC3    O2 4305   0.935   4.381  13.397 -0.0755 -0.6241  0.5328
  282MPD2     C 4306   2.232   0.423  14.923 -0.6998  0.4493  0.4271
  282MPD2    C1 4307   2.231   0.565  14.910  0.0159  0.5482 -0.2642
  282MPD2    C2 4308   2.204   0.618  14.790 -0.1772  0.0659  0.2665
  282MPD2    C3 4309   2.202   0.532  14.673  0.5037  0.6172 -0.9985
  282MPD2    C4 4310   2.209   0.392  14.689  0.3050 -0.3868  0.0039
  282MPD2    C5 4311   2.221   0.342  14.814 -0.4199  0.0775  0.2525
  282MPD2     H 4312   2.195   0.725  14.775  0.2686  0.1504  0.6103
  282MPD2    H1 4313   2.203   0.329  14.602 -2.1930  1.6505 -1.3092
  282MPD2    H2 4314   2.234   0.377  15.021  2.6331  1.5575  0.8733
  282MPD2    H3 4315   2.214   0.235  14.826 -0.6013  0.2343  1.6483
  282MPD2     N 4316   2.203   0.598  14.547 -0.3121 -0.1632  0.4045
  282MPD2    H5 4317   2.191   0.698  14.545 -1.6322 -0.3731 -1.4994
  282MPD2    N1 4318   2.257   0.637  15.030 -0.9832 -0.3264  0.4870
  282MPD2    H7 4319   2.266   0.589  15.119  0.1214 -0.0631  0.5071
  283TMC3    C1 4320   2.250   0.822  15.162  0.2580 -0.4915 -0.2113
  283TMC3    C2 4321   2.326   0.921  15.206 -0.4064  0.0025 -0.4665
  283TMC3    C3 4322   2.320   0.942  15.341  0.4723  0.9857 -0.1805
  283TMC3    C4 4323   2.166   0.748  15.246 -0.0823  0.0378  0.2623
  283TMC3    C5 4324   2.162   0.761  15.383 -0.0107 -0.2088 -0.9878
  283TMC3    C6 4325   2.236   0.869  15.425 -0.7997 -0.4340  0.3426
  283TMC3     C 4326   2.257   0.776  15.025 -0.6518 -0.1027  0.8573
  283TMC3     O 4327   2.282   0.855  14.933 -0.0061 -0.3940  0.9425
  283TMC3     H 4328   2.390   0.972  15.134  0.5550  2.1603  1.9334
  283TMC3    H1 4329   2.097   0.677  15.202  1.5992 -0.9526 -0.7605
  283TMC3    H2 4330   2.229   0.902  15.528 -0.5137 -1.7423  0.7752
  283TMC3    C7 4331   2.060   0.703  15.471 -0.7587  0.7754 -0.8846
  283TMC3    C8 4332   2.390   1.055  15.405  0.8481 -0.1403 -0.4387
  283TMC3    O1 4333   2.031   0.759  15.576  0.8290  0.1465  0.2470
  283TMC3    O2 4334   2.397   1.045  15.528 -0.6034 -0.0786  0.0856
  284MPD2     C 4335   0.618   3.982  12.212  0.6911  0.0459 -0.1999
  284MPD2    C1 4336   0.576   4.044  12.095  0.1361 -0.0762  0.0251
  284MPD2    C2 4337   0.493   3.976  12.005 -0.0016 -0.1262 -0.3602
  284MPD2    C3 4338   0.448   3.850  12.033  0.0902  0.8985 -0.6216
  284MPD2    C4 4339   0.473   3.792  12.156  1.0596  0.2236 -0.1775
  284MPD2    C5 4340   0.571   3.852  12.230 -0.1033 -0.2879 -0.0122
  284MPD2     H 4341   0.478   4.014  11.905 -1.9331 -2.8717 -1.0859
  284MPD2    H1 4342   0.431   3.696  12.185  3.7341 -0.8770  0.0754
  284MPD2    H2 4343   0.684   4.024  12.287  2.3816  1.6322 -2.5813
  284MPD2    H3 4344   0.608   3.791  12.311 -2.0661 -0.4764  0.7464
  284MPD2     N 4345   0.378   3.765  11.944  0.7739 -0.4585 -0.1181
  284MPD2    H5 4346   0.379   3.669  11.978 -2.1672  0.1745  1.7595
  284MPD2    N1 4347   0.618   4.170  12.059 -0.0771 -0.0344 -0.1559
  284MPD2    H7 4348   0.586   4.210  11.971 -0.6953 -1.1870 -0.4549
  285TMC3    C1 4349   0.775   4.353  12.054  0.7329 -0.0105  0.4706
  285TMC3    C2 4350   0.770   4.355  11.917  0.1443 -0.1370  0.4384
  285TMC3    C3 4351   0.825   4.465  11.849  0.4904 -0.6380  0.0793
  285TMC3    C4 4352   0.845   4.453  12.127 -0.8227 -0.0464  0.9719
  285TMC3    C5 4353   0.889   4.558  12.051 -0.3473 -0.5995  0.1041
  285TMC3    C6 4354   0.880   4.571  11.915 -0.0717 -0.1658  0.1399
  285TMC3     C 4355   0.717   4.242  12.123  0.1869 -0.5032  0.8693
  285TMC3     O 4356   0.762   4.232  12.238 -0.5917 -0.2935 -0.1824
  285TMC3     H 4357   0.724   4.277  11.857  0.2154 -1.1217  1.6680
  285TMC3    H1 4358   0.850   4.454  12.235  1.1193  0.4329  0.8874
  285TMC3    H2 4359   0.907   4.666  11.870  0.5731 -0.1343  0.6006
  285TMC3    C7 4360   0.947   4.664  12.132  0.3502 -0.3351  0.1272
  285TMC3    C8 4361   0.830   4.449  11.711 -0.2374 -0.1334  0.3591
  285TMC3    O1 4362   1.011   4.633  12.231 -0.0473  0.7777 -0.3809
  285TMC3    O2 4363   0.756   4.366  11.655  0.3631 -0.4029  0.2461
  286MPD2     C 4364   0.825   4.040   1.812  0.2039  0.5317  0.7087
  286MPD2    C1 4365   0.800   3.991   1.691  0.6157  0.0447 -0.2860
  286MPD2    C2 4366   0.865   3.886   1.650 -0.3541 -0.2489  0.5891
  286MPD2    C3 4367   0.961   3.822   1.722  0.6998  0.2303  0.0950
  286MPD2    C4 4368   0.990   3.869   1.845 -0.1219 -1.1902 -0.0235
  286MPD2    C5 4369   0.923   3.979   1.883  0.0602  0.4370  0.6872
  286MPD2     H 4370   0.833   3.840   1.557  0.1954 -1.0520  0.7960
  286MPD2    H1 4371   1.062   3.828   1.916  0.0265  0.1278  0.5744
  286MPD2    H2 4372   0.774   4.129   1.846  2.4881  1.2372  2.2799
  286MPD2    H3 4373   0.963   4.016   1.977  0.3600 -0.4345  0.9042
  286MPD2     N 4374   1.040   3.715   1.676  0.5792 -0.0156 -0.1144
  286MPD2    H5 4375   1.097   3.675   1.749  0.8406  0.5027 -0.0311
  286MPD2    N1 4376   0.695   4.030   1.607 -0.2786  0.0932  0.2833
  286MPD2    H7 4377   0.686   3.982   1.518  0.5142  1.1055 -0.3529
  287TMC3    C1 4378   1.128   3.561   1.527 -0.7184 -0.1179  0.4834
  287TMC3    C2 4379   1.116   3.496   1.402  0.2414 -0.1589  0.1813
  287TMC3    C3 4380   1.208   3.408   1.367  0.0173 -0.3668 -0.5563
  287TMC3    C4 4381   1.236   3.542   1.609 -0.5483 -0.0620 -0.5130
  287TMC3    C5 4382   1.332   3.456   1.564 -0.0092  0.2234  0.2991
  287TMC3    C6 4383   1.312   3.378   1.455  0.2733 -0.5035  0.6571
  287TMC3     C 4384   1.038   3.671   1.549  0.2656  0.3587  0.4332
  287TMC3     O 4385   0.986   3.719   1.444 -0.8860 -0.1558 -0.0076
  287TMC3     H 4386   1.027   3.504   1.341 -0.2830 -0.6235  0.8904
  287TMC3    H1 4387   1.252   3.583   1.708 -0.3594  0.9856 -0.9751
  287TMC3    H2 4388   1.384   3.306   1.419 -0.6932  0.3061 -2.9456
  287TMC3    C7 4389   1.469   3.465   1.623 -0.5314  0.4568 -0.6656
  287TMC3    C8 4390   1.183   3.307   1.263 -0.2255 -1.1112 -0.1942
  287TMC3    O1 4391   1.486   3.534   1.720 -0.2966 -0.5857 -0.1184
  287TMC3    O2 4392   1.199   3.192   1.289 -0.9010 -0.5471 -0.1125
  288TMC3    C1 4393   3.266   3.055  14.529 -0.5381  0.4071  0.0865
  288TMC3    C2 4394   3.137   3.097  14.547  0.3632  0.3011  0.3448
  288TMC3    C3 4395   3.088   3.188  14.458 -0.2666 -0.4065 -0.2521
  288TMC3    C4 4396   3.344   3.105  14.432  0.0765 -0.4402 -0.3331
  288TMC3    C5 4397   3.296   3.203  14.354  0.2038  0.2708 -0.3753
  288TMC3    C6 4398   3.169   3.254  14.364  0.4189  0.1352  0.2008
  288TMC3     C 4399   3.335   2.978  14.640 -0.4057 -0.9900 -0.6710
  288TMC3     O 4400   3.457   2.968  14.645 -0.0640  0.3396  0.3715
  288TMC3     H 4401   3.071   3.064  14.626  0.9527  0.4649  0.9135
  288TMC3    H1 4402   3.444   3.070  14.412 -0.8991 -3.7116  0.4532
  288TMC3    H2 4403   3.126   3.327  14.297 -2.0954 -1.4631  0.0837
  288TMC3    C7 4404   3.379   3.244  14.240 -1.7181  0.3603  0.2892
  288TMC3    C8 4405   2.948   3.194  14.429  0.6103 -0.4292 -0.7933
  288TMC3    O1 4406   3.495   3.213  14.248  0.6109  0.6558 -0.6681
  288TMC3    O2 4407   2.910   3.281  14.352 -0.2051  0.0020 -0.2515
  289MPD2     C 4408   2.703   2.302  14.174 -0.3034 -0.1572  0.1022
  289MPD2    C1 4409   2.653   2.421  14.126  0.3544 -0.1992 -0.8215
  289MPD2    C2 4410   2.516   2.425  14.093  0.0023 -0.7230  0.3692
  289MPD2    C3 4411   2.433   2.312  14.102  0.5018 -0.3018  0.2265
  289MPD2    C4 4412   2.493   2.191  14.141  0.7010 -0.4771 -0.4231
  289MPD2    C5 4413   2.626   2.183  14.180  0.7212 -0.4655 -0.1892
  289MPD2     H 4414   2.468   2.515  14.056  0.5764 -0.9659 -0.9691
  289MPD2    H1 4415   2.440   2.097  14.141 -3.1241  1.7032 -3.0281
  289MPD2    H2 4416   2.809   2.294  14.195  0.4122  1.6508 -2.7537
  289MPD2    H3 4417   2.678   2.091  14.204  3.3979  0.4796 -2.4446
  289MPD2     N 4418   2.297   2.314  14.063 -0.1147 -0.5628  0.2105
  289MPD2    H5 4419   2.253   2.222  14.063 -0.0716 -0.5866  0.8586
  289MPD2    N1 4420   2.742   2.531  14.122 -0.5044 -0.5017 -0.4149
  289MPD2    H7 4421   2.838   2.510  14.147 -0.1023  1.3463 -0.4388
  290TMC3    C1 4422   2.077   2.403  14.037  0.7086  1.0929  0.0963
  290TMC3    C2 4423   1.991   2.503  14.071  0.3383 -0.2276  0.1414
  290TMC3    C3 4424   1.855   2.494  14.043 -0.2496  0.8368  0.5739
  290TMC3    C4 4425   2.025   2.279  14.004  0.5450  0.8898 -0.0980
  290TMC3    C5 4426   1.888   2.273  13.979 -0.7986  0.1148  0.0430
  290TMC3    C6 4427   1.800   2.380  13.996  0.1919 -0.0123 -0.2707
  290TMC3     C 4428   2.222   2.429  14.056  0.2700  0.2385  0.1245
  290TMC3     O 4429   2.247   2.543  14.093  0.4613 -0.0333 -0.5627
  290TMC3     H 4430   2.032   2.593  14.114 -2.9433  1.6690 -0.6892
  290TMC3    H1 4431   2.084   2.197  13.967 -1.6993 -1.2675  1.1058
  290TMC3    H2 4432   1.696   2.379  13.966  0.5573  1.1428 -1.5604
  290TMC3    C7 4433   1.819   2.145  13.970  0.5246 -0.6563  0.1787
  290TMC3    C8 4434   1.760   2.590  14.093  0.5388  0.3404 -0.3724
  290TMC3    O1 4435   1.712   2.133  13.916  0.3616 -0.4196  0.0576
  290TMC3    O2 4436   1.653   2.539  14.128 -0.3892  0.2142 -0.7133
  291MPD2     C 4437   1.691   2.498   0.218  0.4666  0.0631 -0.6496
  291MPD2    C1 4438   1.769   2.386   0.245 -0.1724  0.0951  0.6183
  291MPD2    C2 4439   1.911   2.411   0.277  0.2275 -0.1728  0.1255
  291MPD2    C3 4440   1.963   2.542   0.272  0.2440  0.5123  0.2931
  291MPD2    C4 4441   1.878   2.649   0.256  0.8219  0.1994  0.2045
  291MPD2    C5 4442   1.746   2.627   0.233  0.0715  0.1874  0.3495
  291MPD2     H 4443   1.976   2.325   0.291  0.5024 -0.4331 -2.7458
  291MPD2    H1 4444   1.908   2.753   0.250  1.0899  0.2323  1.9483
  291MPD2    H2 4445   1.585   2.491   0.200  0.6925 -0.7185 -1.6625
  291MPD2    H3 4446   1.685   2.713   0.211 -0.8066 -0.6298 -0.4380
  291MPD2     N 4447   2.096   2.582   0.302  0.1584 -0.0395 -0.8223
  291MPD2    H5 4448   2.107   2.683   0.300 -0.4767  0.0294 -0.9019
  291MPD2    N1 4449   1.712   2.252   0.236 -0.2668 -0.4385  0.2198
  291MPD2    H7 4450   1.769   2.178   0.276 -0.0566 -0.6158 -0.4025
  292TMC3    C1 4451   1.535   2.096   0.234 -0.8392 -0.2842 -0.4130
  292TMC3    C2 4452   1.567   2.052   0.368  0.6777  0.4631 -0.2350
  292TMC3    C3 4453   1.546   1.923   0.398 -0.2083 -0.2426  0.2878
  292TMC3    C4 4454   1.494   2.006   0.137  0.2050 -0.7557  0.8547
  292TMC3    C5 4455   1.493   1.875   0.175  0.0400 -0.0549 -0.1270
  292TMC3    C6 4456   1.513   1.829   0.307 -0.1276 -0.2375 -0.0496
  292TMC3     C 4457   1.586   2.225   0.196  0.2615  0.3021 -0.8504
  292TMC3     O 4458   1.508   2.291   0.122  0.1380  0.3998  0.2533
  292TMC3     H 4459   1.599   2.128   0.438  0.3428  0.7698 -0.4172
  292TMC3    H1 4460   1.474   2.047   0.039  2.3717 -0.9456  0.3310
  292TMC3    H2 4461   1.497   1.726   0.337  0.9233  0.4631  2.9176
  292TMC3    C7 4462   1.451   1.775   0.082  0.3906  0.4011 -0.0397
  292TMC3    C8 4463   1.529   1.893   0.535 -0.2634  0.0290 -0.1162
  292TMC3    O1 4464   1.491   1.658   0.100  0.0385 -0.4262  0.4234
  292TMC3    O2 4465   1.505   1.986   0.609  0.5563  0.6753 -0.1204
  293MPD2     C 4466   4.084   3.414  12.610  0.5124  0.4297 -0.3904
  293MPD2    C1 4467   4.000   3.381  12.711  0.1474  0.2578 -0.6513
  293MPD2    C2 4468   4.032   3.417  12.839  0.4355  0.4987 -0.3773
  293MPD2    C3 4469   4.140   3.495  12.868 -0.0038 -0.1105 -0.2553
  293MPD2    C4 4470   4.221   3.531  12.764  0.2296 -0.5247  0.1381
  293MPD2    C5 4471   4.196   3.487  12.635  0.6841  0.3807 -0.4539
  293MPD2     H 4472   3.965   3.392  12.921  2.1758 -0.7207  0.6774
  293MPD2    H1 4473   4.318   3.575  12.786  0.1078 -0.6171  0.8484
  293MPD2    H2 4474   4.064   3.384  12.507  0.8042 -1.5460  0.1160
  293MPD2    H3 4475   4.263   3.506  12.552 -1.5538  2.6344 -1.7554
  293MPD2     N 4476   4.164   3.540  12.996  0.2767  0.2533 -0.0289
  293MPD2    H5 4477   4.100   3.518  13.072  1.4698 -2.4166  0.2179
  293MPD2    N1 4478   3.882   3.318  12.673  0.8914 -0.5118  0.0467
  293MPD2    H7 4479   3.873   3.296  12.574 -1.6864  0.1080  0.1575
  294TMC3    C1 4480   3.663   3.228  12.670  0.1132  0.4092 -0.0749
  294TMC3    C2 4481   3.541   3.230  12.730  0.4130  0.2264  0.7206
  294TMC3    C3 4482   3.431   3.159  12.690 -0.3548  0.1890 -0.7893
  294TMC3    C4 4483   3.670   3.148  12.560  0.2270  0.2988  0.6892
  294TMC3    C5 4484   3.561   3.077  12.514 -0.0540  0.2486 -0.1316
  294TMC3    C6 4485   3.439   3.090  12.574 -0.0333  0.0777 -0.8082
  294TMC3     C 4486   3.776   3.282  12.749 -0.0408 -0.3485 -0.3228
  294TMC3     O 4487   3.768   3.291  12.872 -0.1564  0.4258 -0.2759
  294TMC3     H 4488   3.532   3.273  12.829  0.8720  2.7813 -0.3454
  294TMC3    H1 4489   3.763   3.147  12.504 -0.3734 -0.4619 -0.2818
  294TMC3    H2 4490   3.352   3.040  12.534  1.4792 -2.2833 -1.1836
  294TMC3    C7 4491   3.576   3.004  12.387 -0.0248  0.0518 -0.5456
  294TMC3    C8 4492   3.303   3.181  12.762 -0.5004 -0.5378 -0.1043
  294TMC3    O1 4493   3.690   2.995  12.341  0.6978 -0.5805  0.2912
  294TMC3    O2 4494   3.295   3.287  12.828  0.3148  0.8945 -0.2646
  295MPD2     C 4495   3.706   3.413   1.031  0.1048 -0.2819  0.7104
  295MPD2    C1 4496   3.645   3.292   1.037  0.8320 -0.3983  0.6787
  295MPD2    C2 4497   3.552   3.283   1.142 -0.3696  0.2500  0.8527
  295MPD2    C3 4498   3.511   3.389   1.222 -0.1154  1.1826 -0.4323
  295MPD2    C4 4499   3.563   3.512   1.196  0.0109  0.3581 -0.3499
  295MPD2    C5 4500   3.664   3.519   1.110 -0.1600 -0.1230  0.5595
  295MPD2     H 4501   3.524   3.180   1.164 -3.4910  0.3576 -2.5544
  295MPD2    H1 4502   3.534   3.595   1.260  0.8765 -0.2529  0.8494
  295MPD2    H2 4503   3.792   3.424   0.966 -0.9444 -0.5215 -0.7091
  295MPD2    H3 4504   3.713   3.614   1.095  2.0185 -1.3703 -0.1424
  295MPD2     N 4505   3.411   3.396   1.323  0.6651  0.6352  0.0009
  295MPD2    H5 4506   3.387   3.481   1.373 -0.8076  0.4508 -0.3892
  295MPD2    N1 4507   3.688   3.187   0.948  0.0158  0.0726  0.5109
  295MPD2    H7 4508   3.760   3.213   0.880 -0.0614 -0.8944  0.0559
  296TMC3    C1 4509   3.257   3.304   1.487  0.1176 -0.8472  0.0034
  296TMC3    C2 4510   3.208   3.429   1.507 -0.0680  0.5446  0.7430
  296TMC3    C3 4511   3.113   3.441   1.611  0.0306  0.7481  0.6614
  296TMC3    C4 4512   3.211   3.190   1.546  0.5786 -0.4026 -0.7340
  296TMC3    C5 4513   3.115   3.201   1.648  0.3677 -0.5594 -0.3298
  296TMC3    C6 4514   3.067   3.327   1.678  0.4952  0.9333 -0.2166
  296TMC3     C 4515   3.359   3.284   1.385 -0.2934  0.1506  0.0469
  296TMC3     O 4516   3.402   3.172   1.361  0.3669 -0.6047  0.1735
  296TMC3     H 4517   3.227   3.511   1.438  2.5493  0.4855  1.3614
  296TMC3    H1 4518   3.255   3.093   1.526  1.3358 -0.5376  1.6667
  296TMC3    H2 4519   2.993   3.335   1.757  2.1883 -0.6678  1.5250
  296TMC3    C7 4520   3.055   3.093   1.725  0.1260 -0.1628  0.6397
  296TMC3    C8 4521   3.062   3.570   1.651  0.0914  1.1271 -0.0955
  296TMC3    O1 4522   2.987   3.116   1.827  0.2181  0.2215 -0.1832
  296TMC3    O2 4523   2.974   3.572   1.737 -0.4074 -0.9803  0.2435
  297MPD2     C 4524   1.168   4.515  16.381  0.1943  0.2994  0.3356
  297MPD2    C1 4525   1.179   4.577  16.255  0.3228  0.1504 -0.0385
  297MPD2    C2 4526   1.297   4.648  16.225  0.6867  0.6192  0.1500
  297MPD2    C3 4527   1.407   4.645  16.306  0.4347  0.1054  0.3511
  297MPD2    C4 4528   1.395   4.574  16.423 -0.6258 -0.4177 -0.8794
  297MPD2    C5 4529   1.276   4.519  16.464  0.0357  0.1446 -0.3517
  297MPD2     H 4530   1.292   4.694  16.127 -1.0289  0.3582  0.1112
  297MPD2    H1 4531   1.476   4.569  16.494 -1.8818 -1.1236  0.4860
  297MPD2    H2 4532   1.079   4.467  16.419  0.6279 -0.0372  0.9337
  297MPD2    H3 4533   1.278   4.465  16.558 -0.2255 -0.4727 -0.7001
  297MPD2     N 4534   1.523   4.707  16.264  0.6840 -0.6289  0.1219
  297MPD2    H5 4535   1.535   0.008  16.171  0.4036  0.0060  0.3579
  297MPD2    N1 4536   1.075   4.593  16.168 -0.0539  0.0922 -0.0834
  297MPD2    H7 4537   1.077   4.657  16.089 -0.2936 -0.9769 -0.9627
  298TMC3    C1 4538   0.860   4.591  16.091  0.3817 -0.2348  0.3946
  298TMC3    C2 4539   0.905   4.636  15.971  0.0131  0.4124  0.3100
  298TMC3    C3 4540   0.806   4.700  15.900  0.4571 -0.4742 -0.3158
  298TMC3    C4 4541   0.734   4.612  16.133  0.3223 -0.5838  0.1337
  298TMC3    C5 4542   0.639   4.674  16.059 -0.2581 -0.2091  0.3876
  298TMC3    C6 4543   0.676   4.715  15.934 -0.1001 -0.6909 -0.7992
  298TMC3     C 4544   0.952   4.548  16.189  0.6178 -0.8586  0.2395
  298TMC3     O 4545   0.912   4.487  16.286 -0.1410 -0.4540  0.3896
  298TMC3     H 4546   1.003   4.604  15.937 -0.2166 -0.0126  0.0359
  298TMC3    H1 4547   0.708   4.571  16.230 -2.1077 -1.1166 -0.7513
  298TMC3    H2 4548   0.603   0.024  15.869 -2.0634  0.1610  2.0004
  298TMC3    C7 4549   0.525   4.718  16.131  0.9946 -0.2442 -0.0195
  298TMC3    C8 4550   0.837   0.005  15.764 -0.1325  0.0185  0.1269
  298TMC3    O1 4551   0.521   4.700  16.251  0.1109  0.1326  0.3994
  298TMC3    O2 4552   0.745   0.006  15.684 -0.2506  0.2389  0.4145
  299MPD2     C 4553   2.063   4.465  10.248 -0.7721 -0.3082 -0.2008
  299MPD2    C1 4554   2.081   4.336  10.296  0.8396 -0.0915  0.1693
  299MPD2    C2 4555   1.986   4.239  10.270 -0.5997  0.3475  0.5275
  299MPD2    C3 4556   1.875   4.271  10.191 -0.3918  0.5608 -0.0178
  299MPD2    C4 4557   1.850   4.400  10.153  0.2446  0.6359  0.3471
  299MPD2    C5 4558   1.945   4.495  10.184 -0.1396  0.1598  0.3298
  299MPD2     H 4559   1.997   4.141  10.315  1.0766  0.6634  0.8281
  299MPD2    H1 4560   1.754   4.422  10.109 -0.1159 -0.2527  0.7080
  299MPD2    H2 4561   2.135   4.544  10.267 -2.9475  1.7081 -0.2272
  299MPD2    H3 4562   1.926   4.598  10.159 -0.8361  0.4933  2.2418
  299MPD2     N 4563   1.768   4.182  10.171 -0.5701 -0.2840  0.8080
  299MPD2    H5 4564   1.690   4.215  10.115  0.7858 -0.3176 -1.1461
  299MPD2    N1 4565   2.201   4.318  10.369  0.1905  0.0683 -0.2563
  299MPD2    H7 4566   2.282   4.379  10.366 -0.0040  0.3340 -0.1452
  300TMC3    C1 4567   1.649   3.971  10.172 -0.5314  0.0283 -0.3337
  300TMC3    C2 4568   1.562   4.027  10.084 -0.2766 -0.4063  0.0350
  300TMC3    C3 4569   1.434   4.019  10.105 -0.7513  0.3412 -0.2046
  300TMC3    C4 4570   1.613   3.895  10.275 -0.0715  0.0503  0.2068
  300TMC3    C5 4571   1.479   3.895  10.295 -0.3029  0.6991 -1.2185
  300TMC3    C6 4572   1.387   3.967  10.221  0.0747 -0.0284  0.0663
  300TMC3     C 4573   1.778   4.047  10.188  0.4343  0.3833 -0.1217
  300TMC3     O 4574   1.872   3.976  10.227  0.5743 -0.1971  0.0561
  300TMC3     H 4575   1.595   4.088  10.001 -1.6282  2.2395  1.4661
  300TMC3    H1 4576   1.680   3.850  10.347  0.3881 -0.0727 -0.2946
  300TMC3    H2 4577   1.282   3.963  10.244 -0.1735 -0.0621 -1.1004
  300TMC3    C7 4578   1.422   3.797  10.385  0.3510  0.4875  0.5206
  300TMC3    C8 4579   1.374   4.146  10.057 -0.0210  0.1015  0.3086
  300TMC3    O1 4580   1.474   3.683  10.405  0.0220  0.3615 -0.3599
  300TMC3    O2 4581   1.372   4.173   9.937  0.4680  0.5762  0.3755
  301MPD2     C 4582   3.972   1.327   1.250 -0.1708 -0.1565  0.4688
  301MPD2    C1 4583   3.861   1.259   1.301 -0.1684  0.4535  0.4704
  301MPD2    C2 4584   3.869   1.128   1.332 -0.3587 -0.6584  0.3605
  301MPD2    C3 4585   3.993   1.061   1.306 -0.2289  0.3296 -0.0467
  301MPD2    C4 4586   4.104   1.134   1.260  0.1340  0.2958 -0.0622
  301MPD2    C5 4587   4.088   1.266   1.220  0.2297 -0.1775 -0.3308
  301MPD2     H 4588   3.781   1.087   1.381  0.0052 -0.6572  1.0105
  301MPD2    H1 4589   4.198   1.087   1.235  0.6127  0.4409  1.4364
  301MPD2    H2 4590   3.970   1.435   1.234  0.3138 -0.5513 -2.2753
  301MPD2    H3 4591   4.165   1.333   1.183 -1.6596  1.4247 -1.3665
  301MPD2     N 4592   3.999   0.921   1.334  0.1839 -0.1119  0.4553
  301MPD2    H5 4593   4.085   0.867   1.322 -1.2834 -2.0722 -1.1633
  301MPD2    N1 4594   3.732   1.318   1.329  0.6715 -0.4711 -0.2456
  301MPD2    H7 4595   3.662   1.251   1.358 -1.3941  2.0071  0.4830
  302TMC3    C1 4596   3.910   0.714   1.424  0.2945 -0.4258  0.6715
  302TMC3    C2 4597   4.035   0.676   1.477  0.9097  1.0003  0.2633
  302TMC3    C3 4598   4.044   0.584   1.579  0.4161  0.3865  0.3431
  302TMC3    C4 4599   3.798   0.651   1.469 -0.2876 -0.1617  0.5005
  302TMC3    C5 4600   3.813   0.555   1.560 -0.5515 -0.3296 -0.1114
  302TMC3    C6 4601   3.929   0.520   1.625 -0.3276 -0.0103  0.3046
  302TMC3     C 4602   3.885   0.847   1.354  0.2125 -0.4787  0.3235
  302TMC3     O 4603   3.765   0.871   1.333  0.1318  0.2484 -0.2873
  302TMC3     H 4604   4.120   0.735   1.445 -0.6701  2.6457 -0.9100
  302TMC3    H1 4605   3.710   0.675   1.410  0.2830 -2.8670 -1.4777
  302TMC3    H2 4606   3.932   0.450   1.708  3.6349  0.2555  0.4022
  302TMC3    C7 4607   3.698   0.487   1.618 -0.1478 -0.3125  0.1261
  302TMC3    C8 4608   4.175   0.527   1.611 -0.1006  0.0487  0.2148
  302TMC3    O1 4609   3.707   0.423   1.723 -0.3210  0.5547  0.4262
  302TMC3    O2 4610   4.167   0.440   1.696  0.2744  0.5188  0.2205
  303MPD2     C 4611   4.382   3.258  10.943 -0.2381  0.3548  0.3460
  303MPD2    C1 4612   4.327   3.154  10.878  0.1723  0.1465 -0.3002
  303MPD2    C2 4613   4.278   3.172  10.753 -0.3623 -0.2381  0.2800
  303MPD2    C3 4614   4.280   3.295  10.690  0.0231  0.8374  0.3115
  303MPD2    C4 4615   4.344   3.402  10.753 -0.2622 -0.1145  0.1447
  303MPD2    C5 4616   4.394   3.381  10.877  0.0794  0.9354  0.1968
  303MPD2     H 4617   4.219   3.095  10.704 -3.9285 -0.0623  4.3017
  303MPD2    H1 4618   4.331   3.500  10.709 -1.3402 -0.3440 -0.0691
  303MPD2    H2 4619   4.423   3.254  11.043  1.0946  0.4248 -0.1847
  303MPD2    H3 4620   4.449   3.463  10.922 -1.5415  1.5584  1.0576
  303MPD2     N 4621   4.214   3.327  10.563  0.5551  0.1713 -0.8463
  303MPD2    H5 4622   4.213   3.424  10.533 -2.5258 -0.6445 -3.5151
  303MPD2    N1 4623   4.310   3.035  10.954  0.8750 -0.3000  0.1998
  303MPD2    H7 4624   4.331   3.032  11.053  2.6154 -1.1709 -0.1952
  304TMC3    C1 4625   4.238   2.811  10.998 -0.1811 -0.1425  0.2384
  304TMC3    C2 4626   4.175   2.842  11.114  0.3197 -0.0467 -0.3366
  304TMC3    C3 4627   4.118   2.735  11.185  0.8439  0.2353  0.5547
  304TMC3    C4 4628   4.244   2.683  10.953 -0.0551 -0.0657  0.1478
  304TMC3    C5 4629   4.197   2.585  11.029  0.0866  0.4205  0.0603
  304TMC3    C6 4630   4.132   2.604  11.152 -0.1238 -0.2947 -0.2509
  304TMC3     C 4631   4.258   2.913  10.904  0.0523  0.2378 -0.6784
  304TMC3     O 4632   4.227   2.887  10.792 -0.2071 -1.0002  0.6417
  304TMC3     H 4633   4.162   2.947  11.138  0.0463 -0.0178 -0.6163
  304TMC3    H1 4634   4.273   2.660  10.851 -1.2362 -0.0689 -0.1880
  304TMC3    H2 4635   4.082   2.523  11.204  0.2258 -0.8335 -0.7502
  304TMC3    C7 4636   4.124   2.475  10.971 -0.4329 -0.1206 -0.3575
  304TMC3    C8 4637   3.980   2.771  11.199  0.0563  0.0905  0.2236
  304TMC3    O1 4638   4.008   2.463  11.004  0.0806 -0.6399 -0.3066
  304TMC3    O2 4639   3.952   2.873  11.260  0.5734  0.3088 -0.2343
  305MPD2     C 4640   2.717   0.682  14.148 -0.4012  0.6793 -0.2445
  305MPD2    C1 4641   2.672   0.562  14.182 -0.1119  0.3102  0.5401
  305MPD2    C2 4642   2.683   0.462  14.084 -0.3456  0.8946  0.2980
  305MPD2    C3 4643   2.737   0.491  13.960 -0.0801 -0.2196 -0.3710
  305MPD2    C4 4644   2.794   0.617  13.938  0.3795  0.8242 -0.0085
  305MPD2    C5 4645   2.777   0.714  14.029 -0.1159  0.1573  0.4070
  305MPD2     H 4646   2.647   0.362  14.105 -0.2819  0.7429 -0.3426
  305MPD2    H1 4647   2.844   0.641  13.845 -1.9005  0.1408 -1.4031
  305MPD2    H2 4648   2.703   0.766  14.215  0.8112 -0.3696  1.3504
  305MPD2    H3 4649   2.823   0.810  14.009 -0.1605  0.0604 -0.1344
  305MPD2     N 4650   2.745   0.401  13.852 -0.0638  0.0648 -0.1929
  305MPD2    H5 4651   2.806   0.427  13.776 -1.4692  2.8167 -0.3877
  305MPD2    N1 4652   2.616   0.545  14.316 -0.2212 -0.1126 -1.0428
  305MPD2    H7 4653   2.622   0.625  14.378 -1.2249  0.3878 -1.5990
  306TMC3    C1 4654   2.543   0.427  14.511  0.2870 -0.8860  0.4580
  306TMC3    C2 4655   2.567   0.312  14.582 -0.4035 -0.0031 -0.5566
  306TMC3    C3 4656   2.592   0.322  14.723 -0.9078 -0.2570 -0.0501
  306TMC3    C4 4657   2.537   0.551  14.575  0.4356  1.7162  0.4316
  306TMC3    C5 4658   2.566   0.558  14.713 -1.0782  0.1443 -0.1582
  306TMC3    C6 4659   2.580   0.445  14.790 -0.9263  0.1941  0.1466
  306TMC3     C 4660   2.561   0.430  14.366  0.3872  0.7791 -0.3778
  306TMC3     O 4661   2.552   0.323  14.310 -0.0175  0.2672  0.4120
  306TMC3     H 4662   2.592   0.222  14.526  1.5562 -0.0923  0.4683
  306TMC3    H1 4663   2.506   0.638  14.519 -1.2182  1.7422  1.3669
  306TMC3    H2 4664   2.614   0.446  14.893  1.5193 -2.6455 -0.6148
  306TMC3    C7 4665   2.559   0.695  14.763  0.5177  0.3639  0.0070
  306TMC3    C8 4666   2.679   0.217  14.767 -0.0011 -0.0885 -0.7474
  306TMC3    O1 4667   2.560   0.783  14.678  0.1897 -0.0968  0.0746
  306TMC3    O2 4668   2.677   0.118  14.688  0.0137  0.0255 -0.0969
  307MPD2     C 4669   0.396   4.135   0.319 -0.3362  0.1998  0.3640
  307MPD2    C1 4670   0.435   4.197   0.438  0.3111 -0.0292  0.1494
  307MPD2    C2 4671   0.385   4.155   0.558  0.8654  0.1390 -0.0158
  307MPD2    C3 4672   0.292   4.051   0.563  0.0676  0.3068 -0.0694
  307MPD2    C4 4673   0.271   3.974   0.451  0.6447 -0.6190 -0.1189
  307MPD2    C5 4674   0.326   4.020   0.332  0.6548 -1.0304 -0.2144
  307MPD2     H 4675   0.409   4.214   0.646  2.6623 -1.1500  0.3644
  307MPD2    H1 4676   0.192   3.900   0.441  0.1017  0.4194 -3.5273
  307MPD2    H2 4677   0.429   4.176   0.225  1.2718 -0.1953  0.7572
  307MPD2    H3 4678   0.286   3.971   0.244  1.8555  0.1514 -1.4248
  307MPD2     N 4679   0.206   4.016   0.670 -0.6058 -0.0779 -0.3738
  307MPD2    H5 4680   0.157   3.928   0.659 -1.8173  0.4043  1.1190
  307MPD2    N1 4681   0.507   4.317   0.437  0.1555  0.0406  0.7030
  307MPD2    H7 4682   0.510   4.367   0.526  3.2830 -1.4137  1.4375
  308TMC3    C1 4683   4.643   3.912   0.889 -0.1530 -0.5058 -0.2826
  308TMC3    C2 4684   4.587   3.995   0.984  0.0441 -0.0580 -0.5379
  308TMC3    C3 4685   4.663   4.094   1.035 -0.5292 -1.1907  0.4094
  308TMC3    C4 4686   0.032   3.919   0.834 -0.8525  1.0961 -0.4581
  308TMC3    C5 4687   0.099   4.025   0.880 -0.4340  0.6718 -0.7248
  308TMC3    C6 4688   0.054   4.108   0.981  0.1557  0.5995 -0.2518
  308TMC3     C 4689   4.558   3.830   0.814  0.1378 -0.5323  0.8366
  308TMC3     O 4690   4.599   3.727   0.762 -0.5123 -0.3807  0.7904
  308TMC3     H 4691   4.489   3.999   1.029  0.4513 -0.5386  0.3942
  308TMC3    H1 4692   0.057   3.844   0.760 -3.2663 -0.0567 -0.0977
  308TMC3    H2 4693   0.121   4.186   1.018  0.6310  0.6469 -1.2066
  308TMC3    C7 4694   0.193   4.085   0.786  0.1117  0.0026  0.6867
  308TMC3    C8 4695   4.593   4.208   1.090 -0.2716  0.0468 -0.2086
  308TMC3    O1 4696   0.222   4.199   0.812  0.2303 -0.1938 -0.3966
  308TMC3    O2 4697   4.515   4.186   1.183 -0.4770 -0.1030 -0.5727
  309MPD2     C 4698   4.168   4.276  17.133  0.1733 -0.2774 -0.1227
  309MPD2    C1 4699   4.086   4.354  17.047 -0.0121 -0.8403 -0.3007
  309MPD2    C2 4700   3.950   4.371  17.086 -0.3195 -0.1358  0.1770
  309MPD2    C3 4701   3.904   4.325  17.210 -0.5442 -0.0132  0.5333
  309MPD2    C4 4702   3.990   4.244  17.276 -0.2952 -0.2434  0.4812
  309MPD2    C5 4703   4.111   4.207  17.236  1.0106 -0.4479 -0.7907
  309MPD2     H 4704   3.883   4.411  17.010  0.4255 -3.0786 -2.0288
  309MPD2    H1 4705   3.946   4.204  17.367 -0.5154 -1.0849 -0.0003
  309MPD2    H2 4706   4.272   4.254  17.111  0.4584 -1.3046  2.2105
  309MPD2    H3 4707   4.170   4.143  17.299  0.8234 -0.0757 -0.2371
  309MPD2     N 4708   3.775   4.357  17.265  0.8151 -0.3674  0.1950
  309MPD2    H5 4709   3.756   4.319  17.358 -0.8847  0.1022  0.0371
  309MPD2    N1 4710   4.128   4.416  16.931  0.5273 -0.4606 -0.7159
  309MPD2    H7 4711   4.060   4.462  16.871 -0.7132 -0.7237  0.5113
  310TMC3    C1 4712   4.268   4.457  16.745  0.5286  0.0461  0.2329
  310TMC3    C2 4713   4.171   4.537  16.700  0.2129 -0.4937 -0.3408
  310TMC3    C3 4714   4.192   4.584  16.570  0.0576 -0.5284  0.2138
  310TMC3    C4 4715   4.380   4.413  16.667 -0.1409  0.1252 -0.1132
  310TMC3    C5 4716   4.391   4.460  16.544  0.4203  0.1098  0.2557
  310TMC3    C6 4717   4.304   4.559  16.498 -0.6866 -1.0151  0.3069
  310TMC3     C 4718   4.253   4.392  16.876 -0.1524 -0.0903  0.1978
  310TMC3     O 4719   4.352   4.330  16.916  0.3684  0.0162 -0.5398
  310TMC3     H 4720   4.088   4.578  16.758 -1.3196 -0.2829 -2.6961
  310TMC3    H1 4721   4.448   4.348  16.720 -0.1473  1.4764  1.5775
  310TMC3    H2 4722   4.291   4.578  16.392  2.4500 -1.0246 -0.0888
  310TMC3    C7 4723   4.501   4.418  16.454  0.0909  0.4047  0.3171
  310TMC3    C8 4724   4.080   4.654  16.503 -0.3729  0.1303 -0.4597
  310TMC3    O1 4725   4.515   4.483  16.351 -0.3151  0.4830  0.8198
  310TMC3    O2 4726   3.971   4.626  16.541  0.2199  0.2801 -0.3750
  311MPD2     C 4727   1.501   0.358  12.841 -0.2428 -0.8081 -0.1138
  311MPD2    C1 4728   1.501   0.496  12.826 -0.3257  0.8706 -0.2859
  311MPD2    C2 4729   1.383   0.566  12.813  0.1200 -0.3645  0.3922
  311MPD2    C3 4730   1.265   0.491  12.829  0.1789  0.1233  0.2793
  311MPD2    C4 4731   1.264   0.353  12.827  0.0490 -0.9453  0.2842
  311MPD2    C5 4732   1.384   0.290  12.839  0.6033  0.3758 -0.4369
  311MPD2     H 4733   1.390   0.672  12.789 -0.4231 -0.9590 -2.3890
  311MPD2    H1 4734   1.180   0.284  12.826 -1.4132  0.8228  0.8803
  311MPD2    H2 4735   1.587   0.297  12.865  1.0146 -0.5005 -3.7920
  311MPD2    H3 4736   1.391   0.182  12.833 -0.4873  0.3072 -0.5209
  311MPD2     N 4737   1.140   0.553  12.829 -0.6460 -0.4088  0.0686
  311MPD2    H5 4738   1.153   0.654  12.821  0.4224 -0.5682 -0.2334
  311MPD2    N1 4739   1.621   0.572  12.835 -0.0701 -0.0236  0.1416
  311MPD2    H7 4740   1.613   0.673  12.836  1.8059  0.1116  0.9093
  312TMC3    C1 4741   0.898   0.576  12.855 -0.5361  0.5442  0.9243
  312TMC3    C2 4742   0.777   0.520  12.843  0.5648 -0.0316 -0.0315
  312TMC3    C3 4743   0.671   0.601  12.871 -0.2233  0.1387 -0.1935
  312TMC3    C4 4744   0.917   0.704  12.895  0.2343 -0.5285 -1.0971
  312TMC3    C5 4745   0.806   0.782  12.909  0.1553  0.0140  0.5845
  312TMC3    C6 4746   0.675   0.732  12.900  0.6223 -0.4447  0.1030
  312TMC3     C 4747   1.016   0.491  12.824  0.1711  0.1559 -0.0733
  312TMC3     O 4748   0.987   0.378  12.784  0.0063  0.1673 -0.2609
  312TMC3     H 4749   0.767   0.413  12.825  1.6185  0.0478 -1.0445
  312TMC3    H1 4750   1.011   0.757  12.893 -0.6716  1.2356  2.2774
  312TMC3    H2 4751   0.587   0.790  12.925  0.8906 -1.1139  2.5691
  312TMC3    C7 4752   0.819   0.921  12.943 -0.0010 -0.4771 -0.4412
  312TMC3    C8 4753   0.541   0.538  12.901 -0.2713  0.1242 -0.0832
  312TMC3    O1 4754   0.727   0.996  12.908  0.0693  0.3755  0.1773
  312TMC3    O2 4755   0.500   0.476  12.806  0.3347  0.3216 -0.7478
  313MPD2     C 4756   0.838   0.564  11.752 -0.6658 -0.0530 -0.4764
  313MPD2    C1 4757   0.824   0.567  11.619  0.1548 -0.7170 -0.7234
  313MPD2    C2 4758   0.833   0.459  11.545  0.8238 -0.0445 -0.1752
  313MPD2    C3 4759   0.862   0.339  11.601  0.7804 -0.1387 -0.1274
  313MPD2    C4 4760   0.900   0.334  11.734  0.5569 -0.2915 -0.0372
  313MPD2    C5 4761   0.877   0.450  11.808 -0.3086  0.5161  0.3945
  313MPD2     H 4762   0.820   0.467  11.438 -0.3549 -0.5910 -0.0799
  313MPD2    H1 4763   0.904   0.242  11.790 -1.8929  0.5432  1.5007
  313MPD2    H2 4764   0.821   0.650  11.815  0.8764  1.2626 -1.8397
  313MPD2    H3 4765   0.883   0.432  11.915  1.6810  1.5595  0.4656
  313MPD2     N 4766   0.857   0.230  11.521  0.2474  0.4991 -0.3623
  313MPD2    H5 4767   0.854   0.255  11.423  1.0277  0.8040 -0.3115
  313MPD2    N1 4768   0.813   0.687  11.548 -0.4022 -0.0310  0.4317
  313MPD2    H7 4769   0.792   0.669  11.451  3.0566 -1.5557 -0.0407
  314TMC3    C1 4770   0.839   0.891  11.481  0.1052 -0.1279 -0.1949
  314TMC3    C2 4771   0.963   0.931  11.440  0.1439 -0.6561  0.3487
  314TMC3    C3 4772   0.986   0.939  11.306  0.1466  0.3971  0.1950
  314TMC3    C4 4773   0.744   0.862  11.390  0.3466 -0.4393 -0.2176
  314TMC3    C5 4774   0.768   0.880  11.255 -0.0310 -0.1213  0.7008
  314TMC3    C6 4775   0.892   0.909  11.212  0.1600  0.5067 -0.1313
  314TMC3     C 4776   0.846   0.812  11.600  0.4518  0.3011 -0.0952
  314TMC3     O 4777   0.909   0.848  11.699  0.3540 -0.7578 -0.8008
  314TMC3     H 4778   1.044   0.948  11.510 -0.7543  0.5388  1.1100
  314TMC3    H1 4779   0.651   0.828  11.433 -0.4367  3.4579  1.2194
  314TMC3    H2 4780   0.923   0.926  11.109 -0.5385  0.5238 -0.3398
  314TMC3    C7 4781   0.668   0.833  11.163  0.0362  0.0057 -0.7577
  314TMC3    C8 4782   1.119   0.922  11.262 -0.3316 -0.0375  0.0004
  314TMC3    O1 4783   0.554   0.884  11.171 -0.6905  0.2040  0.6149
  314TMC3    O2 4784   1.144   0.849  11.166 -0.6955  0.1064 -0.2847
  315MPD2     C 4785   0.382   3.927  17.652 -0.5578 -0.3875 -0.1225
  315MPD2    C1 4786   0.498   3.941  17.729 -0.3801 -0.0380 -0.5299
  315MPD2    C2 4787   0.579   4.050  17.692 -0.2314 -0.8696  0.1733
  315MPD2    C3 4788   0.545   4.134  17.588 -0.2585  0.6268 -0.0781
  315MPD2    C4 4789   0.430   4.109  17.513 -0.1900  0.4830 -0.2358
  315MPD2    C5 4790   0.342   4.005  17.553 -0.3318 -0.1126  0.2422
  315MPD2     H 4791   0.669   4.069  17.750 -0.3297  0.0623  0.0215
  315MPD2    H1 4792   0.401   4.166  17.426  0.3628 -0.0476 -0.7750
  315MPD2    H2 4793   0.312   3.848  17.676  0.7606 -1.7987 -0.9655
  315MPD2    H3 4794   0.242   3.996  17.514  0.8413 -1.1257 -2.5125
  315MPD2     N 4795   0.633   4.245  17.557  0.7496 -0.4927  0.5143
  315MPD2    H5 4796   0.714   4.255  17.617  0.6517  2.0313  0.2358
  315MPD2    N1 4797   0.536   3.865   0.085  0.0496  0.4741  0.1338
  315MPD2    H7 4798   0.617   3.905   0.132  2.0526 -0.0569 -2.8794
  316TMC3    C1 4799   0.730   4.432  17.450 -1.0846 -0.0898  0.2781
  316TMC3    C2 4800   0.797   4.474  17.560  0.0188 -0.1498  0.5762
  316TMC3    C3 4801   0.903   4.555  17.547  0.2616  0.1662  0.3573
  316TMC3    C4 4802   0.760   4.479  17.325  0.7735  0.2176 -0.4369
  316TMC3    C5 4803   0.861   4.573  17.317  0.0448 -0.0725  0.3963
  316TMC3    C6 4804   0.941   4.600  17.424 -0.5082 -0.1254 -0.5499
  316TMC3     C 4805   0.628   4.333  17.451  0.1485  0.2645 -0.0393
  316TMC3     O 4806   0.543   4.335  17.361 -0.5667 -0.1355 -0.1905
  316TMC3     H 4807   0.749   4.468  17.657 -2.1372 -2.0419 -0.5955
  316TMC3    H1 4808   0.715   4.450  17.230 -2.6191  0.4247  1.1070
  316TMC3    H2 4809   1.038   4.646  17.405 -0.3597  0.0334  0.6149
  316TMC3    C7 4810   0.873   4.660  17.201  0.8931  0.4723  0.5209
  316TMC3    C8 4811   0.982   4.591  17.656 -0.3081  0.2866  0.3579
  316TMC3    O1 4812   0.983   4.715  17.183  0.3462  0.2129 -0.3156
  316TMC3    O2 4813   1.059   4.686  17.644  0.3571 -0.1825  0.0300
  317MPD2     C 4814   2.559   2.702  12.985  1.1851 -0.6063  0.5230
  317MPD2    C1 4815   2.509   2.570  12.985 -1.1784 -0.7865 -0.3290
  317MPD2    C2 4816   2.571   2.480  13.070  0.3388 -0.6670 -0.2041
  317MPD2    C3 4817   2.667   2.520  13.161 -0.6468  0.6692 -0.1122
  317MPD2    C4 4818   2.702   2.654  13.164 -0.0694  0.1575 -0.8858
  317MPD2    C5 4819   2.647   2.742  13.081 -0.4365 -0.4566  0.5642
  317MPD2     H 4820   2.540   2.376  13.069 -0.8994 -0.3469  4.0939
  317MPD2    H1 4821   2.772   2.694  13.236  0.7701 -0.3914 -1.3978
  317MPD2    H2 4822   2.518   2.782  12.926 -0.8591 -0.6454  1.8817
  317MPD2    H3 4823   2.675   2.847  13.088  0.0870 -0.5788  0.3140
  317MPD2     N 4824   2.719   2.427  13.258 -0.5449  0.3849 -0.4780
  317MPD2    H5 4825   2.686   2.331  13.266 -0.3279  0.3228 -0.3257
  317MPD2    N1 4826   2.400   2.529  12.901 -0.0471  0.4915 -0.3123
  317MPD2    H7 4827   2.351   2.443  12.925  2.6759 -1.0166 -0.1160
  318TMC3    C1 4828   2.853   2.335  13.428 -0.1954 -0.1395 -0.6806
  318TMC3    C2 4829   2.793   2.214  13.400  0.5228  1.0467  0.2237
  318TMC3    C3 4830   2.858   2.098  13.434 -0.1041 -0.4324 -0.3743
  318TMC3    C4 4831   2.963   2.347  13.504  0.0152 -0.0857 -0.2019
  318TMC3    C5 4832   3.019   2.227  13.547  0.2451 -0.2228  0.4115
  318TMC3    C6 4833   2.972   2.101  13.519 -0.0856 -0.1520 -0.0734
  318TMC3     C 4834   2.827   2.444  13.344 -0.4917 -0.8868  0.2358
  318TMC3     O 4835   2.903   2.538  13.365  0.1745 -0.1937  0.2607
  318TMC3     H 4836   2.688   2.212  13.373  1.2383  3.1883 -2.7234
  318TMC3    H1 4837   3.017   2.440  13.521  0.9113 -0.6452 -0.0155
  318TMC3    H2 4838   3.025   2.011  13.550  0.3497 -0.1721 -0.8872
  318TMC3    C7 4839   3.150   2.252  13.615  0.4438  0.4532 -0.0004
  318TMC3    C8 4840   2.817   1.969  13.385 -0.3451 -0.4087 -0.2173
  318TMC3    O1 4841   3.159   2.353  13.673 -0.0716  0.8250 -0.9935
  318TMC3    O2 4842   2.867   1.876  13.440  0.6162  0.2678  0.4598
  319MPD2     C 4843   3.860   3.476  16.201  0.5295  0.0090 -0.2947
  319MPD2    C1 4844   3.843   3.518  16.332 -0.4994  0.0536 -0.2480
  319MPD2    C2 4845   3.719   3.511  16.380  0.4500  0.4985  0.1424
  319MPD2    C3 4846   3.611   3.464  16.305 -0.1464  0.8040  0.4997
  319MPD2    C4 4847   3.629   3.420  16.177  0.0024 -0.2561 -0.0836
  319MPD2    C5 4848   3.757   3.424  16.129  0.0302 -0.6593 -0.5581
  319MPD2     H 4849   3.711   3.540  16.484 -2.2037 -0.1284  0.1018
  319MPD2    H1 4850   3.552   3.375  16.115 -1.5709  0.6043  1.2238
  319MPD2    H2 4851   3.958   3.492  16.156  1.0230 -2.9446 -0.2428
  319MPD2    H3 4852   3.764   3.404  16.023 -1.8827 -2.3424 -0.3529
  319MPD2     N 4853   3.475   3.465  16.347 -0.2078 -0.2469 -0.6642
  319MPD2    H5 4854   3.411   3.441  16.272 -1.4767  1.1409 -0.0319
  319MPD2    N1 4855   3.937   3.584  16.412 -0.3677 -0.5506 -0.0593
  319MPD2    H7 4856   3.905   3.615  16.503  2.2041 -1.7800  1.2448
  320TMC3    C1 4857   3.274   3.491  16.467  0.1029  0.0559 -0.3803
  320TMC3    C2 4858   3.214   3.529  16.348 -0.3600 -0.5630 -0.1946
  320TMC3    C3 4859   3.080   3.503  16.339 -0.0287 -0.4701 -0.3826
  320TMC3    C4 4860   3.209   3.439  16.577 -0.1166  0.7795  0.3764
  320TMC3    C5 4861   3.075   3.413  16.560  0.3408  0.2170  0.3184
  320TMC3    C6 4862   3.016   3.449  16.442 -0.0846 -0.2210  0.1944
  320TMC3     C 4863   3.420   3.478  16.471  0.1486 -0.2995  0.0144
  320TMC3     O 4864   3.471   3.487  16.582 -0.1504 -0.4880 -0.3707
  320TMC3     H 4865   3.266   3.577  16.267  3.0731 -0.1975  2.2381
  320TMC3    H1 4866   3.254   3.405  16.670  0.6159  0.6903 -0.0085
  320TMC3    H2 4867   2.909   3.458  16.430 -0.0370 -1.1723 -0.9512
  320TMC3    C7 4868   3.028   3.307  16.639  0.0256 -0.4729  0.0660
  320TMC3    C8 4869   3.016   3.606  16.265 -0.0952 -0.4870 -0.5459
  320TMC3    O1 4870   3.103   3.229  16.701  0.8087  0.6646 -0.1111
  320TMC3    O2 4871   3.070   3.714  16.259 -1.0252 -0.0441 -0.3955
  321TMC3    C1 4872   4.129   3.675  16.507  0.0592  0.0178 -0.7267
  321TMC3    C2 4873   4.051   3.721  16.606 -0.6494 -0.6637  0.1213
  321TMC3    C3 4874   4.111   3.770  16.719 -0.1871 -0.5379  0.1911
  321TMC3    C4 4875   4.266   3.670  16.524 -0.0114  0.1092 -0.7456
  321TMC3    C5 4876   4.326   3.722  16.630 -0.3854 -0.1280 -0.3254
  321TMC3    C6 4877   4.246   3.777  16.728  0.4149  0.1849 -0.5586
  321TMC3     C 4878   4.067   3.612  16.390 -0.3404 -0.5696 -0.1458
  321TMC3     O 4879   4.126   3.587  16.284 -0.3777 -0.0810 -0.3488
  321TMC3     H 4880   3.943   3.729  16.600 -0.3453  2.7936 -1.0373
  321TMC3    H1 4881   4.333   3.614  16.461  2.9357  2.5451  0.2338
  321TMC3    H2 4882   4.299   3.823  16.811  0.0569  0.3778 -0.4372
  321TMC3    C7 4883   4.426   3.636  16.692 -0.5123  0.2722  0.6386
  321TMC3    C8 4884   4.045   3.743  16.843 -1.0035 -0.4630  0.1440
  321TMC3    O1 4885   4.523   3.612  16.620  0.0261 -0.2267  0.1685
  321TMC3    O2 4886   4.129   3.729  16.930  0.0799  0.0270  0.2918
  322MPD2     C 4887   2.269   0.034  13.866  0.1693 -0.6979  0.2711
  322MPD2    C1 4888   2.314   4.663  13.930  0.6901 -0.1412 -1.1812
  322MPD2    C2 4889   2.322   4.547  13.855 -0.2434  0.3143  0.4642
  322MPD2    C3 4890   2.304   4.550  13.716  0.3467  0.5274  0.0297
  322MPD2    C4 4891   2.265   4.672  13.648  0.7087 -0.1489  0.1959
  322MPD2    C5 4892   2.239   0.038  13.732 -0.3281  0.2243 -0.2454
  322MPD2     H 4893   2.370   4.460  13.899 -2.4558 -0.9156  0.4713
  322MPD2    H1 4894   2.254   4.690  13.542 -0.8073  2.9349  0.8902
  322MPD2    H2 4895   2.256   0.134  13.907 -0.4125 -0.8077  0.3625
  322MPD2    H3 4896   2.200   0.134  13.701  0.1454  0.5296  0.0928
  322MPD2     N 4897   2.329   4.426  13.653  0.0163  0.0998 -1.0625
  322MPD2    H5 4898   2.355   4.349  13.713 -0.6381  0.3502 -0.4525
  322MPD2    N1 4899   2.346   4.677  14.064 -0.1282  0.0452 -0.1014
  322MPD2    H7 4900   2.351   0.033  14.100 -1.8228 -1.1004  3.1198
  323TMC3    C1 4901   2.402   4.623  14.277 -0.1067  0.2011  1.1338
  323TMC3    C2 4902   2.511   4.705  14.267  0.5209 -0.0538 -0.3699
  323TMC3    C3 4903   2.601   4.708  14.371 -0.7489 -0.4160 -0.0834
  323TMC3    C4 4904   2.378   4.547  14.384 -0.2121  0.5848 -0.0734
  323TMC3    C5 4905   2.466   4.560  14.494 -0.1510 -0.2204  0.0804
  323TMC3    C6 4906   2.583   4.634  14.490 -0.2032  0.5304 -0.3661
  323TMC3     C 4907   2.353   4.577  14.153 -0.3538  0.3243  0.0187
  323TMC3     O 4908   2.316   4.464  14.147  0.1843  0.5805 -0.1334
  323TMC3     H 4909   2.535   0.020  14.176 -3.2909 -0.3733 -1.5895
  323TMC3    H1 4910   2.299   4.475  14.400 -0.3469  0.7225 -0.1085
  323TMC3    H2 4911   2.665   4.624  14.561 -0.1898 -0.0683 -0.4693
  323TMC3    C7 4912   2.469   4.454  14.590  0.4631 -0.0554 -0.5062
  323TMC3    C8 4913   2.737   0.014  14.344  1.0534  0.3305 -0.1780
  323TMC3    O1 4914   2.452   4.339  14.556 -0.4926  0.2099 -0.1161
  323TMC3    O2 4915   2.771   0.010  14.225  0.0770  0.2071  0.0399
  324MPD2     C 4916   4.241   0.862  14.639  0.1832  0.1692 -0.1431
  324MPD2    C1 4917   4.230   0.988  14.594  0.1195  0.0724  0.3859
  324MPD2    C2 4918   4.152   1.010  14.484  0.0678  0.3549 -0.3726
  324MPD2    C3 4919   4.079   0.913  14.410  0.2619 -0.6555  0.0052
  324MPD2    C4 4920   4.088   0.784  14.466  0.6097  0.1352  0.7175
  324MPD2    C5 4921   4.173   0.759  14.570  0.4793  0.3238 -0.7913
  324MPD2     H 4922   4.127   1.112  14.456 -2.7819  0.2020  1.6173
  324MPD2    H1 4923   4.034   0.703  14.419  2.1528 -1.7025  2.1062
  324MPD2    H2 4924   4.311   0.835  14.716 -1.1388 -1.3803  0.5156
  324MPD2    H3 4925   4.186   0.659  14.610 -1.5849  1.0862  1.7749
  324MPD2     N 4926   4.011   0.936  14.290 -0.4125 -0.2512 -0.5068
  324MPD2    H5 4927   3.968   0.858  14.243 -1.1581  1.3171 -2.4256
  324MPD2    N1 4928   4.307   1.088  14.642 -0.4906 -0.0425  0.8309
  324MPD2    H7 4929   4.309   1.175  14.590 -2.0827 -0.3138  0.3350
  325TMC3    C1 4930   3.906   1.048  14.100 -0.8934 -0.8797  0.4253
  325TMC3    C2 4931   3.795   0.964  14.101 -0.3486 -0.2438  0.6893
  325TMC3    C3 4932   3.676   1.012  14.057 -0.3889 -0.4985 -0.1060
  325TMC3    C4 4933   3.889   1.179  14.055  0.3142 -0.4590  0.4488
  325TMC3    C5 4934   3.764   1.229  14.019 -0.2426  0.4641  1.7867
  325TMC3    C6 4935   3.657   1.143  14.021  0.4030  0.3230  0.6743
  325TMC3     C 4936   3.997   1.052  14.222  0.0354  0.2931  0.0585
  325TMC3     O 4937   4.050   1.162  14.245  0.2035  0.4491 -0.1534
  325TMC3     H 4938   3.812   0.861  14.128  0.7137 -0.3294 -0.3005
  325TMC3    H1 4939   3.972   1.248  14.045  0.2565 -0.7806 -2.2238
  325TMC3    H2 4940   3.561   1.177  13.983  0.2269 -0.3644  0.5146
  325TMC3    C7 4941   3.751   1.375  14.017  0.2087  0.7522 -0.1253
  325TMC3    C8 4942   3.568   0.918  14.027 -0.0253 -0.2710 -0.2420
  325TMC3    O1 4943   3.853   1.436  14.052 -0.3347 -0.1816 -0.3126
  325TMC3    O2 4944   3.596   0.799  14.044  0.0024  0.3732 -0.0073
  326MPD2     C 4945   0.402   2.322  11.365 -0.4129  0.4278 -0.9910
  326MPD2    C1 4946   0.492   2.343  11.258  0.5706 -0.1446  0.1494
  326MPD2    C2 4947   0.623   2.376  11.289  0.2793 -1.2879  0.0771
  326MPD2    C3 4948   0.668   2.391  11.416  0.3800  0.0075 -0.1819
  326MPD2    C4 4949   0.580   2.361  11.514 -0.3776 -0.2828  0.2550
  326MPD2    C5 4950   0.451   2.330  11.490  0.2832 -0.0815 -0.0256
  326MPD2     H 4951   0.691   2.411  11.212 -0.0497  1.1527  0.9196
  326MPD2    H1 4952   0.616   2.366  11.617  1.5840 -1.7415 -0.3501
  326MPD2    H2 4953   0.296   2.303  11.348 -0.5551 -0.4380  0.9065
  326MPD2    H3 4954   0.388   2.305  11.574 -1.2434  3.8955  0.0468
  326MPD2     N 4955   0.795   2.433  11.449 -0.9596  0.3020 -0.2547
  326MPD2    H5 4956   0.813   2.468  11.542  1.9063  0.7129 -0.9487
  326MPD2    N1 4957   0.471   2.345  11.124 -0.2137  0.1433 -0.2680
  326MPD2    H7 4958   0.545   2.391  11.072  0.2974 -0.1452  0.2001
  327TMC3    C1 4959   0.386   2.305  10.918  0.9148  0.3005 -0.3355
  327TMC3    C2 4960   0.275   2.325  10.839 -0.5088  0.1375  0.0961
  327TMC3    C3 4961   0.289   2.398  10.722 -1.1214 -0.2255  0.7554
  327TMC3    C4 4962   0.514   2.325  10.865  0.1253  0.1847  0.8479
  327TMC3    C5 4963   0.524   2.380  10.737  0.9170 -0.3394 -0.0469
  327TMC3    C6 4964   0.414   2.430  10.664 -0.4620 -0.3064  0.0316
  327TMC3     C 4965   0.360   2.305  11.057  0.6371  0.4173 -0.5404
  327TMC3     O 4966   0.261   2.248  11.103 -0.4692 -0.2125 -0.1302
  327TMC3     H 4967   0.178   2.302  10.882 -0.5138  0.4440  0.2428
  327TMC3    H1 4968   0.604   2.305  10.923  2.3085  0.2702 -2.5044
  327TMC3    H2 4969   0.420   2.489  10.573  3.9686  0.0985  0.5994
  327TMC3    C7 4970   0.666   2.401  10.680 -0.4221  0.2691 -0.1557
  327TMC3    C8 4971   0.190   2.490  10.685  0.0300  0.3816  0.3992
  327TMC3    O1 4972   0.679   2.498  10.604  0.1153  0.1481 -0.2510
  327TMC3    O2 4973   0.224   2.602  10.645 -0.2128 -0.1475  0.3765
  328MPD2     C 4974   2.677   2.392  17.174  0.7160 -0.1064  0.1085
  328MPD2    C1 4975   2.592   2.285  17.158  0.0765 -0.4090  0.1215
  328MPD2    C2 4976   2.482   2.296  17.076 -0.4545 -0.3409  0.1137
  328MPD2    C3 4977   2.448   2.408  17.007  0.0031 -0.3680  0.2792
  328MPD2    C4 4978   2.532   2.516  17.023 -0.0448  0.1778 -0.2075
  328MPD2    C5 4979   2.643   2.505  17.109  0.4781  0.1030  0.1248
  328MPD2     H 4980   2.424   2.206  17.063 -1.7479  0.7436 -1.6927
  328MPD2    H1 4981   2.518   2.603  16.959  1.9764  0.6685  0.0455
  328MPD2    H2 4982   2.766   2.390  17.235  0.5287  3.4245  0.4647
  328MPD2    H3 4983   2.705   2.593  17.127 -0.9827  1.0276  0.6238
  328MPD2     N 4984   2.339   2.418  16.916 -0.6308  0.8669 -0.7464
  328MPD2    H5 4985   2.323   2.508  16.873 -0.8863  1.4684  0.6221
  328MPD2    N1 4986   2.629   2.171  17.237  0.5120 -0.1815 -0.1465
  328MPD2    H7 4987   2.712   2.184  17.294  0.6235 -0.4877 -0.2380
  329TMC3    C1 4988   2.606   1.955  17.351  0.0816 -0.1878 -0.4852
  329TMC3    C2 4989   2.705   2.001  17.436 -0.4224  0.5679 -0.2803
  329TMC3    C3 4990   2.777   1.911  17.515 -0.3483  0.0807  0.1021
  329TMC3    C4 4991   2.568   1.825  17.353  0.1910  0.3133  0.0672
  329TMC3    C5 4992   2.635   1.741  17.440 -0.4766  0.1731 -0.2975
  329TMC3    C6 4993   2.734   1.783  17.522  0.6759  0.2238 -0.2208
  329TMC3     C 4994   2.560   2.046  17.243  0.4291 -0.3580  0.3411
  329TMC3     O 4995   2.459   2.006  17.183  0.3952  0.6697 -0.2811
  329TMC3     H 4996   2.758   2.093  17.416  0.5053 -0.1255 -1.0374
  329TMC3    H1 4997   2.490   1.790  17.287  0.5424  0.7307 -0.5724
  329TMC3    H2 4998   2.776   1.711  17.590  2.3494  2.5697  1.2015
  329TMC3    C7 4999   2.556   1.626  17.485 -0.8493 -0.0543  0.2827
  329TMC3    C8 5000   2.858   1.959  17.622  0.0199  0.9523  0.6413
  329TMC3    O1 5001   2.619   1.549  17.555 -0.3459  0.3093  0.1367
  329TMC3    O2 5002   2.949   1.889  17.655 -0.2836  0.2006 -0.1161
  330TMC3    C1 5003   1.169   1.972   9.785  0.2319  0.1653  0.2668
  330TMC3    C2 5004   1.106   1.904   9.683  0.2159  0.0259  0.2703
  330TMC3    C3 5005   1.142   1.770   9.663 -0.6377  0.6900 -0.0849
  330TMC3    C4 5006   1.256   1.911   9.867 -0.7809  0.0893  0.8640
  330TMC3    C5 5007   1.283   1.780   9.851 -0.1683  0.0735  0.3922
  330TMC3    C6 5008   1.228   1.704   9.749  0.2642  0.4609  0.0141
  330TMC3     C 5009   1.132   2.114   9.825 -0.3023  0.0944 -0.1620
  330TMC3     O 5010   1.174   2.156   9.935 -0.0876  0.3528  0.1453
  330TMC3     H 5011   1.040   1.953   9.612 -1.2044 -1.0746  0.8377
  330TMC3    H1 5012   1.307   1.974   9.940  2.7205 -1.5854 -0.1307
  330TMC3    H2 5013   1.261   1.603   9.727 -0.1699  0.8919 -2.6891
  330TMC3    C7 5014   1.383   1.717   9.938 -0.0167  0.1535 -0.4562
  330TMC3    C8 5015   1.059   1.692   9.581 -0.3821 -0.0724  0.2467
  330TMC3    O1 5016   1.460   1.784  10.007 -0.0922 -0.4960 -0.3568
  330TMC3    O2 5017   1.025   1.745   9.477 -0.7095  0.3582  0.1819
  331MPD2     C 5018   3.695   1.153  12.755  0.1662 -0.9185 -0.0386
  331MPD2    C1 5019   3.597   1.128  12.663  1.1610 -0.0911 -0.5814
  331MPD2    C2 5020   3.537   1.000  12.667 -0.0171 -0.1284 -0.0672
  331MPD2    C3 5021   3.558   0.910  12.777 -0.1457  0.2337  0.0908
  331MPD2    C4 5022   3.636   0.953  12.874 -0.1461  1.5331  0.7078
  331MPD2    C5 5023   3.711   1.068  12.862  0.5148  0.1607  0.5200
  331MPD2     H 5024   3.483   0.966  12.580 -2.1757 -0.9972  1.6101
  331MPD2    H1 5025   3.643   0.889  12.962  2.7691 -1.2194 -1.5524
  331MPD2    H2 5026   3.762   1.239  12.752 -1.1183  0.0209 -2.0333
  331MPD2    H3 5027   3.774   1.083  12.949  1.5612  1.3657 -0.4495
  331MPD2     N 5028   3.501   0.782  12.775 -0.0593 -0.2990 -0.4836
  331MPD2    H5 5029   3.454   0.757  12.688  0.2018  1.9689 -1.2694
  331MPD2    N1 5030   3.576   1.216  12.559 -0.1360  0.1681 -0.3816
  331MPD2    H7 5031   3.636   1.298  12.568 -1.0976  0.5592  2.4363
  332TMC3    C1 5032   3.478   0.551  12.780 -0.3442 -0.6903  0.4776
  332TMC3    C2 5033   3.531   0.534  12.656  0.3531 -0.2216 -0.5446
  332TMC3    C3 5034   3.576   0.410  12.611  0.2549  0.2030  0.0059
  332TMC3    C4 5035   3.482   0.434  12.857 -0.3470  0.1156 -1.1634
  332TMC3    C5 5036   3.537   0.314  12.816  0.0747 -0.9676 -0.2951
  332TMC3    C6 5037   3.580   0.297  12.688  0.0525  0.5339  0.0771
  332TMC3     C 5038   3.515   0.672  12.854 -0.4647  0.7513  0.5721
  332TMC3     O 5039   3.570   0.654  12.962  0.0364  0.3306 -0.3191
  332TMC3     H 5040   3.557   0.618  12.593  2.3695  0.4728  1.2176
  332TMC3    H1 5041   3.466   0.441  12.964  1.1010  0.4008 -0.9691
  332TMC3    H2 5042   3.625   0.202  12.658 -1.3775  0.0630 -0.5762
  332TMC3    C7 5043   3.592   0.235  12.930  0.5115 -0.0247  0.2728
  332TMC3    C8 5044   3.625   0.414  12.469 -0.3741 -0.2802 -0.3496
  332TMC3    O1 5045   3.548   0.259  13.043  0.2522  0.7533 -0.2543
  332TMC3    O2 5046   3.641   0.522  12.416  0.1941 -0.4457 -0.4789
  333MPD2     C 5047   4.375   0.645  11.374  0.1878 -0.1887  0.3221
  333MPD2    C1 5048   4.317   0.602  11.255  0.0414 -1.0229 -0.6559
  333MPD2    C2 5049   4.214   0.512  11.253  0.1872  0.0380 -0.4529
  333MPD2    C3 5050   4.170   0.459  11.373 -0.3198  0.1236 -0.1744
  333MPD2    C4 5051   4.225   0.497  11.492  0.1290 -0.3377  0.6858
  333MPD2    C5 5052   4.330   0.588  11.491 -0.7661 -0.0342 -0.3944
  333MPD2     H 5053   4.159   0.480  11.165  1.2355 -0.3569 -0.9703
  333MPD2    H1 5054   4.191   0.465  11.590 -0.8669  2.5989  1.2841
  333MPD2    H2 5055   4.449   0.724  11.377  0.0873 -0.2397  3.8289
  333MPD2    H3 5056   4.365   0.627  11.586 -1.5214  0.5934 -0.3748
  333MPD2     N 5057   4.070   0.359  11.354 -0.2668 -0.3217  0.2787
  333MPD2    H5 5058   4.022   0.364  11.264 -0.7139 -0.8066  0.4911
  333MPD2    N1 5059   4.369   0.670  11.139 -0.9442  0.3013  0.5981
  333MPD2    H7 5060   4.454   0.723  11.154  0.8476 -2.3321 -0.2119
  334TMC3    C1 5061   4.364   0.767  10.927  0.2478 -0.1063 -0.6642
  334TMC3    C2 5062   4.497   0.809  10.933  0.0545 -0.6581 -0.1928
  334TMC3    C3 5063   4.544   0.898  10.845 -0.1802 -0.5958  0.5384
  334TMC3    C4 5064   4.291   0.806  10.815 -0.5004  0.0193 -0.1478
  334TMC3    C5 5065   4.350   0.896  10.733 -0.2243  0.2108  0.0515
  334TMC3    C6 5066   4.473   0.953  10.742  0.6832 -0.2227 -0.1674
  334TMC3     C 5067   4.303   0.671  11.016 -0.3352 -0.1110 -0.0224
  334TMC3     O 5068   4.200   0.614  10.976  0.0120  0.2805  0.7234
  334TMC3     H 5069   4.556   0.780  11.019 -1.7090 -1.0232  0.9006
  334TMC3    H1 5070   4.187   0.778  10.803 -1.2805  2.4091  1.1452
  334TMC3    H2 5071   4.516   1.028  10.676  1.2374  0.8817  1.4346
  334TMC3    C7 5072   4.255   0.966  10.641 -0.3400 -0.4198 -0.4235
  334TMC3    C8 5073   4.690   0.879  10.819 -0.5531 -0.3009  0.0851
  334TMC3    O1 5074   4.189   0.892  10.571 -0.3987 -0.7729  0.4549
  334TMC3    O2 5075   0.025   0.872  10.915  0.7059 -0.5228  0.1210
  335TMC3    C1 5076   3.387   2.154  17.664  0.2585  0.0433 -0.1105
  335TMC3    C2 5077   3.288   2.087  17.602  0.5956 -0.6896  0.4750
  335TMC3    C3 5078   3.321   1.974  17.528  0.1434 -0.2273  0.2443
  335TMC3    C4 5079   3.518   2.113  17.645 -0.0468 -0.8247  0.1269
  335TMC3    C5 5080   3.538   2.001  17.568  0.3030  0.2615  0.3258
  335TMC3    C6 5081   3.443   1.923  17.506  0.4037  0.2833  0.2755
  335TMC3     C 5082   3.369   2.276  17.740  0.0539 -0.1725  0.3632
  335TMC3     O 5083   3.462   2.310   0.061  0.5042  0.0856  0.4630
  335TMC3     H 5084   3.185   2.114  17.624  1.0827  2.6377 -1.4011
  335TMC3    H1 5085   3.598   2.177  17.679  0.5079 -0.8729 -1.1039
  335TMC3    H2 5086   3.464   1.834  17.447 -0.7612  0.5690 -0.5732
  335TMC3    C7 5087   3.671   1.953  17.552  0.6670 -1.1864 -0.8503
  335TMC3    C8 5088   3.211   1.901  17.468 -0.3457 -0.1099  0.7922
  335TMC3    O1 5089   3.697   1.880  17.454 -0.0036 -0.2549 -0.3988
  335TMC3    O2 5090   3.226   1.780  17.445  0.1121  0.5985 -0.1492
  336MPD2     C 5091   2.725   0.077  16.274 -0.4263 -0.1106  0.1418
  336MPD2    C1 5092   2.835   0.051  16.194  0.2826  0.2503 -0.0960
  336MPD2    C2 5093   2.948   4.737  16.251 -0.1935 -0.0646 -0.5394
  336MPD2    C3 5094   2.945   4.709  16.388  0.1281 -0.0429 -0.8809
  336MPD2    C4 5095   2.837   4.738  16.466 -0.0904  0.7156 -0.1050
  336MPD2    C5 5096   2.730   0.050  16.410  0.0055  0.5747 -0.3808
  336MPD2     H 5097   3.026   4.702  16.185 -0.3721  0.0743 -0.8207
  336MPD2    H1 5098   2.837   4.729  16.574  0.1059  3.1216  0.0807
  336MPD2    H2 5099   2.633   0.119  16.234 -0.4755 -1.0612 -0.7505
  336MPD2    H3 5100   2.647   0.079  16.473 -1.2858 -0.6086 -1.5378
  336MPD2     N 5101   3.056   4.636  16.446 -0.3373 -0.1643  0.1118
  336MPD2    H5 5102   3.041   4.609  16.542  0.5929 -0.9865  0.0326
  336MPD2    N1 5103   2.833   0.068  16.054 -0.2272  0.4582 -0.3624
  336MPD2    H7 5104   2.914   0.068  15.992 -0.5765 -1.5543 -0.8373
  337TMC3    C1 5105   2.726   0.135  15.859  0.5263 -0.1782  0.3359
  337TMC3    C2 5106   2.651   0.087  15.757  0.3537  0.2579 -0.4460
  337TMC3    C3 5107   2.598   0.169  15.662  0.5699 -0.0492  0.0339
  337TMC3    C4 5108   2.744   0.269  15.875 -0.4534 -0.5827  0.3608
  337TMC3    C5 5109   2.690   0.348  15.775 -0.0999  0.4263 -0.0660
  337TMC3    C6 5110   2.621   0.303  15.666  0.9164  0.0092  0.5626
  337TMC3     C 5111   2.715   0.068  15.981  0.6056  0.6973 -0.0403
  337TMC3     O 5112   2.601   0.043  16.012 -0.1822 -0.4294  0.7432
  337TMC3     H 5113   2.631   4.720  15.756  0.1706  0.2847  0.3753
  337TMC3    H1 5114   2.779   0.296  15.974  0.4202 -1.3178  0.2589
  337TMC3    H2 5115   2.568   0.370  15.600 -1.3422 -1.0596  1.2894
  337TMC3    C7 5116   2.690   0.487  15.803  0.4421  0.0061 -0.6174
  337TMC3    C8 5117   2.521   0.109  15.553  0.1419 -0.4478  0.7920
  337TMC3    O1 5118   2.601   0.560  15.759  0.2312 -0.0255  0.1596
  337TMC3    O2 5119   2.473   4.735  15.565 -0.3791  0.5020 -0.3216
  338MPD2     C 5120   4.045   4.533   0.864 -0.3355  0.5166 -0.5965
  338MPD2    C1 5121   3.965   4.435   0.921 -0.1771 -0.0463 -0.2821
  338MPD2    C2 5122   3.991   4.408   1.058  0.6823 -0.1113 -0.2775
  338MPD2    C3 5123   4.090   4.475   1.130  0.1112 -0.4768 -0.1916
  338MPD2    C4 5124   4.180   4.554   1.063 -0.7120 -0.1893 -0.2467
  338MPD2    C5 5125   4.159   4.577   0.934  0.2225 -0.0825  0.0318
  338MPD2     H 5126   3.935   4.334   1.114  0.4814 -1.2544 -1.9911
  338MPD2    H1 5127   4.267   4.593   1.115  1.1918 -0.5196 -3.1831
  338MPD2    H2 5128   4.034   4.568   0.762 -2.2894 -0.1552 -0.6236
  338MPD2    H3 5129   4.223   4.649   0.883  0.9457 -0.1378  0.8695
  338MPD2     N 5130   4.091   4.443   1.263  0.1078  0.0664  0.3481
  338MPD2    H5 5131   4.025   4.369   1.286  2.0798 -1.3413  1.4955
  338MPD2    N1 5132   3.856   4.367   0.858  0.4195 -0.5663 -0.0778
  338MPD2    H7 5133   3.817   4.289   0.909  2.5819  0.5432  3.2269
  339TMC3    C1 5134   4.148   4.440   1.484 -0.5989 -0.2195  0.1030
  339TMC3    C2 5135   4.099   4.313   1.492  0.5699 -0.6529 -0.4098
  339TMC3    C3 5136   4.047   4.275   1.614  0.0686  0.2414  0.5516
  339TMC3    C4 5137   4.120   4.527   1.584 -0.4519  0.6100 -0.0113
  339TMC3    C5 5138   4.057   4.491   1.705 -0.0754 -0.2624 -0.4692
  339TMC3    C6 5139   4.016   4.356   1.716 -0.8964 -0.2915  0.0060
  339TMC3     C 5140   4.176   4.498   1.353 -0.1731  0.2449  0.4227
  339TMC3     O 5141   4.250   4.594   1.341 -0.2219  0.4292  0.6165
  339TMC3     H 5142   4.137   4.233   1.429  0.3347 -0.7591 -0.4196
  339TMC3    H1 5143   4.158   4.628   1.574  0.6572  0.2300  0.2649
  339TMC3    H2 5144   3.983   4.319   1.812  1.6597 -1.2725  0.4995
  339TMC3    C7 5145   3.962   4.592   1.739 -0.6736  0.0533 -0.5756
  339TMC3    C8 5146   4.018   4.137   1.631  0.5191 -0.2718  1.0814
  339TMC3    O1 5147   3.995   4.711   1.718  0.2568 -0.5595 -0.0163
  339TMC3    O2 5148   4.070   4.052   1.560 -0.1969  0.7480  0.8328
  340MPD2     C 5149   3.818   2.303  10.042  0.7982  0.0937 -0.0444
  340MPD2    C1 5150   3.785   2.168  10.037  0.6571  0.3558  0.4407
  340MPD2    C2 5151   3.869   2.073  10.096 -0.1547 -0.0727  0.4356
  340MPD2    C3 5152   3.987   2.110  10.148 -0.1317  0.1371 -0.8765
  340MPD2    C4 5153   4.019   2.245  10.154  0.6138 -0.9103  0.8605
  340MPD2    C5 5154   3.933   2.339  10.108 -0.0182  0.8775 -0.2401
  340MPD2     H 5155   3.835   1.970  10.102 -1.7907  0.3887 -0.8878
  340MPD2    H1 5156   4.119   2.274  10.184  0.6598  0.3839 -0.5616
  340MPD2    H2 5157   3.758   2.383  10.001 -1.7702 -0.7059  2.1686
  340MPD2    H3 5158   3.977   2.438  10.102  1.1857  0.3262 -0.3310
  340MPD2     N 5159   4.092   2.017  10.178  0.0121  0.5222 -0.2031
  340MPD2    H5 5160   4.181   2.064  10.192  0.3085  0.6323 -2.4976
  340MPD2    N1 5161   3.668   2.132   9.957 -0.1478 -0.4143 -0.4642
  340MPD2    H7 5162   3.599   2.206   9.947  2.6895  2.2584 -0.2339
  341TMC3    C1 5163   3.750   1.924   9.871 -0.3233 -0.6651  0.8190
  341TMC3    C2 5164   3.744   1.791   9.888 -0.8401  0.2134 -0.3633
  341TMC3    C3 5165   3.853   1.720   9.864  0.6318  0.0728 -0.4523
  341TMC3    C4 5166   3.860   1.983   9.811  0.0914  0.1275  0.9565
  341TMC3    C5 5167   3.965   1.904   9.782 -0.3437  0.4844 -0.5578
  341TMC3    C6 5168   3.964   1.770   9.806 -0.4214  0.6536 -0.0985
  341TMC3     C 5169   3.639   2.012   9.900 -0.4226 -0.3958  0.0214
  341TMC3     O 5170   3.532   1.969   9.869  0.1327  0.0552 -0.7779
  341TMC3     H 5171   3.647   1.758   9.923 -0.4714  0.4524  0.8947
  341TMC3    H1 5172   3.848   2.090   9.795  1.6446 -0.0805 -1.4650
  341TMC3    H2 5173   4.050   1.706   9.793 -0.3162  0.4998  1.4143
  341TMC3    C7 5174   4.106   1.960   9.764  0.2020  0.5989  0.0558
  341TMC3    C8 5175   3.873   1.593   9.929  0.0551  0.1021 -0.5204
  341TMC3    O1 5176   4.181   1.901   9.688 -0.0165  0.0810  0.2175
  341TMC3    O2 5177   3.952   1.513   9.881  0.1026  0.4606  0.7166
  342MPD2     C 5178   1.132   0.493  17.516  0.0172  0.1252  0.3237
  342MPD2    C1 5179   1.262   0.495  17.479 -0.7513  0.0707 -0.2450
  342MPD2    C2 5180   1.330   0.618  17.468 -0.0573  0.2393 -0.5704
  342MPD2    C3 5181   1.268   0.739  17.494  0.6901  0.1997 -0.0520
  342MPD2    C4 5182   1.137   0.728  17.538 -0.3720 -0.0985  0.0932
  342MPD2    C5 5183   1.076   0.613  17.560  0.7379 -0.5207  0.1118
  342MPD2     H 5184   1.430   0.630  17.427 -0.5616 -2.2254 -2.5172
  342MPD2    H1 5185   1.077   0.816  17.557  0.5907  0.4407  0.6161
  342MPD2    H2 5186   1.082   0.397  17.527 -3.4813  1.8518 -0.4953
  342MPD2    H3 5187   0.978   0.616  17.605  1.5368  0.5180  1.7669
  342MPD2     N 5188   1.322   0.862  17.461  0.3157  0.5268 -0.4134
  342MPD2    H5 5189   1.252   0.935  17.463 -0.0030  0.2891 -3.4090
  342MPD2    N1 5190   1.334   0.386  17.429  0.1824  0.0023 -0.7575
  342MPD2    H7 5191   1.427   0.400  17.393 -0.4664  1.6294 -1.7891
  343TMC3    C1 5192   1.388   0.174  17.372  0.0878  0.2514 -0.7750
  343TMC3    C2 5193   1.503   0.191  17.444  0.2594  0.3385 -0.4839
  343TMC3    C3 5194   1.591   0.081  17.443  0.5816 -0.4959  0.2616
  343TMC3    C4 5195   1.341   0.055  17.330  0.2820  0.3463 -0.3178
  343TMC3    C5 5196   1.430   4.689  17.334  0.1415  0.2524 -0.3536
  343TMC3    C6 5197   1.559   4.695  17.386 -0.0375  0.1294  0.0298
  343TMC3     C 5198   1.282   0.263  17.402 -0.3645  0.1031  0.4527
  343TMC3     O 5199   1.174   0.217  17.433  0.4798  0.0267 -0.8535
  343TMC3     H 5200   1.544   0.285  17.480  2.6079 -1.1026  0.6229
  343TMC3    H1 5201   1.237   0.041  17.305  0.4301  1.8664 -1.7834
  343TMC3    H2 5202   1.619   4.606  17.378  0.0514  0.2195 -0.2911
  343TMC3    C7 5203   1.367   4.566  17.358  0.6644 -0.4155  0.4927
  343TMC3    C8 5204   1.722   0.108  17.482 -0.5650  0.3047 -0.1886
  343TMC3    O1 5205   1.272   4.548  17.283  0.4955  0.0710  0.1148
  343TMC3    O2 5206   1.756   0.211  17.543 -0.2322  0.4940 -0.6074
  344MPD2     C 5207   2.803   4.491  10.635  0.0434 -0.8113 -0.2547
  344MPD2    C1 5208   2.745   4.500  10.512  0.7288  0.4657  0.1487
  344MPD2    C2 5209   2.788   4.606  10.436  0.0565  1.1405  0.4347
  344MPD2    C3 5210   2.874   4.704  10.478 -0.4659 -0.6432  0.1776
  344MPD2    C4 5211   2.927   4.690  10.603  0.2298  0.9562 -0.2579
  344MPD2    C5 5212   2.885   4.589  10.684 -0.0027 -0.2822 -0.4005
  344MPD2     H 5213   2.753   4.604  10.333 -0.0051 -0.9924  0.4885
  344MPD2    H1 5214   2.993   0.027  10.642  0.2032  0.0775  1.5246
  344MPD2    H2 5215   2.770   4.419  10.709  1.2585 -3.9538 -2.7721
  344MPD2    H3 5216   2.917   4.576  10.786 -0.9334 -0.0815 -0.0893
  344MPD2     N 5217   2.916   0.075  10.396 -0.7764  0.4167 -0.8275
  344MPD2    H5 5218   2.980   0.145  10.434  1.3174 -3.4408  2.6799
  344MPD2    N1 5219   2.679   4.396  10.445 -0.5161  0.6318 -0.0216
  344MPD2    H7 5220   2.639   4.413  10.353  2.3770  1.1608 -1.1780
  345TMC3    C1 5221   2.955   0.223  10.217 -0.2501  0.6621  0.3054
  345TMC3    C2 5222   3.078   0.255  10.270  0.0741  0.0249  0.5447
  345TMC3    C3 5223   3.134   0.375  10.234 -0.6836  0.4404 -0.1498
  345TMC3    C4 5224   2.886   0.300  10.127 -0.2017 -0.0708  0.7863
  345TMC3    C5 5225   2.948   0.422  10.094 -0.3879  0.0927  0.5502
  345TMC3    C6 5226   3.073   0.458  10.141 -1.0400  0.3556 -0.0549
  345TMC3     C 5227   2.885   0.106  10.273 -0.1270  0.2498  0.8124
  345TMC3     O 5228   2.810   0.042  10.200 -0.2686 -0.6048  0.5544
  345TMC3     H 5229   3.140   0.188  10.329 -1.4184 -0.6249  1.3561
  345TMC3    H1 5230   2.789   0.268  10.088 -0.6092  1.2524  0.7396
  345TMC3    H2 5231   3.116   0.556  10.128  0.9231 -0.4691  0.2591
  345TMC3    C7 5232   2.871   0.529  10.036  0.2669 -0.4746  0.0257
  345TMC3    C8 5233   3.226   0.438  10.332  0.2428  0.3835  0.1860
  345TMC3    O1 5234   2.914   0.641  10.063 -0.0415  0.3422 -0.2311
  345TMC3    O2 5235   3.313   0.372  10.382  0.2569 -0.1847 -0.5278
  346MPD2     C 5236   2.298   1.691  13.865 -0.2921 -0.3044  0.1552
  346MPD2    C1 5237   2.391   1.585  13.848  0.2901 -0.0084  0.2216
  346MPD2    C2 5238   2.504   1.592  13.924  0.0524  0.1020  0.5797
  346MPD2    C3 5239   2.538   1.690  14.010 -0.6251  0.3417  0.2358
  346MPD2    C4 5240   2.450   1.799  14.019  0.1122  0.6247  0.0070
  346MPD2    C5 5241   2.334   1.791  13.952  0.5925  0.5076  0.3773
  346MPD2     H 5242   2.567   1.504  13.916  0.5549  0.4528  0.6627
  346MPD2    H1 5243   2.467   1.881  14.089 -1.7650  0.9410  0.0949
  346MPD2    H2 5244   2.202   1.694  13.815 -0.5739 -1.1145  0.6418
  346MPD2    H3 5245   2.261   1.871  13.961 -2.5483 -2.5734  2.2889
  346MPD2     N 5246   2.661   1.684  14.077  0.0681 -0.0033 -0.2027
  346MPD2    H5 5247   2.711   1.596  14.069  0.0996 -0.0049  0.0053
  346MPD2    N1 5248   2.376   1.466  13.762 -0.1174  0.3873  0.1129
  346MPD2    H7 5249   2.464   1.422  13.736  1.1429  2.3244  1.1188
  347TMC3    C1 5250   2.826   1.720  14.254  0.9712  0.4248  0.5893
  347TMC3    C2 5251   2.934   1.665  14.189 -1.0494  0.5899  0.2016
  347TMC3    C3 5252   3.051   1.649  14.254 -0.2833 -0.6976  0.2965
  347TMC3    C4 5253   2.838   1.767  14.386  0.0025  0.2437  0.3202
  347TMC3    C5 5254   2.967   1.764  14.437  0.7061 -0.3489 -0.2897
  347TMC3    C6 5255   3.073   1.710  14.380 -0.0863  0.1881  0.3995
  347TMC3     C 5256   2.706   1.759  14.177  0.2511 -0.5109  1.0400
  347TMC3     O 5257   2.647   1.857  14.228  0.0756 -0.2717  0.4770
  347TMC3     H 5258   2.926   1.631  14.086 -0.1937 -1.3666  0.7901
  347TMC3    H1 5259   2.757   1.817  14.438  0.2294  2.1906 -1.1973
  347TMC3    H2 5260   3.173   1.725  14.419 -0.2991  0.3333  0.8838
  347TMC3    C7 5261   2.978   1.826  14.569  0.1849  0.1962 -0.0512
  347TMC3    C8 5262   3.160   1.607  14.171  0.6438 -0.1150 -0.1280
  347TMC3    O1 5263   2.886   1.903  14.591 -0.0679 -0.1957 -0.2911
  347TMC3    O2 5264   3.164   1.505  14.100 -0.5846  0.0362 -0.0985
  348MPD2     C 5265   2.008   1.113  11.831 -0.7454  0.3304 -0.8507
  348MPD2    C1 5266   1.879   1.137  11.864 -0.3951  0.6477 -0.1590
  348MPD2    C2 5267   1.795   1.205  11.781  0.8702 -0.6823  0.4589
  348MPD2    C3 5268   1.843   1.249  11.657 -0.8001  0.1850  0.2608
  348MPD2    C4 5269   1.974   1.221  11.618 -0.3387 -0.0550 -0.2662
  348MPD2    C5 5270   2.049   1.163  11.712  0.8114  0.3812  0.8226
  348MPD2     H 5271   1.692   1.219  11.812  0.1201 -0.3282 -2.1735
  348MPD2    H1 5272   2.015   1.256  11.524 -1.1009 -0.8051 -0.8723
  348MPD2    H2 5273   2.078   1.052  11.886  1.4339  2.4002 -1.3151
  348MPD2    H3 5274   2.152   1.135  11.693  0.0361 -1.3838 -0.7681
  348MPD2     N 5275   1.754   1.313  11.575  0.1931 -0.0312 -0.4760
  348MPD2    H5 5276   1.671   1.353  11.617  0.6148  0.8082 -0.4456
  348MPD2    N1 5277   1.820   1.092  11.983  0.0566  0.6802 -0.0758
  348MPD2    H7 5278   1.721   1.109  12.001 -1.3972 -3.8126 -3.7595
  349TMC3    C1 5279   1.794   1.005  12.188  0.7250 -0.3323  0.3943
  349TMC3    C2 5280   1.836   0.909  12.280 -0.0922  0.2940  0.3645
  349TMC3    C3 5281   1.747   0.831  12.342 -0.1045 -0.7007 -0.4368
  349TMC3    C4 5282   1.657   1.018  12.160  0.7114  0.4961  0.6862
  349TMC3    C5 5283   1.571   0.933  12.228 -0.0295  0.0679 -0.0899
  349TMC3    C6 5284   1.611   0.848  12.326 -0.3201  0.7278 -0.2254
  349TMC3     C 5285   1.888   1.050  12.095 -0.8144 -0.0980  0.6834
  349TMC3     O 5286   2.006   1.032  12.112 -0.2861 -0.5218  0.6345
  349TMC3     H 5287   1.941   0.890  12.295  0.1330  1.4284  0.1885
  349TMC3    H1 5288   1.615   1.104  12.110 -4.2317 -0.7967  2.6700
  349TMC3    H2 5289   1.550   0.765  12.360  0.9168  0.4631  1.3640
  349TMC3    C7 5290   1.430   0.944  12.203 -1.0444  0.9607  0.9214
  349TMC3    C8 5291   1.788   0.703  12.389  0.3238  0.4008 -0.1151
  349TMC3    O1 5292   1.354   0.902  12.289 -0.8972 -0.4450  0.1761
  349TMC3    O2 5293   1.720   0.648  12.477  0.0735  0.0013  0.0356
  350MPD2     C 5294   0.778   4.705  10.581 -0.4496 -0.3078  0.8349
  350MPD2    C1 5295   0.782   4.590  10.655 -0.1140 -0.2050  0.3871
  350MPD2    C2 5296   0.842   4.599  10.780  0.5924  0.0193  0.0045
  350MPD2    C3 5297   0.877   4.717  10.843 -0.3665 -0.1035 -0.5335
  350MPD2    C4 5298   0.854   0.089  10.770 -1.1356 -0.2032  0.3393
  350MPD2    C5 5299   0.817   0.079  10.636  0.1528 -0.2159 -0.1529
  350MPD2     H 5300   0.858   4.504  10.830  1.0406 -0.2396 -0.6372
  350MPD2    H1 5301   0.851   0.188  10.815  0.1589  0.5543 -1.2308
  350MPD2    H2 5302   0.730   4.712  10.484  3.8958  1.2657 -1.2175
  350MPD2    H3 5303   0.803   0.168  10.576  0.9408  0.2217  0.3080
  350MPD2     N 5304   0.917   4.708  10.978  0.5264 -0.1892  0.3055
  350MPD2    H5 5305   0.916   4.614  11.018 -0.4633  0.0849  0.9102
  350MPD2    N1 5306   0.736   4.459  10.613 -0.1832 -0.0867  0.0832
  350MPD2    H7 5307   0.730   4.386  10.683  1.1401 -1.9173 -1.7130
  351TMC3    C1 5308   0.584   4.308  10.515 -0.0266  0.3458  1.0528
  351TMC3    C2 5309   0.662   4.201  10.548  0.5865  0.1684  0.1019
  351TMC3    C3 5310   0.606   4.078  10.567 -0.0833  0.3631 -0.1352
  351TMC3    C4 5311   0.454   4.298  10.498 -0.5723 -0.3679  0.0322
  351TMC3    C5 5312   0.396   4.170  10.514  0.1805 -0.7240  0.3411
  351TMC3    C6 5313   0.466   4.064  10.557 -0.1473 -0.0553  0.3308
  351TMC3     C 5314   0.650   4.439  10.508  0.6941  0.6992 -0.0997
  351TMC3     O 5315   0.597   4.527  10.443  0.3706 -0.3913  0.0017
  351TMC3     H 5316   0.770   4.204  10.547  0.5804  1.0412  1.2664
  351TMC3    H1 5317   0.403   4.382  10.453 -1.8814 -0.1004  2.0395
  351TMC3    H2 5318   0.416   3.968  10.560  2.4025 -1.4292 -1.1932
  351TMC3    C7 5319   0.250   4.168  10.504  1.2004  0.2776 -0.1380
  351TMC3    C8 5320   0.695   3.971  10.544 -0.2853  0.1722 -0.1262
  351TMC3    O1 5321   0.204   4.278  10.482 -0.1882 -0.4606 -1.1319
  351TMC3    O2 5322   0.777   3.978  10.455  0.4703 -0.0481  0.6499
  352MPD2     C 5323   3.304   2.239   1.139  0.4154  0.3508 -0.3427
  352MPD2    C1 5324   3.209   2.157   1.193  0.0926 -0.1525 -0.1536
  352MPD2    C2 5325   3.242   2.026   1.216 -0.3169 -0.1532 -0.4875
  352MPD2    C3 5326   3.369   1.971   1.185 -0.5896  0.6971 -0.3350
  352MPD2    C4 5327   3.456   2.054   1.128  0.0447 -0.5543 -0.4310
  352MPD2    C5 5328   3.431   2.187   1.111  0.1931 -0.4155 -0.4011
  352MPD2     H 5329   3.168   1.965   1.267 -0.1224 -1.4250 -1.7279
  352MPD2    H1 5330   3.550   2.014   1.089  0.1794 -1.7463  1.1408
  352MPD2    H2 5331   3.278   2.343   1.122  0.1558  0.5058  0.9887
  352MPD2    H3 5332   3.511   2.248   1.069  1.4926 -1.4001  0.6461
  352MPD2     N 5333   3.402   1.833   1.195  0.2181 -0.2146 -0.3346
  352MPD2    H5 5334   3.499   1.814   1.170  0.2055  0.3458 -0.8103
  352MPD2    N1 5335   3.078   2.204   1.207 -0.4869  0.1633 -0.0368
  352MPD2    H7 5336   3.069   2.304   1.188  0.8866  0.5166  1.1641
  353TMC3    C1 5337   3.375   1.597   1.203 -0.5542 -0.0926  0.5031
  353TMC3    C2 5338   3.505   1.585   1.236 -0.8882  0.5633 -0.4501
  353TMC3    C3 5339   3.550   1.459   1.264 -0.0153  0.3637  0.3480
  353TMC3    C4 5340   3.294   1.487   1.195 -0.1688  0.6949 -0.0566
  353TMC3    C5 5341   3.353   1.365   1.194 -0.2802 -0.4146 -0.7328
  353TMC3    C6 5342   3.484   1.343   1.224  0.4138 -0.2842  0.3144
  353TMC3     C 5343   3.313   1.730   1.212  0.2090  0.1747 -0.1939
  353TMC3     O 5344   3.194   1.730   1.205 -0.3490 -0.0695  0.2238
  353TMC3     H 5345   3.578   1.664   1.248  1.2155 -1.3634 -0.6044
  353TMC3    H1 5346   3.188   1.501   1.172  0.6030  1.1657 -3.3725
  353TMC3    H2 5347   3.524   1.247   1.253  1.3849 -0.0693 -0.3170
  353TMC3    C7 5348   3.271   1.244   1.188 -0.5870  0.6136  0.2685
  353TMC3    C8 5349   3.698   1.441   1.286 -0.0910 -0.4792 -0.7258
  353TMC3    O1 5350   3.315   1.144   1.245 -0.1774 -0.3480  0.2782
  353TMC3    O2 5351   3.770   1.535   1.262 -0.2276 -0.1737 -0.2534
  354TMC3    C1 5352   0.543   2.152  13.427  0.3340  0.1077  0.0446
  354TMC3    C2 5353   0.557   2.293  13.425 -0.9240  0.5479 -0.2100
  354TMC3    C3 5354   0.558   2.356  13.302  0.2958 -0.1899 -0.6049
  354TMC3    C4 5355   0.560   2.085  13.307  1.0058 -0.2992  0.2452
  354TMC3    C5 5356   0.559   2.159  13.191  0.4055 -0.4900  0.0214
  354TMC3    C6 5357   0.558   2.290  13.182 -0.0767  0.0355  0.0026
  354TMC3     C 5358   0.469   2.084  13.529 -0.7019 -0.2189 -0.6108
  354TMC3     O 5359   0.407   1.984  13.492  0.4573 -0.2781  0.3579
  354TMC3     H 5360   0.548   2.354  13.514 -0.2134  0.6417 -0.2076
  354TMC3    H1 5361   0.541   1.978  13.314 -0.4681 -0.0286  0.4380
  354TMC3    H2 5362   0.542   2.341  13.087 -0.6957 -0.6031 -0.2287
  354TMC3    C7 5363   0.631   2.094  13.081  0.0657 -0.6697  0.6187
  354TMC3    C8 5364   0.628   2.481  13.299 -0.1532 -0.4045 -0.7257
  354TMC3    O1 5365   0.620   1.975  13.082 -0.1907  0.2838 -0.3329
  354TMC3    O2 5366   0.603   2.551  13.198  0.1313 -0.1661 -0.4819
  355MPD2     C 5367   1.350   2.808  12.498  0.0991  0.5936  0.4289
  355MPD2    C1 5368   1.350   2.943  12.529 -0.4209  0.3060  0.4026
  355MPD2    C2 5369   1.416   2.988  12.639  0.3206 -0.3338 -0.1626
  355MPD2    C3 5370   1.494   2.904  12.713 -0.7625 -0.0773  0.2485
  355MPD2    C4 5371   1.495   2.773  12.681 -0.4734 -0.8557  0.0669
  355MPD2    C5 5372   1.425   2.723  12.578 -0.0415  0.0802 -0.9526
  355MPD2     H 5373   1.407   3.091  12.674 -0.6111  0.0796 -1.6348
  355MPD2    H1 5374   1.566   2.715  12.740 -1.6189 -1.3272  0.9652
  355MPD2    H2 5375   1.291   2.760  12.421 -1.3993 -0.5758  2.3136
  355MPD2    H3 5376   1.430   2.615  12.565  0.7396  0.0123 -0.0972
  355MPD2     N 5377   1.575   2.936  12.825 -0.3401  0.1396  1.0370
  355MPD2    H5 5378   1.601   2.853  12.878 -2.1502 -0.9890  0.1694
  355MPD2    N1 5379   1.278   3.030  12.439 -0.2570  0.1119  0.7177
  355MPD2    H7 5380   1.224   2.983  12.367  0.6675 -1.0279  0.7655
  356TMC3    C1 5381   1.612   3.179  12.802 -0.1709  0.5115 -0.8606
  356TMC3    C2 5382   1.648   3.157  12.677 -0.1612 -0.1176  0.6244
  356TMC3    C3 5383   1.629   3.260  12.589 -0.2944 -0.0425  0.6904
  356TMC3    C4 5384   1.558   3.294  12.846 -0.6549  0.8227 -0.4645
  356TMC3    C5 5385   1.538   3.395  12.759 -0.2449 -0.3582  0.6822
  356TMC3    C6 5386   1.580   3.386  12.629  0.0313 -0.5473 -0.4371
  356TMC3     C 5387   1.608   3.059  12.886 -0.1513 -0.2427  0.2470
  356TMC3     O 5388   1.663   3.079  12.994 -0.1403 -0.5391  0.4278
  356TMC3     H 5389   1.693   3.063  12.648 -0.1193  0.6399 -1.7719
  356TMC3    H1 5390   1.531   3.298  12.950 -0.4194 -0.6931 -0.3404
  356TMC3    H2 5391   1.538   3.460  12.561 -0.8938 -1.8038 -1.2309
  356TMC3    C7 5392   1.514   3.525  12.821  0.1883  0.1601 -0.1652
  356TMC3    C8 5393   1.647   3.223  12.455 -0.4307  0.3512  0.8105
  356TMC3    O1 5394   1.455   3.529  12.927  0.1025  0.5221 -0.4587
  356TMC3    O2 5395   1.622   3.108  12.425 -0.6752 -0.1872 -0.3610
  357MPD2     C 5396   0.548   3.492   0.572 -0.2311  0.3866  0.1250
  357MPD2    C1 5397   0.474   3.588   0.642 -0.0319  0.1164 -1.1392
  357MPD2    C2 5398   0.341   3.597   0.617  0.2275 -0.3589  0.9095
  357MPD2    C3 5399   0.286   3.532   0.512 -0.3823  0.6999 -0.2750
  357MPD2    C4 5400   0.362   3.443   0.441 -0.2080  0.6095  0.2609
  357MPD2    C5 5401   0.491   3.422   0.473 -0.2554 -0.2420 -0.0450
  357MPD2     H 5402   0.276   3.657   0.680 -1.0122 -0.3434 -0.3937
  357MPD2    H1 5403   0.321   3.397   0.352  3.3915 -1.0794 -0.5210
  357MPD2    H2 5404   0.651   3.465   0.592 -0.3687  0.1860  0.5735
  357MPD2    H3 5405   0.539   3.342   0.418 -1.7608 -0.3392 -1.2152
  357MPD2     N 5406   0.144   3.534   0.487 -0.5459  0.2585  0.0898
  357MPD2    H5 5407   0.116   3.470   0.414  1.3384 -1.9069  1.2447
  357MPD2    N1 5408   0.544   3.657   0.735 -0.8446 -0.1022 -0.4034
  357MPD2    H7 5409   0.644   3.641   0.736 -0.3704  2.9506  1.2369
  358TMC3    C1 5410   0.603   3.781   0.924 -0.0111  0.1668 -0.0352
  358TMC3    C2 5411   0.730   3.726   0.907 -0.1311 -0.7424  0.0362
  358TMC3    C3 5412   0.800   3.670   1.013 -0.4854  0.3891  0.2834
  358TMC3    C4 5413   0.554   3.789   1.051 -0.1637 -0.5595  0.2966
  358TMC3    C5 5414   0.622   3.734   1.155 -0.2396 -0.2889 -0.3917
  358TMC3    C6 5415   0.745   3.670   1.135 -0.9347  0.3333 -0.1614
  358TMC3     C 5416   0.498   3.752   0.824  0.0442 -0.1053  0.4644
  358TMC3     O 5417   0.379   3.764   0.857  0.0759 -0.4104  0.1985
  358TMC3     H 5418   0.779   3.725   0.810 -0.1945  0.4834 -0.0052
  358TMC3    H1 5419   0.464   3.845   1.073  0.4175  0.2704  0.5594
  358TMC3    H2 5420   0.812   3.657   1.218 -1.0118 -1.2039 -0.3508
  358TMC3    C7 5421   0.584   3.765   1.294  0.1032 -0.0028 -0.2258
  358TMC3    C8 5422   0.838   3.542   0.968 -0.2116  0.8524 -1.1491
  358TMC3    O1 5423   0.670   3.790   1.380 -0.2113 -0.1088  0.3530
  358TMC3    O2 5424   0.852   3.517   0.847 -0.7159 -0.2249 -0.1229
  359MPD2     C 5425   0.701   1.152  12.310  0.6321  0.3913 -0.4415
  359MPD2    C1 5426   0.707   1.241  12.198  0.1153  0.4957  0.3426
  359MPD2    C2 5427   0.591   1.272  12.130 -0.0997  0.1041 -0.3020
  359MPD2    C3 5428   0.473   1.233  12.179 -0.2365  0.0881 -0.9873
  359MPD2    C4 5429   0.471   1.152  12.292  0.6975  0.9827  0.2840
  359MPD2    C5 5430   0.581   1.100  12.348 -0.1394  0.0261 -0.6478
  359MPD2     H 5431   0.596   1.329  12.038 -0.8988 -0.0571 -0.4539
  359MPD2    H1 5432   0.376   1.143  12.342  1.3837  1.1332  1.5968
  359MPD2    H2 5433   0.783   1.141  12.380 -0.6110 -1.8439  0.6670
  359MPD2    H3 5434   0.571   1.045  12.441 -0.3400 -1.4976 -1.5623
  359MPD2     N 5435   0.349   1.273  12.130  0.0648 -0.1741 -0.0209
  359MPD2    H5 5436   0.258   1.242  12.164  0.4998 -0.6615  0.6950
  359MPD2    N1 5437   0.825   1.304  12.160 -0.6408 -0.1422  0.3804
  359MPD2    H7 5438   0.809   1.378  12.092 -1.1434 -1.2297 -0.6769
  360TMC3    C1 5439   1.054   1.346  12.135 -0.1183 -0.0847 -0.0312
  360TMC3    C2 5440   1.180   1.339  12.191  0.1523  0.2571  0.3984
  360TMC3    C3 5441   1.286   1.358  12.113  0.0732 -0.2462  0.2946
  360TMC3    C4 5442   1.036   1.393  12.012  0.3168 -0.2993 -0.0935
  360TMC3    C5 5443   1.145   1.414  11.934 -0.9967 -0.4725  0.3864
  360TMC3    C6 5444   1.273   1.402  11.980  0.6061  0.2729  0.5803
  360TMC3     C 5445   0.945   1.284  12.214  0.2681 -0.1761 -0.5677
  360TMC3     O 5446   0.983   1.230  12.317  0.0096  0.3499 -0.5784
  360TMC3     H 5447   1.198   1.290  12.286 -0.5310  2.5551  1.7116
  360TMC3    H1 5448   0.941   1.385  11.961  0.7399  1.9141 -1.2438
  360TMC3    H2 5449   1.351   1.442  11.917 -0.4024 -1.2354 -1.5912
  360TMC3    C7 5450   1.132   1.467  11.803  0.8389 -0.0946  0.9253
  360TMC3    C8 5451   1.417   1.360  12.179  0.8992 -0.9871 -0.7062
  360TMC3    O1 5452   1.230   1.463  11.730 -0.2006  0.1146 -0.0649
  360TMC3    O2 5453   1.432   1.295  12.286  0.0527  0.8928 -0.7064
  361MPD2     C 5454   2.675   0.672  16.649  0.4081 -0.4125  0.5387
  361MPD2    C1 5455   2.655   0.769  16.739 -0.2365  0.2938 -0.2376
  361MPD2    C2 5456   2.675   0.749  16.870  0.5484 -0.6238 -0.6036
  361MPD2    C3 5457   2.728   0.635  16.918 -0.9962 -0.2189  0.0451
  361MPD2    C4 5458   2.754   0.537  16.824 -0.2253 -0.5076 -0.0740
  361MPD2    C5 5459   2.730   0.555  16.693  0.1518 -0.8900 -0.0703
  361MPD2     H 5460   2.654   0.833  16.934  2.3089 -0.1514 -0.6634
  361MPD2    H1 5461   2.819   0.454  16.849 -0.2471 -0.9538 -1.5157
  361MPD2    H2 5462   2.651   0.689  16.545 -1.0474 -1.3778  0.7208
  361MPD2    H3 5463   2.753   0.480  16.619  1.4000 -0.2332 -0.3508
  361MPD2     N 5464   2.774   0.611  17.051 -0.3290  0.1633 -0.5654
  361MPD2    H5 5465   2.812   0.517  17.063 -0.9375  0.2095  1.8318
  361MPD2    N1 5466   2.597   0.892  16.696  0.0295 -0.1879 -0.5492
  361MPD2    H7 5467   2.580   0.956  16.772  1.6237 -2.5373  1.7802
  362TMC3    C1 5468   2.530   1.070  16.570 -0.7387  0.9467 -0.7665
  362TMC3    C2 5469   2.508   1.138  16.686 -0.3514 -0.8742  0.1910
  362TMC3    C3 5470   2.431   1.253  16.690  0.7127  0.9149 -0.1768
  362TMC3    C4 5471   2.478   1.119  16.457  0.1798  0.2982  0.0659
  362TMC3    C5 5472   2.392   1.223  16.467 -0.3937 -0.7181  1.0171
  362TMC3    C6 5473   2.367   1.295  16.578  0.1075  0.1281 -0.4435
  362TMC3     C 5474   2.571   0.931  16.566  0.2530 -0.1992  0.0013
  362TMC3     O 5475   2.553   0.868  16.463  0.0080 -0.1221 -0.4149
  362TMC3     H 5476   2.555   1.106  16.779  0.0169 -0.7710  0.0401
  362TMC3    H1 5477   2.483   1.061  16.366 -0.1910 -1.5727  1.2315
  362TMC3    H2 5478   2.311   1.387  16.578 -0.3651 -0.1658 -0.0707
  362TMC3    C7 5479   2.331   1.285  16.350  0.3472 -0.1358 -0.6061
  362TMC3    C8 5480   2.397   1.302  16.821  0.8197 -0.1000 -0.3445
  362TMC3    O1 5481   2.236   1.352  16.376 -0.5342  0.0489  0.2692
  362TMC3    O2 5482   2.467   1.282  16.917  0.4994 -0.3464 -0.3151
  363TMC3    C1 5483   1.067   3.749   9.749 -0.1215  0.4978 -0.1097
  363TMC3    C2 5484   1.104   3.670   9.854 -0.0846  0.7826  0.0026
  363TMC3    C3 5485   1.130   3.719   9.977  0.4053 -1.2781 -0.6554
  363TMC3    C4 5486   1.042   3.880   9.784 -0.0161 -0.5170 -0.0916
  363TMC3    C5 5487   1.057   3.921   9.912  0.8846 -0.7253  0.1021
  363TMC3    C6 5488   1.099   3.845  10.016 -0.2625 -0.2877  0.8212
  363TMC3     C 5489   1.068   3.706   9.607 -0.7016  0.2143 -0.1505
  363TMC3     O 5490   1.067   3.797   9.527  0.8691 -0.1204  0.1034
  363TMC3     H 5491   1.136   3.569   9.833  0.2821  0.7901  0.5220
  363TMC3    H1 5492   1.021   3.951   9.704  1.3599 -0.9705 -0.8687
  363TMC3    H2 5493   1.112   3.890  10.114 -0.4816  1.0630  0.2271
  363TMC3    C7 5494   1.046   4.060   9.941 -0.0360  0.6137 -0.1262
  363TMC3    C8 5495   1.163   3.630  10.085  0.0862  0.3067  0.3280
  363TMC3    O1 5496   1.085   4.128   9.846 -0.2128 -0.7310  0.5035
  363TMC3    O2 5497   1.126   3.669  10.194 -0.2154  0.1278 -0.6227
  364MPD2     C 5498   4.460   2.639  10.560 -0.4252  0.1844  0.0823
  364MPD2    C1 5499   4.554   2.712  10.634 -0.6543 -0.0699  0.5249
  364MPD2    C2 5500   4.669   2.638  10.666 -0.1413  0.1278 -0.2498
  364MPD2    C3 5501   4.685   2.502  10.642 -0.0340 -1.0790  0.0742
  364MPD2    C4 5502   4.583   2.437  10.578  0.0878  1.0658 -0.0841
  364MPD2    C5 5503   4.469   2.505  10.546  0.2241  0.0680  0.0043
  364MPD2     H 5504   0.020   2.686  10.704 -0.0876  1.3076 -1.8860
  364MPD2    H1 5505   4.594   2.329  10.571  0.0005  1.1390 -1.3666
  364MPD2    H2 5506   4.367   2.679  10.522 -0.3176  0.6297  0.2909
  364MPD2    H3 5507   4.388   2.455  10.494 -0.3002  1.0170 -0.0825
  364MPD2     N 5508   0.062   2.437  10.677  0.4815 -0.3675  0.3194
  364MPD2    H5 5509   0.066   2.335  10.683  1.4206 -0.3253  0.4337
  364MPD2    N1 5510   4.533   2.846  10.659 -0.1822 -0.0396  0.0977
  364MPD2    H7 5511   4.450   2.880  10.611  0.5916  0.8709 -0.6003
  365TMC3    C1 5512   4.624   3.064  10.650  0.1628  0.3757  0.6312
  365TMC3    C2 5513   4.621   3.063  10.512  0.4265 -0.4814 -0.2152
  365TMC3    C3 5514   4.670   3.176  10.451  0.7031 -0.1719 -0.1225
  365TMC3    C4 5515   4.654   3.177  10.725  0.0445 -0.0295  0.1672
  365TMC3    C5 5516   4.697   3.289  10.658 -0.3579  0.2580 -0.8094
  365TMC3    C6 5517   4.707   3.288  10.520 -0.4202 -0.0151  0.0371
  365TMC3     C 5518   4.621   2.933  10.717 -0.0966  0.1444  0.4130
  365TMC3     O 5519   4.700   2.912  10.809 -0.0050  0.3563 -0.2842
  365TMC3     H 5520   4.572   2.983  10.457  0.1826  0.8410 -1.9247
  365TMC3    H1 5521   4.629   3.174  10.831  3.4865  0.7033  1.0009
  365TMC3    H2 5522   0.007   3.369  10.460 -0.7428 -0.4549 -0.7715
  365TMC3    C7 5523   4.731   3.420  10.720  0.1729 -0.8101  0.8056
  365TMC3    C8 5524   0.009   3.146  10.334 -0.5821  0.1322 -1.5023
  365TMC3    O1 5525   0.002   3.517  10.647 -0.1879 -0.5572  0.5583
  365TMC3    O2 5526   0.050   3.236  10.267 -0.2536  0.5856 -0.7250
  366MPD2     C 5527   2.831   3.509  15.842  0.3277 -0.1440  0.3904
  366MPD2    C1 5528   2.900   3.594  15.760 -0.4648  0.7665  0.2883
  366MPD2    C2 5529   3.037   3.594  15.758  0.0084  0.0860 -0.5721
  366MPD2    C3 5530   3.105   3.524  15.853  0.3043  0.7620  0.1752
  366MPD2    C4 5531   3.035   3.437  15.931 -0.3084  0.5320 -0.8029
  366MPD2    C5 5532   2.904   3.420  15.922  0.5279  0.2543  0.5958
  366MPD2     H 5533   3.093   3.664  15.696  2.0094 -0.7562  0.2893
  366MPD2    H1 5534   3.088   3.372  15.999  0.9695  0.6778 -1.6672
  366MPD2    H2 5535   2.724   3.522  15.852  0.2273 -0.4354 -0.2576
  366MPD2    H3 5536   2.859   3.344  15.985 -1.2990 -0.9518 -2.1496
  366MPD2     N 5537   3.247   3.535  15.857 -0.4236 -0.3411  0.1330
  366MPD2    H5 5538   3.288   3.588  15.781  1.5255 -0.9967  0.7324
  366MPD2    N1 5539   2.838   3.704  15.688  0.6567  0.7542 -0.0735
  366MPD2    H7 5540   2.896   3.779  15.654 -1.0309  1.6839 -0.8749
  367TMC3    C1 5541   2.698   3.854  15.607 -0.0807 -0.0245  0.4074
  367TMC3    C2 5542   2.790   3.958  15.637  0.2119 -0.4892  0.2534
  367TMC3    C3 5543   2.794   4.068  15.554  0.1930  0.4968 -0.2163
  367TMC3    C4 5544   2.606   3.867  15.506  0.4361 -0.2352 -0.3947
  367TMC3    C5 5545   2.619   3.982  15.436  0.0822  0.0140  0.2147
  367TMC3    C6 5546   2.705   4.084  15.458  1.0027 -0.0223  0.4241
  367TMC3     C 5547   2.706   3.728  15.674  0.0110  0.3459 -0.2007
  367TMC3     O 5548   2.609   3.673  15.724  0.1850  0.5819 -0.0240
  367TMC3     H 5549   2.863   3.949  15.717 -1.3742  2.0297  1.9818
  367TMC3    H1 5550   2.524   3.798  15.490  2.7111 -2.8861 -0.6870
  367TMC3    H2 5551   2.691   4.166  15.388 -0.9655  1.2211  2.2487
  367TMC3    C7 5552   2.517   4.009  15.341  0.0011  0.0636 -0.3172
  367TMC3    C8 5553   2.861   4.185  15.613  0.3823 -0.6190  0.2325
  367TMC3    O1 5554   2.453   4.112  15.356  0.7322  0.0455  0.3180
  367TMC3    O2 5555   2.948   4.163  15.698  0.2625  0.1761  0.0997
  368MPD2     C 5556   4.073   1.195  13.408 -0.1299 -0.6620 -0.8498
  368MPD2    C1 5557   4.131   1.320  13.382  0.9672 -0.2005  0.5108
  368MPD2    C2 5558   4.252   1.335  13.323  0.0994 -0.2123  0.3403
  368MPD2    C3 5559   4.318   1.215  13.288  0.5011  0.5048  0.0057
  368MPD2    C4 5560   4.255   1.095  13.303  0.4584  0.1505  1.0464
  368MPD2    C5 5561   4.131   1.083  13.370 -0.4228 -0.4733  0.3589
  368MPD2     H 5562   4.298   1.432  13.307 -0.7593  0.1303 -0.0757
  368MPD2    H1 5563   4.299   1.003  13.266 -0.8789 -0.5392  1.1666
  368MPD2    H2 5564   3.971   1.182  13.444  0.4555  0.5054  1.2378
  368MPD2    H3 5565   4.089   0.984  13.386  0.4868 -0.3563  3.3748
  368MPD2     N 5566   4.433   1.219  13.200  0.4370 -0.4234 -0.1711
  368MPD2    H5 5567   4.453   1.127  13.162 -0.0688  1.7753 -5.5968
  368MPD2    N1 5568   4.037   1.427  13.387  0.6168 -0.3863 -0.2899
  368MPD2    H7 5569   3.940   1.410  13.413  0.4469  1.0452 -0.0099
  369TMC3    C1 5570   3.932   1.632  13.349 -0.2749 -0.4210 -0.2140
  369TMC3    C2 5571   3.946   1.719  13.245  0.0345 -0.4256  0.0612
  369TMC3    C3 5572   3.867   1.708  13.138 -0.4951 -0.1053 -0.0281
  369TMC3    C4 5573   3.820   1.553  13.351  0.2801  0.4822 -0.2354
  369TMC3    C5 5574   3.729   1.561  13.251 -0.2721  0.2082 -0.1758
  369TMC3    C6 5575   3.754   1.630  13.138  0.5506  0.5069 -0.3038
  369TMC3     C 5576   4.057   1.555  13.352  0.9549  0.7919 -0.2127
  369TMC3     O 5577   4.136   1.587  13.264  0.0717 -0.5676 -0.1590
  369TMC3     H 5578   4.038   1.776  13.245  0.1819 -0.6623 -1.7742
  369TMC3    H1 5579   3.802   1.497  13.442 -0.0583  2.0537  0.6629
  369TMC3    H2 5580   3.676   1.629  13.062  0.7709  2.0635 -0.5576
  369TMC3    C7 5581   3.639   1.448  13.238 -0.9512 -0.1175  0.3713
  369TMC3    C8 5582   3.898   1.771  13.015  0.0985  0.6188  0.1571
  369TMC3    O1 5583   3.649   1.370  13.331 -0.1423  0.3117 -0.4561
  369TMC3    O2 5584   3.814   1.786  12.932  0.4372  0.5482  0.7805
  370TMC3    C1 5585   3.467   2.118  16.292  0.3085 -0.0728 -0.6645
  370TMC3    C2 5586   3.338   2.087  16.306  0.4298  0.1572  0.3189
  370TMC3    C3 5587   3.303   1.967  16.256 -0.4871  0.0888  0.4232
  370TMC3    C4 5588   3.559   2.061  16.220  0.3137 -0.9133  0.1920
  370TMC3    C5 5589   3.517   1.951  16.149 -0.4197 -0.2148  0.7291
  370TMC3    C6 5590   3.385   1.903  16.164 -0.0750 -0.0935  0.2986
  370TMC3     C 5591   3.516   2.195  16.405  0.6456 -0.1842 -0.4211
  370TMC3     O 5592   3.460   2.161  16.512  0.0148 -0.3233  0.0737
  370TMC3     H 5593   3.276   2.151  16.368 -0.6277 -0.1137 -0.4723
  370TMC3    H1 5594   3.662   2.094  16.211  0.0588  0.0725  0.8483
  370TMC3    H2 5595   3.363   1.806  16.120  0.7975 -0.1333 -0.0459
  370TMC3    C7 5596   3.622   1.873  16.076 -0.4836  0.2072  0.7811
  370TMC3    C8 5597   3.217   1.876  16.329 -0.2061 -0.0229  0.6521
  370TMC3    O1 5598   3.740   1.894  16.106  0.3239  0.0218  0.4761
  370TMC3    O2 5599   3.190   1.765  16.285  0.2145 -0.4217 -0.0550
  371TMC3    C1 5600   4.726   0.318  15.644  0.1051 -0.0908  1.0351
  371TMC3    C2 5601   4.637   0.302  15.744  0.0253 -0.1923 -0.1109
  371TMC3    C3 5602   4.573   0.411  15.789 -0.3069  0.0095 -0.9777
  371TMC3    C4 5603   0.021   0.443  15.591  0.1915  0.0489 -0.3667
  371TMC3    C5 5604   4.693   0.552  15.646 -0.3485  0.3262  0.1345
  371TMC3    C6 5605   4.597   0.536  15.742 -0.2525  0.3864 -0.6833
  371TMC3     C 5606   0.063   0.196  15.608 -0.5413 -0.1534 -0.3512
  371TMC3     O 5607   0.134   0.222  15.510 -0.2963  0.0561  0.0098
  371TMC3     H 5608   4.605   0.202  15.770  2.1211 -1.2205 -1.4346
  371TMC3    H1 5609   0.086   0.451  15.505 -1.6774 -0.0735 -1.7876
  371TMC3    H2 5610   4.546   0.625  15.779  1.4306  1.4069 -0.8474
  371TMC3    C7 5611   4.713   0.684  15.600 -0.4559  0.0012  0.4188
  371TMC3    C8 5612   4.514   0.406  15.927  0.2615  0.3332  0.6099
  371TMC3    O1 5613   4.653   0.771  15.653  0.7901 -0.3780 -0.2949
  371TMC3    O2 5614   4.568   0.320  15.995 -0.4640  0.4688 -0.5161
  372MPD2     C 5615   0.079   1.135  13.413  0.4771 -0.2964  0.0165
  372MPD2    C1 5616   0.099   1.032  13.491 -0.8800 -0.0188 -0.0327
  372MPD2    C2 5617   0.004   0.986  13.571 -0.1358 -0.8724  0.5681
  372MPD2    C3 5618   4.621   1.052  13.583  0.0232 -0.0190  0.0407
  372MPD2    C4 5619   4.601   1.163  13.510  0.2001 -0.3214 -0.5700
  372MPD2    C5 5620   4.704   1.209  13.430 -0.4854 -0.2960  0.9277
  372MPD2     H 5621   0.027   0.902  13.634  1.4543 -0.4393  0.5701
  372MPD2    H1 5622   4.507   1.217  13.513  0.5487  0.4012 -2.4750
  372MPD2    H2 5623   0.151   1.169  13.340 -1.1348  2.4327 -0.3085
  372MPD2    H3 5624   4.684   1.298  13.371 -3.4365 -0.7513  1.2345
  372MPD2     N 5625   4.513   0.991  13.654 -0.6045 -0.4621 -0.0931
  372MPD2    H5 5626   4.541   0.913  13.713  0.8121 -0.5147 -0.8290
  372MPD2    N1 5627   0.232   0.977  13.500 -0.0050 -0.2137 -0.1114
  372MPD2    H7 5628   0.266   0.934  13.585 -0.2280  2.2951  1.2475
  373TMC3    C1 5629   4.313   0.942  13.758 -1.1679  0.1642  0.3197
  373TMC3    C2 5630   4.275   0.988  13.885 -0.3593 -0.7798  0.2745
  373TMC3    C3 5631   4.287   0.909  13.996  0.1686  0.8704 -0.1660
  373TMC3    C4 5632   4.361   0.812  13.744 -0.3790 -0.3478  0.2099
  373TMC3    C5 5633   4.363   0.734  13.855  0.7389 -0.0311 -0.7644
  373TMC3    C6 5634   4.327   0.778  13.984  0.0091  0.4992 -0.5289
  373TMC3     C 5635   4.389   1.045  13.680  0.3854  0.0803  0.3576
  373TMC3     O 5636   4.342   1.157  13.667  0.0635  0.2477 -0.3376
  373TMC3     H 5637   4.236   1.089  13.888 -0.0995 -0.5429 -3.9016
  373TMC3    H1 5638   4.382   0.775  13.644  0.2925  0.0220  0.2148
  373TMC3    H2 5639   4.338   0.714  14.071 -0.1147 -0.0951 -0.9539
  373TMC3    C7 5640   4.458   0.617  13.857  0.3899  0.4495  0.2049
  373TMC3    C8 5641   4.345   0.975  14.113 -0.1616  0.5636 -0.3563
  373TMC3    O1 5642   4.493   0.568  13.963 -0.3748 -0.3982 -0.5678
  373TMC3    O2 5643   4.385   1.088  14.082 -0.2141  0.1588  0.4730
  374TMC3    C1 5644   0.555   1.416   9.634  0.0564 -0.0856  0.9875
  374TMC3    C2 5645   0.578   1.536   9.694 -0.5083 -0.2620  0.1493
  374TMC3    C3 5646   0.596   1.649   9.621 -0.1008  0.3736  0.0940
  374TMC3    C4 5647   0.542   1.415   9.501  0.4914 -0.1364 -0.1350
  374TMC3    C5 5648   0.575   1.528   9.429  0.1190  0.4975  0.7336
  374TMC3    C6 5649   0.599   1.648   9.489 -0.2165  0.0322  0.9736
  374TMC3     C 5650   0.488   1.304   9.702  0.0490  0.1785  0.4565
  374TMC3     O 5651   0.422   1.229   9.631 -0.0377  0.6521 -0.3969
  374TMC3     H 5652   0.548   1.552   9.797 -2.3823 -2.1768 -0.1140
  374TMC3    H1 5653   0.500   1.326   9.455 -1.1746  1.5759 -1.9685
  374TMC3    H2 5654   0.608   1.734   9.423 -0.2826 -0.3654  0.4492
  374TMC3    C7 5655   0.573   1.520   9.284 -0.0706  0.2280 -0.0470
  374TMC3    C8 5656   0.671   1.752   9.691  0.0435 -0.0317 -0.4877
  374TMC3    O1 5657   0.589   1.619   9.218  0.2428  0.2444  0.3435
  374TMC3    O2 5658   0.659   1.861   9.644  0.5531  0.0482 -0.3720
  375MPD2     C 5659   0.155   1.580  17.043  0.6716  0.0750 -0.5531
  375MPD2    C1 5660   0.063   1.653  16.967  0.0673 -0.1062 -0.8073
  375MPD2    C2 5661   0.102   1.714  16.856 -0.1958  0.2625  0.3607
  375MPD2    C3 5662   0.230   1.706  16.801 -0.1577 -0.6254 -0.1760
  375MPD2    C4 5663   0.321   1.623  16.869 -0.4802  0.3269  0.0183
  375MPD2    C5 5664   0.278   1.567  16.986  0.4192 -0.5721 -0.0823
  375MPD2     H 5665   0.030   1.789  16.824 -0.1542  1.0707  2.1930
  375MPD2    H1 5666   0.425   1.613  16.838 -1.0808  2.9666 -2.7849
  375MPD2    H2 5667   0.130   1.536  17.139  3.2832  0.8848  0.4966
  375MPD2    H3 5668   0.348   1.507  17.042  0.9015  0.7546  0.7343
  375MPD2     N 5669   0.277   1.783  16.690 -0.1947  0.1980  0.4823
  375MPD2    H5 5670   0.377   1.778  16.674 -0.3414 -3.0056  0.4845
  375MPD2    N1 5671   4.681   1.690  17.026  0.0281  0.1288 -0.5889
  375MPD2    H7 5672   4.631   1.762  16.976 -0.3024 -0.8631 -1.6872
  376TMC3    C1 5673   0.274   1.939  16.510 -0.6836 -0.8281 -0.7256
  376TMC3    C2 5674   0.394   1.889  16.462 -0.0261 -0.1988 -0.2363
  376TMC3    C3 5675   0.469   1.975  16.384 -0.2307  1.0379  0.0862
  376TMC3    C4 5676   0.224   2.056  16.469 -0.0280  0.2620  0.3326
  376TMC3    C5 5677   0.295   2.133  16.385  0.3132  0.3240 -0.7763
  376TMC3    C6 5678   0.423   2.100  16.350 -0.6918 -0.5212 -0.6718
  376TMC3     C 5679   0.207   1.882  16.629 -0.3121  0.2923  0.4384
  376TMC3     O 5680   0.092   1.916  16.646 -0.5338 -0.6513 -0.1579
  376TMC3     H 5681   0.425   1.788  16.485 -0.7167 -0.6208 -1.1554
  376TMC3    H1 5682   0.140   2.096  16.524  0.1271 -0.8069  1.3581
  376TMC3    H2 5683   0.478   2.164  16.281 -0.7757 -2.3306 -2.4152
  376TMC3    C7 5684   0.236   2.260  16.359  1.2933 -0.0381 -0.1825
  376TMC3    C8 5685   0.601   1.936  16.335  0.2345 -0.7019  0.2363
  376TMC3    O1 5686   0.313   2.345  16.333 -0.0877  0.2722  0.6136
  376TMC3    O2 5687   0.658   2.024  16.272 -0.4420  0.1245 -0.3905
  377MPD2     C 5688   2.901   1.360  12.354  0.7345 -0.5231 -0.3590
  377MPD2    C1 5689   2.969   1.373  12.472 -0.2693 -0.0034  0.0476
  377MPD2    C2 5690   2.925   1.291  12.579  0.2638  0.6148 -0.7292
  377MPD2    C3 5691   2.832   1.191  12.572 -0.4585 -0.0188 -0.5740
  377MPD2    C4 5692   2.781   1.170  12.446  0.1271 -0.3010 -0.0303
  377MPD2    C5 5693   2.809   1.256  12.340  0.3901  0.1424 -0.4488
  377MPD2     H 5694   2.975   1.312  12.672 -1.5885  2.5441 -0.1963
  377MPD2    H1 5695   2.717   1.086  12.422  1.4209 -1.3171  0.0434
  377MPD2    H2 5696   2.910   1.429  12.272 -0.9312 -0.5427 -0.5725
  377MPD2    H3 5697   2.741   1.257  12.256 -1.2230  1.3143  0.8770
  377MPD2     N 5698   2.782   1.120  12.686  0.0024 -0.1590  0.2679
  377MPD2    H5 5699   2.699   1.063  12.677 -0.7920  0.8808  0.9725
  377MPD2    N1 5700   3.062   1.479  12.485  1.0827 -0.3738  0.2178
  377MPD2    H7 5701   3.082   1.532  12.401  3.1416 -5.5296 -2.5699
  378TMC3    C1 5702   3.231   1.771  12.404  0.6445 -0.1093  0.1356
  378TMC3    C2 5703   3.156   1.716  12.504  0.7790  0.0303  0.5697
  378TMC3    C3 5704   3.212   1.620  12.576  0.6649 -0.0858 -0.3193
  378TMC3    C4 5705   3.361   1.745  12.382  0.2583 -0.2996 -0.6287
  378TMC3    C5 5706   3.415   1.649  12.461  0.6592  0.2561 -0.2111
  378TMC3    C6 5707   3.347   1.593  12.568 -0.4255 -0.4214 -0.2296
  378TMC3     C 5708   3.152   1.831  12.297 -0.1639 -0.3245  0.0606
  378TMC3     O 5709   3.028   1.828  12.300 -0.1100 -0.4840 -0.4021
  378TMC3     H 5710   3.049   1.734  12.516  1.1081  2.6469 -0.3612
  378TMC3    H1 5711   3.430   1.809  12.328  2.5281  0.8644  3.6657
  378TMC3    H2 5712   3.381   1.507  12.624 -0.4279 -0.6827 -0.6315
  378TMC3    C7 5713   3.558   1.630  12.466 -0.2112 -0.6466  0.1063
  378TMC3    C8 5714   3.141   1.499  12.593 -0.0113 -0.5008 -0.7756
  378TMC3    O1 5715   3.594   1.570  12.568  0.0201  0.7325  0.0271
  378TMC3    O2 5716   3.161   1.433  12.695  0.2893  0.3158  0.4524
  379MPD2     C 5717   3.859   0.136  16.100  0.1299 -1.4529  0.1867
  379MPD2    C1 5718   3.806   0.046  16.190  1.0538  0.0705  0.4144
  379MPD2    C2 5719   3.892   4.738  16.290  0.0236 -0.1561 -0.1540
  379MPD2    C3 5720   4.021   0.046  16.304 -0.6389  0.8829  0.7131
  379MPD2    C4 5721   4.070   0.143  16.224 -0.0247  0.0204  0.1691
  379MPD2    C5 5722   3.984   0.188  16.121 -0.3465  0.0180  0.7110
  379MPD2     H 5723   3.861   4.663  16.361 -0.1453 -2.1583 -2.3611
  379MPD2    H1 5724   4.171   0.182  16.223 -0.4908  1.2337  1.3695
  379MPD2    H2 5725   3.803   0.182  16.020  1.0424 -1.0717 -0.2262
  379MPD2    H3 5726   4.022   0.251  16.042  0.7029 -0.3566  0.9231
  379MPD2     N 5727   4.109   0.005  16.404 -0.0467 -0.3518  0.1239
  379MPD2    H5 5728   4.209   0.023  16.400 -0.0495 -0.2078  0.8059
  379MPD2    N1 5729   3.672   4.728  16.179  0.2960  0.2618  0.9562
  379MPD2    H7 5730   3.669   4.648  16.240  2.0282 -0.7050 -0.2207
  380TMC3    C1 5731   3.465   4.667  16.076 -0.1776  0.1002 -0.2547
  380TMC3    C2 5732   3.505   4.536  16.059 -0.2516  0.4933  0.2987
  380TMC3    C3 5733   3.412   4.442  16.033 -0.4914  0.1403  0.5119
  380TMC3    C4 5734   3.344   4.714  16.040 -0.0019  0.1009  0.0426
  380TMC3    C5 5735   3.250   4.620  16.017  0.1412  0.1798  0.4237
  380TMC3    C6 5736   3.279   4.487  16.029  0.2566  0.1150  0.2057
  380TMC3     C 5737   3.570   0.027  16.091  0.1924  0.9604 -0.1931
  380TMC3     O 5738   3.563   0.126  16.017  0.6340 -0.5812 -0.1899
  380TMC3     H 5739   3.607   4.505  16.078 -0.4040  0.5566  1.1890
  380TMC3    H1 5740   3.315   0.078  16.023  0.1392  0.2155  0.4839
  380TMC3    H2 5741   3.199   4.414  16.026  0.0910  0.3841 -2.4526
  380TMC3    C7 5742   3.139   4.667  15.939  0.7603 -0.1253  0.0147
  380TMC3    C8 5743   3.435   4.342  15.932 -0.0106 -0.2407  0.3217
  380TMC3    O1 5744   3.110   0.046  15.931  0.4068  0.0352  0.5138
  380TMC3    O2 5745   3.333   4.282  15.904  0.1004 -0.2174  0.1578
  381TMC3    C1 5746   3.290   1.374  15.952 -0.0163 -0.0912  0.0330
  381TMC3    C2 5747   3.386   1.433  16.024 -0.2731 -0.1457 -0.0746
  381TMC3    C3 5748   3.370   1.444  16.157  0.0589  0.0037  0.7281
  381TMC3    C4 5749   3.181   1.324  16.014 -0.6134 -0.0802  0.1861
  381TMC3    C5 5750   3.162   1.338  16.147  0.5450 -0.1136 -0.4411
  381TMC3    C6 5751   3.257   1.405  16.226  0.1414  0.4005  0.2293
  381TMC3     C 5752   3.340   1.295  15.849  0.0976 -0.2147 -0.4238
  381TMC3     O 5753   3.283   1.281  15.739 -0.8074  0.4223  0.3916
  381TMC3     H 5754   3.485   1.463  15.991 -0.4888  1.3848  0.6840
  381TMC3    H1 5755   3.110   1.261  15.963  2.3675 -1.2571 -2.4542
  381TMC3    H2 5756   3.245   1.397  16.334 -0.7104  1.0217  0.1809
  381TMC3    C7 5757   3.074   1.238  16.202 -0.1556  0.0905 -0.2990
  381TMC3    C8 5758   3.492   1.474  16.228 -0.7544 -0.0881 -0.6532
  381TMC3    O1 5759   3.034   1.145  16.133 -0.0737  0.2682 -0.1050
  381TMC3    O2 5760   3.586   1.398  16.222 -0.0136  0.0279 -0.3326
  382MPD2     C 5761   2.597   3.384  16.852 -0.6401 -0.1005  0.8439
  382MPD2    C1 5762   2.680   3.315  16.942 -0.1088  0.1878  0.2427
  382MPD2    C2 5763   2.645   3.186  16.989 -0.5416  1.0880  0.7870
  382MPD2    C3 5764   2.518   3.123  16.957 -0.0007  0.6020  0.3881
  382MPD2    C4 5765   2.438   3.205  16.874  0.1269  0.3925 -0.2921
  382MPD2    C5 5766   2.476   3.326  16.820 -0.0146  0.2005 -0.0822
  382MPD2     H 5767   2.715   3.144  17.060 -2.0361  0.7351  2.0418
  382MPD2    H1 5768   2.334   3.177  16.861  0.3384 -0.6596  0.2573
  382MPD2    H2 5769   2.616   3.486  16.822  1.6639 -0.9525 -0.5839
  382MPD2    H3 5770   2.394   3.364  16.760 -0.2311 -0.0105  0.0781
  382MPD2     N 5771   2.480   3.005  17.011  0.0967  0.0548  0.6740
  382MPD2    H5 5772   2.382   2.981  17.001 -0.1751  1.3301  0.2887
  382MPD2    N1 5773   2.798   3.369  16.981  0.5870  0.1199  0.2091
  382MPD2    H7 5774   2.837   3.317  17.060 -1.0572  0.8398  1.4962
  383TMC3    C1 5775   2.484   2.824  17.168 -0.4788  0.3587  0.9627
  383TMC3    C2 5776   2.365   2.780  17.120  0.1137 -0.3732  0.0635
  383TMC3    C3 5777   2.278   2.717  17.200  0.2242 -0.0777  0.4948
  383TMC3    C4 5778   2.516   2.813  17.299  0.2140 -0.1909  0.0536
  383TMC3    C5 5779   2.421   2.756  17.380 -0.6061 -0.1411  0.0270
  383TMC3    C6 5780   2.295   2.719  17.334 -0.1476 -0.3932  0.0879
  383TMC3     C 5781   2.559   2.929  17.097  0.4361 -0.4144 -0.4645
  383TMC3     O 5782   2.675   2.937  17.125  0.3168 -0.2853  0.6705
  383TMC3     H 5783   2.353   2.786  17.013 -1.4378 -0.8744  0.2109
  383TMC3    H1 5784   2.617   2.834  17.333 -0.1188 -0.3660  1.1606
  383TMC3    H2 5785   2.233   2.662  17.403  1.5664 -3.3510 -0.8240
  383TMC3    C7 5786   2.429   2.791  17.522  0.7385 -0.3771  0.2889
  383TMC3    C8 5787   2.167   2.659  17.137 -0.3767 -0.0784 -0.2249
  383TMC3    O1 5788   2.534   2.832  17.563  0.2134 -0.7967 -0.0155
  383TMC3    O2 5789   2.138   2.685  17.019  0.2493 -0.8873 -0.1090
  384MPD2     C 5790   4.644   4.552  11.872 -0.0073 -0.6386  0.6972
  384MPD2    C1 5791   4.618   4.542  12.008 -0.5430 -0.5737 -0.1117
  384MPD2    C2 5792   4.718   4.474  12.079 -0.4482 -0.1590 -0.1415
  384MPD2    C3 5793   0.087   4.420  12.024 -0.6324 -1.0231  0.7666
  384MPD2    C4 5794   0.108   4.443  11.894 -0.0224  0.6721 -0.3854
  384MPD2    C5 5795   0.018   4.508  11.818  0.3153  0.1967 -0.3964
  384MPD2     H 5796   4.686   4.460  12.182 -0.0268 -2.8573 -0.3846
  384MPD2    H1 5797   0.196   4.405  11.845 -0.9260  1.3152 -2.4981
  384MPD2    H2 5798   4.576   4.604  11.806  0.7168 -0.1330  0.3382
  384MPD2    H3 5799   0.033   4.525  11.712  0.3574  2.5448 -0.0252
  384MPD2     N 5800   0.171   4.326  12.093 -0.1961  0.2141  0.0636
  384MPD2    H5 5801   0.236   4.285  12.027 -1.2310 -1.9186  0.3931
  384MPD2    N1 5802   4.503   4.583  12.073  0.1806  0.4318  0.0294
  384MPD2    H7 5803   4.485   4.575  12.173  0.7913  1.9913  0.2621
  385TMC3    C1 5804   0.264   4.217  12.282 -0.3120  0.0661  0.1319
  385TMC3    C2 5805   0.244   4.083  12.248  0.1267 -0.1477  0.0526
  385TMC3    C3 5806   0.237   3.996  12.351  0.5324  0.2536 -0.8170
  385TMC3    C4 5807   0.264   4.254  12.415  0.0171 -0.2464 -0.3942
  385TMC3    C5 5808   0.256   4.161  12.515  0.1877 -0.2354 -0.0630
  385TMC3    C6 5809   0.237   4.027  12.487 -0.2766  0.1092  0.8790
  385TMC3     C 5810   0.157   4.305  12.225  0.1435  1.0008  0.5401
  385TMC3     O 5811   0.079   4.350  12.311 -0.1950 -0.1921  0.2325
  385TMC3     H 5812   0.227   4.050  12.146  1.6351  0.4038 -0.3757
  385TMC3    H1 5813   0.288   4.358  12.431 -0.6043 -0.3101  0.9770
  385TMC3    H2 5814   0.225   3.954  12.567  1.2004 -2.1570 -0.9868
  385TMC3    C7 5815   0.173   4.195  12.625  0.1602 -0.2742  0.3982
  385TMC3    C8 5816   0.226   3.856  12.334  0.9286 -0.2003 -0.2191
  385TMC3    O1 5817   0.170   4.127  12.730  0.2563  0.0324  0.2773
  385TMC3    O2 5818   0.243   3.788  12.435 -0.1826  1.0574  0.6541
  386TMC3    C1 5819   4.713   1.633  11.583  0.3790  0.1226  1.0113
  386TMC3    C2 5820   0.004   1.728  11.495  0.6527  0.1365  0.0765
  386TMC3    C3 5821   4.647   1.817  11.460 -0.1069  0.5639 -0.0344
  386TMC3    C4 5822   4.606   1.639  11.667 -0.0124 -0.2744  0.4590
  386TMC3    C5 5823   4.510   1.732  11.639  0.5155  0.1471 -0.5995
  386TMC3    C6 5824   4.525   1.817  11.533 -0.1425  0.3934  0.1436
  386TMC3     C 5825   0.055   1.514  11.575  0.2966  0.1598 -0.3302
  386TMC3     O 5826   0.161   1.532  11.516 -0.5237  0.7041 -0.1648
  386TMC3     H 5827   0.085   1.723  11.424  1.0551  1.2621  0.4647
  386TMC3    H1 5828   4.596   1.570  11.750  2.5407  1.0366  1.8199
  386TMC3    H2 5829   4.466   1.908  11.530  2.0518  1.7432 -2.0184
  386TMC3    C7 5830   4.379   1.710  11.703  1.1641 -1.2911 -0.3624
  386TMC3    C8 5831   4.635   1.872  11.328 -0.2822 -0.3779  0.4569
  386TMC3    O1 5832   4.377   1.677  11.821 -0.7932  0.2679  0.0884
  386TMC3    O2 5833   4.531   1.933  11.311 -0.7298 -0.1665  0.0592
  387MPD2     C 5834   2.279   1.937   9.960 -0.5543 -1.0628  0.0332
  387MPD2    C1 5835   2.336   1.911  10.080  0.3622 -0.3444  0.2038
  387MPD2    C2 5836   2.324   1.788  10.137 -0.5478  0.1984  0.2077
  387MPD2    C3 5837   2.267   1.680  10.075 -0.5258  0.2241 -0.7673
  387MPD2    C4 5838   2.203   1.709   9.955 -0.5801  0.0590  0.3466
  387MPD2    C5 5839   2.207   1.836   9.905  0.1088 -0.2074  0.3513
  387MPD2     H 5840   2.372   1.776  10.234  0.2643 -1.8196 -0.4399
  387MPD2    H1 5841   2.152   1.637   9.892 -1.4683  1.5412 -0.6010
  387MPD2    H2 5842   2.297   2.022   9.895  0.2695 -1.1663  0.1305
  387MPD2    H3 5843   2.170   1.851   9.804  2.8694 -0.8094 -0.7668
  387MPD2     N 5844   2.303   1.547  10.105 -0.3600  0.1867  0.4361
  387MPD2    H5 5845   2.369   1.546  10.183  1.4648  0.1916 -1.0971
  387MPD2    N1 5846   2.423   1.997  10.153 -0.0227 -0.0860  0.2851
  387MPD2    H7 5847   2.468   1.964  10.238 -0.5555  0.4565  0.7749
  388TMC3    C1 5848   2.584   2.165  10.199 -0.0230  0.0402  0.3971
  388TMC3    C2 5849   2.617   2.296  10.195  0.1552  0.3096  0.9423
  388TMC3    C3 5850   2.746   2.331  10.230  0.2550  0.2166 -0.0151
  388TMC3    C4 5851   2.664   2.064  10.241 -0.2998 -0.3733  0.0203
  388TMC3    C5 5852   2.791   2.103  10.284 -0.2535 -0.0346 -0.5615
  388TMC3    C6 5853   2.835   2.229  10.270 -0.0090  0.2116 -0.3622
  388TMC3     C 5854   2.471   2.124  10.114 -0.6837  0.8459 -0.1889
  388TMC3     O 5855   2.436   2.202  10.026 -0.0467  0.3472 -0.0135
  388TMC3     H 5856   2.542   2.367  10.161  2.0995  2.0968  0.3947
  388TMC3    H1 5857   2.635   1.960  10.229 -0.6670 -0.4775  1.8701
  388TMC3    H2 5858   2.934   2.251  10.307 -0.5192  0.7211  0.6908
  388TMC3    C7 5859   2.885   2.001  10.314 -0.3499  0.2311  0.2724
  388TMC3    C8 5860   2.776   2.471  10.261  0.1872  0.0495  0.6856
  388TMC3    O1 5861   2.958   2.010  10.407 -0.0563 -0.3804 -0.1132
  388TMC3    O2 5862   2.875   2.523  10.212 -0.7583 -0.7618  0.0439
  389MPD2     C 5863   1.929   4.253  11.121  0.1649 -0.7003  0.1115
  389MPD2    C1 5864   1.813   4.317  11.085 -0.4109  0.5829  0.2883
  389MPD2    C2 5865   1.702   4.301  11.166  0.3385  0.7956  0.2951
  389MPD2    C3 5866   1.699   4.235  11.286  0.1137  0.1503 -0.3612
  389MPD2    C4 5867   1.823   4.183  11.328 -0.2518 -0.4498 -0.1348
  389MPD2    C5 5868   1.933   4.188  11.246  0.0911  0.7012 -0.3262
  389MPD2     H 5869   1.610   4.345  11.129 -0.7455 -0.9364  0.9263
  389MPD2    H1 5870   1.837   4.129  11.421 -1.0147  0.4922  0.5224
  389MPD2    H2 5871   2.015   4.244  11.057  0.6664 -0.9202  0.8177
  389MPD2    H3 5872   2.025   4.137  11.271 -0.0577 -0.6285 -2.4475
  389MPD2     N 5873   1.576   4.216  11.362  0.5872 -0.2741  0.5264
  389MPD2    H5 5874   1.588   4.152  11.440 -0.5724  1.5597  2.2028
  389MPD2    N1 5875   1.810   4.384  10.958  0.0338 -0.8692  0.1827
  389MPD2    H7 5876   1.890   4.378  10.896  1.7290  4.7062  1.8028
  390TMC3    C1 5877   1.342   4.189  11.402 -0.2348  0.2867  0.6300
  390TMC3    C2 5878   1.375   4.114  11.515 -0.0879 -0.1325  0.1014
  390TMC3    C3 5879   1.277   4.023  11.550 -0.3879 -0.5424 -0.0835
  390TMC3    C4 5880   1.234   4.157  11.327 -0.2276  0.8558  0.6543
  390TMC3    C5 5881   1.147   4.061  11.366  0.4186  0.5772  0.2200
  390TMC3    C6 5882   1.169   3.987  11.476 -0.0037  0.0807 -0.0013
  390TMC3     C 5883   1.451   4.257  11.327  0.2847 -0.6869 -0.0130
  390TMC3     O 5884   1.423   4.336  11.236 -0.0358  0.0983  0.0083
  390TMC3     H 5885   1.466   4.133  11.569 -0.8692  0.9883  1.0111
  390TMC3    H1 5886   1.215   4.218  11.239 -0.4464 -0.0555  0.0652
  390TMC3    H2 5887   1.102   3.912  11.515 -0.5415  1.8245  2.4601
  390TMC3    C7 5888   1.074   3.987  11.260  0.8686 -0.2155 -0.2816
  390TMC3    C8 5889   1.294   3.948  11.671 -0.1310 -0.0194  0.7407
  390TMC3    O1 5890   1.093   4.002  11.140 -0.1410 -0.2579 -0.2896
  390TMC3    O2 5891   1.245   3.837  11.663 -0.4592  0.3069  0.1348
  391MPD2     C 5892   1.334   1.074  10.928  0.0865 -0.1021  0.3982
  391MPD2    C1 5893   1.375   1.206  10.943 -0.1385 -0.5642  0.3404
  391MPD2    C2 5894   1.393   1.289  10.839  0.4622  0.2870 -0.7064
  391MPD2    C3 5895   1.356   1.243  10.710 -0.4041  0.7547  0.0855
  391MPD2    C4 5896   1.314   1.118  10.693  0.1788  0.4174 -0.4815
  391MPD2    C5 5897   1.305   1.032  10.802 -0.1159  0.1784  0.1882
  391MPD2     H 5898   1.428   1.392  10.840  2.3943 -0.4059  1.6345
  391MPD2    H1 5899   1.291   1.079  10.595  1.4488 -0.4629 -0.4275
  391MPD2    H2 5900   1.330   1.001  11.008 -0.7597  0.6321  1.0355
  391MPD2    H3 5901   1.294   0.925  10.793 -0.3917  0.2037  0.2304
  391MPD2     N 5902   1.369   1.337  10.604 -0.3958 -0.0748  1.1215
  391MPD2    H5 5903   1.442   1.406  10.618 -0.4872  0.2737 -0.0701
  391MPD2    N1 5904   1.404   1.250  11.077  0.3078 -0.1773  0.1465
  391MPD2    H7 5905   1.403   1.190  11.158 -0.2461  1.6492  1.5070
  392TMC3    C1 5906   1.324   1.441  10.398 -0.1501  0.2282 -0.1587
  392TMC3    C2 5907   1.218   1.473  10.320 -0.1715  0.8079 -0.4980
  392TMC3    C3 5908   1.203   1.601  10.270  0.2790 -0.0491 -0.7275
  392TMC3    C4 5909   1.426   1.532  10.424  0.4140 -0.2315  0.0412
  392TMC3    C5 5910   1.410   1.655  10.370 -0.1424  1.6102  0.0662
  392TMC3    C6 5911   1.302   1.692  10.293 -0.3463 -0.2551 -0.2648
  392TMC3     C 5912   1.300   1.330  10.487  0.2925 -0.1699 -0.1167
  392TMC3     O 5913   1.209   1.258  10.460 -0.0248  0.4816  0.3493
  392TMC3     H 5914   1.139   1.402  10.301  0.4495 -0.4861  1.7565
  392TMC3    H1 5915   1.517   1.518  10.480  0.1966  0.7909  0.6464
  392TMC3    H2 5916   1.294   1.791  10.248  0.7876  0.0279  0.1666
  392TMC3    C7 5917   1.508   1.758  10.396  0.4841 -0.1747 -0.1334
  392TMC3    C8 5918   1.086   1.615  10.183 -0.2908  0.0203 -0.3797
  392TMC3    O1 5919   1.582   1.747  10.501  0.7339 -0.4264  0.2175
  392TMC3    O2 5920   1.055   1.514  10.125  0.5633 -0.0721 -0.3873
  393TMC3    C1 5921   4.636   4.307  10.828  0.3245  0.2680 -0.0536
  393TMC3    C2 5922   4.536   4.216  10.805 -0.1013  0.4629 -0.0468
  393TMC3    C3 5923   4.501   4.132  10.905 -0.3330  0.0330 -0.0475
  393TMC3    C4 5924   4.714   4.308  10.939 -0.2375  0.1843  0.5466
  393TMC3    C5 5925   4.685   4.215  11.034  0.0967  0.2434 -0.0003
  393TMC3    C6 5926   4.573   4.131  11.024 -0.2123  0.3161 -0.1254
  393TMC3     C 5927   4.657   4.410  10.723  0.0804  0.3866 -0.1133
  393TMC3     O 5928   4.570   4.429  10.638  0.0397  0.3060  0.1679
  393TMC3     H 5929   4.468   4.230  10.722 -0.5335  0.0278  0.2320
  393TMC3    H1 5930   0.064   4.369  10.952  1.1313 -1.6959  0.0914
  393TMC3    H2 5931   4.551   4.054  11.098  1.1698  0.0337 -0.0150
  393TMC3    C7 5932   0.019   4.209  11.163 -0.6087 -0.0098 -0.1292
  393TMC3    C8 5933   4.395   4.027  10.894  0.4732  0.1786 -0.5319
  393TMC3    O1 5934   4.688   4.171  11.251  0.2552  0.1129 -0.0864
  393TMC3    O2 5935   4.387   3.945  10.984  0.1545  0.3096  0.0155
  394TMC3    C1 5936   1.718   4.526  10.783 -0.1131  0.3701 -0.1211
  394TMC3    C2 5937   1.600   4.566  10.722  0.0303 -0.9485 -0.5102
  394TMC3    C3 5938   1.600   4.616  10.595 -0.0887 -0.1623 -0.0344
  394TMC3    C4 5939   1.836   4.551  10.712  0.0942 -0.3620 -0.1158
  394TMC3    C5 5940   1.825   4.587  10.581  0.9623 -0.3591  0.1052
  394TMC3    C6 5941   1.712   4.630  10.521 -0.4669  0.1456 -0.6431
  394TMC3     C 5942   1.710   4.475  10.918  0.6302 -0.2176  0.2095
  394TMC3     O 5943   1.607   4.510  10.971  0.0848 -0.1612 -0.8579
  394TMC3     H 5944   1.503   4.567  10.771  0.9278 -0.7014  1.2647
  394TMC3    H1 5945   1.932   4.530  10.760  2.0207 -1.0459 -4.3154
  394TMC3    H2 5946   1.708   4.674  10.421  0.7642  0.4115 -0.5711
  394TMC3    C7 5947   1.943   4.642  10.518  0.0549  0.5231 -0.1954
  394TMC3    C8 5948   1.469   4.587  10.535  0.2622 -0.0556  0.1713
  394TMC3    O1 5949   1.937   0.012  10.462 -0.1119  0.4178  0.2572
  394TMC3    O2 5950   1.389   4.507  10.584  0.7433 -0.4963 -0.0950
  395TMC3    C1 5951   1.324   1.965  15.165 -0.9943 -0.4665 -0.7590
  395TMC3    C2 5952   1.214   2.051  15.158 -0.3671 -0.2578 -0.4301
  395TMC3    C3 5953   1.244   2.176  15.120 -0.2031  0.3446  0.0328
  395TMC3    C4 5954   1.452   2.009  15.136  0.2117  0.7116  1.1698
  395TMC3    C5 5955   1.473   2.141  15.111  0.3578  0.8279  0.2395
  395TMC3    C6 5956   1.370   2.230  15.095  0.4274 -0.6203  0.1876
  395TMC3     C 5957   1.312   1.852  15.260  0.4265  0.3145  0.2706
  395TMC3     O 5958   1.379   1.753  15.236  0.0819 -0.2844 -0.2272
  395TMC3     H 5959   1.111   2.023  15.173  0.2345 -1.8034  0.8379
  395TMC3    H1 5960   1.528   1.932  15.142  0.6865  1.1292  0.4933
  395TMC3    H2 5961   1.396   2.328  15.057 -1.1411 -0.1117  0.4296
  395TMC3    C7 5962   1.605   2.182  15.074 -0.4882  0.5488 -0.1196
  395TMC3    C8 5963   1.142   2.272  15.097 -0.1356  0.0947  0.1258
  395TMC3    O1 5964   1.623   2.306  15.087 -0.3786  0.3982 -0.5946
  395TMC3    O2 5965   1.166   2.389  15.111  0.2206  0.1863  0.1229
  396MPD2     C 5966   1.319   2.942  16.878 -0.0325  0.1777  0.2191
  396MPD2    C1 5967   1.332   3.005  17.000  0.2706 -0.1139 -0.7405
  396MPD2    C2 5968   1.311   3.142  16.999  0.1650  0.0715 -0.1098
  396MPD2    C3 5969   1.308   3.214  16.882 -0.6326 -0.5286 -0.1867
  396MPD2    C4 5970   1.319   3.147  16.762  0.2059  0.4929 -0.6465
  396MPD2    C5 5971   1.315   3.011  16.764  0.3142  0.6511 -0.1900
  396MPD2     H 5972   1.299   3.194  17.094  2.3648 -0.4107  0.4310
  396MPD2    H1 5973   1.314   3.197  16.666 -2.0706  1.2694 -0.1202
  396MPD2    H2 5974   1.309   2.834  16.876  0.0129  0.1672  0.5937
  396MPD2    H3 5975   1.303   2.958  16.670  0.9849  0.6235 -0.2624
  396MPD2     N 5976   1.302   3.356  16.886  0.0296  0.5331 -0.1505
  396MPD2    H5 5977   1.279   3.395  16.977  0.5668  1.1129 -0.2592
  396MPD2    N1 5978   1.350   2.920  17.114  0.2551  0.1009 -0.0313
  396MPD2    H7 5979   1.380   2.826  17.088 -0.7823  0.1403 -1.3056
  397TMC3    C1 5980   1.379   2.837  17.332 -0.2029  0.0124 -0.2617
  397TMC3    C2 5981   1.405   2.731  17.246 -0.4385 -0.1133 -0.3424
  397TMC3    C3 5982   1.333   2.609  17.259  0.3518  0.1056 -0.6483
  397TMC3    C4 5983   1.269   2.819  17.421 -0.5506 -0.5162  0.7300
  397TMC3    C5 5984   1.205   2.698  17.425  0.1862 -0.4406  0.1407
  397TMC3    C6 5985   1.230   2.592  17.348  0.6452 -0.3015  0.1021
  397TMC3     C 5986   1.344   2.952  17.247  0.2558  0.6609  0.4498
  397TMC3     O 5987   1.277   3.040  17.294  0.2061  0.2892 -0.3705
  397TMC3     H 5988   1.504   2.725  17.203 -0.5736  1.6314 -0.9030
  397TMC3    H1 5989   1.240   2.906  17.478  3.8345 -0.0311  2.1423
  397TMC3    H2 5990   1.168   2.503  17.351 -0.0747  0.2170  0.5120
  397TMC3    C7 5991   1.078   2.678  17.505 -0.0699  0.4191 -0.3446
  397TMC3    C8 5992   1.320   2.562  17.128  0.8303  0.6209 -0.7916
  397TMC3    O1 5993   0.993   2.623  17.438  0.0592 -0.4400 -0.1384
  397TMC3    O2 5994   1.340   2.641  17.038  0.4214 -0.0958  0.0961
  398MPD2     C 5995   3.901   4.705   0.126 -0.4184  0.8768  0.5211
  398MPD2    C1 5996   3.937   4.619   0.224 -0.0234 -0.3882 -0.3596
  398MPD2    C2 5997   3.998   4.675   0.339  0.3822  0.0579 -0.2322
  398MPD2    C3 5998   4.026   0.073   0.343  0.6016  0.2797  1.1526
  398MPD2    C4 5999   3.979   0.152   0.243  0.0155  0.2904 -0.2765
  398MPD2    C5 6000   3.922   0.102   0.135 -0.4580  0.3246  0.2352
  398MPD2     H 6001   4.038   4.602   0.409  0.3128 -0.3899 -0.6611
  398MPD2    H1 6002   4.004   0.257   0.242  0.9978  0.0754  1.2095
  398MPD2    H2 6003   3.849   4.660   0.042 -1.2010  1.4872  0.6788
  398MPD2    H3 6004   3.887   0.173   0.060 -2.1313 -0.9866 -0.2419
  398MPD2     N 6005   4.120   0.117   0.443 -0.4255  0.6201  0.6254
  398MPD2    H5 6006   4.141   0.049   0.515 -2.6862 -0.3609  0.3719
  398MPD2    N1 6007   3.930   4.477   0.226 -0.0440  0.4767  0.2173
  398MPD2    H7 6008   3.960   4.433   0.312  0.3254  0.3062  0.0027
  399TMC3    C1 6009   3.897   4.266   0.170  0.4678  0.0887  0.2390
  399TMC3    C2 6010   3.993   4.237   0.267 -0.2594  0.8703 -0.7981
  399TMC3    C3 6011   4.007   4.105   0.301  0.2434  0.2000 -0.4725
  399TMC3    C4 6012   3.813   4.172   0.112  1.1153  0.6742 -0.2519
  399TMC3    C5 6013   3.835   4.049   0.158  0.1871  0.4684  0.2905
  399TMC3    C6 6014   3.921   4.012   0.255  0.5806 -0.0583  0.2492
  399TMC3     C 6015   3.885   4.397   0.122 -0.0713 -0.4068  0.5680
  399TMC3     O 6016   3.859   4.428   0.005 -0.2396  0.3233  0.4056
  399TMC3     H 6017   4.080   4.295   0.294 -0.1037  0.5723 -0.6612
  399TMC3    H1 6018   3.739   4.199   0.038  2.2193  4.1378 -0.0711
  399TMC3    H2 6019   3.923   3.908   0.284 -1.3892 -0.4596 -1.1222
  399TMC3    C7 6020   3.789   3.925   0.090 -0.3609 -0.5310  0.4330
  399TMC3    C8 6021   4.145   4.050   0.328 -0.0889  0.0180  0.6658
  399TMC3    O1 6022   3.765   3.828   0.160 -0.2308  0.0197  0.3434
  399TMC3    O2 6023   4.184   3.948   0.275  0.1185  0.3597 -0.3448
  400TMC3    C1 6024   2.120   2.383  16.853  0.2686 -0.7545  0.4845
  400TMC3    C2 6025   2.010   2.300  16.856  0.1638 -0.0684  0.0893
  400TMC3    C3 6026   1.902   2.332  16.783  0.7332  0.1592  0.0214
  400TMC3    C4 6027   2.114   2.504  16.798 -0.0817  0.4480  0.1159
  400TMC3    C5 6028   1.995   2.534  16.733 -0.7545 -0.6205 -0.5568
  400TMC3    C6 6029   1.895   2.444  16.712  0.2364  0.4318  0.5779
  400TMC3     C 6030   2.249   2.322  16.889 -0.5162 -0.0322  0.1405
  400TMC3     O 6031   2.247   2.205  16.916 -0.3315 -0.4652 -0.1952
  400TMC3     H 6032   2.024   2.195  16.879 -1.7318 -0.5243 -0.8649
  400TMC3    H1 6033   2.188   2.581  16.819 -1.2030  2.2050 -2.3374
  400TMC3    H2 6034   1.802   2.467  16.660  0.0171 -2.1679 -0.1657
  400TMC3    C7 6035   1.982   2.667  16.683  0.2617  0.3858 -0.0726
  400TMC3    C8 6036   1.831   2.219  16.725  0.3778  0.9419 -0.1343
  400TMC3    O1 6037   1.909   2.685  16.585  0.1353 -0.1545  0.0477
  400TMC3    O2 6038   1.814   2.121  16.794  0.3838  0.0342  0.5834
  401MPD2     C 6039   2.168   0.847   0.493  0.3650  0.2059  0.3000
  401MPD2    C1 6040   2.130   0.855   0.622 -0.5162 -0.1180 -0.7493
  401MPD2    C2 6041   2.056   0.748   0.674 -0.3034 -0.0113  0.3761
  401MPD2    C3 6042   2.034   0.632   0.604 -0.0703  0.3713 -0.1292
  401MPD2    C4 6043   2.074   0.627   0.469 -0.6295  0.6631 -0.2271
  401MPD2    C5 6044   2.131   0.738   0.418 -0.3449  0.1666 -0.3458
  401MPD2     H 6045   2.015   0.762   0.773  0.8157  0.4480  0.7659
  401MPD2    H1 6046   2.066   0.542   0.402 -0.9140  0.3404  0.2162
  401MPD2    H2 6047   2.221   0.932   0.451 -1.8636  2.0646  1.2532
  401MPD2    H3 6048   2.153   0.737   0.312  0.3898 -0.3705 -0.1906
  401MPD2     N 6049   1.953   0.544   0.673 -0.5809 -0.3118 -0.2712
  401MPD2    H5 6050   1.912   0.580   0.758  0.4247 -1.2156  0.5887
  401MPD2    N1 6051   2.147   0.972   0.703  0.1630 -0.0630  0.2038
  401MPD2    H7 6052   2.142   0.963   0.804 -0.5761 -0.6694  0.1176
  402TMC3    C1 6053   1.822   0.344   0.693  0.6048 -0.4369  0.4797
  402TMC3    C2 6054   1.750   0.391   0.800 -0.1389 -0.4511  0.3468
  402TMC3    C3 6055   1.660   0.308   0.859 -1.1598 -0.0578  0.1988
  402TMC3    C4 6056   1.788   0.226   0.628  0.7427  0.2256  0.2318
  402TMC3    C5 6057   1.685   0.146   0.681  0.6905 -0.2216 -0.1183
  402TMC3    C6 6058   1.623   0.188   0.800  0.2214  0.5443 -0.0788
  402TMC3     C 6059   1.932   0.417   0.622 -0.4182 -0.4195  0.1508
  402TMC3     O 6060   1.991   0.367   0.527  0.3758 -1.3077 -0.0578
  402TMC3     H 6061   1.775   0.488   0.842  1.1882 -0.6179 -0.0694
  402TMC3    H1 6062   1.841   0.205   0.536 -0.3130  1.9137 -0.7843
  402TMC3    H2 6063   1.536   0.134   0.835  0.6335 -1.0331 -1.5299
  402TMC3    C7 6064   1.623   0.038   0.603  0.2841 -0.9689 -0.7321
  402TMC3    C8 6065   1.609   0.321   0.994  0.2512  0.5030 -0.0089
  402TMC3    O1 6066   1.514   0.004   0.647 -0.1928 -0.1819  0.5998
  402TMC3    O2 6067   1.566   0.219   1.050 -0.0586  0.0515 -0.7949
  403MPD2     C 6068   4.063   4.298  13.479  0.1354  0.2665 -0.2249
  403MPD2    C1 6069   4.163   4.213  13.436 -0.1380  0.4127 -0.2773
  403MPD2    C2 6070   4.288   4.268  13.423  0.0768 -0.0782  0.0230
  403MPD2    C3 6071   4.318   4.397  13.466 -0.1890  0.0801 -0.2618
  403MPD2    C4 6072   4.215   4.482  13.513  0.1124 -0.5882 -0.3547
  403MPD2    C5 6073   4.094   4.429  13.510 -0.2272 -0.6247  0.0616
  403MPD2     H 6074   4.368   4.226  13.362 -0.4383 -0.0682 -0.6669
  403MPD2    H1 6075   4.235   4.582  13.551  1.6464 -1.0756  0.1093
  403MPD2    H2 6076   3.959   4.266  13.485  0.1065  0.5591  0.8116
  403MPD2    H3 6077   4.009   4.481  13.553 -0.3537 -0.7344 -0.0540
  403MPD2     N 6078   4.450   4.436  13.470 -1.0104  0.3607 -0.6681
  403MPD2    H5 6079   4.508   4.358  13.441 -0.8367  0.3448 -0.2711
  403MPD2    N1 6080   4.133   4.085  13.389 -0.5103  0.0329 -0.3140
  403MPD2    H7 6081   4.036   4.056  13.379 -0.4424 -0.3537  0.1639
  404TMC3    C1 6082   4.173   3.872  13.306  0.0393 -0.4283  0.4544
  404TMC3    C2 6083   4.128   3.787  13.406 -0.2626  0.3948 -0.6547
  404TMC3    C3 6084   4.140   3.649  13.388 -0.7763 -0.0855  0.1773
  404TMC3    C4 6085   4.224   3.819  13.192 -0.0325 -0.2277  0.5108
  404TMC3    C5 6086   4.217   3.686  13.165  0.6421 -0.6810  0.5540
  404TMC3    C6 6087   4.175   3.594  13.263  0.2377  0.6695  0.1025
  404TMC3     C 6088   4.220   4.003  13.328 -0.0045  0.3560  0.4282
  404TMC3     O 6089   4.340   4.019  13.296  0.5250  0.6386  0.1785
  404TMC3     H 6090   4.108   3.816  13.508  1.6004 -0.6462  0.0087
  404TMC3    H1 6091   4.258   3.890  13.118 -0.8585  0.8886  1.2058
  404TMC3    H2 6092   4.192   3.487  13.259 -1.8360  0.3612 -0.1363
  404TMC3    C7 6093   4.249   3.643  13.030 -0.3491  0.1076 -0.4679
  404TMC3    C8 6094   4.174   3.564  13.499  0.9070 -0.0809  0.1780
  404TMC3    O1 6095   4.305   3.730  12.960 -0.4913  0.7327 -0.2078
  404TMC3    O2 6096   4.260   3.481  13.488 -0.2239  0.4190 -0.4194
  405MPD2     C 6097   4.501   0.220  14.261 -0.2536  0.6447  0.1715
  405MPD2    C1 6098   4.495   0.112  14.344 -1.0503  0.4875 -0.5142
  405MPD2    C2 6099   4.446   4.733  14.295 -0.8955  0.1747  0.1668
  405MPD2    C3 6100   4.375   4.729  14.174 -0.2697 -0.5592  0.0300
  405MPD2    C4 6101   4.372   0.103  14.093 -0.2541 -0.4431  0.1247
  405MPD2    C5 6102   4.438   0.217  14.138 -0.3056 -0.2373 -0.4340
  405MPD2     H 6103   4.434   4.647  14.360  1.6191 -1.1769 -1.1550
  405MPD2    H1 6104   4.321   0.118  13.999 -0.1819 -1.6751 -0.1121
  405MPD2    H2 6105   4.543   0.313  14.299 -0.2349  1.0912 -0.9345
  405MPD2    H3 6106   4.445   0.305  14.074  0.6646 -0.4857 -0.6723
  405MPD2     N 6107   4.310   4.598  14.146 -0.2920 -0.3923  0.6837
  405MPD2    H5 6108   4.306   4.530  14.222 -1.3218 -0.5680  0.4598
  405MPD2    N1 6109   4.544   0.101  14.481 -0.5487 -0.6485 -0.4551
  405MPD2    H7 6110   4.544   0.010  14.526 -2.9130 -0.0113  0.8575
  406TMC3    C1 6111   4.022   4.292  14.020 -0.6578 -0.1724 -0.1031
  406TMC3    C2 6112   4.073   4.206  14.111 -0.0722  0.5178  0.0264
  406TMC3    C3 6113   4.191   4.235  14.173 -0.1532 -0.2551 -0.3837
  406TMC3    C4 6114   4.080   4.412  13.984 -0.1222 -0.1777  0.2017
  406TMC3    C5 6115   4.204   4.430  14.038 -0.0969 -0.3222  0.2048
  406TMC3    C6 6116   4.257   4.346  14.131  0.4882 -0.3313 -0.1294
  406TMC3     C 6117   3.889   4.258  13.971 -0.1565  0.5917 -0.2481
  406TMC3     O 6118   3.877   4.278  13.852 -0.9768  0.6550 -0.1657
  406TMC3     H 6119   4.013   4.124  14.149  0.7535 -0.9881 -1.8854
  406TMC3    H1 6120   4.030   4.490  13.928 -0.6121 -2.0219 -1.9027
  406TMC3    H2 6121   4.360   4.364  14.161  0.1448  2.6277 -0.7101
  406TMC3    C7 6122   4.253   4.559  14.030 -0.3414  0.3572  0.2595
  406TMC3    C8 6123   4.221   4.169  14.300  1.0378  0.3657  0.1193
  406TMC3    O1 6124   4.232   4.626  13.934  0.5061 -0.3232  0.2388
  406TMC3    O2 6125   4.166   4.064  14.327 -0.0101  0.9903  0.8038
  407MPD2     C 6126   1.966   1.214  10.293  0.7394  0.3017 -0.7586
  407MPD2    C1 6127   1.960   1.307  10.190 -0.0468 -0.2196 -0.4506
  407MPD2    C2 6128   1.970   1.442  10.225  0.1390  0.7752  0.0040
  407MPD2    C3 6129   1.984   1.482  10.354  0.4799  0.0247 -0.4407
  407MPD2    C4 6130   1.981   1.391  10.450 -0.0931  0.0320 -0.8229
  407MPD2    C5 6131   1.980   1.256  10.424  0.1314 -0.5416  0.1394
  407MPD2     H 6132   1.979   1.518  10.148  2.9757  0.5444  0.0902
  407MPD2    H1 6133   1.983   1.426  10.553  1.4322  0.5539 -1.0257
  407MPD2    H2 6134   1.957   1.107  10.282 -3.7819  0.3859  2.1836
  407MPD2    H3 6135   1.982   1.187  10.507  0.4085 -0.1541  0.4557
  407MPD2     N 6136   1.998   1.618  10.396  0.6084 -0.0349  0.4811
  407MPD2    H5 6137   2.007   1.635  10.496 -2.3784  0.5954  0.6394
  407MPD2    N1 6138   1.937   1.272  10.061 -0.3157  0.0106  0.2944
  407MPD2    H7 6139   1.913   1.346   9.996  1.4376  1.8851  1.8110
  408TMC3    C1 6140   1.936   1.142   9.869  0.2816  0.5341 -0.5559
  408TMC3    C2 6141   2.017   1.057   9.798 -0.4765  0.5880 -0.5569
  408TMC3    C3 6142   1.995   1.052   9.662  0.1037 -0.5942  0.2741
  408TMC3    C4 6143   1.845   1.228   9.812 -0.0916 -0.1352 -0.6333
  408TMC3    C5 6144   1.826   1.213   9.679 -0.2084 -0.2646 -0.1324
  408TMC3    C6 6145   1.901   1.130   9.601 -0.0573  0.0163 -0.0916
  408TMC3     C 6146   1.953   1.152  10.012  0.8863 -0.2303  0.1166
  408TMC3     O 6147   2.012   1.051  10.060 -0.1737 -0.3099  0.1275
  408TMC3     H 6148   2.073   0.983   9.855 -0.0322  1.9872  0.8108
  408TMC3    H1 6149   1.776   1.292   9.866  0.8754  1.3589 -1.1648
  408TMC3    H2 6150   1.874   1.121   9.497  1.5913 -2.1636 -0.3063
  408TMC3    C7 6151   1.726   1.296   9.621 -0.4514 -0.1399  0.2506
  408TMC3    C8 6152   2.076   0.967   9.579  0.1500  0.4902 -0.3460
  408TMC3    O1 6153   1.657   1.252   9.527 -0.0940  0.4781  0.1089
  408TMC3    O2 6154   2.027   0.929   9.473  0.2693  0.0587  0.7946
  409MPD2     C 6155   1.233   1.813  16.710 -0.2319 -0.2517 -0.2312
  409MPD2    C1 6156   1.336   1.861  16.790  0.1345 -0.0644 -0.3871
  409MPD2    C2 6157   1.374   1.997  16.778 -0.1656  0.4543  0.2137
  409MPD2    C3 6158   1.312   2.079  16.685 -0.0044  0.1743  0.4758
  409MPD2    C4 6159   1.217   2.028  16.601 -0.4893  0.4037  1.5543
  409MPD2    C5 6160   1.173   1.903  16.619  0.3343 -0.3072 -0.5132
  409MPD2     H 6161   1.459   2.019  16.841  1.5168 -0.0011 -1.9057
  409MPD2    H1 6162   1.177   2.077  16.513  1.1143 -2.1324 -0.5895
  409MPD2    H2 6163   1.196   1.711  16.719 -0.5046 -0.1269  0.0706
  409MPD2    H3 6164   1.086   1.872  16.562 -1.8115  2.3854  1.2990
  409MPD2     N 6165   1.351   2.210  16.668  0.3781  0.5568 -0.4358
  409MPD2    H5 6166   1.296   2.259  16.598 -0.6441  0.5673  0.3812
  409MPD2    N1 6167   1.401   1.784  16.892 -0.1352  0.4596  0.5550
  409MPD2    H7 6168   1.454   1.848  16.951 -0.3726  0.1165  1.1392
  410TMC3    C1 6169   1.462   2.414  16.715 -0.7465 -0.0885  0.1599
  410TMC3    C2 6170   1.496   2.486  16.826 -0.7525  0.3149  0.1885
  410TMC3    C3 6171   1.573   2.598  16.815  0.3920  0.5932 -0.4478
  410TMC3    C4 6172   1.493   2.464  16.587 -0.0117  0.5790  0.1779
  410TMC3    C5 6173   1.565   2.581  16.585  0.0850  0.2140  0.5934
  410TMC3    C6 6174   1.603   2.648  16.695  0.8284  0.5240  0.0455
  410TMC3     C 6175   1.445   2.273  16.743 -0.5271  0.9207  0.7676
  410TMC3     O 6176   1.511   2.240  16.841 -0.0163 -0.0920 -0.0934
  410TMC3     H 6177   1.453   2.455  16.921 -1.0299 -1.3475 -0.4791
  410TMC3    H1 6178   1.466   2.419  16.492 -1.7921  1.3455  0.3042
  410TMC3    H2 6179   1.687   2.716  16.689  0.0346  1.3123 -2.0949
  410TMC3    C7 6180   1.596   2.634  16.456  0.4073  0.0258  0.4079
  410TMC3    C8 6181   1.673   2.615  16.914  0.7715 -0.3752 -0.3318
  410TMC3    O1 6182   1.599   2.553  16.362 -0.1725 -0.2398  0.7913
  410TMC3    O2 6183   1.747   2.712  16.929  0.3277  0.5459 -0.0760
  411MPD2     C 6184   1.960   2.734  14.511  0.2244 -0.5079  0.4655
  411MPD2    C1 6185   1.893   2.741  14.630  0.4952  0.4646  0.2217
  411MPD2    C2 6186   1.803   2.640  14.665 -0.0672 -0.1738 -0.0804
  411MPD2    C3 6187   1.779   2.542  14.568  0.3963  0.0639 -0.0632
  411MPD2    C4 6188   1.853   2.531  14.455  0.0561 -0.6975  0.0437
  411MPD2    C5 6189   1.943   2.625  14.430  0.9580  0.9788 -0.7865
  411MPD2     H 6190   1.739   2.645  14.753  1.4647 -2.0003  1.1505
  411MPD2    H1 6191   1.843   2.453  14.381 -1.0301 -1.6014  1.1334
  411MPD2    H2 6192   2.030   2.812  14.482 -0.5308  1.3147  3.4570
  411MPD2    H3 6193   2.006   2.618  14.342  0.0022 -1.0724 -1.3069
  411MPD2     N 6194   1.673   2.449  14.581 -0.0922  0.7546  0.3394
  411MPD2    H5 6195   1.667   2.379  14.508 -0.5118 -0.2557  1.3448
  411MPD2    N1 6196   1.922   2.849  14.716 -0.3731 -0.3199 -0.3210
  411MPD2    H7 6197   2.008   2.895  14.687 -0.4702 -1.6380 -2.6256
  412TMC3    C1 6198   1.493   2.327  14.677 -0.0127 -0.0297  0.0682
  412TMC3    C2 6199   1.368   2.345  14.724 -0.2995 -0.0882  0.3446
  412TMC3    C3 6200   1.288   2.232  14.743 -0.6071 -0.3476  0.0598
  412TMC3    C4 6201   1.540   2.206  14.648 -0.0917 -0.0089 -0.3442
  412TMC3    C5 6202   1.464   2.094  14.668  0.2248 -0.0645 -0.1755
  412TMC3    C6 6203   1.335   2.107  14.714  0.0000  0.6952 -0.0785
  412TMC3     C 6204   1.585   2.444  14.683  0.5750  0.8898  0.0668
  412TMC3     O 6205   1.552   2.532  14.764 -0.0680 -0.0494  0.2080
  412TMC3     H 6206   1.329   2.444  14.739  0.0740  0.0068  0.7019
  412TMC3    H1 6207   1.632   2.202  14.591 -0.4850 -0.4122 -0.9518
  412TMC3    H2 6208   1.271   2.021  14.732 -0.2908  0.9985  0.3283
  412TMC3    C7 6209   1.474   2.004  14.555 -0.2918 -0.3900 -0.3967
  412TMC3    C8 6210   1.168   2.243  14.669 -0.9807 -0.2211  0.9691
  412TMC3    O1 6211   1.584   1.960  14.520 -0.2855  0.3383  0.1578
  412TMC3    O2 6212   1.139   2.141  14.607  0.0787  0.0226  0.2408
  413MPD2     C 6213   3.354   0.823  15.834 -0.0072 -0.5039  0.9443
  413MPD2    C1 6214   3.281   0.750  15.744 -0.3120  0.2082  0.6633
  413MPD2    C2 6215   3.344   0.660  15.653  0.4011  0.2277 -0.0906
  413MPD2    C3 6216   3.485   0.653  15.650  0.2285  0.6635  0.6264
  413MPD2    C4 6217   3.551   0.711  15.752  0.4047 -0.2171 -0.3011
  413MPD2    C5 6218   3.490   0.794  15.842 -0.0079 -1.0039  0.2214
  413MPD2     H 6219   3.279   0.606  15.585  0.0174 -0.5311  0.8797
  413MPD2    H1 6220   3.658   0.698  15.756  0.3699 -0.7395 -0.9727
  413MPD2    H2 6221   3.313   0.892  15.906  0.1045  0.1002  0.4260
  413MPD2    H3 6222   3.555   0.830  15.921 -1.0160 -1.5342  1.2930
  413MPD2     N 6223   3.561   0.593  15.549  0.2355 -0.0663 -0.1159
  413MPD2    H5 6224   3.663   0.597  15.551  0.1410  0.5548  3.2375
  413MPD2    N1 6225   3.140   0.778  15.747 -0.5522  0.2061 -0.0099
  413MPD2    H7 6226   3.101   0.846  15.811 -1.1291  0.3315 -0.4922
  414TMC3    C1 6227   3.602   0.454  15.360 -0.3404 -0.5353 -0.0166
  414TMC3    C2 6228   3.557   0.340  15.290 -0.2365  0.3964 -0.4417
  414TMC3    C3 6229   3.650   0.284  15.208 -0.0094  0.6497  0.1565
  414TMC3    C4 6230   3.724   0.512  15.338  0.2217  0.5850 -0.2042
  414TMC3    C5 6231   3.813   0.445  15.256  0.5558  0.9368  0.3834
  414TMC3    C6 6232   3.776   0.333  15.184 -0.1041  0.1732 -0.3522
  414TMC3     C 6233   3.510   0.526  15.442 -0.0283 -0.7648 -0.0755
  414TMC3     O 6234   3.395   0.489  15.423 -0.0126 -0.5723 -0.2042
  414TMC3     H 6235   3.461   0.302  15.322  0.6541  0.0319  1.7401
  414TMC3    H1 6236   3.755   0.606  15.384 -2.8277  0.8517  1.3155
  414TMC3    H2 6237   3.855   0.271  15.143  0.0841  1.4342 -1.9014
  414TMC3    C7 6238   3.942   0.495  15.233  0.1112  0.3871  0.0520
  414TMC3    C8 6239   3.614   0.152  15.166 -0.5818  0.1119  0.2498
  414TMC3    O1 6240   3.980   0.572  15.320 -0.1604  0.1167  0.1968
  414TMC3    O2 6241   3.527   0.105  15.240 -0.1248 -0.2308 -0.0421
  415TMC3    C1 6242   4.054   3.301  10.380 -0.0385 -0.2059 -0.1741
  415TMC3    C2 6243   4.052   3.428  10.339 -0.0546  0.5039 -0.0723
  415TMC3    C3 6244   3.956   3.472  10.250 -0.2968  0.2710 -0.0152
  415TMC3    C4 6245   3.968   3.213  10.321 -0.0878 -0.1021  0.1359
  415TMC3    C5 6246   3.871   3.262  10.233 -0.0920 -0.7005 -0.8746
  415TMC3    C6 6247   3.864   3.393  10.196  0.8134 -0.2057 -0.0017
  415TMC3     C 6248   4.135   3.240  10.489  0.3700  0.2514  0.2650
  415TMC3     O 6249   4.125   3.118  10.500  0.0013 -0.1574 -0.1017
  415TMC3     H 6250   4.130   3.497  10.368  1.8759 -0.8640 -1.9797
  415TMC3    H1 6251   3.974   3.108  10.344 -3.5951 -0.8103 -2.1508
  415TMC3    H2 6252   3.789   3.434  10.129  0.4841 -3.2814 -1.5512
  415TMC3    C7 6253   3.784   3.176  10.166  0.2843  0.1389 -0.1308
  415TMC3    C8 6254   3.920   3.609  10.258 -0.2362 -0.1308 -0.0014
  415TMC3    O1 6255   3.757   3.209  10.050  0.3377 -0.1567 -0.2698
  415TMC3    O2 6256   3.798   3.634  10.271  0.3257 -0.9491  0.3141
  416MPD2     C 6257   1.291   2.563  11.748  1.1661 -0.2538  0.8299
  416MPD2    C1 6258   1.188   2.475  11.737 -0.1307 -0.3165  0.1647
  416MPD2    C2 6259   1.207   2.365  11.653 -0.1760 -0.8343 -0.2004
  416MPD2    C3 6260   1.312   2.355  11.564  0.0475 -0.5173  0.1728
  416MPD2    C4 6261   1.418   2.447  11.583  0.4850 -0.3182  0.7778
  416MPD2    C5 6262   1.405   2.546  11.674 -0.3994 -0.1124 -0.3025
  416MPD2     H 6263   1.131   2.288  11.652  0.1108 -1.1327  0.9192
  416MPD2    H1 6264   1.508   2.448  11.523  0.3522 -2.4853  0.5607
  416MPD2    H2 6265   1.285   2.660  11.797  0.2239  1.2483 -2.2593
  416MPD2    H3 6266   1.474   2.629  11.673 -1.2837  0.6633  2.5871
  416MPD2     N 6267   1.324   2.249  11.470  0.1680 -0.0427 -0.2567
  416MPD2    H5 6268   1.261   2.170  11.482  0.2197  0.1668  1.3373
  416MPD2    N1 6269   1.062   2.500  11.808  0.1900 -0.2881 -0.2533
  416MPD2    H7 6270   1.058   2.574  11.877  0.7990 -1.3654  0.9119
  417TMC3    C1 6271   0.846   2.487  11.874 -0.6773 -0.5009  0.1252
  417TMC3    C2 6272   0.899   2.521  11.996  0.2317  0.0733 -0.2457
  417TMC3    C3 6273   0.842   2.632  12.056  0.1133 -0.1908 -0.2370
  417TMC3    C4 6274   0.735   2.549  11.825  0.5283 -0.4034  0.6149
  417TMC3    C5 6275   0.683   2.666  11.880  0.9699 -0.0131  0.6857
  417TMC3    C6 6276   0.730   2.691  12.006  0.0387 -0.2575 -0.1082
  417TMC3     C 6277   0.945   2.439  11.781  0.3117 -0.0683 -0.1400
  417TMC3     O 6278   0.916   2.360  11.695 -0.2483  0.1994 -0.1758
  417TMC3     H 6279   0.990   2.481  12.038  0.7776  1.8722  0.2920
  417TMC3    H1 6280   0.699   2.527  11.725 -2.0678 -0.9191  1.6621
  417TMC3    H2 6281   0.697   2.780  12.058  2.4083 -0.3829  1.5950
  417TMC3    C7 6282   0.609   2.761  11.804 -0.3605 -0.5969  0.1931
  417TMC3    C8 6283   0.862   2.640  12.197 -0.0092  0.4873  0.1341
  417TMC3    O1 6284   0.630   2.764  11.683  0.4638  0.3111  0.2848
  417TMC3    O2 6285   0.866   2.753  12.242  0.4837 -0.0298  0.5276
  418TMC3    C1 6286   4.511   0.310   0.610 -0.3020  0.1979 -0.5591
  418TMC3    C2 6287   4.399   0.330   0.529 -0.0844  0.6994  0.1370
  418TMC3    C3 6288   4.304   0.232   0.540 -1.3323 -0.0570  0.3490
  418TMC3    C4 6289   4.528   0.226   0.707 -0.5598 -0.3551  0.1224
  418TMC3    C5 6290   4.437   0.126   0.699 -0.6204 -0.3402 -0.0097
  418TMC3    C6 6291   4.332   0.121   0.614 -0.2445  0.5239  0.1226
  418TMC3     C 6292   4.618   0.395   0.573  0.3394  0.4913  0.0595
  418TMC3     O 6293   4.589   0.509   0.540  0.2585 -0.5168 -0.2194
  418TMC3     H 6294   4.397   0.407   0.453  2.0061  0.3149 -0.3284
  418TMC3    H1 6295   4.617   0.216   0.768  0.4240  2.0113 -0.9183
  418TMC3    H2 6296   4.262   0.040   0.630 -1.9969  1.9667 -0.1607
  418TMC3    C7 6297   4.455   0.005   0.774 -0.3711  0.2289  0.6502
  418TMC3    C8 6298   4.195   0.231   0.440  0.4607 -0.4169  0.1403
  418TMC3    O1 6299   4.423   4.640   0.722 -0.0800 -0.3757 -0.1686
  418TMC3    O2 6300   4.192   0.320   0.355  0.3930  0.2356 -0.5556
  419MPD2     C 6301   3.335   2.328  13.207  0.1216  0.4652  0.8427
  419MPD2    C1 6302   3.229   2.411  13.231  0.9586 -0.3901 -0.7503
  419MPD2    C2 6303   3.242   2.515  13.311 -0.5656 -0.3791 -0.1802
  419MPD2    C3 6304   3.356   2.536  13.385 -0.1690  0.7296  0.1434
  419MPD2    C4 6305   3.459   2.445  13.372  0.3221  1.1457  0.3126
  419MPD2    C5 6306   3.451   2.350  13.271 -0.6982 -0.5426  0.2710
  419MPD2     H 6307   3.156   2.580  13.326  0.4392  0.9012  0.0579
  419MPD2    H1 6308   3.544   2.446  13.439  1.2561 -0.5500 -0.8505
  419MPD2    H2 6309   3.329   2.244  13.139  0.4306  0.0536  1.3300
  419MPD2    H3 6310   3.532   2.278  13.264  0.4606  0.7340  0.5809
  419MPD2     N 6311   3.347   2.655  13.465 -0.0251 -0.9303  0.1613
  419MPD2    H5 6312   3.262   2.710  13.464  1.3994  1.2712 -1.1019
  419MPD2    N1 6313   3.107   2.404  13.156  0.3312 -0.8802  0.0282
  419MPD2    H7 6314   3.038   2.472  13.186  0.7268 -0.9054  0.9885
  420TMC3    C1 6315   3.399   2.801  13.632 -0.0452  0.8392 -0.3457
  420TMC3    C2 6316   3.396   2.932  13.598  0.4822  0.3245  0.0543
  420TMC3    C3 6317   3.290   3.009  13.623  0.3928 -0.0809  0.6574
  420TMC3    C4 6318   3.289   2.745  13.684 -0.3916  0.1876 -0.6922
  420TMC3    C5 6319   3.178   2.820  13.704  0.5349  0.3894  0.9248
  420TMC3    C6 6320   3.174   2.962  13.673 -0.2750 -0.6029 -0.0887
  420TMC3     C 6321   3.452   2.708  13.537  0.4123  0.3828  0.4259
  420TMC3     O 6322   3.563   2.662  13.552 -0.3363  0.1779 -0.6745
  420TMC3     H 6323   3.484   2.959  13.539 -1.5363  1.7251 -2.3456
  420TMC3    H1 6324   3.295   2.638  13.704  1.6506  0.5171  0.4727
  420TMC3    H2 6325   3.093   3.030  13.697 -1.2475 -1.3841 -1.1479
  420TMC3    C7 6326   3.058   2.742  13.706  0.2390 -0.0746  0.4906
  420TMC3    C8 6327   3.289   3.148  13.587 -0.0384 -0.7856 -0.0232
  420TMC3    O1 6328   3.073   2.642  13.776 -0.7052  0.8051  0.5475
  420TMC3    O2 6329   3.185   3.208  13.578  0.0123 -0.4956 -0.3477
  421TMC3    C1 6330   4.643   4.559  13.519  0.8071  0.2698  0.3707
  421TMC3    C2 6331   4.683   4.637  13.626  0.0301  0.4019 -0.2339
  421TMC3    C3 6332   0.072   4.645  13.657  1.2715 -0.1009 -0.2668
  421TMC3    C4 6333   4.723   4.472  13.462  0.4065  0.2335  0.2302
  421TMC3    C5 6334   0.116   4.467  13.509  0.4841  0.3433 -0.3300
  421TMC3    C6 6335   0.164   4.557  13.603  0.0194  0.6673 -0.8320
  421TMC3     C 6336   4.501   4.560  13.498  0.0237 -0.0119 -0.3028
  421TMC3     O 6337   4.438   4.657  13.533 -0.8715 -0.3896 -0.3543
  421TMC3     H 6338   4.616   4.709  13.672 -0.6338 -0.3555 -0.0218
  421TMC3    H1 6339   4.693   4.397  13.390 -1.1982  0.0960  1.0514
  421TMC3    H2 6340   0.262   4.557  13.648 -0.5161 -2.3599  0.2905
  421TMC3    C7 6341   0.183   4.345  13.484 -0.2794  0.5363 -0.5001
  421TMC3    C8 6342   0.104   4.690  13.788 -0.5672 -0.0236 -0.4939
  421TMC3    O1 6343   0.114   4.243  13.459 -0.0652 -0.4069 -0.4017
  421TMC3    O2 6344   0.209   0.012  13.805  0.0611  0.1235  0.1584
  422TMC3    C1 6345   2.077   0.628  12.728  0.0320 -0.6314 -0.8367
  422TMC3    C2 6346   2.076   0.764  12.731 -0.2641  0.1103 -0.6111
  422TMC3    C3 6347   1.956   0.817  12.776  0.2412  0.2299 -0.7307
  422TMC3    C4 6348   1.973   0.545  12.760 -0.4652  0.7200 -0.6937
  422TMC3    C5 6349   1.854   0.602  12.800  0.1783 -0.3114 -0.1613
  422TMC3    C6 6350   1.843   0.741  12.811 -0.2472  0.5277 -0.5194
  422TMC3     C 6351   2.207   0.569  12.688 -0.0534  0.1877 -0.8408
  422TMC3     O 6352   2.264   0.628  12.597 -0.6984 -0.9220 -0.0457
  422TMC3     H 6353   2.164   0.821  12.703  0.9396 -0.4690  1.9581
  422TMC3    H1 6354   1.982   0.437  12.750 -2.7784  0.3526  1.0976
  422TMC3    H2 6355   1.761   0.796  12.856 -0.4654 -0.5014  0.3388
  422TMC3    C7 6356   1.740   0.511  12.796 -0.4308  0.6506 -0.3860
  422TMC3    C8 6357   1.961   0.960  12.778  0.3422  0.0137  0.4253
  422TMC3    O1 6358   1.762   0.402  12.747  0.5217  0.0646  0.0915
  422TMC3    O2 6359   2.068   1.020  12.780 -0.3803  0.2400  0.1322
  423MPD2     C 6360   2.431   1.970   0.761  0.0201 -0.3601  0.0078
  423MPD2    C1 6361   2.570   1.970   0.772 -0.3416  0.4032  0.8530
  423MPD2    C2 6362   2.642   1.903   0.671 -0.4780 -0.3672  0.3122
  423MPD2    C3 6363   2.576   1.839   0.571  0.2835  0.3769 -0.4371
  423MPD2    C4 6364   2.437   1.851   0.550 -0.1961  0.4753  0.0665
  423MPD2    C5 6365   2.369   1.913   0.656  0.4228 -0.4018 -0.1095
  423MPD2     H 6366   2.750   1.895   0.680 -0.3349  2.6188  1.1541
  423MPD2    H1 6367   2.379   1.797   0.476  0.0310  3.3393 -2.1844
  423MPD2    H2 6368   2.375   2.020   0.839  1.0391 -0.1131  0.5744
  423MPD2    H3 6369   2.261   1.924   0.649  0.4965  0.6375  0.3752
  423MPD2     N 6370   2.647   1.759   0.477 -0.0803 -0.0037 -0.2986
  423MPD2    H5 6371   2.586   1.711   0.411  1.6981 -1.3467 -0.9481
  423MPD2    N1 6372   2.637   2.035   0.873 -0.0232  0.2234  0.2105
  423MPD2    H7 6373   2.737   2.019   0.868 -0.1174  0.2418 -1.9854
  424TMC3    C1 6374   2.665   2.203   1.049 -0.4697 -0.4209 -0.0794
  424TMC3    C2 6375   2.763   2.126   1.109 -0.3434 -0.3381 -0.2703
  424TMC3    C3 6376   2.851   2.201   1.181  0.2119 -0.1311  0.8920
  424TMC3    C4 6377   2.643   2.337   1.060 -0.1320  0.1744  0.0533
  424TMC3    C5 6378   2.734   2.402   1.141  0.3778 -0.6144  0.0845
  424TMC3    C6 6379   2.840   2.337   1.199 -0.2764  0.1574  0.0218
  424TMC3     C 6380   2.579   2.133   0.956  0.3383  0.1516 -0.2247
  424TMC3     O 6381   2.474   2.197   0.927  0.2846  0.1939 -0.0295
  424TMC3     H 6382   2.751   2.019   1.116  0.0977 -0.3959 -0.4722
  424TMC3    H1 6383   2.558   2.385   1.013  0.4024  0.5112 -0.5674
  424TMC3    H2 6384   2.921   2.392   1.246  0.1536  0.3994 -1.0016
  424TMC3    C7 6385   2.700   2.531   1.198  0.4782  0.6973  0.9636
  424TMC3    C8 6386   2.965   2.134   1.236  0.0912 -0.5134  0.0485
  424TMC3    O1 6387   2.787   2.583   1.263 -0.2413 -0.0674 -0.2707
  424TMC3    O2 6388   2.949   2.016   1.271 -0.0305 -0.0782 -0.2606
  425MPD2     C 6389   2.261   1.097  17.159  0.0997 -0.0935  0.0515
  425MPD2    C1 6390   2.174   0.987  17.150 -0.4271 -0.3344 -0.1958
  425MPD2    C2 6391   2.045   0.998  17.190  0.5373 -0.5481 -0.0485
  425MPD2    C3 6392   1.988   1.113  17.238  0.4239 -0.1330  0.0913
  425MPD2    C4 6393   2.063   1.231  17.248 -0.0614  0.0219 -0.6553
  425MPD2    C5 6394   2.198   1.216  17.208 -0.0597 -0.2015 -0.1729
  425MPD2     H 6395   1.981   0.913  17.171  1.9323 -1.3231 -1.2900
  425MPD2    H1 6396   2.030   1.328  17.284  0.3255 -0.6872  1.6268
  425MPD2    H2 6397   2.368   1.108  17.146  0.3401 -1.3474  1.0819
  425MPD2    H3 6398   2.268   1.297  17.227 -0.0020 -0.2203 -0.3063
  425MPD2     N 6399   1.848   1.110  17.266  0.0409  0.0770  0.1939
  425MPD2    H5 6400   1.809   1.018  17.248  2.6059 -0.9327 -0.1774
  425MPD2    N1 6401   2.234   0.868  17.097  0.4369 -0.9731  0.2227
  425MPD2    H7 6402   2.328   0.889  17.065  0.1204  0.8673  0.4717
  426TMC3    C1 6403   2.244   0.644  17.003  0.2129  0.0804  0.3194
  426TMC3    C2 6404   2.187   0.540  16.931  0.8216  0.7567  0.0061
  426TMC3    C3 6405   2.259   0.430  16.899  0.5514  0.3483  0.1577
  426TMC3    C4 6406   2.365   0.620  17.065  0.1985  0.3659  0.2210
  426TMC3    C5 6407   2.427   0.499  17.053  0.0182 -0.1373  0.3832
  426TMC3    C6 6408   2.381   0.407  16.961 -0.1011  0.0584  0.3866
  426TMC3     C 6409   2.163   0.749  17.064 -0.4844 -0.3089 -0.0340
  426TMC3     O 6410   2.044   0.724  17.051  0.2492 -0.2631  0.0110
  426TMC3     H 6411   2.091   0.569  16.890  1.1802  0.6271 -0.9230
  426TMC3    H1 6412   2.399   0.691  17.139 -1.3598 -1.4379  2.6785
  426TMC3    H2 6413   2.435   0.316  16.935 -2.5149 -0.8533 -1.4776
  426TMC3    C7 6414   2.498   0.457  17.172 -0.3001  1.0428  0.2051
  426TMC3    C8 6415   2.197   0.319  16.831  0.2431  0.0426  0.1231
  426TMC3    O1 6416   2.517   0.541  17.260  0.8092  0.6250 -0.6584
  426TMC3    O2 6417   2.272   0.223  16.815 -0.1849  0.3081  0.6061
  427MPD2     C 6418   1.013   2.843  14.905 -0.0198 -0.0624  0.3179
  427MPD2    C1 6419   0.974   2.888  15.028  0.3758 -0.1448 -0.2082
  427MPD2    C2 6420   0.850   2.952  15.041 -0.2619  0.1612  0.1755
  427MPD2    C3 6421   0.764   2.954  14.930  0.0265 -0.2545  0.0148
  427MPD2    C4 6422   0.808   2.906  14.810 -0.8563 -0.5829 -0.0210
  427MPD2    C5 6423   0.934   2.864  14.792 -0.2148 -0.5534 -0.1357
  427MPD2     H 6424   0.814   2.989  15.136 -1.9030 -0.4241 -0.2271
  427MPD2    H1 6425   0.742   2.911  14.723 -1.0506  0.4616  0.1799
  427MPD2    H2 6426   1.108   2.801  14.873 -0.1352  0.7480 -1.1001
  427MPD2    H3 6427   0.965   2.845  14.690 -2.3102 -0.1260 -0.8482
  427MPD2     N 6428   0.630   3.002  14.934  0.4057 -0.7828 -0.0957
  427MPD2    H5 6429   0.587   3.008  14.843  2.7890  2.4460 -1.0161
  427MPD2    N1 6430   1.039   2.855  15.148 -0.0722 -0.0146 -0.4769
  427MPD2    H7 6431   0.994   2.874  15.237  1.7686  0.1368  0.4119
  428TMC3    C1 6432   1.178   2.742  15.292 -0.0491  0.5822  0.1375
  428TMC3    C2 6433   1.062   2.704  15.361  0.2348  0.3907 -0.5810
  428TMC3    C3 6434   1.069   2.693  15.499 -0.2321 -0.3265 -0.1126
  428TMC3    C4 6435   1.294   2.783  15.357  0.1924 -0.6042 -0.2746
  428TMC3    C5 6436   1.289   2.786  15.494 -0.1654 -0.8828 -0.1666
  428TMC3    C6 6437   1.185   2.728  15.564  0.5965  0.0931 -0.0584
  428TMC3     C 6438   1.161   2.793  15.160 -0.2015  0.6531 -0.1366
  428TMC3     O 6439   1.248   2.780  15.080  0.2928  0.6535  0.4357
  428TMC3     H 6440   0.987   2.643  15.313  2.2496 -2.4466 -0.1431
  428TMC3    H1 6441   1.367   2.836  15.297  0.4132 -0.2251  0.3350
  428TMC3    H2 6442   1.183   2.719  15.672  2.0482 -1.6691 -0.1891
  428TMC3    C7 6443   1.388   2.856  15.570  0.4611 -0.1968 -0.4690
  428TMC3    C8 6444   0.980   2.605  15.567 -0.2059 -0.2615  0.2234
  428TMC3    O1 6445   1.370   2.858  15.690 -0.3130  0.5410 -0.2417
  428TMC3    O2 6446   1.026   2.555  15.666  0.4967  0.3773 -0.5694
  429MPD2     C 6447   1.716   2.901  17.699 -0.5134 -0.6180  0.6397
  429MPD2    C1 6448   1.816   2.844  17.628 -0.1082  0.3840  0.0873
  429MPD2    C2 6449   1.901   2.929  17.553  0.2013  0.4120 -0.8810
  429MPD2    C3 6450   1.894   3.063  17.571 -0.3835 -0.0189 -0.0827
  429MPD2    C4 6451   1.799   3.123  17.651 -0.2420 -1.1097  0.0182
  429MPD2    C5 6452   1.704   3.037  17.712  0.1658  0.3189 -0.5411
  429MPD2     H 6453   1.973   2.889  17.482 -2.0237 -3.0513 -1.1769
  429MPD2    H1 6454   1.797   3.231  17.654 -0.5673 -1.1382  0.8966
  429MPD2    H2 6455   1.656   2.834   0.007 -0.1272 -0.6670  0.9550
  429MPD2    H3 6456   1.629   3.079   0.024 -0.5518 -0.6940 -0.7057
  429MPD2     N 6457   1.988   3.139  17.488  0.6492 -0.4076  0.0526
  429MPD2    H5 6458   2.043   3.084  17.424  0.2309  0.1992 -0.8237
  429MPD2    N1 6459   1.836   2.704  17.637  0.4027  0.5175 -0.2181
  429MPD2    H7 6460   1.775   2.640  17.687 -0.1451  1.3152  0.1354
  430TMC3    C1 6461   2.074   3.309  17.356 -0.0785  0.2314  0.2275
  430TMC3    C2 6462   2.042   3.426  17.291 -0.4501 -0.6228 -0.2057
  430TMC3    C3 6463   2.107   3.460  17.179 -0.2021  0.5348 -0.6337
  430TMC3    C4 6464   2.168   3.220  17.301 -0.9271  0.1557  0.2420
  430TMC3    C5 6465   2.223   3.252  17.178 -0.2148 -0.1706  0.6053
  430TMC3    C6 6466   2.208   3.380  17.124 -0.3166  0.5802  0.1061
  430TMC3     C 6467   1.988   3.282  17.476 -0.4350  0.1400  0.1456
  430TMC3     O 6468   1.922   3.368  17.529  0.0607  0.2835  0.2803
  430TMC3     H 6469   1.957   3.486  17.320 -0.5336 -0.2448 -1.2304
  430TMC3    H1 6470   2.196   3.122  17.337 -1.2842  0.4631  1.3353
  430TMC3    H2 6471   2.250   3.408  17.028 -0.0700 -0.7351 -0.1759
  430TMC3    C7 6472   2.191   3.144  17.083  0.4827 -0.1679 -0.9880
  430TMC3    C8 6473   2.018   3.521  17.080 -0.1315 -0.3279 -0.1017
  430TMC3    O1 6474   2.219   3.031  17.122 -0.2539  0.5363  0.0683
  430TMC3    O2 6475   2.015   3.457  16.975 -0.7406  0.1577 -0.2818
  431MPD2     C 6476   3.087   3.116  12.952 -0.1967  0.2931  0.6886
  431MPD2    C1 6477   3.111   3.046  12.831  0.2462  0.6757 -0.1208
  431MPD2    C2 6478   3.042   2.924  12.820 -0.5144  0.9209 -0.1423
  431MPD2    C3 6479   2.958   2.871  12.917 -0.5572 -0.0739  0.1552
  431MPD2    C4 6480   2.930   2.951  13.025 -0.1287  0.6083  0.0702
  431MPD2    C5 6481   2.995   3.074  13.039  0.2260 -0.6794  0.1127
  431MPD2     H 6482   3.061   2.868  12.728 -1.8971  1.3767 -0.7013
  431MPD2    H1 6483   2.876   2.914  13.111  2.0653  0.4086  1.3569
  431MPD2    H2 6484   3.151   3.200  12.973 -1.3835  1.3852 -0.0803
  431MPD2    H3 6485   2.990   3.133  13.130  1.4050 -0.4140  0.0004
  431MPD2     N 6486   2.901   2.742  12.918  0.2740 -1.0582 -0.0287
  431MPD2    H5 6487   2.874   2.709  13.010  0.2355  0.9522  0.6913
  431MPD2    N1 6488   3.214   3.080  12.746  0.0686  0.2950 -0.0724
  431MPD2    H7 6489   3.241   3.004  12.685  0.6736 -1.5626  2.5141
  432TMC3    C1 6490   2.870   2.523  12.853  0.1952  0.0111  0.0737
  432TMC3    C2 6491   2.824   2.445  12.751 -0.4413 -0.9243 -0.7630
  432TMC3    C3 6492   2.846   2.315  12.771 -0.0578  0.3880 -0.9224
  432TMC3    C4 6493   2.929   2.474  12.968  0.2277  0.2355  0.5852
  432TMC3    C5 6494   2.960   2.340  12.974 -0.4102 -0.3179 -0.4301
  432TMC3    C6 6495   2.929   2.262  12.867  0.3192  0.5395  0.0132
  432TMC3     C 6496   2.905   2.656  12.818 -0.6277  0.1505 -0.5680
  432TMC3     O 6497   2.937   2.671  12.700 -0.1355 -0.3110 -0.3996
  432TMC3     H 6498   2.768   2.492  12.672 -1.5150 -1.0478 -0.0816
  432TMC3    H1 6499   2.968   2.548  13.037  0.4888  0.2312  0.4435
  432TMC3    H2 6500   2.963   2.160  12.865 -0.2961  0.3188  0.9224
  432TMC3    C7 6501   3.083   2.314  13.051 -0.6595  0.0986  0.0033
  432TMC3    C8 6502   2.878   2.258  12.643  0.5630  0.0286 -0.0094
  432TMC3    O1 6503   3.147   2.215  13.020  0.2234 -0.1040  0.3002
  432TMC3    O2 6504   2.872   2.136  12.633  0.1377  0.1057  0.5948
  433MPD2     C 6505   1.923   1.423  10.863  0.3695  0.9449 -0.0607
  433MPD2    C1 6506   2.043   1.371  10.915  0.1885  0.6065 -0.0788
  433MPD2    C2 6507   2.061   1.395  11.049  0.2241  0.1703  0.6164
  433MPD2    C3 6508   1.979   1.471  11.129 -0.1273  0.2534 -0.2685
  433MPD2    C4 6509   1.864   1.525  11.077  0.1060  0.1408 -0.4073
  433MPD2    C5 6510   1.839   1.498  10.946  0.1772 -0.1674 -0.4925
  433MPD2     H 6511   2.147   1.353  11.100  1.3430  0.5391 -0.9632
  433MPD2    H1 6512   1.801   1.586  11.140 -1.2685  1.2142 -2.8444
  433MPD2    H2 6513   1.892   1.404  10.761 -1.5799 -0.1542  0.7363
  433MPD2    H3 6514   1.747   1.536  10.902 -0.3121 -1.1794 -0.3603
  433MPD2     N 6515   2.034   1.491  11.257 -0.0682 -0.1799 -0.3746
  433MPD2    H5 6516   2.103   1.429  11.298  1.4440  1.0755 -1.0202
  433MPD2    N1 6517   2.138   1.311  10.823  0.1095 -0.2560 -0.5153
  433MPD2    H7 6518   2.114   1.303  10.725  0.4824 -0.5377 -0.5850
  434TMC3    C1 6519   2.319   1.171  10.762 -0.7191 -0.1069 -0.3201
  434TMC3    C2 6520   2.437   1.117  10.801  0.0067  0.5515  0.8703
  434TMC3    C3 6521   2.478   0.998  10.750 -0.8264  0.1570 -0.1510
  434TMC3    C4 6522   2.240   1.111  10.670  0.2481  0.5667  0.0788
  434TMC3    C5 6523   2.280   0.991  10.628  0.3634 -0.1477  0.2200
  434TMC3    C6 6524   2.402   0.930  10.658 -0.2216 -0.0452  0.7292
  434TMC3     C 6525   2.256   1.260  10.858 -0.3003  0.5094 -0.3061
  434TMC3     O 6526   2.306   1.270  10.965  0.1846  0.4830 -0.1306
  434TMC3     H 6527   2.503   1.174  10.865 -0.6352  2.3427 -0.0610
  434TMC3    H1 6528   2.137   1.144  10.659  0.5156  1.0955 -0.8990
  434TMC3    H2 6529   2.448   0.842  10.613 -2.8592 -1.7232  1.2549
  434TMC3    C7 6530   2.186   0.921  10.538  0.1408 -0.0090 -0.2005
  434TMC3    C8 6531   2.617   0.944  10.764  0.1352  0.3874 -0.0794
  434TMC3    O1 6532   2.086   0.977  10.500 -0.2190  0.1199  0.5837
  434TMC3    O2 6533   2.680   0.922  10.662  0.0606 -0.4912 -0.7734
  435MPD2     C 6534   3.798   1.987  15.462 -0.5266  1.0285  0.3065
  435MPD2    C1 6535   3.737   1.991  15.586  0.0629  0.3090 -0.7864
  435MPD2    C2 6536   3.787   1.918  15.698  0.9159  0.2186 -0.2718
  435MPD2    C3 6537   3.907   1.850  15.691 -0.6798 -0.4907  0.0907
  435MPD2    C4 6538   3.960   1.842  15.562 -0.3885  0.6000 -0.2943
  435MPD2    C5 6539   3.903   1.908  15.453  0.4734 -0.0155 -0.0374
  435MPD2     H 6540   3.733   1.919  15.791  1.2832  0.8418 -0.0637
  435MPD2    H1 6541   4.040   1.774  15.536  0.2449  2.5939 -3.5041
  435MPD2    H2 6542   3.768   2.044  15.374  1.5870 -0.6519 -1.4856
  435MPD2    H3 6543   3.953   1.896  15.358  0.3154 -0.1225 -0.1074
  435MPD2     N 6544   3.959   1.776  15.806  0.5670  0.2885 -0.4792
  435MPD2    H5 6545   3.898   1.781  15.888 -0.3504  0.3660 -1.1722
  435MPD2    N1 6546   3.620   2.073  15.605 -0.1480 -0.0353  0.1105
  435MPD2    H7 6547   3.583   2.066  15.700  0.2227 -1.3235  0.1704
  436TMC3    C1 6548   3.273   2.191  15.758 -0.6185  0.2517 -0.2833
  436TMC3    C2 6549   3.369   2.129  15.683  0.0738 -0.2898  0.5235
  436TMC3    C3 6550   3.444   2.208  15.601  0.1550  0.2967  0.0783
  436TMC3    C4 6551   3.248   2.325  15.753  0.1584  0.6003 -0.1045
  436TMC3    C5 6552   3.333   2.392  15.673  1.0724 -0.2762 -0.1663
  436TMC3    C6 6553   3.429   2.339  15.592  0.3447 -0.2500  0.0281
  436TMC3     C 6554   3.176   2.102  15.815  0.0363 -0.0017 -0.1299
  436TMC3     O 6555   3.153   1.999  15.751  0.1918  0.2729  0.0127
  436TMC3     H 6556   3.382   2.021  15.681 -1.4592 -0.4670  0.1219
  436TMC3    H1 6557   3.176   2.388  15.803 -0.2897  1.3458 -1.7010
  436TMC3    H2 6558   3.490   2.397  15.524 -0.5271  1.2096  0.4894
  436TMC3    C7 6559   3.319   2.539  15.661 -0.3605 -0.4106 -0.1686
  436TMC3    C8 6560   3.548   2.150  15.520  0.6762  0.2681 -0.2827
  436TMC3    O1 6561   3.287   2.603  15.762 -0.8796  0.0638  0.5065
  436TMC3    O2 6562   3.567   2.175  15.403 -0.0800  0.3051 -0.1444
  437TMC3    C1 6563   2.660   3.785  12.900  0.2519  0.2952  0.0537
  437TMC3    C2 6564   2.540   3.730  12.930  0.7763  0.4906 -0.3745
  437TMC3    C3 6565   2.448   3.726  12.827 -0.2697  0.4847  0.1280
  437TMC3    C4 6566   2.683   3.855  12.789 -0.7070  0.0526  0.3161
  437TMC3    C5 6567   2.588   3.852  12.687  0.8899 -0.1889 -0.6306
  437TMC3    C6 6568   2.475   3.785  12.705 -0.0510 -0.4498 -0.1660
  437TMC3     C 6569   2.756   3.774  13.007 -0.9849 -0.1298  0.4239
  437TMC3     O 6570   2.709   3.760  13.118  0.0042  0.6772  0.3997
  437TMC3     H 6571   2.533   3.682  13.026  1.0098  0.8698 -0.1675
  437TMC3    H1 6572   2.771   3.919  12.784 -0.5876 -0.3076 -2.1189
  437TMC3    H2 6573   2.393   3.788  12.634  0.5000 -0.6713 -0.8125
  437TMC3    C7 6574   2.615   3.899  12.558  0.0281  0.2919  0.0181
  437TMC3    C8 6575   2.315   3.692  12.881  0.9391 -0.3058  0.0073
  437TMC3    O1 6576   2.533   3.898  12.468 -0.0182  0.0422 -0.1807
  437TMC3    O2 6577   2.311   3.596  12.958 -0.1852 -0.5989 -0.2524
  438MPD2     C 6578   4.655   0.023  16.646 -0.0668 -0.3277  0.4902
  438MPD2    C1 6579   0.012   4.695  16.725 -0.3505  0.4592  0.8391
  438MPD2    C2 6580   4.738   4.687  16.860 -0.7102  0.3582 -0.0817
  438MPD2    C3 6581   4.615   4.710  16.917  0.6281 -0.1033 -0.2476
  438MPD2    C4 6582   4.513   0.021  16.839  0.4229  0.7479  0.3324
  438MPD2    C5 6583   4.537   0.045  16.707 -0.0037  0.1381 -0.9299
  438MPD2     H 6584   0.089   4.658  16.911 -0.3326  0.0873 -0.8989
  438MPD2    H1 6585   4.408   0.032  16.864  0.0081  1.9341 -1.8749
  438MPD2    H2 6586   4.670   0.042  16.540 -0.7936  1.6514  0.7298
  438MPD2    H3 6587   4.463   0.093  16.644  0.3208 -0.1568 -1.5448
  438MPD2     N 6588   4.587   4.669  17.048  0.2942  0.5836 -0.3264
  438MPD2    H5 6589   4.494   4.690  17.085  0.2227 -0.8989  0.3565
  438MPD2    N1 6590   0.135   4.634  16.668 -0.4588  0.8250  0.1866
  438MPD2    H7 6591   0.191   4.590  16.741 -1.2013  1.2872  1.0282
  439TMC3    C1 6592   0.247   4.479  16.522 -0.2810  0.0789 -0.9164
  439TMC3    C2 6593   0.312   4.454  16.408  0.2798  0.3882 -0.4563
  439TMC3    C3 6594   0.381   4.338  16.402 -0.2602  0.4833 -0.5549
  439TMC3    C4 6595   0.232   4.382  16.618 -0.4983  0.0246 -0.0400
  439TMC3    C5 6596   0.312   4.269  16.608  0.6036 -0.0490 -0.3900
  439TMC3    C6 6597   0.396   4.249  16.503 -0.6838  0.3205 -0.1713
  439TMC3     C 6598   0.153   4.591  16.537 -0.2836  0.0511 -0.2624
  439TMC3     O 6599   0.123   4.654  16.440 -0.1831  0.0752  0.0993
  439TMC3     H 6600   0.324   4.532  16.334  1.9352  0.0870 -0.5094
  439TMC3    H1 6601   0.162   4.399  16.699 -0.2443  0.9905 -0.0202
  439TMC3    H2 6602   0.458   4.160  16.504  1.0678  1.5464  0.1386
  439TMC3    C7 6603   0.347   4.189  16.730  0.5558 -1.0050 -0.5467
  439TMC3    C8 6604   0.454   4.302  16.281  0.5528  0.3345 -1.2220
  439TMC3    O1 6605   0.463   4.155  16.747  0.3464 -0.5377  0.6012
  439TMC3    O2 6606   0.547   4.226  16.290 -0.4398 -0.3089  0.2590
  440MPD2     C 6607   2.897   0.122  15.290  0.2073 -0.1190 -0.0500
  440MPD2    C1 6608   3.020   0.077  15.333 -0.0650 -0.0433  0.2291
  440MPD2    C2 6609   3.062   4.698  15.275 -0.3412  0.3711 -0.3382
  440MPD2    C3 6610   2.977   4.617  15.201  0.5355 -0.1438  0.3718
  440MPD2    C4 6611   2.855   4.662  15.162 -0.4758  0.5701 -0.4597
  440MPD2    C5 6612   2.821   0.054  15.195 -0.2411 -0.1493 -0.7086
  440MPD2     H 6613   3.155   4.661  15.315 -0.7428 -0.3209 -0.0359
  440MPD2    H1 6614   2.788   4.595  15.108 -0.7659 -0.5467  1.3054
  440MPD2    H2 6615   2.864   0.221  15.318  2.0346  0.8648 -1.3837
  440MPD2    H3 6616   2.733   0.106  15.159 -0.0456  0.3962 -0.4040
  440MPD2     N 6617   3.007   4.479  15.166 -0.2740  0.0163  0.3374
  440MPD2    H5 6618   2.952   4.433  15.094  0.6069  1.1207 -1.0315
  440MPD2    N1 6619   3.096   0.139  15.439 -0.0376 -0.2636  0.1891
  440MPD2    H7 6620   3.191   0.107  15.455  0.6172  1.6192  0.0982
  441TMC3    C1 6621   3.124   4.268  15.190 -0.1765 -0.6260  0.5868
  441TMC3    C2 6622   3.199   4.263  15.072  0.0061  0.3696  0.0820
  441TMC3    C3 6623   3.330   4.244  15.093 -0.4707  0.0813  0.4817
  441TMC3    C4 6624   3.168   4.200  15.300  0.3225 -0.7952  0.0422
  441TMC3    C5 6625   3.300   4.174  15.313  0.1848 -0.5655  0.7216
  441TMC3    C6 6626   3.388   4.203  15.206  0.0752  0.1296 -0.4932
  441TMC3     C 6627   3.105   4.410  15.235 -0.3259  0.6356 -0.0164
  441TMC3     O 6628   3.144   4.440  15.346  0.0862 -0.1181  0.4143
  441TMC3     H 6629   3.168   4.334  14.996  1.5180  0.0961 -0.7804
  441TMC3    H1 6630   3.108   4.210  15.389 -0.3516 -2.0251 -0.2625
  441TMC3    H2 6631   3.496   4.202  15.210  0.0540 -0.2788 -0.0062
  441TMC3    C7 6632   3.349   4.146  15.441  0.4004 -0.2726 -0.2698
  441TMC3    C8 6633   3.418   4.306  14.993 -0.0199  0.1394  0.2128
  441TMC3    O1 6634   3.266   4.156  15.534 -0.0730 -0.1053 -0.8010
  441TMC3    O2 6635   3.416   4.258  14.883  0.3532 -0.1651 -0.1258
  442MPD2     C 6636   2.317   0.646  16.605  0.5464 -0.2467  0.1224
  442MPD2    C1 6637   2.179   0.663  16.588 -0.5613  0.3755  0.3156
  442MPD2    C2 6638   2.097   0.556  16.547  0.3309  0.5595  0.2817
  442MPD2    C3 6639   2.152   0.434  16.506  0.2675 -0.0580 -0.5244
  442MPD2    C4 6640   2.287   0.419  16.516  0.2817 -0.0167  0.3641
  442MPD2    C5 6641   2.361   0.521  16.571  0.6311 -0.2106  0.3070
  442MPD2     H 6642   1.990   0.569  16.557  0.2123  0.4324 -0.8906
  442MPD2    H1 6643   2.330   0.325  16.482  0.3945  0.8613 -1.9046
  442MPD2    H2 6644   2.384   0.718  16.650 -1.6316  2.3448 -0.7995
  442MPD2    H3 6645   2.468   0.511  16.579  0.2013 -2.4109  3.1285
  442MPD2     N 6646   2.078   0.325  16.455  0.2918  0.0304  0.2002
  442MPD2    H5 6647   2.134   0.249  16.417 -1.3481 -2.3441  2.4654
  442MPD2    N1 6648   2.118   0.791  16.618 -0.0999 -0.1273 -0.3883
  442MPD2    H7 6649   2.022   0.810  16.591  0.1558  0.4798 -0.8598
  443TMC3    C1 6650   2.093   1.000  16.724 -0.4049 -0.1962  0.3921
  443TMC3    C2 6651   2.087   1.082  16.612 -0.7544 -0.0111 -0.5833
  443TMC3    C3 6652   1.986   1.185  16.624  0.5248  0.3322 -0.2613
  443TMC3    C4 6653   2.015   1.007  16.833  0.2518 -0.3155 -0.2396
  443TMC3    C5 6654   1.919   1.105  16.839  0.7578 -0.4665  0.4834
  443TMC3    C6 6655   1.910   1.194  16.735 -0.8473  0.2060 -0.1737
  443TMC3     C 6656   2.171   0.884  16.703  0.2724  0.7023 -0.2676
  443TMC3     O 6657   2.278   0.890  16.765  0.0604 -0.2547  0.1908
  443TMC3     H 6658   2.146   1.068  16.522 -0.9167 -1.6379 -0.4367
  443TMC3    H1 6659   2.030   0.926  16.903  2.2611 -1.0334 -1.5014
  443TMC3    H2 6660   1.818   1.252  16.731  1.2549  3.6326  1.9856
  443TMC3    C7 6661   1.792   1.054  16.905  0.6311  0.1908 -0.6577
  443TMC3    C8 6662   1.901   1.180  16.513  0.1597  0.2611  0.1835
  443TMC3    O1 6663   1.807   0.962  16.977 -0.2223  0.6767  0.5537
  443TMC3    O2 6664   1.787   1.140  16.541 -0.1938 -0.0750  0.1662
  444MPD2     C 6665   2.005   0.045  17.573 -0.3503  0.2963 -0.4694
  444MPD2    C1 6666   1.936   4.727  17.468  0.1734 -0.4898 -0.2305
  444MPD2    C2 6667   2.019   4.653  17.376 -0.3170 -0.3880  0.0175
  444MPD2    C3 6668   2.155   4.652  17.390  0.1929  1.0275 -0.0501
  444MPD2    C4 6669   2.216   4.713  17.498  0.1236 -0.2941  0.4869
  444MPD2    C5 6670   2.134   0.035  17.591 -0.4580  0.1132 -0.1449
  444MPD2     H 6671   1.970   4.603  17.292  0.5468  2.4035 -2.1235
  444MPD2    H1 6672   2.323   4.725  17.512 -0.1927  0.5290  2.1703
  444MPD2    H2 6673   1.953   0.105  17.646  0.2496  0.8924 -0.5316
  444MPD2    H3 6674   2.167   0.093  17.676  1.6627 -0.4009 -0.6294
  444MPD2     N 6675   2.236   4.585  17.290  0.1086 -0.0707 -0.1098
  444MPD2    H5 6676   2.180   4.558  17.209 -1.2770 -1.6531  1.3963
  444MPD2    N1 6677   1.802   0.013  17.432  0.4009 -0.3481  0.2815
  444MPD2    H7 6678   1.762   4.695  17.358  0.8836 -2.1708  1.4396
  445TMC3    C1 6679   2.404   4.448  17.193 -0.3113 -1.2561  0.0699
  445TMC3    C2 6680   2.318   4.390  17.107 -0.5125  1.0611 -0.3932
  445TMC3    C3 6681   2.371   4.319  17.001  0.8930  0.1974  1.0278
  445TMC3    C4 6682   2.547   4.436  17.183  0.0587  0.1848 -0.5047
  445TMC3    C5 6683   2.588   4.349  17.088 -0.6320  0.5758 -0.5840
  445TMC3    C6 6684   2.502   4.305  16.987 -0.5267  0.4324 -0.0147
  445TMC3     C 6685   2.361   4.530  17.309  0.2697 -0.0838 -0.0523
  445TMC3     O 6686   2.428   4.513  17.407 -0.0108 -0.1333 -0.2924
  445TMC3     H 6687   2.214   4.369  17.131 -0.0831 -1.1210 -0.4817
  445TMC3    H1 6688   2.613   4.464  17.264  0.2058 -2.7799  0.4057
  445TMC3    H2 6689   2.534   4.246  16.902  0.5475  0.7303  0.1890
  445TMC3    C7 6690   2.728   4.323  17.063 -0.2156 -0.5820  1.2093
  445TMC3    C8 6691   2.276   4.266  16.898 -0.6719  0.3211  0.5902
  445TMC3    O1 6692   2.808   4.406  17.098  0.3851  0.0449  0.1249
  445TMC3    O2 6693   2.319   4.194  16.810 -0.1300 -0.1622 -0.0888
  446MPD2     C 6694   2.280   0.714  11.008  0.7015 -0.5025  0.9710
  446MPD2    C1 6695   2.203   0.825  10.986  0.2226 -0.4952  0.4192
  446MPD2    C2 6696   2.257   0.943  11.037  0.1442  0.3001 -0.7346
  446MPD2    C3 6697   2.376   0.960  11.104 -0.5237 -0.4178 -0.2796
  446MPD2    C4 6698   2.440   0.839  11.141  0.2557  0.5355  0.6350
  446MPD2    C5 6699   2.391   0.723  11.088 -0.4894  0.3492  0.1539
  446MPD2     H 6700   2.194   1.031  11.028  1.0658  1.3445  3.0370
  446MPD2    H1 6701   2.524   0.831  11.210  2.4729 -1.1286 -2.2617
  446MPD2    H2 6702   2.253   0.614  10.978  1.4821 -0.4810  0.2155
  446MPD2    H3 6703   2.442   0.635  11.126 -1.2825 -0.0002  0.4115
  446MPD2     N 6704   2.411   1.091  11.148 -0.1879 -0.4261 -0.0421
  446MPD2    H5 6705   2.363   1.172  11.109 -3.9521 -1.1576  3.2020
  446MPD2    N1 6706   2.076   0.818  10.922  0.1101 -0.4612  0.9178
  446MPD2    H7 6707   2.018   0.900  10.905  0.7426  0.2174  1.9939
  447TMC3    C1 6708   2.543   1.255  11.262 -0.4695  0.1345 -0.1030
  447TMC3    C2 6709   2.476   1.362  11.199  0.0178 -0.4280 -0.3702
  447TMC3    C3 6710   2.534   1.485  11.201 -1.0469 -0.3255 -0.5978
  447TMC3    C4 6711   2.671   1.275  11.308 -0.2708 -0.0686 -0.1098
  447TMC3    C5 6712   2.729   1.401  11.302  0.1633 -0.2812  0.1879
  447TMC3    C6 6713   2.660   1.504  11.241 -0.3087 -0.7656  0.2249
  447TMC3     C 6714   2.502   1.116  11.244  0.2521 -0.2497 -0.8845
  447TMC3     O 6715   2.567   1.042  11.309 -0.5454 -0.0956  0.1049
  447TMC3     H 6716   2.375   1.362  11.161  0.4274  1.2022 -1.4712
  447TMC3    H1 6717   2.725   1.191  11.351 -0.4856 -0.8536 -1.3496
  447TMC3    H2 6718   2.707   1.601  11.252 -0.3482 -0.8287  0.8955
  447TMC3    C7 6719   2.876   1.392  11.337 -1.1334 -0.1830 -0.7682
  447TMC3    C8 6720   2.488   1.563  11.085 -0.5415  0.8316  0.2995
  447TMC3    O1 6721   2.904   1.310  11.426  0.0176 -0.3396 -0.7251
  447TMC3    O2 6722   2.372   1.600  11.064 -0.1952 -0.1052 -0.4943
  448TMC3    C1 6723   4.020   0.639  17.462 -0.2352 -0.3300 -0.1122
  448TMC3    C2 6724   4.099   0.572  17.379 -0.0331 -0.0221 -0.6775
  448TMC3    C3 6725   4.225   0.555  17.426 -0.3087  1.1124  0.1652
  448TMC3    C4 6726   4.052   0.678  17.588 -0.6358 -0.2728  0.3857
  448TMC3    C5 6727   4.180   0.650  17.631 -0.5603  0.9259  0.1100
  448TMC3    C6 6728   4.274   0.590  17.550  0.2458  0.5939 -0.1218
  448TMC3     C 6729   3.899   0.696  17.408  0.0701 -0.0583 -0.1547
  448TMC3     O 6730   3.843   0.790  17.465 -0.5074 -0.3171  0.0435
  448TMC3     H 6731   4.069   0.538  17.281  0.3730  0.3695 -0.9381
  448TMC3    H1 6732   3.993   0.751  17.643 -0.4518 -0.1997  0.4879
  448TMC3    H2 6733   4.379   0.583  17.576  0.4609  1.3554 -0.7798
  448TMC3    C7 6734   4.235   0.762  17.704  0.1690  0.6995 -0.6263
  448TMC3    C8 6735   4.324   0.569  17.323  0.1848 -0.5984  0.1324
  448TMC3    O1 6736   4.177   0.869  17.688 -0.1505 -0.5888  0.0035
  448TMC3    O2 6737   4.440   0.519  17.337  0.0520 -0.1641 -0.3997
  449MPD2     C 6738   1.054   3.638  13.826 -0.0618  0.2690 -0.5037
  449MPD2    C1 6739   1.088   3.763  13.867  0.2251 -0.6362 -0.3894
  449MPD2    C2 6740   0.995   3.845  13.928  0.0615  0.3561 -0.2887
  449MPD2    C3 6741   0.878   3.794  13.980 -0.2178 -0.2965  0.5977
  449MPD2    C4 6742   0.848   3.660  13.949 -0.5694 -0.3338 -0.6490
  449MPD2    C5 6743   0.939   3.586  13.877  0.1011 -0.4135 -0.2916
  449MPD2     H 6744   1.019   3.949  13.946 -1.0150  0.5315  0.1035
  449MPD2    H1 6745   0.762   3.606  13.989  0.9778 -1.0247  1.7283
  449MPD2    H2 6746   1.114   3.577  13.760  1.1921 -0.1405  1.0189
  449MPD2    H3 6747   0.913   3.487  13.840  0.8267 -0.8321  0.3462
  449MPD2     N 6748   0.799   3.876  14.059  0.0238  0.2479  0.4030
  449MPD2    H5 6749   0.834   3.969  14.078 -0.5628  0.9135 -1.7271
  449MPD2    N1 6750   1.210   3.829  13.827  0.5471  0.2282 -0.4056
  449MPD2    H7 6751   1.227   3.919  13.871  0.8654 -0.8876  1.7753
  450TMC3    C1 6752   1.395   3.888  13.701  1.0318 -0.2157  0.9098
  450TMC3    C2 6753   1.399   3.914  13.567 -0.2455  0.0401 -0.1556
  450TMC3    C3 6754   1.388   4.042  13.532 -0.5007  0.0232  0.2939
  450TMC3    C4 6755   1.396   3.989  13.797  0.1515  0.2618 -0.1501
  450TMC3    C5 6756   1.378   4.119  13.756  0.3171  0.3016  0.1340
  450TMC3    C6 6757   1.376   4.146  13.617  0.2770 -0.1385  0.4089
  450TMC3     C 6758   1.301   3.785  13.736  0.2910  0.9308  0.8302
  450TMC3     O 6759   1.320   3.678  13.683  0.3670 -0.1539 -0.6738
  450TMC3     H 6760   1.416   3.843  13.487 -1.7386 -1.6381  0.9942
  450TMC3    H1 6761   1.394   3.973  13.904 -0.8979 -1.0048 -0.3666
  450TMC3    H2 6762   1.367   4.243  13.570 -0.0294 -0.2072  0.3252
  450TMC3    C7 6763   1.278   4.181  13.834  0.0552  0.3558 -0.0429
  450TMC3    C8 6764   1.436   4.076  13.396  0.7102  0.3597  0.0177
  450TMC3    O1 6765   1.221   4.109  13.915 -0.7095  0.0073  0.1407
  450TMC3    O2 6766   1.357   4.149  13.343  0.2353  0.0749 -0.5513
  451MPD2     C 6767   2.817   3.123   1.510 -0.7853  0.2735  0.1595
  451MPD2    C1 6768   2.878   3.186   1.399  0.1980  0.1943  1.2398
  451MPD2    C2 6769   2.941   3.106   1.306 -0.0682  0.1561 -0.1080
  451MPD2    C3 6770   2.942   2.972   1.317 -0.3919 -0.4947  0.1065
  451MPD2    C4 6771   2.874   2.914   1.411  0.0304  0.1996  0.3595
  451MPD2    C5 6772   2.811   2.987   1.514 -0.1961 -0.4436  0.1766
  451MPD2     H 6773   2.981   3.154   1.217 -0.3222 -0.6622 -0.6650
  451MPD2    H1 6774   2.873   2.807   1.427 -1.9058  0.3277  1.1124
  451MPD2    H2 6775   2.772   3.170   1.597  0.6566 -2.4734  2.3920
  451MPD2    H3 6776   2.769   2.935   1.599 -1.0872  1.0898  0.6705
  451MPD2     N 6777   2.981   2.886   1.212  0.5289 -0.1378  0.2609
  451MPD2    H5 6778   2.933   2.797   1.208  0.2272  0.1034 -1.3769
  451MPD2    N1 6779   2.877   3.318   1.370  0.5353 -0.5603 -0.6100
  451MPD2    H7 6780   2.907   3.344   1.276 -1.3085  1.2915 -0.6788
  452TMC3    C1 6781   3.073   2.834   0.992  0.4892  0.1463 -0.0974
  452TMC3    C2 6782   2.962   2.768   0.953 -0.6394 -0.3668  0.4292
  452TMC3    C3 6783   2.952   2.724   0.824  0.2704 -0.1437 -0.3774
  452TMC3    C4 6784   3.166   2.867   0.905 -0.1071 -0.3810  0.3204
  452TMC3    C5 6785   3.149   2.827   0.777 -0.3687  0.1797  0.2790
  452TMC3    C6 6786   3.053   2.732   0.734 -0.6385 -0.3182  0.4287
  452TMC3     C 6787   3.063   2.921   1.106  0.0029  1.1619  0.2808
  452TMC3     O 6788   3.140   3.017   1.101 -0.1737  0.1006  0.1876
  452TMC3     H 6789   2.877   2.758   1.019 -0.1953 -1.3162  0.8552
  452TMC3    H1 6790   3.254   2.917   0.943 -0.6366  1.0344 -0.3211
  452TMC3    H2 6791   3.053   2.703   0.630 -0.8987 -1.1516  0.6661
  452TMC3    C7 6792   3.210   2.904   0.677  0.5903  0.7871 -0.0464
  452TMC3    C8 6793   2.824   2.688   0.770 -0.1373  0.0127  0.1756
  452TMC3    O1 6794   3.199   2.861   0.563  0.0937 -0.2137  0.3183
  452TMC3    O2 6795   2.817   2.641   0.656 -0.1940  0.8108  0.8122
  453TMC3    C1 6796   4.339   0.145  11.608 -0.5727 -0.6379  0.0432
  453TMC3    C2 6797   4.271   0.024  11.614 -0.2445  0.1411 -0.4825
  453TMC3    C3 6798   4.233   4.701  11.501  0.3004  0.1927 -0.3387
  453TMC3    C4 6799   4.385   0.201  11.488  0.1791  0.1961 -0.3527
  453TMC3    C5 6800   4.360   0.127  11.375  0.0511  0.1464  0.7156
  453TMC3    C6 6801   4.290   0.008  11.383 -0.5430 -0.5962  0.7394
  453TMC3     C 6802   4.358   0.216  11.732  0.8683  0.9102 -0.5168
  453TMC3     O 6803   4.458   0.284  11.751 -0.2974  0.1097  0.6417
  453TMC3     H 6804   4.227   4.728  11.707 -0.0121  1.6843  0.2027
  453TMC3    H1 6805   4.433   0.298  11.485 -1.3012  0.9243 -0.1571
  453TMC3    H2 6806   4.275   4.690  11.292  0.8325  1.6387 -0.8509
  453TMC3    C7 6807   4.392   0.180  11.245 -0.2187 -0.2065  0.3465
  453TMC3    C8 6808   4.182   4.558  11.508 -0.3243 -0.1164  0.3571
  453TMC3    O1 6809   4.329   0.124  11.153 -0.2533  0.5923  0.0054
  453TMC3    O2 6810   4.158   4.509  11.398 -0.4886  0.7781  0.2879
  454MPD2     C 6811   2.795   4.322  16.465  0.3507 -1.0816 -0.2327
  454MPD2    C1 6812   2.716   4.335  16.359  0.5405  0.2066 -0.5632
  454MPD2    C2 6813   2.579   4.310  16.368  0.2096 -0.1181 -0.3096
  454MPD2    C3 6814   2.526   4.262  16.487  0.0380  0.1972  0.4081
  454MPD2    C4 6815   2.614   4.241  16.588  0.2989  0.0187  0.8139
  454MPD2    C5 6816   2.746   4.272  16.582  0.4480 -0.0901  0.1351
  454MPD2     H 6817   2.527   4.326  16.275 -1.9598 -0.5599  0.8377
  454MPD2    H1 6818   2.592   4.189  16.681 -2.1007 -0.0031  0.2439
  454MPD2    H2 6819   2.893   4.367  16.478  0.0717  0.2165 -2.6668
  454MPD2    H3 6820   2.818   4.254  16.661 -0.4621  0.6619  1.1437
  454MPD2     N 6821   2.391   4.247  16.513 -0.0658 -0.3966 -0.7344
  454MPD2    H5 6822   2.358   4.241  16.609 -0.5648  0.2604 -0.8657
  454MPD2    N1 6823   2.763   4.381  16.237  0.0441 -0.3596  0.1156
  454MPD2    H7 6824   2.692   4.395  16.166  0.2743 -2.4089 -0.5114
  455TMC3    C1 6825   2.171   4.290  16.439 -0.4410  0.0623  0.5003
  455TMC3    C2 6826   2.158   4.396  16.527  0.9287  0.5464  0.6081
  455TMC3    C3 6827   2.038   4.461  16.525 -0.4006  0.5241  0.2893
  455TMC3    C4 6828   2.078   4.263  16.341  0.3099 -0.2845 -0.3675
  455TMC3    C5 6829   1.956   4.334  16.347  0.2512  0.1258 -0.1083
  455TMC3    C6 6830   1.936   4.434  16.440 -0.3220  0.4350 -0.1705
  455TMC3     C 6831   2.301   4.245  16.411  0.3743 -0.7009  0.5574
  455TMC3     O 6832   2.316   4.200  16.300 -0.1854  0.1804  0.2701
  455TMC3     H 6833   2.228   4.416  16.607  2.1675 -2.3490  0.2540
  455TMC3    H1 6834   2.084   4.172  16.283  1.1310 -0.8896  0.6890
  455TMC3    H2 6835   1.842   4.489  16.445 -0.0812  0.7682  0.8396
  455TMC3    C7 6836   1.869   4.331  16.226  0.7737  0.2241 -0.1943
  455TMC3    C8 6837   2.043   4.588  16.583  0.8720 -0.3402 -0.0776
  455TMC3    O1 6838   1.765   4.392  16.231 -0.1573 -0.0517  0.5306
  455TMC3    O2 6839   2.157   4.633  16.599 -0.4256  0.1467 -0.0758
  456MPD2     C 6840   0.219   0.163  16.020  0.0229 -0.3842 -0.8106
  456MPD2    C1 6841   0.313   0.115  16.105  0.1825  0.1903 -0.1099
  456MPD2    C2 6842   0.298   0.128  16.243  0.3434 -0.2156  0.0388
  456MPD2    C3 6843   0.193   0.195  16.301  0.2791 -0.0704 -0.0807
  456MPD2    C4 6844   0.110   0.260  16.203  0.2154 -0.4055  0.3108
  456MPD2    C5 6845   0.125   0.248  16.068 -0.5292  0.0805  0.1877
  456MPD2     H 6846   0.369   0.090  16.316  0.3757  0.4274  0.3340
  456MPD2    H1 6847   0.026   0.326  16.222  0.2893 -0.4219  0.7005
  456MPD2    H2 6848   0.232   0.154  15.913 -0.4843 -0.7774 -0.8389
  456MPD2    H3 6849   0.052   0.289  15.999 -0.2634  3.1050  1.6922
  456MPD2     N 6850   0.186   0.217  16.441 -0.2522 -0.5028  0.4830
  456MPD2    H5 6851   0.267   0.187  16.493  0.2100  0.3190  0.2304
  456MPD2    N1 6852   0.430   0.048  16.052 -0.2810  0.1949  0.1496
  456MPD2    H7 6853   0.447   0.056  15.952 -2.6031 -1.1741 -0.3513
  457TMC3    C1 6854   0.116   0.302  16.653 -0.2017 -0.3322  0.6159
  457TMC3    C2 6855   0.037   0.385  16.723  0.0849 -0.0403  0.1231
  457TMC3    C3 6856   0.053   0.385  16.855  0.2099 -0.1170 -0.4961
  457TMC3    C4 6857   0.212   0.217  16.708 -0.1049 -0.0730  0.2695
  457TMC3    C5 6858   0.208   0.202  16.844  0.4619 -0.3066  0.6949
  457TMC3    C6 6859   0.126   0.289  16.923 -1.0231  0.7573  0.1141
  457TMC3     C 6860   0.097   0.296  16.507 -0.7267 -0.1242  0.4252
  457TMC3     O 6861   4.730   0.348  16.468 -0.4804 -0.2587  0.2493
  457TMC3     H 6862   4.708   0.453  16.673  0.7887  0.8557  0.3903
  457TMC3    H1 6863   0.263   0.137  16.656  0.7330  1.7111 -1.6127
  457TMC3    H2 6864   0.156   0.293  17.027 -1.0084 -2.1284  0.2184
  457TMC3    C7 6865   0.322   0.143  16.908  0.5677 -0.0662 -0.0447
  457TMC3    C8 6866   4.676   0.436  16.924 -0.1198 -0.6335 -0.1549
  457TMC3    O1 6867   0.312   0.129  17.030 -1.0564 -0.3703 -0.0543
  457TMC3    O2 6868   4.664   0.386  17.036 -0.6250  0.5741 -0.5309
  458MPD2     C 6869   2.998   3.960  12.198  0.6296 -0.2548  0.1007
  458MPD2    C1 6870   3.053   3.958  12.325 -0.0573 -0.2652  0.1689
  458MPD2    C2 6871   2.962   3.959  12.433 -0.0113  0.3274 -0.0351
  458MPD2    C3 6872   2.823   3.948  12.419  0.5740 -0.3004 -0.6270
  458MPD2    C4 6873   2.766   3.961  12.291 -0.0518  0.1921 -0.4763
  458MPD2    C5 6874   2.854   3.961  12.181 -0.4956  0.5656 -0.6061
  458MPD2     H 6875   2.998   3.971  12.535  0.8746  3.1242 -0.6880
  458MPD2    H1 6876   2.659   3.957  12.273 -0.1464  1.2576 -0.2021
  458MPD2    H2 6877   3.064   3.955  12.112  1.3060 -0.8723  0.6511
  458MPD2    H3 6878   2.817   3.960  12.080  2.3984  0.0990 -1.6635
  458MPD2     N 6879   2.752   3.926  12.542 -0.6713 -0.1010  0.0569
  458MPD2    H5 6880   2.808   3.900  12.622 -0.4913 -1.8615 -0.6417
  458MPD2    N1 6881   3.195   3.942  12.339 -0.0837  0.4128 -0.5405
  458MPD2    H7 6882   3.246   3.931  12.251  0.4550  1.9700 -0.4106
  459TMC3    C1 6883   3.392   3.880  12.455  0.3379  0.0735  0.1058
  459TMC3    C2 6884   3.489   3.943  12.377  0.0779  0.2840  0.0847
  459TMC3    C3 6885   3.619   3.908  12.402 -0.2264 -0.2895  0.4463
  459TMC3    C4 6886   3.427   3.771  12.542 -1.2180 -0.0812 -0.0693
  459TMC3    C5 6887   3.559   3.751  12.571 -0.4897 -0.1410 -0.1469
  459TMC3    C6 6888   3.653   3.825  12.506 -0.5817 -1.0379 -0.3028
  459TMC3     C 6889   3.260   3.918  12.461  0.8985 -0.3130  0.1573
  459TMC3     O 6890   3.210   3.892  12.568 -0.1274  0.2951  0.3244
  459TMC3     H 6891   3.469   4.040  12.333  0.2318 -0.5330 -1.7701
  459TMC3    H1 6892   3.355   3.718  12.602 -1.4161 -1.6497 -1.6943
  459TMC3    H2 6893   3.759   3.814  12.529 -0.8037 -1.6198  0.4283
  459TMC3    C7 6894   3.593   3.696  12.703  0.2910  0.0709 -0.1662
  459TMC3    C8 6895   3.721   4.002  12.350 -0.2125 -0.0413 -0.0323
  459TMC3    O1 6896   3.532   3.597  12.740  0.4565 -0.1062  0.2477
  459TMC3    O2 6897   3.814   4.042  12.419 -0.6943  0.6527 -0.2601
  460MPD2     C 6898   2.730   1.650  10.822  1.0582  0.0716  0.0448
  460MPD2    C1 6899   2.611   1.650  10.886  0.2786  0.9102  0.1419
  460MPD2    C2 6900   2.499   1.696  10.814  0.2532 -0.3728 -0.5075
  460MPD2    C3 6901   2.513   1.755  10.687  0.3168  0.3358 -0.1281
  460MPD2    C4 6902   2.634   1.761  10.626  0.3539  0.6039 -0.2622
  460MPD2    C5 6903   2.738   1.708  10.698  0.2156  0.0644  0.1273
  460MPD2     H 6904   2.403   1.706  10.862 -0.3667 -0.2895 -1.7654
  460MPD2    H1 6905   2.657   1.798  10.527  0.5794 -0.2308 -0.5222
  460MPD2    H2 6906   2.823   1.621  10.871  2.6105  0.6152 -2.5645
  460MPD2    H3 6907   2.834   1.715  10.648  0.6570 -1.1992  0.8000
  460MPD2     N 6908   2.397   1.804  10.629  0.6178  0.5012 -0.1154
  460MPD2    H5 6909   2.316   1.803  10.691 -0.7814 -0.8832 -1.9913
  460MPD2    N1 6910   2.599   1.591  11.010 -0.0084  0.5180  0.7804
  460MPD2    H7 6911   2.686   1.551  11.043  0.5181  1.2411  0.2685
  461TMC3    C1 6912   2.260   1.913  10.496  0.7389  0.1576  0.9292
  461TMC3    C2 6913   2.170   1.815  10.468 -0.3745 -0.2065 -0.2702
  461TMC3    C3 6914   2.068   1.839  10.380 -0.5309  0.1144 -0.2255
  461TMC3    C4 6915   2.244   2.039  10.450  0.5581  0.5809 -0.9061
  461TMC3    C5 6916   2.137   2.060  10.366 -0.3824 -0.1288  0.0874
  461TMC3    C6 6917   2.048   1.963  10.328  0.3354 -0.4347  0.4924
  461TMC3     C 6918   2.396   1.874  10.518 -0.1873 -0.1852  1.4945
  461TMC3     O 6919   2.485   1.924  10.453 -0.1762  0.2927 -0.2309
  461TMC3     H 6920   2.209   1.715  10.479  1.0237  0.3590 -0.0072
  461TMC3    H1 6921   2.319   2.116  10.467 -0.7979  1.5262  0.9395
  461TMC3    H2 6922   1.981   1.982  10.244  1.4850 -0.0018 -0.3231
  461TMC3    C7 6923   2.104   2.200  10.323 -0.5911 -0.2369 -0.0705
  461TMC3    C8 6924   2.006   1.732  10.316 -0.1108 -0.1381 -0.6412
  461TMC3    O1 6925   2.020   2.209  10.234 -0.4566  0.5575 -0.7132
  461TMC3    O2 6926   1.990   1.730  10.198  0.1656  0.1032 -0.2926
  462TMC3    C1 6927   2.442   2.725   0.443  0.4063 -0.5912 -0.1665
  462TMC3    C2 6928   2.566   2.670   0.419  0.3448  0.7609  0.3267
  462TMC3    C3 6929   2.554   2.556   0.347 -1.2495  0.0013 -0.0382
  462TMC3    C4 6930   2.318   2.683   0.396  0.0721 -0.0626 -0.1124
  462TMC3    C5 6931   2.323   2.584   0.309 -0.0083 -0.0514 -0.4890
  462TMC3    C6 6932   2.438   2.518   0.281 -0.6785  0.1228  0.3086
  462TMC3     C 6933   2.455   2.854   0.523 -0.7338 -0.0046 -0.1792
  462TMC3     O 6934   2.563   2.894   0.553  0.7859 -0.6029  0.0616
  462TMC3     H 6935   2.653   2.704   0.472  1.2384 -0.0150 -0.6475
  462TMC3    H1 6936   2.229   2.730   0.437 -0.0597 -1.1833  0.8601
  462TMC3    H2 6937   2.431   2.417   0.241 -0.7216 -0.2818  1.3408
  462TMC3    C7 6938   2.207   2.504   0.292 -0.1657 -0.6631 -0.7668
  462TMC3    C8 6939   2.683   2.499   0.316  0.0497  0.3628  0.2210
  462TMC3    O1 6940   2.218   2.382   0.268 -0.0930  0.0304 -0.1531
  462TMC3    O2 6941   2.786   2.543   0.365  0.0037  0.1242  0.0531
  463MPD2     C 6942   3.520   1.467   1.587  0.3247  0.1376  0.0319
  463MPD2    C1 6943   3.394   1.509   1.581  0.2370 -0.2999 -0.2772
  463MPD2    C2 6944   3.371   1.643   1.562 -0.1408  0.5838 -0.9486
  463MPD2    C3 6945   3.477   1.735   1.573 -0.3458 -0.2481  0.3906
  463MPD2    C4 6946   3.605   1.695   1.592 -0.4580  0.5512  0.0033
  463MPD2    C5 6947   3.624   1.558   1.589 -0.3065 -0.4084 -0.1733
  463MPD2     H 6948   3.271   1.677   1.536  0.0452  1.4665 -0.5063
  463MPD2    H1 6949   3.685   1.768   1.591 -0.5838  0.7085  1.4415
  463MPD2    H2 6950   3.550   1.363   1.585  0.5164  0.2158 -1.0108
  463MPD2    H3 6951   3.727   1.526   1.579  0.0359  0.7248 -0.3673
  463MPD2     N 6952   3.459   1.878   1.560  0.0708 -0.1577 -0.3431
  463MPD2    H5 6953   3.543   1.934   1.565 -1.1405  1.5372  0.8269
  463MPD2    N1 6954   3.290   1.427   1.548  0.3585 -0.4075 -0.4665
  463MPD2    H7 6955   3.196   1.462   1.531  0.7400  1.0147  0.3501
  464TMC3    C1 6956   3.160   1.238   1.511  0.2862  0.5594 -0.5345
  464TMC3    C2 6957   3.041   1.312   1.528  0.5410 -0.3412  0.0125
  464TMC3    C3 6958   2.919   1.251   1.523 -0.0488 -0.2046 -0.0524
  464TMC3    C4 6959   3.152   1.104   1.498  0.2941  0.8197 -0.5395
  464TMC3    C5 6960   3.026   1.046   1.492 -0.0381 -0.0452 -0.2794
  464TMC3    C6 6961   2.909   1.115   1.508 -0.1605  0.3107  0.6940
  464TMC3     C 6962   3.296   1.290   1.536  0.0726 -0.4735  0.6000
  464TMC3     O 6963   3.387   1.211   1.543 -0.3663  0.2130 -0.2536
  464TMC3     H 6964   3.049   1.420   1.531  0.0519 -0.2782 -0.8774
  464TMC3    H1 6965   3.241   1.043   1.488 -0.5439 -0.7761  1.6021
  464TMC3    H2 6966   2.810   1.075   1.529 -0.2067 -0.7034 -1.5129
  464TMC3    C7 6967   3.026   0.906   1.526  0.5482  0.2168 -0.2422
  464TMC3    C8 6968   2.801   1.333   1.512  0.0719 -0.2236 -0.1200
  464TMC3    O1 6969   3.134   0.851   1.533 -0.8675 -0.5913  0.5084
  464TMC3    O2 6970   2.707   1.289   1.445  0.3252  0.1708  0.3408
  465MPD2     C 6971   4.235   0.198  16.988 -0.3635  0.3495 -0.4159
  465MPD2    C1 6972   4.135   0.113  16.967 -0.3458 -0.0473 -0.0522
  465MPD2    C2 6973   4.060   0.120  16.845  0.3647 -0.2410 -0.2208
  465MPD2    C3 6974   4.085   0.224  16.753  0.6952  0.3088  0.2601
  465MPD2    C4 6975   4.179   0.320  16.781 -1.0797 -1.4625  0.0521
  465MPD2    C5 6976   4.255   0.302  16.898 -0.6419 -0.1031  0.9553
  465MPD2     H 6977   3.977   0.054  16.823  0.5052 -0.5119  0.0703
  465MPD2    H1 6978   4.198   0.395  16.705  0.4574 -1.5600  0.3428
  465MPD2    H2 6979   4.280   0.201  17.086 -0.9781  0.4955 -0.1377
  465MPD2    H3 6980   4.342   0.365  16.911 -1.0027  0.3940  0.9548
  465MPD2     N 6981   4.013   0.225  16.633  0.1147  0.1169  0.1512
  465MPD2    H5 6982   3.970   0.136  16.608  1.6014 -0.1815 -1.3357
  465MPD2    N1 6983   4.099   0.013  17.057 -0.6874  0.4241  0.7047
  465MPD2    H7 6984   4.013   4.701  17.038 -0.3825 -0.3621  1.4370
  466TMC3    C1 6985   3.658   0.244  16.487  0.7471  0.8000  0.3790
  466TMC3    C2 6986   3.619   0.358  16.426 -0.0147 -0.2322  0.5408
  466TMC3    C3 6987   3.718   0.435  16.376 -0.4488 -0.6943 -0.3473
  466TMC3    C4 6988   3.795   0.215  16.500  0.4786 -0.1901  0.4053
  466TMC3    C5 6989   3.890   0.300  16.450  0.2016  0.1308  0.1497
  466TMC3    C6 6990   3.852   0.410  16.382  0.8279  0.1815  0.7022
  466TMC3     C 6991   3.593   0.206  16.607 -0.2954  0.1058 -0.4800
  466TMC3     O 6992   3.663   0.211  16.712 -0.1492  0.1000 -0.4692
  466TMC3     H 6993   3.516   0.391  16.425  0.2716  0.6274 -0.2552
  466TMC3    H1 6994   3.821   0.123  16.551 -0.7756  0.1437  1.6634
  466TMC3    H2 6995   3.916   0.495  16.360  0.4714  0.4713  0.7765
  466TMC3    C7 6996   3.996   0.327  16.548  0.4818  0.7003  0.0373
  466TMC3    C8 6997   3.674   0.563  16.307  1.1095  0.3193  0.1105
  466TMC3    O1 6998   4.022   0.445  16.556 -0.1190 -0.0923  0.0476
  466TMC3    O2 6999   3.720   0.589  16.198  0.2259 -0.4523 -0.2589
  467TMC3    C1 7000   0.602   2.954  13.559 -0.8261  0.8047 -0.1959
  467TMC3    C2 7001   0.614   3.070  13.502 -0.3418 -0.4871 -0.4195
  467TMC3    C3 7002   0.545   3.173  13.560  0.0298  0.3654 -0.4280
  467TMC3    C4 7003   0.516   2.936  13.661 -0.0039  0.6116  0.1703
  467TMC3    C5 7004   0.453   3.048  13.723  0.0571 -0.2341 -0.5171
  467TMC3    C6 7005   0.460   3.168  13.665 -0.2572  0.6522 -0.3562
  467TMC3     C 7006   0.735   2.911  13.605 -0.1059 -0.3829 -0.1905
  467TMC3     O 7007   0.814   3.003  13.599  0.1823 -0.1346  0.3101
  467TMC3     H 7008   0.687   3.080  13.422  0.6973  0.4768  0.6576
  467TMC3    H1 7009   0.506   2.838  13.706 -2.1036  0.9959  0.5108
  467TMC3    H2 7010   0.426   3.260  13.711 -0.5760  0.6305 -0.5465
  467TMC3    C7 7011   0.415   3.030  13.860 -0.8148  0.8035 -0.6891
  467TMC3    C8 7012   0.612   3.301  13.550  0.0630  0.6079  0.1605
  467TMC3    O1 7013   0.443   2.925  13.918 -0.7024 -0.3447 -0.4315
  467TMC3    O2 7014   0.544   3.397  13.571 -0.3124 -0.3588  0.1430
  468MPD2     C 7015   4.053   1.376  10.400 -0.3709  0.1083 -0.4683
  468MPD2    C1 7016   4.130   1.419  10.507  0.2922  0.4067 -0.4544
  468MPD2    C2 7017   4.200   1.329  10.583 -0.1234 -0.3810  0.2352
  468MPD2    C3 7018   4.183   1.191  10.565  0.1153 -0.1808  0.0537
  468MPD2    C4 7019   4.102   1.148  10.463  0.3973  0.5440  0.0854
  468MPD2    C5 7020   4.040   1.240  10.382 -0.4442  0.4390  0.2462
  468MPD2     H 7021   4.249   1.368  10.672  1.6402 -1.5001 -0.2372
  468MPD2    H1 7022   4.091   1.046  10.428  0.2050 -0.3040  2.6032
  468MPD2    H2 7023   4.006   1.447  10.332 -1.2049  1.2699  1.3408
  468MPD2    H3 7024   3.984   1.205  10.296  0.9960  0.2429 -0.5993
  468MPD2     N 7025   4.258   1.111  10.650 -0.1888  0.1932  0.1428
  468MPD2    H5 7026   4.315   1.157  10.720  0.6818 -1.7281  0.6947
  468MPD2    N1 7027   4.140   1.562  10.534 -0.3176 -0.3998 -0.0890
  468MPD2    H7 7028   4.207   1.595  10.604 -1.0001  0.1845  0.2958
  469TMC3    C1 7029   4.085   1.777  10.557 -0.4142  0.8307  0.0646
  469TMC3    C2 7030   4.223   1.798  10.575 -0.1856  0.4245 -0.2670
  469TMC3    C3 7031   4.268   1.865  10.689 -0.8241 -0.4778 -0.6665
  469TMC3    C4 7032   3.990   1.814  10.645  0.3622 -0.2277  0.1388
  469TMC3    C5 7033   4.036   1.871  10.757 -0.2525 -0.4785  0.5045
  469TMC3    C6 7034   4.171   1.904  10.781  0.6184  0.0991  0.2959
  469TMC3     C 7035   4.054   1.653  10.489  0.1046  0.3779  0.8555
  469TMC3     O 7036   3.947   1.642  10.429 -0.2032  0.4325  0.4713
  469TMC3     H 7037   4.294   1.774  10.498 -1.7587 -1.9366 -0.9659
  469TMC3    H1 7038   3.887   1.786  10.627  0.0696  0.6382  0.4418
  469TMC3    H2 7039   4.195   1.947  10.878  1.8563 -1.5262  0.7173
  469TMC3    C7 7040   3.934   1.901  10.858  0.5379 -0.8151  0.2394
  469TMC3    C8 7041   4.407   1.884  10.714 -0.7899  0.2507  0.0149
  469TMC3    O1 7042   3.820   1.880  10.819 -0.5295 -0.2703 -0.0746
  469TMC3    O2 7043   4.467   1.891  10.607  0.0186  0.4668  0.1000
  470TMC3    C1 7044   1.415   2.796   0.994  0.0953 -0.5053  0.2589
  470TMC3    C2 7045   1.483   2.910   1.020 -0.3275  0.2530  0.3216
  470TMC3    C3 7046   1.445   2.984   1.133 -0.1652  0.6251 -0.2240
  470TMC3    C4 7047   1.305   2.749   1.070 -0.2435 -0.2691  0.3684
  470TMC3    C5 7048   1.259   2.833   1.171  0.0256  1.0194  0.2659
  470TMC3    C6 7049   1.335   2.943   1.215 -0.4850  1.2353  0.1942
  470TMC3     C 7050   1.445   2.739   0.862  0.0080  0.6355 -0.6545
  470TMC3     O 7051   1.510   2.803   0.775  0.0552  0.2531  0.4531
  470TMC3     H 7052   1.566   2.928   0.952  1.0853 -0.3395  1.8960
  470TMC3    H1 7053   1.246   2.663   1.039  0.9540 -1.4050  1.2427
  470TMC3    H2 7054   1.323   3.002   1.305 -0.4279 -0.0435  1.0331
  470TMC3    C7 7055   1.129   2.809   1.228  0.1902  0.2684  0.4276
  470TMC3    C8 7056   1.521   3.110   1.165 -0.6235  0.1104  0.0375
  470TMC3    O1 7057   1.077   2.705   1.195  0.7404  0.3136  0.1341
  470TMC3    O2 7058   1.509   3.156   1.276  0.0003  0.4658 -0.1745
  471MPD2     C 7059   1.747   3.858  16.840  0.1952 -0.0939  0.3566
  471MPD2    C1 7060   1.755   3.723  16.822  0.5083 -0.4081  1.0111
  471MPD2    C2 7061   1.812   3.648  16.919  0.3614  0.1256  0.5534
  471MPD2    C3 7062   1.873   3.710  17.029  0.8964  0.4053 -0.3564
  471MPD2    C4 7063   1.858   3.845  17.052  0.3548  0.2636  0.1145
  471MPD2    C5 7064   1.788   3.911  16.959 -0.1205  0.3007  0.1664
  471MPD2     H 7065   1.815   3.542  16.899 -1.8213  0.3509 -0.9231
  471MPD2    H1 7066   1.899   3.887  17.144 -0.2356 -0.7475  0.8334
  471MPD2    H2 7067   1.691   3.918  16.769  2.3848 -0.8461 -2.0410
  471MPD2    H3 7068   1.753   4.012  16.976  0.3550  0.7505 -1.5223
  471MPD2     N 7069   1.959   3.637  17.117  0.0183  0.1798 -0.9353
  471MPD2    H5 7070   1.980   3.686  17.203 -2.7643 -1.1650  0.5093
  471MPD2    N1 7071   1.708   3.655  16.703  0.2668 -0.0571 -0.3941
  471MPD2    H7 7072   1.709   3.554  16.700  1.5512  0.0212 -2.4387
  472TMC3    C1 7073   1.605   3.623  16.489 -0.2113  0.3984 -0.3037
  472TMC3    C2 7074   1.497   3.663  16.418 -0.2630  0.1942  0.2049
  472TMC3    C3 7075   1.431   3.569  16.343 -0.0383  0.3129 -0.1815
  472TMC3    C4 7076   1.658   3.499  16.475  0.4811  0.0755  0.4781
  472TMC3    C5 7077   1.588   3.414  16.392 -0.7596 -0.8625 -0.3443
  472TMC3    C6 7078   1.472   3.442  16.336 -0.3524  0.3188 -0.2262
  472TMC3     C 7079   1.653   3.715  16.591  0.2552 -0.2741 -0.0717
  472TMC3     O 7080   1.636   3.834  16.568 -0.3626  0.0988  0.1928
  472TMC3     H 7081   1.462   3.765  16.429 -0.6221  0.1157 -0.2297
  472TMC3    H1 7082   1.755   3.472  16.517  0.0750 -0.6310  0.9630
  472TMC3    H2 7083   1.412   3.374  16.278 -1.1774  0.5613  0.3372
  472TMC3    C7 7084   1.623   3.271  16.398  0.7437 -0.1702  0.3150
  472TMC3    C8 7085   1.291   3.595  16.320  0.4796 -0.2852  0.3931
  472TMC3    O1 7086   1.670   3.240  16.506 -0.2012  0.0488 -0.3372
  472TMC3    O2 7087   1.247   3.694  16.259 -0.1401 -0.4154  0.2032
  473MPD2     C 7088   2.291   0.556  13.864 -0.1938 -0.0101  0.0532
  473MPD2    C1 7089   2.211   0.643  13.792  0.1622  0.4211 -0.9865
  473MPD2    C2 7090   2.228   0.785  13.811  0.6012  0.0053 -0.0281
  473MPD2    C3 7091   2.321   0.826  13.901  0.5379  0.3086 -0.1355
  473MPD2    C4 7092   2.399   0.740  13.969  0.0529  0.5783 -0.1422
  473MPD2    C5 7093   2.380   0.605  13.955 -0.0227  0.0841 -0.6067
  473MPD2     H 7094   2.173   0.856  13.751  1.4097  0.9736  0.3712
  473MPD2    H1 7095   2.469   0.772  14.046  0.6910 -0.2640 -0.3823
  473MPD2    H2 7096   2.271   0.449  13.861  0.7087 -0.1363 -1.4062
  473MPD2    H3 7097   2.428   0.528  14.013  0.3519  2.3438  2.1021
  473MPD2     N 7098   2.329   0.961  13.955 -0.2051 -0.2577  0.0948
  473MPD2    H5 7099   2.403   0.985  14.020  1.4223  1.7418 -2.5001
  473MPD2    N1 7100   2.117   0.600  13.696  0.3105  0.8344  0.2784
  473MPD2    H7 7101   2.076   0.679  13.647  0.7098  1.4805  1.0033
  474TMC3    C1 7102   2.269   1.189  13.994 -0.5998 -0.0819 -0.3379
  474TMC3    C2 7103   2.161   1.273  13.997  0.7672 -0.1288  0.1754
  474TMC3    C3 7104   2.170   1.392  14.068  0.0819  0.0621 -0.6102
  474TMC3    C4 7105   2.384   1.218  14.071  0.0468 -0.0574 -0.1888
  474TMC3    C5 7106   2.389   1.336  14.141 -0.8743  0.3144 -0.3114
  474TMC3    C6 7107   2.283   1.417  14.144 -0.4967 -0.8318 -0.3430
  474TMC3     C 7108   2.241   1.061  13.924 -0.2876 -1.3253  0.5708
  474TMC3     O 7109   2.136   1.050  13.866 -0.0342 -1.0844  0.6056
  474TMC3     H 7110   2.069   1.255  13.942  1.3784 -1.0974 -0.5276
  474TMC3    H1 7111   2.471   1.152  14.076  0.1725  0.1567  0.5130
  474TMC3    H2 7112   2.284   1.497  14.217 -1.6014  0.2498 -1.5027
  474TMC3    C7 7113   2.511   1.359  14.213  0.4910 -0.2739 -0.6237
  474TMC3    C8 7114   2.042   1.453  14.095  0.1930 -0.0994  0.5161
  474TMC3    O1 7115   2.608   1.300  14.172 -0.8216 -0.7135 -0.0387
  474TMC3    O2 7116   1.945   1.389  14.126  0.0884  0.3167  0.0501
  475MPD2     C 7117   0.338   4.400  11.518 -0.9417 -0.1747 -0.5021
  475MPD2    C1 7118   0.395   4.421  11.394  0.2972 -0.5774  0.5266
  475MPD2    C2 7119   0.336   4.376  11.277 -0.6857 -0.1092  0.0973
  475MPD2    C3 7120   0.213   4.311  11.283  0.3387 -0.2419 -0.0728
  475MPD2    C4 7121   0.157   4.292  11.413 -0.8301  0.0131  0.6773
  475MPD2    C5 7122   0.214   4.343  11.522  0.2995 -0.7084  0.8277
  475MPD2     H 7123   0.387   4.390  11.182  1.5854  0.2081  1.3867
  475MPD2    H1 7124   0.065   4.237  11.435 -1.8857  2.0495  1.3470
  475MPD2    H2 7125   0.384   4.441  11.607 -0.5932  0.5771 -1.0228
  475MPD2    H3 7126   0.150   4.337  11.609  1.2822 -1.8147  1.4750
  475MPD2     N 7127   0.143   4.273  11.162  0.2817 -0.7642 -0.0045
  475MPD2    H5 7128   0.186   4.295  11.073  1.3549 -1.5254  0.3173
  475MPD2    N1 7129   0.513   4.500  11.389 -0.0396  0.2714 -0.2102
  475MPD2    H7 7130   0.539   4.550  11.473  0.4989 -0.7894  0.2466
  476TMC3    C1 7131   0.705   4.616  11.293  0.0584  0.2931 -0.2633
  476TMC3    C2 7132   0.758   4.661  11.176 -0.1522 -0.1764 -0.5600
  476TMC3    C3 7133   0.846   0.025  11.191  0.6664  0.5791 -0.1131
  476TMC3    C4 7134   0.739   4.675  11.416  0.4074 -0.4299  0.3783
  476TMC3    C5 7135   0.836   0.032  11.423  0.0893  0.2546 -0.8262
  476TMC3    C6 7136   0.890   0.083  11.307  0.3484 -0.3910 -0.1347
  476TMC3     C 7137   0.590   4.526  11.277 -0.4385 -0.5013 -0.0888
  476TMC3     O 7138   0.584   4.475  11.167 -0.1089 -0.2699 -0.1592
  476TMC3     H 7139   0.730   4.623  11.079 -1.1393 -0.7395 -0.0551
  476TMC3    H1 7140   0.689   4.641  11.506  0.8858 -0.9810  0.4372
  476TMC3    H2 7141   0.974   0.150  11.292  0.3725  0.1145  2.3524
  476TMC3    C7 7142   0.860   0.098  11.551 -0.6380  0.1863 -0.8470
  476TMC3    C8 7143   0.915   0.073  11.067 -0.1422  0.0999 -0.4158
  476TMC3    O1 7144   0.833   0.047  11.662  0.3986  0.1355  0.2220
  476TMC3    O2 7145   0.930   0.189  11.046 -0.1874  0.1140 -0.3481
  477MPD2     C 7146   3.305   0.766  12.127  0.2997 -0.9924 -0.5979
  477MPD2    C1 7147   3.258   0.676  12.032  0.1514 -1.2912 -0.4918
  477MPD2    C2 7148   3.230   0.544  12.053 -0.1149 -0.5939 -0.5409
  477MPD2    C3 7149   3.250   0.498  12.181  0.3840  0.2441 -0.2716
  477MPD2    C4 7150   3.304   0.586  12.278  0.1913 -0.3623 -0.3926
  477MPD2    C5 7151   3.341   0.717  12.249  0.8309 -0.3865 -0.4926
  477MPD2     H 7152   3.217   0.474  11.971 -0.4900 -1.1853  0.0166
  477MPD2    H1 7153   3.326   0.558  12.380 -1.2550 -0.3948 -0.0934
  477MPD2    H2 7154   3.307   0.874  12.115 -0.5199 -0.8365  0.6696
  477MPD2    H3 7155   3.387   0.772  12.330  1.3287  1.3997 -2.0076
  477MPD2     N 7156   3.233   0.355  12.197  0.7468 -0.1504  0.4713
  477MPD2    H5 7157   3.203   0.300  12.117  0.3574  2.6985 -1.3235
  477MPD2    N1 7158   3.241   0.738  11.903  0.2349  0.4848 -0.0820
  477MPD2    H7 7159   3.269   0.834  11.891  0.4908  0.3055 -0.9356
  478TMC3    C1 7160   3.110   0.803  11.718  0.5841 -0.1834  0.6031
  478TMC3    C2 7161   3.084   0.925  11.774  0.1372  0.4206  0.1372
  478TMC3    C3 7162   3.006   1.013  11.700 -0.1122  0.0721  0.2628
  478TMC3    C4 7163   3.068   0.772  11.592 -0.5480 -0.0209 -0.0512
  478TMC3    C5 7164   3.002   0.867  11.517  0.4247  0.1347 -0.4359
  478TMC3    C6 7165   2.970   0.991  11.570 -0.4423  0.3657  1.0142
  478TMC3     C 7166   3.155   0.696  11.804  0.1225  0.2672  0.1467
  478TMC3     O 7167   3.095   0.590  11.790  0.5505  0.4257 -0.3800
  478TMC3     H 7168   3.114   0.947  11.876 -3.6024  1.2660  1.0800
  478TMC3    H1 7169   3.070   0.674  11.545  0.4769  0.1215 -0.3069
  478TMC3    H2 7170   2.907   1.062  11.516  3.1712  1.5341 -1.6785
  478TMC3    C7 7171   3.018   0.845  11.375 -0.5507  0.1605 -0.4552
  478TMC3    C8 7172   2.938   1.117  11.775 -0.1139 -0.7938  0.1521
  478TMC3    O1 7173   3.107   0.767  11.345 -0.0660  0.4791  0.3405
  478TMC3    O2 7174   2.998   1.139  11.886 -0.5010 -0.4185 -0.5480
  479MPD2     C 7175   1.667   3.070  15.438  0.1102  0.3921 -0.3972
  479MPD2    C1 7176   1.583   3.008  15.528  0.7076  0.1857  0.3379
  479MPD2    C2 7177   1.566   3.069  15.651  0.4439  0.1871 -0.3545
  479MPD2    C3 7178   1.642   3.182  15.688  0.0133  0.5620 -0.1554
  479MPD2    C4 7179   1.737   3.232  15.600 -0.0594  0.2118 -0.1092
  479MPD2    C5 7180   1.742   3.181  15.471 -0.1309 -0.0266 -0.0885
  479MPD2     H 7181   1.499   3.030  15.727  0.4885 -0.3007 -0.5624
  479MPD2    H1 7182   1.790   3.324  15.621  0.3213 -0.0150 -0.0695
  479MPD2    H2 7183   1.686   3.036  15.337 -0.8853 -0.8378 -0.1748
  479MPD2    H3 7184   1.808   3.222  15.396  1.0377 -1.0594  0.3753
  479MPD2     N 7185   1.633   3.247  15.817 -0.4253  0.5067 -0.2080
  479MPD2    H5 7186   1.718   3.289  15.851 -1.0609 -0.2903  2.4045
  479MPD2    N1 7187   1.496   2.905  15.490 -0.1904  0.0737  0.1417
  479MPD2    H7 7188   1.509   2.863  15.398 -0.5552  1.4213 -0.5198
  480TMC3    C1 7189   1.247   3.055  15.970  0.6920  0.7404  0.3139
  480TMC3    C2 7190   1.172   3.073  15.863  0.5249  0.2038  0.0973
  480TMC3    C3 7191   1.220   3.154  15.760 -0.4028 -0.2479 -0.9056
  480TMC3    C4 7192   1.366   3.114  15.986 -0.0742  0.9083  0.2324
  480TMC3    C5 7193   1.405   3.191  15.887 -0.7500  0.1464 -0.0407
  480TMC3    C6 7194   1.337   3.221  15.769  0.2964  0.0380  0.3062
  480TMC3     C 7195   1.228   2.926  16.035 -0.1818 -0.0168  0.2639
  480TMC3     O 7196   1.173   2.840  15.967  0.4050  0.0962 -0.1698
  480TMC3     H 7197   1.082   3.014  15.851  1.8953 -1.6326 -1.1180
  480TMC3    H1 7198   1.420   3.108  16.080 -0.8468 -0.2432  0.5927
  480TMC3    H2 7199   1.376   3.296  15.700  3.1789  0.2196  2.1116
  480TMC3    C7 7200   1.533   3.252  15.915  0.7480  0.0051  0.2217
  480TMC3    C8 7201   1.157   3.158  15.632 -0.3602 -0.3002  0.0011
  480TMC3    O1 7202   1.558   3.292  16.031 -0.0397 -0.0684 -0.2181
  480TMC3    O2 7203   1.033   3.145  15.629  0.1677  0.3202  0.7498
  481MPD2     C 7204   3.108   1.987  13.893 -0.2402  0.4742  0.1887
  481MPD2    C1 7205   3.019   2.086  13.940 -0.3528 -0.5407  0.1901
  481MPD2    C2 7206   3.068   2.176  14.035 -0.6487 -0.5468 -0.5746
  481MPD2    C3 7207   3.203   2.182  14.070 -0.3267 -0.4627 -0.4615
  481MPD2    C4 7208   3.285   2.082  14.028 -0.0893  0.4527 -0.0690
  481MPD2    C5 7209   3.236   1.979  13.956  0.1657  0.8371  0.3410
  481MPD2     H 7210   2.994   2.245  14.074  0.1094  0.5862 -1.1178
  481MPD2    H1 7211   3.388   2.070  14.060  0.2589 -0.8314 -1.6440
  481MPD2    H2 7212   3.078   1.922  13.812 -1.6270 -2.4439  3.0303
  481MPD2    H3 7213   3.294   1.898  13.914  1.2518  0.6252  2.2661
  481MPD2     N 7214   3.254   2.282  14.159  0.2383  0.1131 -0.4304
  481MPD2    H5 7215   3.349   2.262  14.187 -0.1664 -0.0189  0.8495
  481MPD2    N1 7216   2.882   2.103  13.905  0.2607 -0.7589  0.2065
  481MPD2    H7 7217   2.835   2.187  13.937  0.2806 -0.2234 -1.1706
  482TMC3    C1 7218   2.675   2.045  13.810 -0.0272  0.2521 -0.6059
  482TMC3    C2 7219   2.601   1.959  13.736  0.4311  0.1886  0.6403
  482TMC3    C3 7220   2.494   2.011  13.663 -0.5226  0.0271 -0.1960
  482TMC3    C4 7221   2.643   2.180  13.802 -0.0165 -1.2611  0.0946
  482TMC3    C5 7222   2.542   2.225  13.729 -0.0170 -0.5856  0.1864
  482TMC3    C6 7223   2.460   2.140  13.667  0.2028  0.7290  0.6396
  482TMC3     C 7224   2.810   2.008  13.841  0.0759 -0.0442  0.4719
  482TMC3     O 7225   2.837   1.893  13.826  0.5525 -0.2397  0.5239
  482TMC3     H 7226   2.626   1.856  13.760  0.1718 -0.4199 -1.6153
  482TMC3    H1 7227   2.697   2.256  13.857 -0.9572  0.5583 -1.4570
  482TMC3    H2 7228   2.368   2.170  13.619 -0.0622  0.8636  1.2371
  482TMC3    C7 7229   2.534   2.363  13.678  0.2946  0.3337  0.3673
  482TMC3    C8 7230   2.440   1.919  13.570  0.2247 -0.0212  0.4169
  482TMC3    O1 7231   2.453   2.380  13.586 -0.2876  0.1781  0.9575
  482TMC3    O2 7232   2.492   1.807  13.578 -0.4505  0.5334 -0.7766
  483TMC3    C1 7233   2.166   1.191   0.761  0.6799 -0.0609  1.1264
  483TMC3    C2 7234   2.068   1.282   0.726 -1.0779 -0.1041 -0.1871
  483TMC3    C3 7235   1.982   1.313   0.826 -0.2789 -0.2186 -0.3666
  483TMC3    C4 7236   2.173   1.136   0.888  0.4299  0.0521  0.4376
  483TMC3    C5 7237   2.087   1.174   0.982  0.5801  1.2787  0.0074
  483TMC3    C6 7238   1.986   1.263   0.953  0.0367 -0.4740 -0.2097
  483TMC3     C 7239   2.179   1.097   0.652  0.0068 -0.4549 -0.1810
  483TMC3     O 7240   2.156   1.131   0.536 -0.2559  0.1219  0.3801
  483TMC3     H 7241   2.069   1.325   0.627 -1.8308 -2.1051 -1.0648
  483TMC3    H1 7242   2.248   1.060   0.909 -1.3452 -1.9369 -0.4654
  483TMC3    H2 7243   1.890   1.262   1.003  0.2285 -1.7876  0.1272
  483TMC3    C7 7244   2.062   1.061   1.069  0.7738  0.2577  0.0493
  483TMC3    C8 7245   1.872   1.393   0.779 -1.0145  0.4721  0.0273
  483TMC3    O1 7246   2.092   0.954   1.017 -0.7738  0.0698  0.2629
  483TMC3    O2 7247   1.861   1.394   0.657 -0.0436 -0.3544 -0.3745
  484MPD2     C 7248   3.743   4.071  12.000 -0.3243  0.2862  0.5747
  484MPD2    C1 7249   3.766   4.094  12.135  0.4498 -0.7116 -0.1195
  484MPD2    C2 7250   3.868   4.185  12.163 -0.1247 -0.3565 -0.0429
  484MPD2    C3 7251   3.921   4.271  12.063 -0.0571  0.1612  0.0924
  484MPD2    C4 7252   3.904   4.239  11.933 -0.4923 -0.4051 -0.0166
  484MPD2    C5 7253   3.819   4.130  11.901  0.1269 -0.3086  0.2638
  484MPD2     H 7254   3.897   4.193  12.267  0.5408  1.2004 -0.3470
  484MPD2    H1 7255   3.967   4.293  11.863 -0.6216  0.3250  0.4284
  484MPD2    H2 7256   3.662   4.003  11.975 -0.0152  0.6296 -1.4033
  484MPD2    H3 7257   3.791   4.113  11.798  2.3235  0.0298 -0.3877
  484MPD2     N 7258   4.011   4.380  12.084  0.2943 -0.0625 -0.2999
  484MPD2    H5 7259   4.041   4.431  12.002 -2.3692  2.4966  0.3426
  484MPD2    N1 7260   3.691   4.023  12.225 -0.5346 -0.3594 -0.0413
  484MPD2    H7 7261   3.619   3.957  12.196 -1.4220  0.5354  0.1408
  485TMC3    C1 7262   4.152   4.521  12.223  1.4383 -0.0749 -0.4603
  485TMC3    C2 7263   4.203   4.553  12.348 -0.4376 -0.3467  0.0360
  485TMC3    C3 7264   4.313   4.635  12.351  0.0406 -0.4872 -0.4321
  485TMC3    C4 7265   4.197   4.585  12.109 -0.0327 -0.2613  0.1438
  485TMC3    C5 7266   4.298   4.679  12.120 -0.0890 -0.2497  0.5694
  485TMC3    C6 7267   4.361   4.700  12.242 -0.0452  0.8193 -0.2265
  485TMC3     C 7268   4.050   4.420  12.213 -0.0464  0.0260 -0.3961
  485TMC3     O 7269   4.024   4.373  12.322  0.4192 -0.7481  0.2354
  485TMC3     H 7270   4.182   4.496  12.438  4.2158 -0.5131  1.0389
  485TMC3    H1 7271   4.163   4.553  12.011 -0.2439  2.1228 -0.5816
  485TMC3    H2 7272   4.451   0.022  12.237 -0.9867  2.1162 -1.3368
  485TMC3    C7 7273   4.397   4.643  12.010  0.0235  0.6301  0.3938
  485TMC3    C8 7274   4.436   4.572  12.409  0.2627  0.7167 -0.3486
  485TMC3    O1 7275   4.352   4.641  11.893 -0.3373  0.3204 -0.4003
  485TMC3    O2 7276   4.531   4.574  12.335  0.3879  1.3272  0.5034
  486MPD2     C 7277   1.245   3.057  13.207  0.0112 -0.2531  0.0791
  486MPD2    C1 7278   1.256   2.990  13.090  0.2389  0.5468 -0.0597
  486MPD2    C2 7279   1.232   3.045  12.963 -0.0762  0.2051 -0.0634
  486MPD2    C3 7280   1.184   3.170  12.965 -0.1704  0.0121  0.2379
  486MPD2    C4 7281   1.177   3.241  13.084  0.2310 -0.0021  0.0641
  486MPD2    C5 7282   1.218   3.187  13.200 -0.0559  1.0780 -0.2768
  486MPD2     H 7283   1.229   2.985  12.872  0.9092 -0.4529  0.3304
  486MPD2    H1 7284   1.133   3.340  13.094 -0.8713 -0.6818  2.0145
  486MPD2    H2 7285   1.273   3.016  13.303 -0.4941  0.4737  0.5338
  486MPD2    H3 7286   1.216   3.245  13.292 -1.0252  0.6580 -0.0229
  486MPD2     N 7287   1.130   3.232  12.843 -0.2322 -0.3039  0.3342
  486MPD2    H5 7288   1.162   3.184  12.760  1.5910 -1.0297  1.4525
  486MPD2    N1 7289   1.293   2.852  13.110  0.4781 -0.0752  0.4752
  486MPD2    H7 7290   1.343   2.817  13.191 -1.7751  1.3682  2.4686
  487TMC3    C1 7291   1.317   2.620  13.031  0.1655 -0.3518 -1.0118
  487TMC3    C2 7292   1.325   2.542  12.924 -0.3941  0.5771  0.3532
  487TMC3    C3 7293   1.359   2.409  12.937 -0.6186  0.1152  0.3333
  487TMC3    C4 7294   1.337   2.571  13.158  0.2692 -0.0379 -0.2292
  487TMC3    C5 7295   1.369   2.438  13.177  0.6608 -0.0631 -0.0510
  487TMC3    C6 7296   1.388   2.354  13.065 -0.1507 -0.3929 -0.4640
  487TMC3     C 7297   1.265   2.755  13.011 -0.5188  0.4920  0.6420
  487TMC3     O 7298   1.182   2.764  12.923  0.5090 -0.2765 -0.3677
  487TMC3     H 7299   1.288   2.587  12.832 -1.6111 -2.5930 -0.7035
  487TMC3    H1 7300   1.288   2.618  13.242  1.6182 -1.0101  1.0910
  487TMC3    H2 7301   1.424   2.252  13.065 -0.3144 -0.4531 -1.0598
  487TMC3    C7 7302   1.289   2.390  13.290  0.6215  0.3364  0.2092
  487TMC3    C8 7303   1.281   2.316  12.863 -0.1049 -0.4329 -0.9612
  487TMC3    O1 7304   1.280   2.460  13.390  0.4701  0.9540  0.4665
  487TMC3    O2 7305   1.346   2.223  12.814 -0.0885 -0.4917  0.2105
  488MPD2     C 7306   1.343   0.219  16.446  0.4202  0.6864  0.0170
  488MPD2    C1 7307   1.395   0.336  16.476  0.0783  0.2035 -0.3303
  488MPD2    C2 7308   1.385   0.380  16.605  0.6027  0.0083  0.3833
  488MPD2    C3 7309   1.325   0.309  16.706 -0.5835 -0.3311  0.0954
  488MPD2    C4 7310   1.262   0.194  16.674  0.4801 -0.2957 -0.3639
  488MPD2    C5 7311   1.270   0.149  16.542 -0.2235 -0.4627  0.1903
  488MPD2     H 7312   1.415   0.484  16.617  0.0683  0.3338 -1.0411
  488MPD2    H1 7313   1.213   0.129  16.746  0.4835  2.3787  2.0478
  488MPD2    H2 7314   1.350   0.170  16.349 -0.3938 -1.2222  0.9337
  488MPD2    H3 7315   1.231   0.049  16.526  0.6563 -0.5600 -1.2867
  488MPD2     N 7316   1.313   0.367  16.835 -0.3373 -0.2200 -0.1004
  488MPD2    H5 7317   1.353   0.459  16.851 -1.6600  0.4770 -0.7323
  488MPD2    N1 7318   1.458   0.414  16.379 -0.1808  0.5503  0.1318
  488MPD2    H7 7319   1.509   0.491  16.420  0.0473 -0.5197  1.8280
  489TMC3    C1 7320   1.220   0.431  17.050  0.3412 -0.0354 -0.1771
  489TMC3    C2 7321   1.320   0.527  17.061  0.1490  0.1566 -0.5038
  489TMC3    C3 7322   1.283   0.633  17.129 -0.1090  0.3215 -0.1932
  489TMC3    C4 7323   1.098   0.440  17.107 -0.7873  0.0623 -0.4936
  489TMC3    C5 7324   1.072   0.559  17.168  0.4196 -0.0197 -0.4562
  489TMC3    C6 7325   1.162   0.660  17.177  0.8195 -0.0763 -0.4590
  489TMC3     C 7326   1.232   0.332  16.943  0.8183  0.2657  0.0781
  489TMC3     O 7327   1.138   0.251  16.935  0.4312 -0.2380  0.0078
  489TMC3     H 7328   1.415   0.519  17.008  1.4134  1.5545  1.5383
  489TMC3    H1 7329   1.029   0.358  17.095 -0.0678 -0.2504 -2.4660
  489TMC3    H2 7330   1.141   0.744  17.242  2.7508  0.0150  0.0479
  489TMC3    C7 7331   0.933   0.592  17.203  0.0151  0.5346  0.3298
  489TMC3    C8 7332   1.382   0.739  17.121  0.6524  0.3257  0.1951
  489TMC3    O1 7333   0.910   0.711  17.226  0.2079 -0.0478  0.2652
  489TMC3    O2 7334   1.500   0.714  17.133  0.0394 -0.1316 -0.1863
  490MPD2     C 7335   2.615   3.654  17.546 -0.5150  0.1487 -0.2616
  490MPD2    C1 7336   2.539   3.684  17.655  0.0636 -0.0357 -0.2893
  490MPD2    C2 7337   2.596   3.696   0.025  0.0629 -0.3550  0.5403
  490MPD2    C3 7338   2.727   3.664   0.043  0.0743 -0.7554  0.7284
  490MPD2    C4 7339   2.801   3.627  17.690 -0.7995  0.4999  0.1325
  490MPD2    C5 7340   2.746   3.619  17.562 -0.5610 -0.1123  0.0606
  490MPD2     H 7341   2.540   3.719   0.114 -0.3937 -1.8080  0.6298
  490MPD2    H1 7342   2.909   3.620  17.701 -0.7816  0.4617 -0.0715
  490MPD2    H2 7343   2.582   3.638  17.444 -0.6670 -1.0621 -0.0254
  490MPD2    H3 7344   2.806   3.599  17.474  0.1759 -2.4872  1.1038
  490MPD2     N 7345   2.790   3.692   0.168  0.1230 -0.5249  0.4521
  490MPD2    H5 7346   2.890   3.679   0.154  0.2592  0.8912  0.0514
  490MPD2    N1 7347   2.410   3.729  17.642  0.5884 -0.0166  0.3589
  490MPD2    H7 7348   2.364   3.759  17.727  1.9193  0.2208  1.0018
  491TMC3    C1 7349   2.216   3.828  17.554  0.1313  0.1542 -0.3563
  491TMC3    C2 7350   2.217   3.902  17.677  0.3749  0.2432 -0.0336
  491TMC3    C3 7351   2.098   3.947  17.724  0.0426 -0.6209  0.7175
  491TMC3    C4 7352   2.103   3.798  17.487  0.0404 -0.1002 -0.2286
  491TMC3    C5 7353   1.990   3.844  17.536  0.3153 -0.3122 -0.8909
  491TMC3    C6 7354   1.984   3.932  17.649 -0.3580  0.3034  0.2246
  491TMC3     C 7355   2.330   3.742  17.530  0.1245  0.8255  0.5391
  491TMC3     O 7356   2.343   3.687  17.424  0.1465 -0.3468  0.6183
  491TMC3     H 7357   2.304   3.955  17.712  0.8339  1.1590 -2.5647
  491TMC3    H1 7358   2.104   3.739  17.396  1.6252 -2.0571  1.0580
  491TMC3    H2 7359   1.891   3.981  17.678 -2.3344 -3.1386 -0.2322
  491TMC3    C7 7360   1.882   3.841  17.441  0.6203 -0.8251 -0.2525
  491TMC3    C8 7361   2.084   4.045   0.081 -0.4253  0.5479 -0.1549
  491TMC3    O1 7362   1.876   3.750  17.359 -0.3315 -0.5125 -0.1025
  491TMC3    O2 7363   2.177   4.112   0.113 -0.6091 -0.3468  0.1328
  492MPD2     C 7364   2.823   3.907  10.888  0.2365 -0.5326  0.1755
  492MPD2    C1 7365   2.690   3.882  10.856 -0.5078 -0.6510 -0.0406
  492MPD2    C2 7366   2.614   3.799  10.941 -0.4695 -0.0317  0.0139
  492MPD2    C3 7367   2.674   3.723  11.039 -0.0326 -0.0720  0.5529
  492MPD2    C4 7368   2.810   3.743  11.066  0.7240 -0.3883  0.1390
  492MPD2    C5 7369   2.878   3.838  10.993  0.1943  0.6390 -0.4871
  492MPD2     H 7370   2.508   3.786  10.922 -0.4973  0.8967 -0.4941
  492MPD2    H1 7371   2.862   3.681  11.139  0.4981 -1.4057 -0.5614
  492MPD2    H2 7372   2.893   3.973  10.836  2.0682 -0.2401  3.0198
  492MPD2    H3 7373   2.983   3.859  11.008 -0.4504  0.4033  4.2072
  492MPD2     N 7374   2.610   3.628  11.124  1.0001  0.2688 -0.6695
  492MPD2    H5 7375   2.670   3.594  11.198 -1.0935  1.8206  1.7430
  492MPD2    N1 7376   2.638   3.951  10.745  0.5079  0.1013  0.1348
  492MPD2    H7 7377   2.711   4.003  10.697  0.6684  1.1840  1.5344
  493TMC3    C1 7378   2.498   4.015  10.566 -1.1721 -0.6914 -0.5070
  493TMC3    C2 7379   2.605   4.058  10.501 -0.3202  1.0504 -0.2261
  493TMC3    C3 7380   2.595   4.176  10.435 -0.2298 -0.1697  0.4650
  493TMC3    C4 7381   2.370   4.065  10.561 -0.0498  0.2010 -0.6687
  493TMC3    C5 7382   2.358   4.178  10.484  0.6467 -0.1389 -0.5146
  493TMC3    C6 7383   2.467   4.227  10.415  0.3410 -0.6381  0.7533
  493TMC3     C 7384   2.516   3.937  10.690  0.2772 -0.4365  0.0966
  493TMC3     O 7385   2.416   3.872  10.725  0.3995 -0.4936  0.2893
  493TMC3     H 7386   2.701   4.008  10.507 -1.3320 -1.1870 -2.4519
  493TMC3    H1 7387   2.299   4.037  10.638  0.4858 -0.8932 -0.5698
  493TMC3    H2 7388   2.464   4.317  10.355  0.2793 -2.0278 -1.3467
  493TMC3    C7 7389   2.213   4.211  10.454 -1.0442 -0.1999 -0.3913
  493TMC3    C8 7390   2.684   4.268  10.490  0.0815  0.1575  0.5799
  493TMC3    O1 7391   2.128   4.134  10.498  0.8649 -0.0193 -0.2140
  493TMC3    O2 7392   2.754   4.224  10.579  0.2004  0.0611 -0.2984
  494TMC3    C1 7393   2.462   1.250   0.404  0.1467  0.8207  1.0614
  494TMC3    C2 7394   2.493   1.140   0.478 -0.4297  0.7957  0.4350
  494TMC3    C3 7395   2.551   1.032   0.418  0.1663  0.5788  0.1761
  494TMC3    C4 7396   2.477   1.253   0.268 -0.0931 -0.9450 -0.2485
  494TMC3    C5 7397   2.526   1.135   0.211  0.1888 -0.4183 -0.6387
  494TMC3    C6 7398   2.571   1.026   0.279  0.2529  0.3200 -0.4362
  494TMC3     C 7399   2.414   1.364   0.488  0.0019 -0.5222 -0.1739
  494TMC3     O 7400   2.449   1.377   0.601 -0.2580 -0.4299 -0.6197
  494TMC3     H 7401   2.473   1.149   0.584  3.1726  0.6208  1.1436
  494TMC3    H1 7402   2.452   1.343   0.213 -0.7182  0.9361  3.1450
  494TMC3    H2 7403   2.610   0.936   0.233  1.0330 -1.0883  2.9736
  494TMC3    C7 7404   2.525   1.126   0.070 -0.1662  0.6527  0.0206
  494TMC3    C8 7405   2.578   0.922   0.504 -0.0026 -0.7092  0.0123
  494TMC3    O1 7406   2.535   1.234   0.016  0.1461 -0.2442  0.2332
  494TMC3    O2 7407   2.505   0.916   0.601  0.1008  0.3496  0.3057
  495TMC3    C1 7408   1.711   2.877  14.829  0.4190  0.2249  0.0168
  495TMC3    C2 7409   1.636   2.886  14.712 -0.1068 -0.0436 -0.1191
  495TMC3    C3 7410   1.500   2.899  14.737 -0.3358 -0.5895  0.4427
  495TMC3    C4 7411   1.658   2.906  14.947  0.3494  0.1022 -0.4371
  495TMC3    C5 7412   1.523   2.932  14.961 -0.5677  0.0560 -1.1202
  495TMC3    C6 7413   1.440   2.917  14.856 -0.5330  0.0409 -0.2097
  495TMC3     C 7414   1.853   2.901  14.824 -0.8557 -0.6418 -0.2876
  495TMC3     O 7415   1.907   2.967  14.912 -0.0779  0.9543  0.3630
  495TMC3     H 7416   1.679   2.890  14.613  0.2399 -0.2077  0.0260
  495TMC3    H1 7417   1.727   2.909  15.031 -1.5486 -0.3325  1.1500
  495TMC3    H2 7418   1.332   2.918  14.862 -0.4105  1.7417  1.9237
  495TMC3    C7 7419   1.487   3.003  15.082  0.4527 -0.2254 -0.7143
  495TMC3    C8 7420   1.408   2.875  14.630 -0.3845  0.0862  1.2574
  495TMC3    O1 7421   1.552   2.962  15.179 -0.0702 -0.2021  0.3672
  495TMC3    O2 7422   1.324   2.961  14.612  0.6369 -0.1508  0.4251
  496MPD2     C 7423   3.469   3.499  15.164 -0.5198 -0.1130 -0.1968
  496MPD2    C1 7424   3.539   3.464  15.283  0.1078  0.4522 -0.5551
  496MPD2    C2 7425   3.464   3.430  15.394  0.9806 -0.6742 -0.7895
  496MPD2    C3 7426   3.326   3.409  15.391 -0.5411  0.6519 -0.5490
  496MPD2    C4 7427   3.262   3.459  15.277 -0.1376 -0.1348 -0.4442
  496MPD2    C5 7428   3.334   3.499  15.166 -0.4269 -0.1912 -0.6164
  496MPD2     H 7429   3.517   3.384  15.477  0.4799  0.6811  0.2827
  496MPD2    H1 7430   3.154   3.468  15.281  0.2106  3.5584 -0.0822
  496MPD2    H2 7431   3.520   3.535  15.075 -1.2275  2.1533  0.3024
  496MPD2    H3 7432   3.287   3.540  15.077 -1.1895 -1.3340 -0.7298
  496MPD2     N 7433   3.246   3.343  15.493 -0.1854  0.5778 -0.0857
  496MPD2    H5 7434   3.148   3.346  15.467 -0.7576 -0.4348  1.9895
  496MPD2    N1 7435   3.680   3.482  15.288  0.4269 -0.2621 -0.1417
  496MPD2    H7 7436   3.729   3.501  15.201  0.3855  2.2251  0.3671
  497TMC3    C1 7437   3.202   3.190  15.675  0.1087  0.1697 -0.1167
  497TMC3    C2 7438   3.112   3.122  15.601  0.2805  0.0423  0.2153
  497TMC3    C3 7439   3.057   3.008  15.648  0.1319  0.3929  0.2006
  497TMC3    C4 7440   3.242   3.135  15.801  0.4715 -0.2383 -0.2089
  497TMC3    C5 7441   3.185   3.020  15.841 -0.0468 -0.3259  0.3395
  497TMC3    C6 7442   3.092   2.951  15.770 -0.3751 -0.0437 -0.4985
  497TMC3     C 7443   3.293   3.284  15.616  0.0520  0.2236  0.1444
  497TMC3     O 7444   3.405   3.281  15.669 -0.1008  1.1099  0.5069
  497TMC3     H 7445   3.082   3.158  15.503 -0.6577  0.0815  0.5107
  497TMC3    H1 7446   3.328   3.177  15.852  0.6345  0.0224 -0.7019
  497TMC3    H2 7447   3.048   2.864  15.817 -1.4227 -0.4899 -2.3107
  497TMC3    C7 7448   3.168   2.997  15.982 -0.8567 -0.0231  0.0718
  497TMC3    C8 7449   2.990   2.931  15.552  0.5094  0.9367 -0.0789
  497TMC3    O1 7450   3.052   2.997  16.019 -0.2207  0.3123 -0.4364
  497TMC3    O2 7451   2.944   2.989  15.450  0.6043 -0.4500  0.5274
  498MPD2     C 7452   4.055   4.101  10.219 -0.7504  0.4679 -0.2598
  498MPD2    C1 7453   4.166   4.022  10.199 -0.2056 -0.6633 -0.8302
  498MPD2    C2 7454   4.150   3.884  10.201 -0.6412  1.2171 -0.1989
  498MPD2    C3 7455   4.033   3.826  10.230  0.0025 -0.0013  0.5272
  498MPD2    C4 7456   3.917   3.907  10.247  0.0368 -0.2284 -0.9197
  498MPD2    C5 7457   3.937   4.040  10.242  0.5419  0.3656 -0.8595
  498MPD2     H 7458   4.237   3.822  10.179 -1.5208  0.3369 -1.1758
  498MPD2    H1 7459   3.821   3.859  10.262  1.0619 -2.2896 -0.9813
  498MPD2    H2 7460   4.058   4.209  10.228 -0.6919  0.6164 -1.9493
  498MPD2    H3 7461   3.852   4.105  10.262 -1.1939 -2.5047  1.0390
  498MPD2     N 7462   4.033   3.686  10.230 -0.8349 -0.3070  0.4099
  498MPD2    H5 7463   4.121   3.637  10.218  0.2713  2.2293 -1.7369
  498MPD2    N1 7464   4.294   4.069  10.176  0.0122  0.4718  0.2315
  498MPD2    H7 7465   4.363   3.995  10.177  0.6600  1.0692  0.0696
  499TMC3    C1 7466   4.471   4.209  10.110 -0.1283  0.2833 -0.5709
  499TMC3    C2 7467   4.562   4.117  10.149 -0.2405 -0.1329  0.3412
  499TMC3    C3 7468   4.692   4.135  10.111 -0.2436  0.4370  0.7513
  499TMC3    C4 7469   4.506   4.324  10.040 -0.1777 -0.3756 -0.1673
  499TMC3    C5 7470   4.637   4.342  10.014 -0.0804 -0.1764  0.2540
  499TMC3    C6 7471   4.735   4.253  10.045  0.7409  0.1222  0.6241
  499TMC3     C 7472   4.330   4.199  10.148 -0.5320 -0.0005 -0.1423
  499TMC3     O 7473   4.262   4.297  10.116  0.5633  0.4190  0.4166
  499TMC3     H 7474   4.533   4.032  10.210 -1.1239 -0.1954 -0.1703
  499TMC3    H1 7475   4.438   4.407  10.024  1.7681  0.9296 -1.5429
  499TMC3    H2 7476   0.097   4.265  10.008  0.2257 -0.6653 -1.0528
  499TMC3    C7 7477   4.683   4.461   9.936 -0.2909 -0.5789  0.3164
  499TMC3    C8 7478   0.040   4.025  10.138 -0.7664 -0.5642  0.6110
  499TMC3    O1 7479   0.064   4.495   9.950 -0.6817  0.2421  0.1402
  499TMC3    O2 7480   4.737   3.916  10.171  0.2498 -0.3696 -0.1787
  500MPD2     C 7481   1.466   0.121  10.987 -0.0502 -0.0341 -0.3909
  500MPD2    C1 7482   1.518   0.153  10.865 -0.3161 -0.1716 -0.2794
  500MPD2    C2 7483   1.437   0.201  10.761 -0.6481  0.7365 -0.1600
  500MPD2    C3 7484   1.302   0.207  10.786 -0.3379 -0.8003  0.1535
  500MPD2    C4 7485   1.245   0.189  10.909 -0.2533  0.2387  0.1253
  500MPD2    C5 7486   1.329   0.133  11.010  0.1022  0.9865 -0.0712
  500MPD2     H 7487   1.479   0.236  10.667  0.0289  1.8343  0.5493
  500MPD2    H1 7488   1.138   0.198  10.926 -0.2266  2.0288 -0.6505
  500MPD2    H2 7489   1.511   0.067  11.070 -0.5489 -0.2980 -0.2893
  500MPD2    H3 7490   1.285   0.085  11.096  0.3568  2.6998  1.0119
  500MPD2     N 7491   1.207   0.250  10.697 -0.0530  0.1276  0.0071
  500MPD2    H5 7492   1.129   0.290  10.748 -0.1513 -2.7205  2.0948
  500MPD2    N1 7493   1.659   0.152  10.847 -0.2410 -0.2491 -0.3293
  500MPD2    H7 7494   1.694   0.190  10.760  0.4618 -1.4466 -0.5571
  501TMC3    C1 7495   1.885   0.113  10.881 -0.0870 -0.5111 -0.2734
  501TMC3    C2 7496   1.928   0.210  10.796 -0.5452 -1.2714  0.0787
  501TMC3    C3 7497   2.051   0.196  10.744 -0.5648  0.3313  0.0949
  501TMC3    C4 7498   1.968   0.010  10.932  0.8394  0.6337  0.0883
  501TMC3    C5 7499   2.097   0.016  10.889 -0.6065 -0.7718  0.9411
  501TMC3    C6 7500   2.140   0.102  10.792 -0.0200  0.6611 -0.6903
  501TMC3     C 7501   1.756   0.115  10.936  0.0918 -0.2220 -0.1147
  501TMC3     O 7502   1.746   0.061  11.049  0.1551  0.0257 -0.2006
  501TMC3     H 7503   1.859   0.289  10.768  1.3523  0.4241  0.1733
  501TMC3    H1 7504   1.940   4.684  11.014 -2.7684  3.9689  1.4952
  501TMC3    H2 7505   2.238   0.098  10.745  0.3891  0.3716  0.1690
  501TMC3    C7 7506   2.191   4.657  10.933 -0.7146 -0.3524  0.0264
  501TMC3    C8 7507   2.108   0.304  10.676  0.0284  0.6132  0.4931
  501TMC3    O1 7508   2.152   4.540  10.953  0.6282  0.5781  0.3252
  501TMC3    O2 7509   2.222   0.333  10.702  0.4028 -0.0602 -0.3508
  502TMC3    C1 7510   1.040   3.663  15.049 -0.6363  0.5605  0.3971
  502TMC3    C2 7511   1.032   3.719  14.927  0.2171  0.4646 -0.2429
  502TMC3    C3 7512   0.932   3.804  14.898 -0.3745  0.1108  0.1875
  502TMC3    C4 7513   0.944   3.681  15.142  0.0959  0.6760  0.5220
  502TMC3    C5 7514   0.844   3.767  15.110 -0.1891  0.3573  0.8864
  502TMC3    C6 7515   0.831   3.815  14.986  0.3829  0.1576 -0.7993
  502TMC3     C 7516   1.173   3.705  15.101 -0.8340  0.4997 -0.3976
  502TMC3     O 7517   1.276   3.680  15.034  0.3840  0.2036  0.0011
  502TMC3     H 7518   1.121   3.710  14.865  1.2222  2.6086  0.8928
  502TMC3    H1 7519   0.946   3.649  15.245 -0.7279 -3.7548 -0.8713
  502TMC3    H2 7520   0.758   3.891  14.961 -1.3976 -0.7351  1.6434
  502TMC3    C7 7521   0.813   3.871  15.198  0.2440  0.3036  0.2999
  502TMC3    C8 7522   0.976   3.924  14.827 -0.0157 -0.3854  0.6720
  502TMC3    O1 7523   0.903   3.893  15.274  0.0135 -0.0263 -0.1149
  502TMC3    O2 7524   0.930   4.032  14.864 -0.0483 -0.6282  0.2695
  503MPD2     C 7525   2.910   0.113  17.702 -0.5107  0.2943  0.5468
  503MPD2    C1 7526   2.959   0.156  17.582  0.0551  0.1184 -0.0546
  503MPD2    C2 7527   3.066   0.086  17.520 -1.1469 -0.4987 -0.6491
  503MPD2    C3 7528   3.108   4.712  17.582  0.5311 -0.2937 -0.3699
  503MPD2    C4 7529   3.046   4.669  17.693 -0.4257  0.6625 -0.0617
  503MPD2    C5 7530   2.951   0.000   0.006 -0.0716  0.0284  0.2905
  503MPD2     H 7531   3.113   0.125  17.430  0.1586 -0.8346 -0.1141
  503MPD2    H1 7532   3.089   4.581  17.739  1.3019  1.4479 -0.1431
  503MPD2    H2 7533   2.825   0.166  17.744 -0.2751  0.6234  0.6059
  503MPD2    H3 7534   2.909   4.703   0.099  0.6248 -2.8156 -0.5211
  503MPD2     N 7535   3.208   4.620  17.530 -0.3175 -0.2862 -0.1691
  503MPD2    H5 7536   3.237   4.547  17.595  1.2599  0.7312  0.2623
  503MPD2    N1 7537   2.898   0.269  17.543 -0.2043  0.2967 -0.2674
  503MPD2    H7 7538   2.843   0.319  17.612  2.4852  0.2642  1.9036
  504TMC3    C1 7539   3.354   4.509  17.377 -0.5412  0.1963 -0.7505
  504TMC3    C2 7540   3.354   4.395  17.459  0.3979 -0.5909 -0.1196
  504TMC3    C3 7541   3.431   4.288  17.421  0.6609  0.6359  0.0188
  504TMC3    C4 7542   3.459   4.518  17.282 -0.5264  0.3264 -0.2383
  504TMC3    C5 7543   3.549   4.416  17.265 -0.1234 -0.1402 -0.2176
  504TMC3    C6 7544   3.531   4.293  17.328  0.0051  0.5446 -0.0706
  504TMC3     C 7545   3.265   4.624  17.401  0.0911 -0.2193  0.2769
  504TMC3     O 7546   3.249   4.709  17.316  0.1365 -0.0173  0.1575
  504TMC3     H 7547   3.278   4.379  17.534 -0.7577  1.6880 -0.8169
  504TMC3    H1 7548   3.484   4.614  17.238 -1.1491 -0.6577 -2.7398
  504TMC3    H2 7549   3.574   4.201  17.291 -2.0904  0.0305 -1.2274
  504TMC3    C7 7550   3.678   4.437  17.206 -0.7186 -0.4365  0.4547
  504TMC3    C8 7551   3.402   4.160  17.479 -0.1084 -0.3542  0.0209
  504TMC3    O1 7552   3.697   4.518  17.114 -0.7029  0.0275 -0.0961
  504TMC3    O2 7553   3.452   4.060  17.426  0.6210 -0.0416  0.2674
  505MPD2     C 7554   3.505   2.752  10.980  0.0382  0.2309  0.0755
  505MPD2    C1 7555   3.591   2.657  10.918  1.0093  0.7548  0.3288
  505MPD2    C2 7556   3.723   2.648  10.966 -0.1559  0.1382 -0.8743
  505MPD2    C3 7557   3.769   2.718  11.076 -0.7798  0.1184  0.3407
  505MPD2    C4 7558   3.689   2.810  11.140 -0.5905 -0.1597  0.3308
  505MPD2    C5 7559   3.561   2.826  11.084  0.3064  0.3865  0.4831
  505MPD2     H 7560   3.791   2.581  10.915  0.8811 -0.4819  1.2892
  505MPD2    H1 7561   3.733   2.864  11.223  0.2833  0.5547 -0.5946
  505MPD2    H2 7562   3.405   2.776  10.945  0.8125  0.7630 -1.7602
  505MPD2    H3 7563   3.491   2.902  11.115 -0.6058 -0.0286 -0.5474
  505MPD2     N 7564   3.907   2.701  11.108  0.7446 -0.1077  0.2338
  505MPD2    H5 7565   3.947   2.616  11.069  0.5058  0.6809 -1.7115
  505MPD2    N1 7566   3.538   2.592  10.808  0.6309 -0.2658  0.3172
  505MPD2    H7 7567   3.449   2.623  10.770  1.3798  0.6965 -0.6414
  506TMC3    C1 7568   3.544   2.414  10.643 -0.2696  0.1245 -0.3259
  506TMC3    C2 7569   3.523   2.491  10.533 -0.3986  0.3938  0.0707
  506TMC3    C3 7570   3.545   2.427  10.410  1.3074 -0.0334  0.1538
  506TMC3    C4 7571   3.593   2.287  10.631  0.0208 -0.2510  0.1055
  506TMC3    C5 7572   3.617   2.228  10.512  1.1096 -0.5473 -0.1630
  506TMC3    C6 7573   3.588   2.296  10.400  0.0504  1.0374 -0.1567
  506TMC3     C 7574   3.602   2.477  10.754  0.2099  0.5297 -0.6382
  506TMC3     O 7575   3.714   2.435  10.782  0.8247 -0.0524  0.1696
  506TMC3     H 7576   3.478   2.589  10.541 -1.3727 -0.1024  0.7262
  506TMC3    H1 7577   3.603   2.229  10.722  1.1589  0.7017  0.5904
  506TMC3    H2 7578   3.624   2.268  10.302  0.3166 -0.4257  0.3592
  506TMC3    C7 7579   3.753   2.184  10.506 -0.6910  0.7321 -0.4726
  506TMC3    C8 7580   3.544   2.509  10.288 -1.1834  0.0672 -0.2207
  506TMC3    O1 7581   3.789   2.127  10.406  0.6935  0.1309 -0.7118
  506TMC3    O2 7582   3.523   2.445  10.181  0.2010 -0.1881 -0.3196
  507TMC3    C1 7583   4.426   0.105  14.843  0.2551 -0.3161 -0.2048
  507TMC3    C2 7584   4.453   4.712  14.849  0.0295 -0.8127 -0.5125
  507TMC3    C3 7585   4.564   4.674  14.777 -0.0709 -0.3103  0.2838
  507TMC3    C4 7586   4.491   0.199  14.765  0.0241 -0.4058 -0.5114
  507TMC3    C5 7587   4.593   0.155  14.689 -0.4540 -0.1549  0.0507
  507TMC3    C6 7588   4.623   0.026  14.696  0.2906  0.3833  0.1061
  507TMC3     C 7589   4.336   0.166  14.939  0.5159 -0.5359 -0.3210
  507TMC3     O 7590   4.378   0.267  14.989 -0.2620 -0.6293 -0.5607
  507TMC3     H 7591   4.426   4.653  14.936 -0.2629 -0.5200 -0.4065
  507TMC3    H1 7592   4.444   0.296  14.752 -1.0565 -0.9040 -0.3597
  507TMC3    H2 7593   4.709   4.731  14.640  1.3021  0.9493  1.3349
  507TMC3    C7 7594   4.595   0.205  14.554 -0.4346 -0.1167 -0.5872
  507TMC3    C8 7595   4.547   4.550  14.706 -0.3804  0.8368  0.0907
  507TMC3    O1 7596   4.590   0.326  14.540 -0.2238 -0.8995  0.4120
  507TMC3    O2 7597   4.584   4.555  14.586  0.2235  0.0570  0.0112
  508MPD2     C 7598   4.624   2.373  16.370  0.4453 -0.4008  0.6070
  508MPD2    C1 7599   0.022   2.382  16.349 -0.0297  0.1493 -0.0634
  508MPD2    C2 7600   0.075   2.506  16.323 -0.1712  0.3745  0.1390
  508MPD2    C3 7601   4.738   2.619  16.309  0.1771  0.4524 -0.0028
  508MPD2    C4 7602   4.605   2.606  16.329  0.8581 -0.5248  0.3198
  508MPD2    C5 7603   4.547   2.486  16.355 -0.1605 -0.6251  0.6709
  508MPD2     H 7604   0.180   2.532  16.324 -1.3540  5.1253 -0.8850
  508MPD2    H1 7605   4.547   2.698  16.328  0.0609 -1.0245  0.3402
  508MPD2    H2 7606   4.577   2.277  16.391  1.7358 -0.7658  1.8161
  508MPD2    H3 7607   4.440   2.471  16.367 -0.2959  0.3390  0.6033
  508MPD2     N 7608   0.069   2.744  16.281 -0.2019 -0.0627  0.6155
  508MPD2    H5 7609   0.169   2.735  16.263 -0.1196 -0.2481  1.1400
  508MPD2    N1 7610   0.100   2.260  16.366  0.6799 -0.2547 -0.2550
  508MPD2    H7 7611   0.058   2.169  16.382  1.3808 -0.7576 -1.2753
  509TMC3    C1 7612   0.113   3.098  16.041  0.1377  0.0364  0.1626
  509TMC3    C2 7613   0.250   3.074  16.048 -0.5150 -0.1482 -0.1265
  509TMC3    C3 7614   0.298   3.008  16.153  0.1358 -0.5064  0.4574
  509TMC3    C4 7615   0.037   3.048  16.141 -0.2189 -0.0474 -0.2366
  509TMC3    C5 7616   0.089   2.975  16.239 -0.2296 -0.2690  0.0470
  509TMC3    C6 7617   0.219   2.954  16.251 -0.2579  0.7161 -0.1958
  509TMC3     C 7618   0.043   3.152  15.927  0.0783  0.9057 -0.1471
  509TMC3     O 7619   4.667   3.193  15.954  0.5003 -0.1138  0.5778
  509TMC3     H 7620   0.310   3.131  15.979  0.3206 -0.6295  0.1954
  509TMC3    H1 7621   4.670   3.056  16.118  0.3913  1.3151 -2.6078
  509TMC3    H2 7622   0.264   2.913  16.341 -0.5405  2.8469  0.9021
  509TMC3    C7 7623   0.002   2.866  16.281  0.2393 -0.8472 -0.1970
  509TMC3    C8 7624   0.444   3.000  16.170  0.3040  0.1402 -0.6135
  509TMC3    O1 7625   4.622   2.897  16.286 -0.1674 -0.4019 -0.4167
  509TMC3    O2 7626   0.476   2.900  16.231  0.3948 -0.0593  0.4519
  510MPD2     C 7627   3.122   3.560  14.532  0.1206  0.4910  0.0974
  510MPD2    C1 7628   3.184   3.491  14.630  0.2827 -0.2774 -0.2741
  510MPD2    C2 7629   3.324   3.465  14.611 -0.4638  0.0843  0.5037
  510MPD2    C3 7630   3.389   3.501  14.491  0.1299  0.2219 -0.2002
  510MPD2    C4 7631   3.315   3.566  14.386 -0.2143 -0.4322 -0.2410
  510MPD2    C5 7632   3.186   3.591  14.410 -0.1510  0.3578 -0.3601
  510MPD2     H 7633   3.377   3.415  14.692  3.1641  0.5666 -1.5833
  510MPD2    H1 7634   3.366   3.597  14.295  1.5122  0.9877  1.2015
  510MPD2    H2 7635   3.014   3.575  14.529  0.3446  2.1268 -0.0344
  510MPD2    H3 7636   3.135   3.637  14.327 -1.0814 -3.4390 -1.8545
  510MPD2     N 7637   3.525   3.461  14.470 -0.2897 -0.4243 -0.3708
  510MPD2    H5 7638   3.563   3.403  14.544 -0.8796 -1.2200 -0.6871
  510MPD2    N1 7639   3.107   3.446  14.735 -0.0020  0.0763 -0.3579
  510MPD2    H7 7640   3.009   3.474  14.740 -0.0885 -0.1254 -0.8633
  511TMC3    C1 7641   3.036   3.313  14.907  0.2737 -0.2188 -0.1733
  511TMC3    C2 7642   2.934   3.401  14.935  0.1075 -0.2127  0.1543
  511TMC3    C3 7643   2.824   3.344  14.992  0.5423  0.6259  0.2873
  511TMC3    C4 7644   3.029   3.182  14.922  0.7772 -0.6044 -0.0231
  511TMC3    C5 7645   2.909   3.127  14.963 -0.0484 -0.0518  0.2757
  511TMC3    C6 7646   2.806   3.208  15.005 -0.1515 -0.0468  0.4934
  511TMC3     C 7647   3.149   3.360  14.837  1.0186 -0.2012  0.0022
  511TMC3     O 7648   3.250   3.303  14.861 -0.5384 -0.0964 -0.3270
  511TMC3     H 7649   2.936   3.510  14.933  1.5333 -0.2765 -1.3545
  511TMC3    H1 7650   3.108   3.110  14.904  0.7300 -0.5320 -0.5082
  511TMC3    H2 7651   2.702   3.177  15.006  0.3498 -1.7831 -0.7733
  511TMC3    C7 7652   2.870   3.000  14.904 -0.4260 -0.1749 -0.1638
  511TMC3    C8 7653   2.720   3.413  15.056 -0.3485  0.9042 -0.6231
  511TMC3    O1 7654   2.926   2.976  14.795 -0.0401  0.1900  0.0759
  511TMC3    O2 7655   2.698   3.530  15.021  0.1020 -0.3930  0.2032
  512TMC3    C1 7656   1.725   2.884  13.364  0.2227 -0.4984 -0.1527
  512TMC3    C2 7657   1.812   2.827  13.447 -0.7559  0.4076 -0.0799
  512TMC3    C3 7658   1.866   2.707  13.403  0.9056 -0.4667  0.6275
  512TMC3    C4 7659   1.706   2.837  13.233 -0.0260  0.1427  0.3982
  512TMC3    C5 7660   1.757   2.714  13.201 -0.2200 -0.0881  0.2963
  512TMC3    C6 7661   1.841   2.644  13.285 -0.1647  0.7328 -0.6834
  512TMC3     C 7662   1.649   2.990  13.423  0.2315  0.2118 -0.3558
  512TMC3     O 7663   1.657   3.002  13.546 -0.3503  0.8864  0.1517
  512TMC3     H 7664   1.826   2.855  13.551  1.7889  2.1754 -0.8906
  512TMC3    H1 7665   1.636   2.889  13.170  2.0144  1.2903 -0.9322
  512TMC3    H2 7666   1.880   2.544  13.268  0.7501  1.1479 -1.0288
  512TMC3    C7 7667   1.735   2.667  13.066  0.2948 -0.3622  0.0191
  512TMC3    C8 7668   1.987   2.662  13.475  0.0647 -0.8121 -0.1480
  512TMC3    O1 7669   1.648   2.723  12.998  0.3032  0.1371 -0.2626
  512TMC3    O2 7670   2.015   2.546  13.466 -0.2554  0.3756  0.1662
  513MPD2     C 7671   3.969   2.813  13.842 -0.9529  0.5639 -0.4808
  513MPD2    C1 7672   3.995   2.833  13.704 -0.3850  0.1306 -0.2684
  513MPD2    C2 7673   4.110   2.907  13.672 -0.1248 -0.2285 -0.3157
  513MPD2    C3 7674   4.187   2.969  13.771 -0.0867 -0.5301 -0.8886
  513MPD2    C4 7675   4.150   2.950  13.902  0.4787  0.5520 -0.3456
  513MPD2    C5 7676   4.042   2.873  13.942 -0.3310 -0.5345 -0.3882
  513MPD2     H 7677   4.144   2.919  13.570 -0.9113 -1.5159 -0.7464
  513MPD2    H1 7678   4.206   2.991  13.985 -0.0693 -0.8748  0.7188
  513MPD2    H2 7679   3.902   2.734  13.874 -2.7107  2.7732  1.2570
  513MPD2    H3 7680   4.016   2.858  14.046  0.2826  2.5380  0.2183
  513MPD2     N 7681   4.293   3.049  13.737 -0.3447 -0.2087 -0.5629
  513MPD2    H5 7682   4.315   3.049  13.638 -2.3754 -1.3342 -1.0082
  513MPD2    N1 7683   3.924   2.755  13.609 -0.2357 -0.2877 -0.3077
  513MPD2    H7 7684   3.854   2.689  13.642 -0.4918  0.4368  0.5876
  514TMC3    C1 7685   3.894   2.639  13.405 -0.6296 -0.4111 -0.3671
  514TMC3    C2 7686   3.809   2.669  13.306  0.6513 -0.3526  0.1895
  514TMC3    C3 7687   3.830   2.614  13.184 -0.3657  0.5513  0.2930
  514TMC3    C4 7688   4.001   2.557  13.387  0.6422 -0.7019 -0.3943
  514TMC3    C5 7689   4.015   2.503  13.263 -0.0553 -0.3146  0.3146
  514TMC3    C6 7690   3.930   2.525  13.162 -0.5050  0.1694  0.0267
  514TMC3     C 7691   3.941   2.760  13.467  0.7667 -0.3136 -0.2054
  514TMC3     O 7692   4.024   2.823  13.402  0.0593  0.1162  0.2803
  514TMC3     H 7693   3.728   2.737  13.328  0.8380  0.3703 -1.3349
  514TMC3    H1 7694   4.074   2.547  13.467  0.6401 -0.7618 -0.3997
  514TMC3    H2 7695   3.949   2.484  13.063 -0.0082  2.0130 -0.6444
  514TMC3    C7 7696   4.157   2.509  13.224  0.6616 -1.0471 -0.2753
  514TMC3    C8 7697   3.828   2.714  13.080  0.2852 -0.8462  0.7395
  514TMC3    O1 7698   4.184   2.458  13.115 -0.4312 -0.5091  0.0076
  514TMC3    O2 7699   3.823   2.829  13.112  0.3076  0.3347  0.0521
  515MPD2     C 7700   1.824   4.279  14.286  0.0896  0.0138  0.1038
  515MPD2    C1 7701   1.718   4.336  14.355 -0.5484 -0.7449  0.1688
  515MPD2    C2 7702   1.748   4.378  14.485  0.4707 -0.0981  0.2313
  515MPD2    C3 7703   1.876   4.361  14.536 -0.7204  0.1017  0.7827
  515MPD2    C4 7704   1.975   4.300  14.469  0.6483  0.2323  0.0626
  515MPD2    C5 7705   1.946   4.259  14.348  0.2543 -0.0989  0.2540
  515MPD2     H 7706   1.672   4.428  14.544 -0.0995 -1.0405  0.2884
  515MPD2    H1 7707   2.074   4.282  14.509 -0.0616 -2.2547  0.7055
  515MPD2    H2 7708   1.818   4.268  14.178  1.5680  0.5632 -0.0302
  515MPD2    H3 7709   2.018   4.213  14.282  0.2946  0.5904 -0.1823
  515MPD2     N 7710   1.905   4.393  14.674 -0.3298 -0.1938  0.1404
  515MPD2    H5 7711   1.997   4.366  14.708 -0.6351  0.7302  1.6792
  515MPD2    N1 7712   1.581   4.345  14.306  0.1530  0.1944  0.0238
  515MPD2    H7 7713   1.517   4.381  14.376  2.1432  2.3242  0.7911
  516TMC3    C1 7714   1.397   4.247  14.205  0.0692  0.0885 -0.1458
  516TMC3    C2 7715   1.319   4.339  14.269  0.0797 -0.3342  0.2798
  516TMC3    C3 7716   1.206   4.281  14.325  0.6942 -0.1267 -0.4998
  516TMC3    C4 7717   1.367   4.112  14.192 -0.4547 -0.9237 -0.4022
  516TMC3    C5 7718   1.253   4.066  14.253 -0.4541 -0.3532  0.3835
  516TMC3    C6 7719   1.170   4.151  14.320  0.0433 -0.6820 -0.0932
  516TMC3     C 7720   1.541   4.271  14.192 -0.0054  0.4687 -0.2513
  516TMC3     O 7721   1.607   4.194  14.124 -0.3239  0.3365 -0.4866
  516TMC3     H 7722   1.351   4.442  14.282 -1.1125 -0.0626  1.1166
  516TMC3    H1 7723   1.433   4.042  14.142 -0.1334 -0.0535 -1.2027
  516TMC3    H2 7724   1.085   4.116  14.378  0.8998 -0.2819  1.4170
  516TMC3    C7 7725   1.267   3.930  14.296  0.4435 -0.6136 -0.3024
  516TMC3    C8 7726   1.094   4.370  14.341  0.7775  0.2569  0.7772
  516TMC3    O1 7727   1.380   3.880  14.305 -0.2974 -0.6956  0.1154
  516TMC3    O2 7728   0.988   4.326  14.390 -0.8187 -0.0900  0.7272
  517MPD2     C 7729   1.182   1.612  17.421 -0.0507 -0.2605  0.1752
  517MPD2    C1 7730   1.284   1.556  17.494  0.7906 -0.0724  0.0686
  517MPD2    C2 7731   1.338   1.625  17.600  0.0281 -0.0477 -0.9104
  517MPD2    C3 7732   1.290   1.746  17.638 -0.6018  0.2724  0.3145
  517MPD2    C4 7733   1.179   1.801  17.572  0.4594  0.8420 -0.6122
  517MPD2    C5 7734   1.128   1.729  17.466 -0.3742  0.2480 -0.9647
  517MPD2     H 7735   1.414   1.576  17.660 -0.0527  1.4578  0.4240
  517MPD2    H1 7736   1.137   1.899  17.589 -0.3139  0.4743 -0.3920
  517MPD2    H2 7737   1.155   1.572  17.324 -0.8855 -0.1041  0.3406
  517MPD2    H3 7738   1.050   1.773  17.405 -2.5801 -0.0375  1.6756
  517MPD2     N 7739   1.352   1.820  17.741  0.5927 -0.2879 -0.2913
  517MPD2    H5 7740   1.320   1.916  17.749 -0.3560 -0.4875 -1.6846
  517MPD2    N1 7741   1.352   1.438  17.454  0.2202 -0.1480 -0.1404
  517MPD2    H7 7742   1.440   1.417  17.500  0.8306  0.1853 -1.1561
  518TMC3    C1 7743   1.406   1.244  17.357 -0.0179  0.1545 -0.2190
  518TMC3    C2 7744   1.371   1.112  17.388  0.0801  0.2803  0.3793
  518TMC3    C3 7745   1.477   1.025  17.403  0.3701 -0.1824 -0.3139
  518TMC3    C4 7746   1.536   1.286  17.334 -0.7877 -0.1502 -0.0597
  518TMC3    C5 7747   1.630   1.186  17.342  0.1389 -0.1919  0.0937
  518TMC3    C6 7748   1.609   1.057  17.384  0.2540  0.2675 -0.4017
  518TMC3     C 7749   1.304   1.344  17.367  0.1942  0.1369  0.3236
  518TMC3     O 7750   1.188   1.320  17.336 -0.0077 -0.0415  0.1622
  518TMC3     H 7751   1.267   1.089  17.405  0.6047 -2.2124  0.2103
  518TMC3    H1 7752   1.568   1.388  17.317  2.0070 -1.3572 -1.9359
  518TMC3    H2 7753   1.692   0.990  17.406 -0.4895  0.3225  2.5029
  518TMC3    C7 7754   1.769   1.216  17.311 -0.2392  0.7665 -0.0133
  518TMC3    C8 7755   1.451   0.893  17.453 -0.1463  0.0976  0.0103
  518TMC3    O1 7756   1.805   1.330  17.326 -0.1101 -0.6771 -0.4589
  518TMC3    O2 7757   1.542   0.813  17.467  0.5827  0.1864 -0.2633
  519MPD2     C 7758   2.841   3.779  14.243  0.4170 -0.2511  0.4135
  519MPD2    C1 7759   2.947   3.866  14.250  0.8271  0.4721  0.1077
  519MPD2    C2 7760   3.064   3.830  14.188 -0.4801  0.0729  0.4097
  519MPD2    C3 7761   3.077   3.721  14.101  0.2462  0.5767 -0.3411
  519MPD2    C4 7762   2.971   3.634  14.084 -0.2297  0.5153  0.3832
  519MPD2    C5 7763   2.851   3.668  14.158  0.6898 -0.2131 -0.1394
  519MPD2     H 7764   3.144   3.902  14.202 -1.0297  1.2125 -2.1781
  519MPD2    H1 7765   2.970   3.550  14.016 -1.7414  2.3241 -1.8251
  519MPD2    H2 7766   2.742   3.796  14.284  0.3248  1.9155 -0.7463
  519MPD2    H3 7767   2.767   3.600  14.147  0.5012 -0.0314  0.1854
  519MPD2     N 7768   3.188   3.695  14.022  0.3771  0.1574 -0.8118
  519MPD2    H5 7769   3.180   3.623  13.951  1.9949 -0.7485 -0.0937
  519MPD2    N1 7770   2.930   3.992  14.318 -0.2518  0.5716  0.3769
  519MPD2    H7 7771   2.845   4.015  14.370  0.2536 -0.5760  1.7134
  520TMC3    C1 7772   3.402   3.746  13.947 -0.3908 -0.1874  0.3621
  520TMC3    C2 7773   3.355   3.796  13.833 -0.0024 -0.7826  0.1082
  520TMC3    C3 7774   3.439   3.866  13.744  0.2321 -0.3936  0.1203
  520TMC3    C4 7775   3.532   3.760  13.978  0.5954  0.2440  0.5236
  520TMC3    C5 7776   3.618   3.827  13.890  0.2742 -0.7841 -0.5653
  520TMC3    C6 7777   3.571   3.882  13.768  0.3027 -0.1853 -0.6080
  520TMC3     C 7778   3.314   3.744  14.056 -0.4595 -0.0832  0.4816
  520TMC3     O 7779   3.352   3.798  14.158 -0.1195 -0.1507  0.6061
  520TMC3     H 7780   3.249   3.783  13.812  0.7512 -4.8503 -1.1422
  520TMC3    H1 7781   3.559   3.721  14.076  0.4460 -1.0757  0.0436
  520TMC3    H2 7782   3.630   3.926  13.688 -0.4800  0.5416 -0.7958
  520TMC3    C7 7783   3.758   3.833  13.930 -0.2434 -0.2741  0.2751
  520TMC3    C8 7784   3.382   3.936  13.630  0.7545 -0.0275  0.0248
  520TMC3    O1 7785   3.796   3.760  14.026 -0.0687 -0.1321 -0.4344
  520TMC3    O2 7786   3.455   3.968  13.537  0.0121  0.2764  0.3797
  521MPD2     C 7787   3.935   1.929   0.056 -0.1192 -0.2528 -0.0408
  521MPD2    C1 7788   3.885   1.935  17.684  0.0840  1.4017 -0.3835
  521MPD2    C2 7789   3.966   1.904  17.581 -0.2102  0.2969 -0.0644
  521MPD2    C3 7790   4.097   1.861  17.599 -0.1411 -0.2767  0.2900
  521MPD2    C4 7791   4.147   1.848  17.729  0.1251  0.6763 -1.0834
  521MPD2    C5 7792   4.068   1.888   0.081 -1.2435  0.2386 -0.0419
  521MPD2     H 7793   3.932   1.909  17.478  0.8457  5.1079 -0.1776
  521MPD2    H1 7794   4.244   1.814   0.010 -2.2506 -4.4635  0.4910
  521MPD2    H2 7795   3.875   1.939   0.145  0.4325  1.5002  0.1288
  521MPD2    H3 7796   4.115   1.891   0.179 -2.4344 -0.2153  0.5445
  521MPD2     N 7797   4.176   1.846  17.483 -0.1499 -0.0892 -0.2100
  521MPD2    H5 7798   4.139   1.891  17.400  1.0050  0.6679 -0.3198
  521MPD2    N1 7799   3.746   1.977  17.666  0.6643  0.5086  0.3018
  521MPD2    H7 7800   3.703   2.021  17.746  0.5136 -0.8779  0.9902
  522TMC3    C1 7801   4.369   1.830  17.350 -0.3472 -0.4290 -0.5499
  522TMC3    C2 7802   4.462   1.735  17.307  0.8047  0.2113  1.0318
  522TMC3    C3 7803   4.542   1.769  17.200 -0.2268 -0.8094  0.7451
  522TMC3    C4 7804   4.368   1.960  17.307 -0.5143  0.3827 -0.0772
  522TMC3    C5 7805   4.450   1.991  17.198 -0.3116  0.2197 -0.7078
  522TMC3    C6 7806   4.532   1.895  17.145  0.6619  0.2203 -0.1172
  522TMC3     C 7807   4.308   1.801  17.476  0.3181 -0.2846  0.4100
  522TMC3     O 7808   4.376   1.749  17.567  0.0390 -0.3608  0.0109
  522TMC3     H 7809   4.467   1.640  17.357 -1.7365 -0.6439 -0.3289
  522TMC3    H1 7810   4.291   2.024  17.349 -0.0256  1.2509 -0.4928
  522TMC3    H2 7811   4.607   1.926  17.073 -0.0439 -0.4675 -1.1523
  522TMC3    C7 7812   4.490   2.129  17.177 -0.0640 -0.6874 -0.1925
  522TMC3    C8 7813   4.624   1.658  17.147  0.2408 -0.1700  0.0985
  522TMC3    O1 7814   4.599   2.141  17.122 -0.2215 -0.0594 -0.3314
  522TMC3    O2 7815   4.627   1.552  17.206 -0.0701  0.3966  0.2592
  523MPD2     C 7816   2.173   2.531  10.472  0.7058  0.0012  0.0259
  523MPD2    C1 7817   2.105   2.441  10.393  0.2854  0.2183  0.1070
  523MPD2    C2 7818   2.004   2.486  10.305 -0.6353  0.3870  0.0915
  523MPD2    C3 7819   1.983   2.622  10.290  0.4857  0.1404 -0.1803
  523MPD2    C4 7820   2.056   2.710  10.369  0.2583  0.8876 -0.0731
  523MPD2    C5 7821   2.150   2.667  10.462 -0.3036  0.4132 -0.4116
  523MPD2     H 7822   1.939   2.418  10.251  1.3529 -1.7256  0.3383
  523MPD2    H1 7823   2.045   2.817  10.361 -1.3708  0.7666  0.4184
  523MPD2    H2 7824   2.255   2.507  10.537  2.9716 -0.9989 -3.1844
  523MPD2    H3 7825   2.213   2.726  10.528 -1.1425 -0.4818  1.2143
  523MPD2     N 7826   1.874   2.676  10.222  0.0220  0.0161 -0.1637
  523MPD2    H5 7827   1.867   2.777  10.228 -1.0098  0.0223 -1.4388
  523MPD2    N1 7828   2.146   2.303  10.403  0.5361  0.3747  0.2250
  523MPD2    H7 7829   2.191   2.281  10.491  0.9702  1.5240  0.2926
  524TMC3    C1 7830   1.705   2.703  10.079  0.3319 -0.2190  0.1647
  524TMC3    C2 7831   1.652   2.657   9.962 -0.5356 -0.0097 -0.0815
  524TMC3    C3 7832   1.547   2.729   9.906  0.3214 -0.2640 -0.3399
  524TMC3    C4 7833   1.658   2.818  10.137 -0.5055 -0.3541  0.1321
  524TMC3    C5 7834   1.559   2.889  10.079 -0.0529  0.3595 -0.1907
  524TMC3    C6 7835   1.508   2.851   9.960 -0.4702 -0.4939  0.1694
  524TMC3     C 7836   1.784   2.612  10.151  0.6108  0.4854 -0.6073
  524TMC3     O 7837   1.766   2.495  10.132 -0.2177  0.5618 -0.1137
  524TMC3     H 7838   1.674   2.558   9.922  2.5417 -0.0070  1.6136
  524TMC3    H1 7839   1.695   2.841  10.237  1.8794 -1.7484 -0.4326
  524TMC3    H2 7840   1.425   2.909   9.919  0.7039  1.0684 -0.0063
  524TMC3    C7 7841   1.497   2.982  10.170 -0.4354  0.3251 -0.4287
  524TMC3    C8 7842   1.522   2.713   9.769  0.1214 -0.3297 -0.1475
  524TMC3    O1 7843   1.519   2.960  10.290 -0.2822  0.2167 -0.3392
  524TMC3    O2 7844   1.418   2.761   9.730 -0.7049 -0.6164 -0.3335
  525MPD2     C 7845   0.019   4.011  14.640 -0.5333 -0.8675  0.6156
  525MPD2    C1 7846   0.050   4.002  14.769 -0.4953 -0.2805 -0.0547
  525MPD2    C2 7847   0.075   4.109  14.847 -0.1878 -0.2690 -0.7102
  525MPD2    C3 7848   0.079   4.237  14.792  0.1929 -0.2690  0.4882
  525MPD2    C4 7849   0.038   4.249  14.663  0.6186 -0.5262 -0.0180
  525MPD2    C5 7850   0.005   4.137  14.583  0.0194 -0.8205 -0.1183
  525MPD2     H 7851   0.094   4.095  14.953 -0.1661  1.4062 -0.5016
  525MPD2    H1 7852   0.026   4.347  14.620  2.6602 -0.4643 -0.4602
  525MPD2    H2 7853   0.015   3.924  14.576  0.1434 -0.1949 -0.3251
  525MPD2    H3 7854   4.729   4.140  14.475  0.0956  2.0794 -0.0580
  525MPD2     N 7855   0.108   4.355  14.859  0.2468  0.4806  0.4088
  525MPD2    H5 7856   0.114   4.444  14.810  0.7306 -0.0979 -0.5602
  525MPD2    N1 7857   0.074   3.876  14.830  0.3803  0.8406  0.6779
  525MPD2    H7 7858   0.080   3.877  14.931 -0.5112  0.8166  0.7295
  526TMC3    C1 7859   0.148   3.664  14.865  0.1614 -0.3013  0.4395
  526TMC3    C2 7860   0.085   3.659  14.989 -0.6568  0.2752  0.5239
  526TMC3    C3 7861   0.149   3.625  15.105  1.4490  0.8479  0.4328
  526TMC3    C4 7862   0.286   3.644  14.869 -0.0729  1.1846 -0.2929
  526TMC3    C5 7863   0.348   3.633  14.988 -0.0401  0.2266  0.0263
  526TMC3    C6 7864   0.283   3.614  15.101 -0.3235  0.0512  0.1979
  526TMC3     C 7865   0.092   3.755  14.766 -0.0010 -0.3973  0.0968
  526TMC3     O 7866   0.086   3.717  14.648 -0.1396  0.2880 -0.2662
  526TMC3     H 7867   4.718   3.681  14.992 -0.2676  1.9710  1.5425
  526TMC3    H1 7868   0.340   3.648  14.775 -1.0637 -1.8971 -1.0228
  526TMC3    H2 7869   0.333   3.581  15.192 -0.2881 -2.2332 -0.6593
  526TMC3    C7 7870   0.484   3.575  14.993  0.0982  0.4576 -0.0679
  526TMC3    C8 7871   0.083   3.658  15.233  0.2091 -0.2309 -0.6710
  526TMC3    O1 7872   0.544   3.586  15.097  0.3855 -0.2515  0.5961
  526TMC3    O2 7873   0.155   3.691  15.321  0.2722  0.2686  0.2379
  527MPD2     C 7874   2.375   2.913   1.285 -0.5146  0.5777  0.0143
  527MPD2    C1 7875   2.304   2.815   1.227 -0.4867 -0.7428  0.0129
  527MPD2    C2 7876   2.375   2.698   1.195 -0.2529  0.0432 -0.0962
  527MPD2    C3 7877   2.515   2.689   1.209  0.6555  0.2475  0.5840
  527MPD2    C4 7878   2.591   2.802   1.248 -0.0684  0.6149  0.5037
  527MPD2    C5 7879   2.515   2.910   1.292  0.3530 -0.0799  0.0928
  527MPD2     H 7880   2.316   2.618   1.152 -1.0214 -0.0953  1.2125
  527MPD2    H1 7881   2.698   2.808   1.233 -0.4093  0.5757 -1.9462
  527MPD2    H2 7882   2.331   3.007   1.315 -2.9311  0.1893 -2.4274
  527MPD2    H3 7883   2.572   2.997   1.323  0.9204  0.6722 -3.0507
  527MPD2     N 7884   2.572   2.565   1.171  0.4225  0.1483  0.4634
  527MPD2    H5 7885   2.515   2.495   1.125  1.0485  1.4061 -2.2040
  527MPD2    N1 7886   2.167   2.817   1.204  0.1737  0.1998  0.1535
  527MPD2    H7 7887   2.131   2.739   1.150 -1.7566  2.3836 -1.7157
  528TMC3    C1 7888   1.941   2.897   1.201 -0.1309 -0.4163 -0.0434
  528TMC3    C2 7889   1.921   2.816   1.097 -0.6340 -0.1044  0.0090
  528TMC3    C3 7890   1.815   2.734   1.084 -0.1868  0.0634 -0.4627
  528TMC3    C4 7891   1.848   2.897   1.298 -0.4827  0.6906 -0.4555
  528TMC3    C5 7892   1.732   2.824   1.279  0.0322  0.2012 -0.0645
  528TMC3    C6 7893   1.714   2.740   1.172  0.0866  0.4894  0.3163
  528TMC3     C 7894   2.079   2.918   1.241  0.4699  0.0831 -0.0938
  528TMC3     O 7895   2.096   3.008   1.322  0.1087  0.0299 -0.2051
  528TMC3     H 7896   1.998   2.808   1.021 -2.1773  0.0619 -1.5825
  528TMC3    H1 7897   1.865   2.952   1.389  0.9194 -0.2105 -0.1742
  528TMC3    H2 7898   1.620   2.688   1.162 -0.1148  0.8374  0.4104
  528TMC3    C7 7899   1.639   2.808   1.389 -0.3990  0.2869  0.5517
  528TMC3    C8 7900   1.800   2.651   0.966 -0.4899 -0.2036 -0.2212
  528TMC3    O1 7901   1.538   2.742   1.368  0.0844 -0.4786 -0.3684
  528TMC3    O2 7902   1.866   2.683   0.862 -0.2381 -0.6822 -0.2120
  529MPD2     C 7903   0.614   0.634   0.778  0.4175  0.6238  0.6188
  529MPD2    C1 7904   0.548   0.528   0.838  0.0248  0.3817  0.6112
  529MPD2    C2 7905   0.415   0.548   0.873 -0.3279 -0.4501  0.4895
  529MPD2    C3 7906   0.348   0.670   0.849  0.3073  0.4228 -0.4430
  529MPD2    C4 7907   0.420   0.772   0.801  0.1161  0.4247 -0.3509
  529MPD2    C5 7908   0.549   0.753   0.764  0.5189  0.7466  0.0869
  529MPD2     H 7909   0.347   0.475   0.916  0.0887 -1.0417  0.1393
  529MPD2    H1 7910   0.371   0.868   0.799 -2.5426 -0.8650  2.4752
  529MPD2    H2 7911   0.719   0.623   0.753  0.2802  1.5007 -0.3313
  529MPD2    H3 7912   0.606   0.838   0.728  1.2493 -0.0535 -0.6285
  529MPD2     N 7913   0.210   0.698   0.880  0.0706  0.4203  0.2912
  529MPD2    H5 7914   0.190   0.798   0.872  2.0241  0.5508 -3.0897
  529MPD2    N1 7915   0.615   0.401   0.859 -0.4679 -0.3675  0.5224
  529MPD2    H7 7916   0.557   0.321   0.884  0.4915 -1.5041 -0.8842
  530TMC3    C1 7917   0.775   0.251   0.936  0.1972  0.1101 -0.3838
  530TMC3    C2 7918   0.865   0.260   1.037 -0.3124 -0.6434 -0.3854
  530TMC3    C3 7919   0.870   0.148   1.122 -0.8343  0.8437 -0.3248
  530TMC3    C4 7920   0.696   0.138   0.910  0.1145  0.7844 -0.3096
  530TMC3    C5 7921   0.701   0.044   1.003 -0.5492  0.6120  0.3209
  530TMC3    C6 7922   0.782   0.043   1.111  0.2532 -0.4388 -0.3374
  530TMC3     C 7923   0.753   0.374   0.862 -0.2140  0.8349 -0.5925
  530TMC3     O 7924   0.845   0.451   0.841 -0.0276  0.2893  0.0446
  530TMC3     H 7925   0.935   0.343   1.028 -2.2049  1.0137  0.0547
  530TMC3    H1 7926   0.627   0.141   0.827 -0.6739 -0.8503  0.2958
  530TMC3    H2 7927   0.778   4.700   1.182  0.4749 -1.0295 -1.0058
  530TMC3    C7 7928   0.591   4.683   0.996 -0.2881 -0.3246 -0.3427
  530TMC3    C8 7929   0.934   0.159   1.250 -0.1910  0.0906  0.3081
  530TMC3    O1 7930   0.551   4.647   0.887  0.4305  0.0629  0.0697
  530TMC3    O2 7931   0.950   0.275   1.295 -0.3454 -0.5067  0.8379
  531MPD2     C 7932   4.593   2.771  13.228 -0.6467 -0.0503 -0.5267
  531MPD2    C1 7933   4.500   2.839  13.302 -0.1309  0.0597  0.1371
  531MPD2    C2 7934   4.372   2.790  13.324 -0.3013 -0.3558  0.2572
  531MPD2    C3 7935   4.342   2.659  13.271 -0.2933  0.3222  0.8281
  531MPD2    C4 7936   4.435   2.591  13.197  0.2172  0.8980 -0.5740
  531MPD2    C5 7937   4.559   2.646  13.176  0.0494  0.9109 -0.1821
  531MPD2     H 7938   4.294   2.838  13.381 -0.0269  0.5437 -0.1199
  531MPD2    H1 7939   4.425   2.492  13.153 -0.2048  0.6683  0.0311
  531MPD2    H2 7940   4.697   2.800  13.222 -0.3046 -0.9208  1.1051
  531MPD2    H3 7941   4.636   2.593  13.122 -0.5858 -0.5226  0.3406
  531MPD2     N 7942   4.211   2.613  13.290  0.0555  0.0505 -0.2265
  531MPD2    H5 7943   4.147   2.672  13.344  1.0754  1.3020 -0.3897
  531MPD2    N1 7944   4.548   2.960  13.362  0.0254  0.0561 -0.2888
  531MPD2    H7 7945   4.646   2.981  13.354  0.0187 -0.3286 -1.3514
  532TMC3    C1 7946   4.555   3.117  13.526 -0.0101 -0.0709 -0.1019
  532TMC3    C2 7947   4.466   3.171  13.614  0.4944 -0.0618 -0.2622
  532TMC3    C3 7948   4.504   3.153  13.740 -0.0094 -0.0790 -0.7253
  532TMC3    C4 7949   4.666   3.047  13.566  0.4215 -0.4814 -0.0836
  532TMC3    C5 7950   4.705   3.050  13.694  0.4725 -0.5394  1.1850
  532TMC3    C6 7951   4.622   3.106  13.786  0.6754  0.4606  0.0057
  532TMC3     C 7952   4.474   3.051  13.434 -1.0557  0.0777  0.0983
  532TMC3     O 7953   4.359   3.059  13.459 -0.2258  0.0905 -0.0145
  532TMC3     H 7954   4.386   3.242  13.599  0.4078 -0.1738 -0.3299
  532TMC3    H1 7955   0.001   3.010  13.496  1.0905  0.6990 -0.0059
  532TMC3    H2 7956   4.647   3.100  13.891 -1.2651  2.2301  0.5641
  532TMC3    C7 7957   0.061   2.952  13.745  0.5397 -0.2185  0.2132
  532TMC3    C8 7958   4.393   3.102  13.816 -0.2752 -0.3260 -0.2833
  532TMC3    O1 7959   0.055   2.932  13.864  0.4652 -0.1410 -0.5599
  532TMC3    O2 7960   4.421   3.082  13.932 -0.3836  1.2345  0.0847
  533TMC3    C1 7961   0.182   4.479  15.045 -0.2403 -0.2352 -0.6429
  533TMC3    C2 7962   0.308   4.496  15.093 -0.4352  0.1015 -0.4621
  533TMC3    C3 7963   0.346   4.623  15.138 -0.0433 -0.3149 -0.0221
  533TMC3    C4 7964   0.082   4.566  15.042  0.5857  0.5286 -0.3068
  533TMC3    C5 7965   0.115   4.686  15.091 -0.1736  0.6065  0.3398
  533TMC3    C6 7966   0.249   4.722  15.136  0.0196  0.0518 -0.6026
  533TMC3     C 7967   0.156   4.352  14.983 -0.4302 -0.0530  0.5239
  533TMC3     O 7968   0.186   4.254  15.053 -0.0579  0.6012 -0.9207
  533TMC3     H 7969   0.373   4.409  15.088  1.3685  1.4424 -0.3811
  533TMC3    H1 7970   4.725   4.548  14.997  0.4021  0.0037  0.2967
  533TMC3    H2 7971   0.273   0.086  15.162  0.9441 -0.1273 -0.7469
  533TMC3    C7 7972   0.039   0.066  15.049  0.2851 -0.2131 -0.1652
  533TMC3    C8 7973   0.474   4.666  15.076  0.2498 -0.3456 -0.0770
  533TMC3    O1 7974   0.079   0.119  14.944 -0.0201 -0.2382 -0.2133
  533TMC3    O2 7975   0.567   4.592  15.091 -0.2506  0.8139 -0.1089
  534MPD2     C 7976   2.931   0.641   1.653  0.0634 -0.2341 -0.2259
  534MPD2    C1 7977   2.856   0.728   1.576 -0.3306  0.1700  0.1981
  534MPD2    C2 7978   2.738   0.681   1.522  0.0205  0.2224 -0.3738
  534MPD2    C3 7979   2.693   0.549   1.538  0.3526  0.0902 -0.6395
  534MPD2    C4 7980   2.771   0.471   1.622 -0.4880 -0.6697 -0.4761
  534MPD2    C5 7981   2.889   0.521   1.677  0.0101  0.3860 -0.5542
  534MPD2     H 7982   2.676   0.748   1.464 -0.3124  0.1721 -0.0751
  534MPD2    H1 7983   2.745   0.366   1.633 -0.9411 -0.5738 -0.6211
  534MPD2    H2 7984   3.018   0.682   1.703  0.5203 -0.8072 -0.5569
  534MPD2    H3 7985   2.944   0.451   1.739 -2.2613  0.5693  1.6503
  534MPD2     N 7986   2.587   0.489   1.470 -0.4760  0.1995 -0.0654
  534MPD2    H5 7987   2.567   0.392   1.491 -0.7846  0.1913 -0.4122
  534MPD2    N1 7988   2.894   0.860   1.549 -0.4729 -0.4084 -0.1070
  534MPD2    H7 7989   2.821   0.924   1.520  0.1828  1.2075  1.7828
  535TMC3    C1 7990   2.403   0.454   1.322 -0.4199 -0.3369 -0.6767
  535TMC3    C2 7991   2.380   0.350   1.406 -0.2667 -0.2598 -0.1752
  535TMC3    C3 7992   2.334   0.228   1.353 -0.0588  1.1308  0.2681
  535TMC3    C4 7993   2.386   0.440   1.186 -0.3077  0.3937 -0.1241
  535TMC3    C5 7994   2.349   0.316   1.136  0.6956  0.7182  0.7222
  535TMC3    C6 7995   2.322   0.208   1.216 -0.0630  0.4111 -0.8799
  535TMC3     C 7996   2.502   0.548   1.376 -0.1484 -0.2092  0.4373
  535TMC3     O 7997   2.521   0.653   1.321  0.0270 -0.1676 -0.4649
  535TMC3     H 7998   2.361   0.371   1.511  0.0326 -0.3404 -0.1037
  535TMC3    H1 7999   2.431   0.514   1.120 -1.5969  1.1868 -0.1126
  535TMC3    H2 8000   2.278   0.117   1.178  1.1541 -0.3084 -0.5532
  535TMC3    C7 8001   2.387   0.284   0.999 -0.1393  0.2041  0.1144
  535TMC3    C8 8002   2.260   0.138   1.439  0.4890  0.2342  0.2126
  535TMC3    O1 8003   2.437   0.175   0.977  0.1750 -0.4390 -0.3429
  535TMC3    O2 8004   2.164   0.078   1.384 -0.5829  0.2526  0.0099
  536MPD2     C 8005   1.476   4.193  16.531 -0.7372 -1.0671 -0.1394
  536MPD2    C1 8006   1.393   4.091  16.514 -0.3762 -0.0086  1.0400
  536MPD2    C2 8007   1.321   4.089  16.397 -0.0673 -0.3877  0.6234
  536MPD2    C3 8008   1.362   4.160  16.288 -0.4072 -0.3410 -0.5520
  536MPD2    C4 8009   1.458   4.262  16.301 -0.1265 -0.0853 -0.3779
  536MPD2    C5 8010   1.514   4.279  16.430  0.0530  0.3814  0.3133
  536MPD2     H 8011   1.241   4.018  16.379  1.5994 -2.0909 -0.0692
  536MPD2    H1 8012   1.493   4.313  16.213 -0.2635  1.4522  0.4684
  536MPD2    H2 8013   1.508   4.207  16.634  0.3426 -0.6343 -0.5329
  536MPD2    H3 8014   1.586   4.360  16.443  0.9541 -0.1815 -1.1209
  536MPD2     N 8015   1.291   4.141  16.170  1.1859 -0.5945  0.1274
  536MPD2    H5 8016   1.212   4.077  16.174 -0.4966  1.4581 -0.3417
  536MPD2    N1 8017   1.390   3.997  16.621  0.9902  0.1456  0.4493
  536MPD2    H7 8018   1.461   4.012  16.693  1.1759 -0.9104  0.4991
  537TMC3    C1 8019   1.323   3.796  16.737  0.5111  0.1158  0.1042
  537TMC3    C2 8020   1.382   3.836  16.853  0.1744 -0.4538  0.3718
  537TMC3    C3 8021   1.402   3.741  16.954 -0.4746  0.6458  0.4779
  537TMC3    C4 8022   1.279   3.669  16.726 -0.5068  0.8125  0.2121
  537TMC3    C5 8023   1.301   3.578  16.824 -0.0593  0.2948 -0.7096
  537TMC3    C6 8024   1.366   3.606  16.937 -0.2880 -0.4840 -0.5574
  537TMC3     C 8025   1.308   3.886  16.623 -0.6903 -0.1092  0.4988
  537TMC3     O 8026   1.220   3.854  16.543 -0.2593 -0.4173  0.1209
  537TMC3     H 8027   1.411   3.940  16.863  2.3909 -1.0159 -0.1754
  537TMC3    H1 8028   1.237   3.634  16.633  1.4169 -0.9683 -0.0138
  537TMC3    H2 8029   1.394   3.527  17.005 -1.9655 -0.7548 -0.1746
  537TMC3    C7 8030   1.310   3.439  16.780 -0.1489 -0.7906 -0.3587
  537TMC3    C8 8031   1.470   3.779  17.077 -0.1096 -0.3308 -0.0886
  537TMC3    O1 8032   1.341   3.418  16.662  0.2577 -0.1780  0.1651
  537TMC3    O2 8033   1.489   3.688  17.162 -0.0681 -0.4187  0.8231
  538TMC3    C1 8034   2.591   2.031  10.839  0.6685  0.2064  0.2429
  538TMC3    C2 8035   2.715   1.996  10.892  0.5308  0.4963 -0.0069
  538TMC3    C3 8036   2.820   2.032  10.816 -0.8113 -0.6596  0.2732
  538TMC3    C4 8037   2.575   2.085  10.712 -0.1606 -0.2778  0.2556
  538TMC3    C5 8038   2.694   2.128  10.648  0.3050  0.3273  0.4980
  538TMC3    C6 8039   2.815   2.105  10.699 -0.2009 -0.0853 -0.2983
  538TMC3     C 8040   2.470   2.045  10.922 -0.2333 -0.6325 -0.1560
  538TMC3     O 8041   2.367   2.053  10.858  0.4536  0.6584 -0.5622
  538TMC3     H 8042   2.733   1.941  10.984 -0.8453  0.1451  0.0472
  538TMC3    H1 8043   2.489   2.128  10.662  1.8089  1.8701 -1.2734
  538TMC3    H2 8044   2.903   2.143  10.649  0.5468 -1.5988 -0.1358
  538TMC3    C7 8045   2.687   2.260  10.582 -0.2400  0.3999 -0.6478
  538TMC3    C8 8046   2.937   1.959  10.857  0.1258  0.1711 -0.2293
  538TMC3    O1 8047   2.596   2.276  10.503  0.4508 -0.5813  0.3470
  538TMC3    O2 8048   2.951   1.922  10.971 -0.0432  0.4102  0.4905
  539MPD2     C 8049   2.759   1.297  11.925  0.5416  0.1598  0.2171
  539MPD2    C1 8050   2.730   1.256  11.795  0.1333  0.4139  0.1541
  539MPD2    C2 8051   2.617   1.309  11.730  0.0931  0.1272 -0.0803
  539MPD2    C3 8052   2.521   1.389  11.802  0.1656 -0.4470 -0.2957
  539MPD2    C4 8053   2.556   1.423  11.930 -0.2205  0.2044 -0.6828
  539MPD2    C5 8054   2.664   1.378  11.992  0.4074 -0.0133  0.3321
  539MPD2     H 8055   2.596   1.290  11.625 -1.0531  0.1905  0.1322
  539MPD2    H1 8056   2.492   1.494  11.982  0.2516  0.5594 -0.5874
  539MPD2    H2 8057   2.851   1.273  11.976  0.8632  1.3774  0.2020
  539MPD2    H3 8058   2.707   1.419  12.083  0.4466 -0.6566  0.6017
  539MPD2     N 8059   2.403   1.445  11.755  0.3241 -0.3223 -0.1161
  539MPD2    H5 8060   2.347   1.501  11.819 -0.4442 -0.9043 -0.2803
  539MPD2    N1 8061   2.821   1.164  11.724 -0.2678  0.3853 -0.3499
  539MPD2    H7 8062   2.784   1.133  11.635 -0.1114 -0.6501 -0.0486
  540TMC3    C1 8063   2.224   1.502  11.609  0.0491 -0.4914 -0.1261
  540TMC3    C2 8064   2.176   1.514  11.479 -0.5011 -0.3377  0.5504
  540TMC3    C3 8065   2.064   1.582  11.467 -0.7893  0.3490  0.9620
  540TMC3    C4 8066   2.151   1.524  11.720 -0.5176 -0.0773  0.0822
  540TMC3    C5 8067   2.029   1.580  11.699 -0.0193 -0.5102 -0.6130
  540TMC3    C6 8068   1.984   1.615  11.574 -0.0317 -1.5999  0.3272
  540TMC3     C 8069   2.357   1.438  11.628  0.0127 -0.8941 -0.0827
  540TMC3     O 8070   2.405   1.392  11.525 -0.7884 -0.0160 -0.0071
  540TMC3     H 8071   2.246   1.495  11.399  0.3752 -1.9696  1.7054
  540TMC3    H1 8072   2.197   1.518  11.818 -1.8574  1.2395  0.7862
  540TMC3    H2 8073   1.898   1.676  11.548  1.2437 -0.3954 -1.1007
  540TMC3    C7 8074   1.919   1.555  11.787 -0.0620  0.1538  0.3339
  540TMC3    C8 8075   1.998   1.598  11.341 -0.1464 -0.6235 -0.2069
  540TMC3    O1 8076   1.808   1.582  11.742 -0.1441 -0.2939  0.0994
  540TMC3    O2 8077   1.916   1.686  11.315 -0.3381 -0.0081 -0.1397
  541MPD2     C 8078   0.954   2.559  13.460 -0.2145 -0.0580 -0.3029
  541MPD2    C1 8079   0.834   2.588  13.388 -0.0098 -0.2608 -0.4829
  541MPD2    C2 8080   0.826   2.696  13.300 -0.2998 -0.2325  0.0427
  541MPD2    C3 8081   0.935   2.779  13.293 -0.3856  0.0003 -0.7460
  541MPD2    C4 8082   1.047   2.759  13.369 -0.2773  0.2370 -0.9327
  541MPD2    C5 8083   1.063   2.645  13.446 -0.1832 -0.2053  0.2921
  541MPD2     H 8084   0.745   2.713  13.230  0.5641 -1.2276 -1.2085
  541MPD2    H1 8085   1.133   2.824  13.350 -2.4821  3.0860 -1.1227
  541MPD2    H2 8086   0.960   2.482  13.535 -1.1304  0.1162 -0.0563
  541MPD2    H3 8087   1.157   2.625  13.496 -0.9840 -1.4009  1.3036
  541MPD2     N 8088   0.943   2.872  13.191 -0.7141  0.0849  1.1139
  541MPD2    H5 8089   1.032   2.893  13.147 -0.9929 -2.7563 -0.7529
  541MPD2    N1 8090   0.728   2.492  13.386  0.3177  0.2438  0.4806
  541MPD2    H7 8091   0.738   2.418  13.455 -1.0989  0.3112  0.7604
  542TMC3    C1 8092   0.855   2.974  13.010 -0.0927  0.0473  0.1629
  542TMC3    C2 8093   0.906   2.879  12.923 -0.2137  0.1040  0.2357
  542TMC3    C3 8094   0.894   2.909  12.794 -0.2572  0.3294  0.6618
  542TMC3    C4 8095   0.794   3.092  12.970  1.6229  0.1206 -0.7116
  542TMC3    C5 8096   0.767   3.101  12.837 -0.0264 -0.3274  0.0450
  542TMC3    C6 8097   0.820   3.018  12.745  0.0523  0.2915 -0.0706
  542TMC3     C 8098   0.827   2.930  13.145  0.3718 -0.0495 -0.3424
  542TMC3     O 8099   0.729   2.966  13.208 -0.7017 -0.2127 -0.3814
  542TMC3     H 8100   0.970   2.796  12.954 -0.9026 -0.6783 -0.4385
  542TMC3    H1 8101   0.766   3.171  13.038 -1.0788 -1.4976  0.0862
  542TMC3    H2 8102   0.799   3.038  12.640  0.3931 -2.5739 -0.6930
  542TMC3    C7 8103   0.688   3.218  12.789  0.3063  0.2665 -0.2539
  542TMC3    C8 8104   0.945   2.822  12.689  0.1493  0.5296 -0.2901
  542TMC3    O1 8105   0.693   3.320  12.855 -0.0560  0.4306 -0.1856
  542TMC3    O2 8106   0.967   2.873  12.580 -0.0679 -0.0956  0.3793
  543TMC3    C1 8107   4.627   4.584  17.269 -0.1073  0.3433 -0.3790
  543TMC3    C2 8108   4.693   4.490  17.347 -0.2236  0.9068 -0.2919
  543TMC3    C3 8109   4.667   4.479  17.479 -0.4670  0.6776  0.5444
  543TMC3    C4 8110   4.536   4.673  17.326 -0.0122 -0.7533  0.6155
  543TMC3    C5 8111   4.501   4.651  17.458 -0.7975  0.5846  0.8879
  543TMC3    C6 8112   4.565   4.556  17.538 -0.3300  0.5244 -0.2767
  543TMC3     C 8113   4.667   4.589  17.130 -0.2957  0.2050 -0.4238
  543TMC3     O 8114   0.029   4.526  17.098 -0.1237 -0.1302  0.6874
  543TMC3     H 8115   0.012   4.410  17.301  0.3356  0.8946  0.4201
  543TMC3    H1 8116   4.490   0.017  17.273 -2.6918 -3.6513 -1.6252
  543TMC3    H2 8117   4.528   4.532  17.637  2.2024 -0.9311  0.3090
  543TMC3    C7 8118   4.427   0.016  17.531  0.3545  0.0778  0.4996
  543TMC3    C8 8119   4.710   4.351  17.535  0.0559 -0.2142  0.3442
  543TMC3    O1 8120   4.454   0.036  17.649  0.6997  0.1457  0.0210
  543TMC3    O2 8121   0.006   4.268  17.457  0.0572  0.2064  0.3953
  544MPD2     C 8122   0.004   4.006   0.163  0.0795  0.4617 -0.5139
  544MPD2    C1 8123   0.013   3.991   0.029 -0.3270 -0.1029 -0.2643
  544MPD2    C2 8124   4.738   4.100  17.700 -0.3213  0.2546  0.4057
  544MPD2    C3 8125   4.713   4.227  17.751 -0.5254  0.5280  1.0946
  544MPD2    C4 8126   4.710   4.240   0.132 -0.6253 -0.0751 -0.6563
  544MPD2    C5 8127   4.728   4.134   0.215  0.0062 -0.3011 -0.2433
  544MPD2     H 8128   0.013   4.089  17.593  0.1489  0.3823  0.4524
  544MPD2    H1 8129   4.701   4.338   0.176 -0.7060 -0.6144  0.5121
  544MPD2    H2 8130   0.014   3.922   0.231  1.2769  2.7771  2.1778
  544MPD2    H3 8131   4.732   4.145   0.322 -1.4873  2.8668 -0.5044
  544MPD2     N 8132   4.697   4.346  17.668  0.2678  1.1671  0.1856
  544MPD2    H5 8133   4.678   4.429  17.723 -0.4962  0.5310  0.8762
  544MPD2    N1 8134   0.031   3.855  17.739  0.1279 -0.0069  0.3307
  544MPD2    H7 8135   0.032   3.786   0.061  0.0416 -0.5464 -0.1614
  545TMC3    C1 8136   0.057   3.663  17.613  0.0398  0.1738  0.4476
  545TMC3    C2 8137   0.088   3.605  17.496 -0.7447  0.3233 -0.3238
  545TMC3    C3 8138   0.133   3.477  17.501  0.0741 -0.0972  0.0472
  545TMC3    C4 8139   0.044   3.588  17.730 -0.0311 -0.3645  0.7141
  545TMC3    C5 8140   0.074   3.459  17.721 -0.2645 -0.1450 -0.4544
  545TMC3    C6 8141   0.130   3.396  17.614  0.2164  0.2461  0.6157
  545TMC3     C 8142   0.044   3.806  17.610 -0.2244 -0.0695 -0.7104
  545TMC3     O 8143   0.045   3.872  17.505 -0.4963  0.3020  0.1061
  545TMC3     H 8144   0.102   3.656  17.402 -1.7661  2.8694  0.9109
  545TMC3    H1 8145   4.730   3.635   0.059  0.4175  1.4280 -0.0216
  545TMC3    H2 8146   0.158   3.292  17.622 -0.0650 -0.0226 -1.9638
  545TMC3    C7 8147   0.078   3.392   0.096  0.4541  0.3479  0.2214
  545TMC3    C8 8148   0.202   3.429  17.386 -0.4768 -0.7077  0.5421
  545TMC3    O1 8149   0.029   3.452   0.190 -0.2398 -0.4317 -0.3361
  545TMC3    O2 8150   0.226   3.517  17.305  0.5097  0.2001 -0.6069
  546MPD2     C 8151   1.192   4.224  17.693  0.2860 -0.1365 -0.0419
  546MPD2    C1 8152   1.167   4.239  17.561 -0.0404 -0.3029  0.1297
  546MPD2    C2 8153   1.238   4.328  17.481 -0.1932 -1.0888  0.2254
  546MPD2    C3 8154   1.331   4.406  17.543  0.1045 -0.3731 -0.1936
  546MPD2    C4 8155   1.362   4.391  17.675  0.4575  0.5375 -0.0536
  546MPD2    C5 8156   1.296   4.297  17.750  1.0176 -0.0604 -0.1509
  546MPD2     H 8157   1.227   4.344  17.374 -2.1146  0.3262  0.6372
  546MPD2    H1 8158   1.445   4.445  17.721 -0.6315  2.2669 -0.1220
  546MPD2    H2 8159   1.137   4.149  17.750 -0.2831 -0.3644 -0.8977
  546MPD2    H3 8160   1.331   4.289   0.099 -1.1160 -2.7624  0.3605
  546MPD2     N 8161   1.399   4.511  17.482  0.4468 -0.4232  0.2305
  546MPD2    H5 8162   1.470   4.556  17.538 -0.8246  1.1959  0.5322
  546MPD2    N1 8163   1.061   4.158  17.510 -0.9261  0.6860 -0.0353
  546MPD2    H7 8164   1.031   4.090  17.579 -1.3767  1.0638  0.1336
  547TMC3    C1 8165   0.905   4.073  17.380  0.0439  0.0382  0.3335
  547TMC3    C2 8166   0.817   4.082  17.276 -0.8676 -0.3223  0.5889
  547TMC3    C3 8167   0.701   4.007  17.275 -0.6125  0.9105 -0.3841
  547TMC3    C4 8168   0.892   3.968  17.473  0.4168  0.1111 -0.3866
  547TMC3    C5 8169   0.783   3.893  17.470  0.1467 -0.5314  0.6175
  547TMC3    C6 8170   0.686   3.906  17.368  0.5420 -0.0257  0.3838
  547TMC3     C 8171   0.998   4.171  17.390  0.4495  0.4098 -0.5975
  547TMC3     O 8172   1.011   4.256  17.306  0.6721 -0.4988  0.0438
  547TMC3     H 8173   0.832   4.160  17.202  1.3490  1.7815  3.2367
  547TMC3    H1 8174   0.976   3.930  17.530 -0.1579 -0.4824  0.0732
  547TMC3    H2 8175   0.594   3.850  17.370  0.5886 -0.1327 -0.3259
  547TMC3    C7 8176   0.779   3.774  17.557  0.1438 -0.1003 -0.2508
  547TMC3    C8 8177   0.593   4.033  17.177 -0.0707 -0.1083 -0.1596
  547TMC3    O1 8178   0.856   3.767  17.651  0.5533 -0.3572 -0.2539
  547TMC3    O2 8179   0.630   4.104  17.083  0.4378  0.2656 -0.3198
  548MPD2     C 8180   1.248   0.094  12.551  0.1580 -0.7612 -0.0534
  548MPD2    C1 8181   1.214   4.701  12.535 -0.3003 -0.3922 -1.2790
  548MPD2    C2 8182   1.311   4.601  12.511  0.1296 -0.2362 -0.2468
  548MPD2    C3 8183   1.441   4.635  12.492  0.2175 -0.4955 -0.0735
  548MPD2    C4 8184   1.475   0.033  12.505  0.1740 -0.5170 -0.2397
  548MPD2    C5 8185   1.378   0.128  12.531  0.9258 -0.3275 -0.3016
  548MPD2     H 8186   1.287   4.497  12.496 -1.6912 -0.1023  1.7261
  548MPD2    H1 8187   1.573   0.074  12.489  0.5885 -2.0981 -1.8106
  548MPD2    H2 8188   1.171   0.169  12.567  1.5973  0.5072  0.9462
  548MPD2    H3 8189   1.416   0.228  12.549 -2.7454  0.8186  0.9787
  548MPD2     N 8190   1.541   4.528  12.467  0.6032  0.4872  0.0917
  548MPD2    H5 8191   1.503   4.436  12.445  1.5872  0.7504 -2.7476
  548MPD2    N1 8192   1.081   4.664  12.557  0.2977 -0.2734 -0.3436
  548MPD2    H7 8193   1.015   0.002  12.570  1.7261  0.5754  1.8126
  549TMC3    C1 8194   0.889   4.532  12.476 -0.3350  0.0020  1.0551
  549TMC3    C2 8195   0.815   4.645  12.439 -0.2196  0.1724  0.5019
  549TMC3    C3 8196   0.680   4.644  12.452  0.2679 -0.2062 -0.0178
  549TMC3    C4 8197   0.823   4.416  12.522  0.0834  0.2005  0.5236
  549TMC3    C5 8198   0.686   4.421  12.522 -0.4230 -0.1170  0.1370
  549TMC3    C6 8199   0.614   4.531  12.493  0.3065  0.7526  0.2310
  549TMC3     C 8200   1.032   4.538  12.518  0.6741 -0.2757 -0.2053
  549TMC3     O 8201   1.081   4.424  12.538 -0.2930  0.0504 -0.4388
  549TMC3     H 8202   0.865   4.732  12.398  1.5329 -1.0659  0.0081
  549TMC3    H1 8203   0.869   4.322  12.551 -1.5045 -0.0279  2.3395
  549TMC3    H2 8204   0.505   4.531  12.493  0.3080  0.5835 -0.1938
  549TMC3    C7 8205   0.614   4.309  12.583 -0.3199 -0.2184  0.4988
  549TMC3    C8 8206   0.602   0.028  12.417  0.4529 -0.9309 -0.3844
  549TMC3    O1 8207   0.503   4.335  12.629  0.4284 -0.6324  0.5387
  549TMC3    O2 8208   0.485   0.021  12.380 -0.0255  0.1427  0.2983
  550TMC3    C1 8209   0.046   2.293  12.009  0.2148  0.1621  0.3980
  550TMC3    C2 8210   0.111   2.375  12.092 -0.3338 -1.1217  0.2959
  550TMC3    C3 8211   0.039   2.439  12.195 -0.4417  0.1114  0.2712
  550TMC3    C4 8212   4.646   2.277  12.016  0.2530  0.1202 -0.2624
  550TMC3    C5 8213   4.582   2.333  12.119 -0.3863  0.0525  0.1835
  550TMC3    C6 8214   4.640   2.420  12.213 -1.3811 -0.8030 -0.6327
  550TMC3     C 8215   0.118   2.258  11.887  0.3006 -0.6918 -0.3574
  550TMC3     O 8216   0.237   2.235  11.890  0.0597  0.0672  0.0350
  550TMC3     H 8217   0.216   2.394  12.072 -0.3756  0.1440  1.2326
  550TMC3    H1 8218   4.589   2.211  11.951  1.2474 -1.0739  0.0628
  550TMC3    H2 8219   4.577   2.472  12.286 -1.5319 -2.8075  0.6550
  550TMC3    C7 8220   4.441   2.365  12.103 -0.4391 -0.1796  0.1528
  550TMC3    C8 8221   0.102   2.522  12.283  0.2895 -0.3353  0.2102
  550TMC3    O1 8222   4.380   2.407  12.197  0.5287  0.6888 -0.1609
  550TMC3    O2 8223   0.035   2.607  12.339  0.0642 -0.3302  0.4397
  551TMC3    C1 8224   2.628   0.038  13.569 -0.5475 -0.4194  0.3899
  551TMC3    C2 8225   2.724   0.063  13.483 -0.2982 -0.0266  0.6589
  551TMC3    C3 8226   2.813   0.164  13.523  0.5471 -0.5201  0.3574
  551TMC3    C4 8227   2.617   0.106  13.689  0.3229 -0.0695  0.3386
  551TMC3    C5 8228   2.694   0.213  13.715 -0.4789 -0.4655 -0.8334
  551TMC3    C6 8229   2.801   0.240  13.632 -0.0740  0.3899  0.1181
  551TMC3     C 8230   2.509   0.024  13.491  0.8058 -0.1947  0.1739
  551TMC3     O 8231   2.524   4.685  13.402  0.5506  0.0420 -0.6084
  551TMC3     H 8232   2.731   0.011  13.388  0.6132 -0.2510  0.8465
  551TMC3    H1 8233   2.526   0.092  13.746 -1.9628 -4.0005 -4.1605
  551TMC3    H2 8234   2.877   0.313  13.658 -1.0516  1.1260  0.9385
  551TMC3    C7 8235   2.675   0.283  13.840  0.6274  0.6075  0.3669
  551TMC3    C8 8236   2.919   0.193  13.432 -0.2376  0.6233  0.2673
  551TMC3    O1 8237   2.613   0.217  13.921  0.1028  0.2893 -0.1148
  551TMC3    O2 8238   2.930   0.114  13.339  0.1222 -0.2981 -0.4798
  552MPD2     C 8239   4.062   2.637  14.499 -0.0929  0.4267 -0.4518
  552MPD2    C1 8240   4.101   2.514  14.445 -0.3901 -0.4189  0.0747
  552MPD2    C2 8241   4.188   2.433  14.516  0.1134  0.2737  0.1064
  552MPD2    C3 8242   4.242   2.472  14.638 -1.0173  0.2795 -0.3004
  552MPD2    C4 8243   4.205   2.598  14.690  0.2592 -0.8314 -0.2865
  552MPD2    C5 8244   4.124   2.683  14.613  0.7375 -0.5796 -0.3977
  552MPD2     H 8245   4.220   2.339  14.472  3.1746  1.6023 -0.5041
  552MPD2    H1 8246   4.246   2.631  14.785  1.7350 -3.5014 -0.0065
  552MPD2    H2 8247   4.009   2.710  14.439 -2.5875 -1.1332 -0.1236
  552MPD2    H3 8248   4.116   2.785  14.647  1.2988  0.0380 -2.1398
  552MPD2     N 8249   4.341   2.401  14.699  0.7129  0.0022 -0.1789
  552MPD2    H5 8250   4.389   2.457  14.769  1.5108 -1.5366  0.5062
  552MPD2    N1 8251   4.057   2.468  14.319  0.1957  0.6658 -0.6618
  552MPD2    H7 8252   4.090   2.375  14.293 -0.7309 -0.2405  1.3712
  553TMC3    C1 8253   3.951   2.468  14.113 -0.7486 -0.7717  0.8161
  553TMC3    C2 8254   4.003   2.510  13.998 -0.3251 -1.1651  0.9499
  553TMC3    C3 8255   3.995   2.428  13.886  0.0583 -0.1512 -0.4414
  553TMC3    C4 8256   3.910   2.338  14.127 -0.0108 -0.3676 -0.1423
  553TMC3    C5 8257   3.914   2.259  14.018 -0.8957  0.2541 -0.2396
  553TMC3    C6 8258   3.953   2.303  13.892  0.4478  0.5717 -0.5476
  553TMC3     C 8259   3.978   2.542  14.233  0.0387 -0.1570  0.0317
  553TMC3     O 8260   3.938   2.653  14.241  0.0692  0.0179  0.2578
  553TMC3     H 8261   4.047   2.609  13.995 -1.1542 -0.8180 -0.1276
  553TMC3    H1 8262   3.848   2.314  14.213  0.3364  2.8120  0.9878
  553TMC3    H2 8263   3.943   2.235  13.808  1.5316 -0.5432  0.2420
  553TMC3    C7 8264   3.911   2.117  14.035 -0.1360  0.0449  0.6949
  553TMC3    C8 8265   4.095   2.447  13.780  0.3259 -0.3109  0.5031
  553TMC3    O1 8266   3.804   2.066  14.074  0.1079 -0.0944  0.1657
  553TMC3    O2 8267   4.088   2.363  13.689 -0.3527  0.1138 -0.9058
  554TMC3    C1 8268   1.650   1.388  11.379 -0.4241  0.1554 -0.4724
  554TMC3    C2 8269   1.577   1.332  11.281  0.1324 -0.0644 -0.7230
  554TMC3    C3 8270   1.472   1.406  11.242  0.1980  0.0558 -0.2370
  554TMC3    C4 8271   1.648   1.519  11.412  0.5664  1.1710 -0.2017
  554TMC3    C5 8272   1.530   1.589  11.374 -0.5740 -0.4953  0.1690
  554TMC3    C6 8273   1.437   1.533  11.296  0.1381 -0.2097  0.1719
  554TMC3     C 8274   1.772   1.321  11.436 -0.1500 -0.2381  0.5709
  554TMC3     O 8275   1.843   1.260  11.359  0.6353  0.0462  0.4649
  554TMC3     H 8276   1.606   1.235  11.241 -1.4790 -0.4545 -0.9335
  554TMC3    H1 8277   1.716   1.573  11.476 -1.0698 -0.1065  2.6205
  554TMC3    H2 8278   1.347   1.586  11.269 -0.6999 -1.7906 -0.1402
  554TMC3    C7 8279   1.558   1.727  11.344 -0.8419 -0.4134 -0.0326
  554TMC3    C8 8280   1.426   1.386  11.110 -0.5151 -0.0664  0.0058
  554TMC3    O1 8281   1.531   1.765  11.228 -0.2450  0.2035  0.1038
  554TMC3    O2 8282   1.425   1.483  11.039  0.0454 -0.0577  0.0066
  555TMC3    C1 8283   0.080   1.479  15.741  0.2789  0.6681  0.4467
  555TMC3    C2 8284   0.095   1.506  15.873 -0.4703 -0.1637 -0.6916
  555TMC3    C3 8285   0.163   1.421  15.951 -0.2700  0.1242 -0.8414
  555TMC3    C4 8286   0.099   1.351  15.697  0.8097 -0.2813 -0.2476
  555TMC3    C5 8287   0.173   1.272  15.779  0.2397  0.5252  0.2532
  555TMC3    C6 8288   0.209   1.301  15.901 -0.4755  0.2728 -0.5392
  555TMC3     C 8289   4.731   1.573  15.672 -0.2293  0.3982  0.1752
  555TMC3     O 8290   4.737   1.689  15.716  0.3458  0.1494 -0.3592
  555TMC3     H 8291   0.077   1.605  15.913 -1.4810  0.1604 -1.9431
  555TMC3    H1 8292   0.081   1.328  15.592 -1.0357 -0.6217  0.1496
  555TMC3    H2 8293   0.249   1.219  15.960  1.5715  0.2467 -1.9273
  555TMC3    C7 8294   0.202   1.139  15.728 -0.2582  0.6827 -0.3237
  555TMC3    C8 8295   0.180   1.458  16.088  0.2703  0.5735  0.2270
  555TMC3    O1 8296   0.195   1.050  15.809  0.1028 -0.2828 -0.2722
  555TMC3    O2 8297   0.085   1.530  16.128 -0.3287  0.2838 -0.2181
  556MPD2     C 8298   3.113   2.428  10.554 -0.1743  0.6659 -0.0992
  556MPD2    C1 8299   3.182   2.323  10.610 -0.0806  0.0012 -0.3296
  556MPD2    C2 8300   3.252   2.237  10.530 -0.9881 -0.5436  0.4126
  556MPD2    C3 8301   3.242   2.247  10.392  0.3082 -0.8152 -0.3946
  556MPD2    C4 8302   3.161   2.344  10.340  0.2491 -0.0357  0.0924
  556MPD2    C5 8303   3.091   2.429  10.418 -0.8115  0.1944 -0.2621
  556MPD2     H 8304   3.313   2.158  10.572  1.5697  2.1191  1.7092
  556MPD2    H1 8305   3.145   2.353  10.233 -1.3075 -1.4662  0.2064
  556MPD2    H2 8306   3.058   2.496  10.618 -2.0307  0.1645 -1.1626
  556MPD2    H3 8307   3.029   2.507  10.376 -0.0957  0.4701 -0.8119
  556MPD2     N 8308   3.313   2.162  10.312 -0.2357  0.2400 -0.4037
  556MPD2    H5 8309   3.355   2.082  10.360 -2.1605 -0.5423 -0.0166
  556MPD2    N1 8310   3.191   2.309  10.749  0.0736  0.4061 -0.1547
  556MPD2    H7 8311   3.269   2.259  10.790 -0.1586  1.2672  1.3305
  557TMC3    C1 8312   3.360   2.022  10.136 -0.4160  0.7319  0.5965
  557TMC3    C2 8313   3.271   1.963  10.054  0.6742 -0.4231  0.2266
  557TMC3    C3 8314   3.229   1.841  10.090  0.1182 -0.5083  0.2956
  557TMC3    C4 8315   3.434   1.952  10.227  0.7762 -0.4760  0.2365
  557TMC3    C5 8316   3.395   1.825  10.249 -0.6907 -0.2300  0.7685
  557TMC3    C6 8317   3.290   1.763  10.183 -0.1295 -0.3366 -0.3807
  557TMC3     C 8318   3.319   2.154  10.174 -0.6021  0.1502  0.0029
  557TMC3     O 8319   3.265   2.230  10.093 -0.1688  0.3489 -0.2553
  557TMC3     H 8320   3.205   2.024   9.994 -0.8450 -0.8892  1.3997
  557TMC3    H1 8321   3.521   2.000  10.272  0.9513 -1.1818  0.6423
  557TMC3    H2 8322   3.251   1.667  10.213 -0.9738 -0.2787 -1.2997
  557TMC3    C7 8323   3.371   1.832  10.393 -0.3312 -0.0924 -0.2305
  557TMC3    C8 8324   3.118   1.789  10.013 -0.3867 -0.0613  0.1549
  557TMC3    O1 8325   3.383   1.942  10.445  0.0922  0.7053  0.2792
  557TMC3    O2 8326   3.057   1.872   9.950 -0.2108  0.1004  0.4657
  558TMC3    C1 8327   1.090   0.295  10.501 -0.0679  0.2742  0.2847
  558TMC3    C2 8328   0.982   0.344  10.570 -0.0897  0.4816  0.6276
  558TMC3    C3 8329   0.889   0.402  10.492 -0.1813  0.3412 -0.0193
  558TMC3    C4 8330   1.111   0.309  10.364  0.7393  0.2241  0.1626
  558TMC3    C5 8331   1.001   0.360  10.294 -0.2854 -0.2181  0.6213
  558TMC3    C6 8332   0.889   0.404  10.355 -1.1660  0.3114 -0.1226
  558TMC3     C 8333   1.201   0.234  10.562 -0.1240  0.5665 -0.4807
  558TMC3     O 8334   1.298   0.200  10.493 -0.7864 -0.3223 -0.4317
  558TMC3     H 8335   0.969   0.304  10.669 -1.8063 -0.8137 -0.1197
  558TMC3    H1 8336   1.209   0.299  10.318  2.0446  0.3352  2.9074
  558TMC3    H2 8337   0.810   0.455  10.301  0.2354  2.2425 -0.3583
  558TMC3    C7 8338   1.030   0.408  10.158  0.6327 -0.0244  0.5183
  558TMC3    C8 8339   0.768   0.455  10.555  0.1369  0.3896  0.2819
  558TMC3    O1 8340   1.142   0.423  10.116 -0.3003  0.1559 -0.3036
  558TMC3    O2 8341   0.674   0.506  10.490  0.1015  0.1407  0.1729
  559MPD2     C 8342   1.228   0.625  10.422 -0.1378  0.1446 -0.0607
  559MPD2    C1 8343   1.211   0.674  10.551  0.7465 -0.0230  0.1095
  559MPD2    C2 8344   1.316   0.649  10.637 -0.3109  0.5463 -0.0168
  559MPD2    C3 8345   1.428   0.575  10.600  0.1668 -0.5747 -0.3977
  559MPD2    C4 8346   1.443   0.525  10.468  0.3194  0.2722  0.9408
  559MPD2    C5 8347   1.344   0.560  10.381  0.4258  0.7453 -0.3878
  559MPD2     H 8348   1.307   0.672  10.743  1.4872 -0.7508  0.4088
  559MPD2    H1 8349   1.526   0.473  10.422  0.1446  1.0418 -0.2261
  559MPD2    H2 8350   1.151   0.633  10.347 -0.9033  3.2840  1.0368
  559MPD2    H3 8351   1.351   0.531  10.277 -0.3079 -0.2280 -0.1709
  559MPD2     N 8352   1.523   0.551  10.701  0.1244 -0.1633  0.4393
  559MPD2    H5 8353   1.487   0.569  10.794  0.6755  0.2439  0.5737
  559MPD2    N1 8354   1.089   0.736  10.585  0.3543 -0.4697 -0.3869
  559MPD2    H7 8355   1.020   0.745  10.511 -1.4660  3.2132  1.7429
  560TMC3    C1 8356   1.733   0.526  10.800  0.4809 -0.4914 -0.4394
  560TMC3    C2 8357   1.658   0.557  10.913 -0.2764  0.3453  0.3867
  560TMC3    C3 8358   1.709   0.655  10.994 -0.1583 -0.0621  0.4737
  560TMC3    C4 8359   1.848   0.598  10.772  0.0884  0.7866  0.8522
  560TMC3    C5 8360   1.885   0.703  10.848 -0.4073 -0.2741 -0.6238
  560TMC3    C6 8361   1.821   0.732  10.964 -0.2274 -0.0523 -0.0589
  560TMC3     C 8362   1.655   0.508  10.683  0.3126 -0.0400  0.3700
  560TMC3     O 8363   1.718   0.480  10.584 -0.4393 -0.0166 -0.1135
  560TMC3     H 8364   1.574   0.496  10.943  0.0410 -0.8288 -1.0833
  560TMC3    H1 8365   1.897   0.590  10.676 -3.1379  1.1806 -0.8200
  560TMC3    H2 8366   1.841   0.808  11.039  1.2174 -0.1971 -0.3106
  560TMC3    C7 8367   2.025   0.701  10.869  0.2653 -0.4961  0.1690
  560TMC3    C8 8368   1.603   0.712  11.084  0.2473  0.2970 -0.7543
  560TMC3    O1 8369   2.075   0.588  10.860 -0.3855 -0.1375 -0.0060
  560TMC3    O2 8370   1.489   0.673  11.051  0.0107 -0.1531 -0.2707
  561TMC3    C1 8371   3.942   0.001  11.225 -0.1508  0.4897  0.4783
  561TMC3    C2 8372   3.860   4.664  11.303 -1.4709 -0.1188  0.1526
  561TMC3    C3 8373   3.822   4.708  11.427  0.3400 -0.1103 -0.1435
  561TMC3    C4 8374   3.997   0.119  11.262  0.2128 -0.6433  0.4082
  561TMC3    C5 8375   3.970   0.152  11.394  0.7444 -0.4943 -0.6001
  561TMC3    C6 8376   3.875   0.089  11.473 -1.0404  0.9166  0.6796
  561TMC3     C 8377   3.969   4.680  11.099 -0.6032 -0.1735  0.2630
  561TMC3     O 8378   3.883   4.606  11.049  0.2362 -0.0101 -0.6838
  561TMC3     H 8379   3.829   4.565  11.271  1.6427 -1.5155  1.4089
  561TMC3    H1 8380   4.067   0.173  11.200  1.5175 -2.1452  0.5741
  561TMC3    H2 8381   3.856   0.134  11.570 -3.3855  0.2097  0.5579
  561TMC3    C7 8382   4.035   0.271  11.446  0.2314 -0.3517  0.1432
  561TMC3    C8 8383   3.747   4.617  11.520 -0.4463  0.3390  0.9757
  561TMC3    O1 8384   4.055   0.270  11.566 -0.2047  0.2212 -0.5250
  561TMC3    O2 8385   3.731   4.504  11.471 -0.4073  0.2331 -0.2407
  562TMC3    C1 8386   0.075   1.318  16.614 -0.4805 -0.1426 -0.4041
  562TMC3    C2 8387   0.020   1.443  16.605 -0.3057 -0.2334  0.6398
  562TMC3    C3 8388   4.701   1.482  16.487  0.2896 -0.0579  0.6006
  562TMC3    C4 8389   0.047   1.222  16.520 -0.8058 -0.6479  0.5315
  562TMC3    C5 8390   4.727   1.262  16.403 -0.3500 -0.3746 -0.3636
  562TMC3    C6 8391   4.695   1.394  16.382 -0.2872  0.9738 -0.2625
  562TMC3     C 8392   0.123   1.274  16.745 -0.2323  0.2050  0.6326
  562TMC3     O 8393   0.068   1.318  16.845  0.0216 -0.0393 -0.2916
  562TMC3     H 8394   0.031   1.514  16.686  1.3105  0.4154 -0.1539
  562TMC3    H1 8395   0.093   1.129  16.550 -0.2268 -0.2563  0.8671
  562TMC3    H2 8396   4.637   1.421  16.294 -0.1685  1.5505 -0.1613
  562TMC3    C7 8397   4.700   1.169  16.297  0.7795 -0.7719  0.8772
  562TMC3    C8 8398   4.603   1.590  16.499 -0.3418  0.5526  0.5823
  562TMC3    O1 8399   4.614   1.203  16.216  0.4946  0.1088 -0.0184
  562TMC3    O2 8400   4.555   1.605  16.611  0.2269 -0.2996  0.4900
  563MPD2     C 8401   2.535   2.820  15.828 -0.3005  0.8772 -0.0583
  563MPD2    C1 8402   2.534   2.866  15.955 -0.0488  0.6245  0.1957
  563MPD2    C2 8403   2.635   2.823  16.043  0.0151 -0.8904  0.0664
  563MPD2    C3 8404   2.745   2.748  15.995 -0.1007 -0.5975  0.5881
  563MPD2    C4 8405   2.749   2.717  15.863 -0.2579  0.2652 -0.2448
  563MPD2    C5 8406   2.642   2.742  15.783 -0.5234 -0.3599  0.7329
  563MPD2     H 8407   2.636   2.848  16.149  0.8397 -2.0554  0.3229
  563MPD2    H1 8408   2.831   2.658  15.823  0.0301  0.6626 -0.2340
  563MPD2    H2 8409   2.454   2.842  15.760 -1.9721 -1.6424  1.1311
  563MPD2    H3 8410   2.645   2.706  15.681  3.6608  1.4391  0.2525
  563MPD2     N 8411   2.838   2.711  16.097  0.5046 -0.9966 -0.3942
  563MPD2    H5 8412   2.818   2.748  16.190  2.5564  1.6855 -1.0256
  563MPD2    N1 8413   2.414   2.926  16.003 -0.4683 -0.1015  0.5060
  563MPD2    H7 8414   2.336   2.925  15.938 -1.1556  1.1393  1.3062
  564TMC3    C1 8415   2.258   2.952  16.188  0.3357 -0.4119  0.4378
  564TMC3    C2 8416   2.167   2.917  16.098 -0.3813  0.1540  1.1736
  564TMC3    C3 8417   2.062   2.828  16.139  0.7535  0.2956  0.3571
  564TMC3    C4 8418   2.259   2.899  16.315 -0.0205  0.1904  0.0698
  564TMC3    C5 8419   2.168   2.806  16.351  0.2854 -0.0838  0.7416
  564TMC3    C6 8420   2.068   2.771  16.264  0.0490 -0.0312  0.5380
  564TMC3     C 8421   2.395   2.972  16.134 -0.6924 -1.1120  0.3966
  564TMC3     O 8422   2.486   2.997  16.217 -0.4318  0.0043  0.2145
  564TMC3     H 8423   2.164   2.963  16.001 -2.9422  0.5163  1.4225
  564TMC3    H1 8424   2.330   2.940  16.387  0.1937  0.8777 -0.5331
  564TMC3    H2 8425   1.984   2.710  16.294 -0.0714 -1.0135 -1.7648
  564TMC3    C7 8426   2.206   2.706  16.449  0.2550  0.5386  0.2817
  564TMC3    C8 8427   2.021   2.718  16.047  0.6271 -0.3480 -0.1620
  564TMC3    O1 8428   2.301   2.740  16.517 -0.2579  0.0048  0.6110
  564TMC3    O2 8429   1.967   2.622  16.097  0.1225 -0.2965 -0.1758
  565TMC3    C1 8430   3.243   4.132  10.125  0.4569  0.4362 -0.4747
  565TMC3    C2 8431   3.213   4.041  10.225  0.6600 -0.2193  0.2850
  565TMC3    C3 8432   3.141   3.928  10.191  0.2772 -0.6816  0.0786
  565TMC3    C4 8433   3.190   4.121  10.000 -0.5143 -0.2725  0.1732
  565TMC3    C5 8434   3.118   4.011   9.979 -0.0113  0.0139  0.5148
  565TMC3    C6 8435   3.091   3.910  10.066 -0.1826  1.0047  0.1648
  565TMC3     C 8436   3.330   4.244  10.136 -0.5362  0.2517 -0.3942
  565TMC3     O 8437   3.344   4.311  10.038  0.5354 -0.1636 -0.4645
  565TMC3     H 8438   3.240   4.053  10.330 -0.2210 -0.2114  0.5106
  565TMC3    H1 8439   3.205   4.179   9.910 -1.2266  3.7373  2.6356
  565TMC3    H2 8440   3.065   3.812  10.028  0.8489  0.8369 -0.1096
  565TMC3    C7 8441   3.051   4.005   9.848  0.1786 -0.3869 -0.0018
  565TMC3    C8 8442   3.118   3.828  10.297 -0.3733 -0.2277 -0.0695
  565TMC3    O1 8443   3.104   4.059   9.751 -0.2985  0.3593  0.6727
  565TMC3    O2 8444   3.179   3.831  10.402  0.3390 -0.1684 -0.1516
  566MPD2     C 8445   4.639   0.948  14.530 -0.3035 -0.5425 -0.4069
  566MPD2    C1 8446   4.634   1.039  14.429  0.0871  0.3591  0.3072
  566MPD2    C2 8447   4.530   1.026  14.337  0.4400  0.6588 -0.2955
  566MPD2    C3 8448   4.451   0.919  14.334 -0.3043 -0.1300  0.0588
  566MPD2    C4 8449   4.468   0.820  14.423  0.3897 -0.8790 -0.3284
  566MPD2    C5 8450   4.551   0.839  14.532  0.3484 -0.0231 -0.8385
  566MPD2     H 8451   4.527   1.103  14.260  1.2381  0.3561 -0.6287
  566MPD2    H1 8452   4.410   0.729  14.429 -2.1980  0.7940 -0.2663
  566MPD2    H2 8453   4.706   0.958  14.614 -0.8852  0.5753 -0.0726
  566MPD2    H3 8454   4.547   0.770  14.615  0.3656  2.1995  0.9990
  566MPD2     N 8455   4.357   0.900  14.231 -0.4184  0.4319  0.2532
  566MPD2    H5 8456   4.310   0.810  14.231 -1.2665  0.8743 -0.6548
  566MPD2    N1 8457   4.738   1.135  14.433 -0.0107 -0.0033 -0.6307
  566MPD2    H7 8458   0.078   1.130  14.497 -0.6039 -0.3982  0.0717
  567TMC3    C1 8459   0.133   1.323  14.363  0.8900 -0.2088  0.2137
  567TMC3    C2 8460   0.202   1.350  14.250  0.3680 -0.7370 -0.3924
  567TMC3    C3 8461   0.337   1.380  14.266 -0.4729  0.1145  0.5218
  567TMC3    C4 8462   0.179   1.343  14.490 -0.1788  0.2358 -0.5052
  567TMC3    C5 8463   0.311   1.379  14.499  0.3139  0.1197  0.4766
  567TMC3    C6 8464   0.401   1.396  14.388 -0.4632 -0.1679  0.2318
  567TMC3     C 8465   0.019   1.232  14.338  0.0270 -0.1067 -0.2639
  567TMC3     O 8466   4.689   1.260  14.242  0.8546 -0.3867  0.0326
  567TMC3     H 8467   0.175   1.307  14.154  1.8974 -2.8191  0.1273
  567TMC3    H1 8468   0.103   1.357  14.566  0.6858  1.7945  0.0876
  567TMC3    H2 8469   0.504   1.431  14.397  0.0508 -1.7556  0.6410
  567TMC3    C7 8470   0.368   1.419  14.636 -0.1818 -0.4761 -0.2982
  567TMC3    C8 8471   0.419   1.354  14.155  0.2869  0.4170 -0.1180
  567TMC3    O1 8472   0.444   1.511  14.645  0.0385  0.2098  0.2748
  567TMC3    O2 8473   0.364   1.358  14.048  0.2983  0.1910 -0.0850
  568MPD2     C 8474   2.441   1.277  16.002 -0.7562 -0.1459  0.1712
  568MPD2    C1 8475   2.364   1.321  16.106  0.7218 -0.0807  0.5671
  568MPD2    C2 8476   2.279   1.428  16.088  0.1895 -0.5166  0.0447
  568MPD2    C3 8477   2.280   1.506  15.974  0.0088 -0.1340 -0.2220
  568MPD2    C4 8478   2.372   1.471  15.881 -0.1303  0.1921  0.8247
  568MPD2    C5 8479   2.441   1.351  15.888  0.0731  0.1866  0.4737
  568MPD2     H 8480   2.214   1.447  16.172  2.7245 -1.4727  2.2361
  568MPD2    H1 8481   2.386   1.521  15.786 -1.7323  0.2985  0.6419
  568MPD2    H2 8482   2.498   1.185  16.006  0.4219  0.5728 -0.0548
  568MPD2    H3 8483   2.512   1.324  15.811  0.8406 -0.0894  1.2717
  568MPD2     N 8484   2.201   1.623  15.974  0.5775 -0.2597 -0.3423
  568MPD2    H5 8485   2.137   1.621  16.053  3.8558 -1.3465  2.2647
  568MPD2    N1 8486   2.397   1.258  16.229  0.4269  0.3827  0.3115
  568MPD2    H7 8487   2.463   1.182  16.233 -0.3296 -0.4581 -3.2692
  569TMC3    C1 8488   2.110   1.839  15.901 -0.1587 -0.0229 -0.4296
  569TMC3    C2 8489   2.008   1.818  15.986 -0.1933 -0.7200  0.3189
  569TMC3    C3 8490   1.912   1.918  15.991  0.5777 -0.4347 -0.5373
  569TMC3    C4 8491   2.124   1.951  15.820 -0.0076 -0.2129  0.3918
  569TMC3    C5 8492   2.025   2.047  15.825 -0.0590  0.0364 -0.7876
  569TMC3    C6 8493   1.916   2.032  15.907  0.5719  0.6229  0.2169
  569TMC3     C 8494   2.210   1.727  15.886  0.3508  0.5161  0.0349
  569TMC3     O 8495   2.292   1.735  15.798 -0.7484 -0.1757 -0.2672
  569TMC3     H 8496   2.001   1.722  16.036  1.1146 -1.0812 -0.1835
  569TMC3    H1 8497   2.202   1.961  15.745  0.8270  2.3564  1.6118
  569TMC3    H2 8498   1.842   2.110  15.919 -2.3923 -2.0869 -0.4707
  569TMC3    C7 8499   2.038   2.162  15.735  0.0280  0.5974 -0.7560
  569TMC3    C8 8500   1.799   1.907  16.081  0.3124 -0.1411 -0.5592
  569TMC3    O1 8501   2.105   2.137  15.635 -0.8957 -0.2828 -0.0051
  569TMC3    O2 8502   1.779   1.791  16.120  0.3245 -0.4917 -0.1119
  570TMC3    C1 8503   1.538   0.501  16.172  0.5756 -0.1996 -0.0332
  570TMC3    C2 8504   1.579   0.480  16.044 -1.4751  0.1216  0.2630
  570TMC3    C3 8505   1.588   0.586  15.957  0.3007  0.4990 -1.0513
  570TMC3    C4 8506   1.535   0.623  16.232 -0.2067  0.1577  0.5608
  570TMC3    C5 8507   1.557   0.727  16.142  0.7736  0.1310 -0.6427
  570TMC3    C6 8508   1.564   0.709  16.005 -0.0342  0.2249 -0.6017
  570TMC3     C 8509   1.478   0.388  16.250 -0.4204  0.0245  0.7081
  570TMC3     O 8510   1.455   0.289  16.183 -0.2342 -0.2912 -0.0007
  570TMC3     H 8511   1.599   0.377  16.017  0.7082  0.1645  1.6382
  570TMC3    H1 8512   1.530   0.646  16.338  1.0374  0.6249  0.5130
  570TMC3    H2 8513   1.570   0.791  15.934  2.8291  1.2938  0.8709
  570TMC3    C7 8514   1.620   0.844  16.204  0.4350  0.0190 -0.7985
  570TMC3    C8 8515   1.673   0.581  15.844  0.2368  0.0527  0.3261
  570TMC3    O1 8516   1.620   0.857  16.325  0.0328 -0.0550 -0.9149
  570TMC3    O2 8517   1.747   0.674  15.833  0.5622 -0.2120  0.1099
  571MPD2     C 8518   3.159   2.383   0.503  1.1003 -0.3574  0.5045
  571MPD2    C1 8519   3.247   2.350   0.604  0.2040  0.4520  0.7937
  571MPD2    C2 8520   3.350   2.441   0.641  0.5847  0.0035 -0.5842
  571MPD2    C3 8521   3.371   2.557   0.565  0.3893  0.0738 -0.0956
  571MPD2    C4 8522   3.276   2.581   0.461  0.3867  0.4529 -0.1194
  571MPD2    C5 8523   3.174   2.495   0.432 -0.3830 -0.2675 -0.4938
  571MPD2     H 8524   3.418   2.415   0.721  0.6815 -0.0103 -0.6711
  571MPD2    H1 8525   3.299   2.668   0.400 -1.2644 -0.2386 -1.7239
  571MPD2    H2 8526   3.069   2.325   0.486  0.1523  1.0424  0.7042
  571MPD2    H3 8527   3.095   2.527   0.364 -1.0959  1.1717  1.0249
  571MPD2     N 8528   3.467   2.662   0.592  0.4132  0.1159 -0.3271
  571MPD2    H5 8529   3.472   2.729   0.517 -0.3313  0.8595  0.3013
  571MPD2    N1 8530   3.225   2.233   0.669 -0.4499 -0.0785  0.2734
  571MPD2    H7 8531   3.142   2.178   0.646  0.2982  0.3784 -3.4634
  572TMC3    C1 8532   3.605   2.797   0.701 -0.8920 -0.1479  1.3459
  572TMC3    C2 8533   3.611   2.855   0.820 -0.6095 -0.3642 -0.3818
  572TMC3    C3 8534   3.652   2.986   0.821 -0.2441 -0.0667  0.2359
  572TMC3    C4 8535   3.654   2.845   0.580  0.1134  0.2346 -0.0535
  572TMC3    C5 8536   3.706   2.974   0.593 -0.6930 -0.4061  0.2215
  572TMC3    C6 8537   3.702   3.046   0.713  0.3911  0.0322  0.6370
  572TMC3     C 8538   3.556   2.663   0.695 -0.4446  0.2919 -0.4287
  572TMC3     O 8539   3.544   2.609   0.805  0.0023 -0.4038  0.6358
  572TMC3     H 8540   3.558   2.817   0.906  0.5682  1.2598  1.0710
  572TMC3    H1 8541   3.674   2.791   0.488 -1.0429  0.2527 -0.3043
  572TMC3    H2 8542   3.723   3.153   0.717  2.8445 -0.4569  0.9274
  572TMC3    C7 8543   3.749   3.035   0.465  1.5712 -0.3113  0.2838
  572TMC3    C8 8544   3.621   3.063   0.939  0.3543 -0.7603 -0.1891
  572TMC3    O1 8545   3.717   2.970   0.366  0.0019  0.2276 -0.2917
  572TMC3    O2 8546   3.528   3.016   1.009  0.3542 -0.4156 -0.0064
  573MPD2     C 8547   0.789   3.238   1.160 -0.6582 -0.1750  0.6942
  573MPD2    C1 8548   0.805   3.308   1.047 -0.4667 -0.1292 -0.3707
  573MPD2    C2 8549   0.811   3.238   0.929 -0.0611  0.6011  0.2176
  573MPD2    C3 8550   0.790   3.103   0.924 -0.2937 -0.1730  0.3312
  573MPD2    C4 8551   0.761   3.035   1.037 -0.0220  0.1276 -0.1667
  573MPD2    C5 8552   0.763   3.104   1.156  0.8579  0.4445  0.1990
  573MPD2     H 8553   0.838   3.288   0.837  0.4478 -0.3935 -0.1752
  573MPD2    H1 8554   0.729   2.931   1.040  0.8007 -0.0750  1.7810
  573MPD2    H2 8555   0.782   3.291   1.254  0.3605  0.2106  0.5527
  573MPD2    H3 8556   0.748   3.050   1.249 -0.9007 -1.1402 -0.9979
  573MPD2     N 8557   0.789   3.022   0.808  0.5940  0.5190  0.9630
  573MPD2    H5 8558   0.754   2.927   0.819  0.7987  0.1850 -1.2460
  573MPD2    N1 8559   0.821   3.449   1.064 -0.0838 -0.0854  0.6617
  573MPD2    H7 8560   0.799   3.490   1.155  0.8682  0.6780  0.5554
  574TMC3    C1 8561   0.770   2.978   0.573 -0.5530  0.3368  0.5369
  574TMC3    C2 8562   0.657   2.913   0.602  0.3086 -0.3482 -0.4646
  574TMC3    C3 8563   0.586   2.869   0.501  0.3476  0.2285 -0.2784
  574TMC3    C4 8564   0.823   2.999   0.446  0.1495  0.6669 -0.2887
  574TMC3    C5 8565   0.755   2.930   0.349  0.0242 -0.5065  0.8716
  574TMC3    C6 8566   0.638   2.864   0.374  0.3025  0.5854 -1.0794
  574TMC3     C 8567   0.810   3.077   0.677 -0.8340 -0.0062 -0.4979
  574TMC3     O 8568   0.835   3.183   0.631  0.2596 -0.2935  0.8358
  574TMC3     H 8569   0.608   2.922   0.699  0.8697  2.5608 -0.4434
  574TMC3    H1 8570   0.900   3.071   0.419  1.2765 -0.5972 -0.4251
  574TMC3    H2 8571   0.581   2.815   0.296  1.2595 -1.5867 -0.4068
  574TMC3    C7 8572   0.772   2.982   0.213  0.0779 -0.1046 -0.3958
  574TMC3    C8 8573   0.442   2.887   0.492 -0.2990  0.1386 -0.0857
  574TMC3    O1 8574   0.676   3.023   0.149  0.1806  0.1883  0.1668
  574TMC3    O2 8575   0.385   2.869   0.600  0.4576  0.0324 -0.1134
  575TMC3    C1 8576   3.480   3.406  10.974 -0.1749  0.2177 -0.2035
  575TMC3    C2 8577   3.387   3.338  11.047  0.5394 -0.6312  0.4088
  575TMC3    C3 8578   3.266   3.302  10.993  0.0063  0.1383 -0.2696
  575TMC3    C4 8579   3.454   3.444  10.847 -0.0508  0.2346 -0.8879
  575TMC3    C5 8580   3.332   3.410  10.793 -0.8830  0.2637 -0.1042
  575TMC3    C6 8581   3.238   3.337  10.863 -0.5831  0.0320  0.2317
  575TMC3     C 8582   3.602   3.441  11.043 -0.3022 -0.6602  0.9218
  575TMC3     O 8583   3.632   3.384  11.148 -0.8462  0.4073 -0.0489
  575TMC3     H 8584   3.407   3.311  11.149 -0.3356 -1.7687  0.2810
  575TMC3    H1 8585   3.532   3.494  10.790  0.1983  0.7588 -0.0817
  575TMC3    H2 8586   3.141   3.318  10.819 -0.4699 -0.2667  0.1118
  575TMC3    C7 8587   3.295   3.465  10.667 -0.3876 -0.0579 -0.1267
  575TMC3    C8 8588   3.217   3.175  11.047  0.1006  0.2904 -0.1256
  575TMC3    O1 8589   3.354   3.560  10.622  0.9031 -0.0298 -0.8312
  575TMC3    O2 8590   3.232   3.145  11.163  0.5046  0.4905  0.7321
  576MPD2     C 8591   2.953   4.579  12.772 -0.2609  0.1741 -0.1354
  576MPD2    C1 8592   2.990   4.704  12.740  0.7412 -0.0438  0.0917
  576MPD2    C2 8593   2.952   0.071  12.818  1.0190  0.0479  0.1770
  576MPD2    C3 8594   2.855   0.058  12.916  0.3258  0.8712  0.3318
  576MPD2    C4 8595   2.796   4.671  12.933  0.4491 -0.4744 -1.0287
  576MPD2    C5 8596   2.858   4.570  12.870 -0.7320  0.6702  0.0304
  576MPD2     H 8597   3.013   0.160  12.811 -0.3620  1.0302  0.7208
  576MPD2    H1 8598   2.718   4.644  13.003 -0.8642 -1.7437 -2.9714
  576MPD2    H2 8599   2.997   4.489  12.731 -0.2624 -1.0246  2.4747
  576MPD2    H3 8600   2.835   4.471  12.908  1.1085 -0.0741 -0.8294
  576MPD2     N 8601   2.812   0.172  12.986 -0.6188 -0.2398  0.3066
  576MPD2    H5 8602   2.852   0.258  12.950 -0.8385 -0.0769  0.4520
  576MPD2    N1 8603   3.084   4.733  12.644 -1.1779  0.2651  0.0490
  576MPD2    H7 8604   3.127   0.086  12.653  0.4709 -0.4773 -0.2827
  577TMC3    C1 8605   3.214   4.717  12.452  0.5305  0.0978 -0.1109
  577TMC3    C2 8606   3.306   4.653  12.374 -0.0808  0.3370 -0.1102
  577TMC3    C3 8607   3.361   4.705  12.262  0.2362 -0.5044  0.2828
  577TMC3    C4 8608   3.169   0.097  12.408  0.0578  0.0616  0.3185
  577TMC3    C5 8609   3.223   0.148  12.291  0.2637  0.5486  0.1648
  577TMC3    C6 8610   3.322   0.091  12.212 -0.2429 -0.3296  0.4035
  577TMC3     C 8611   3.137   4.642  12.554  0.0197  0.1755 -0.0245
  577TMC3     O 8612   3.141   4.520  12.551 -0.0769  0.9191 -0.4843
  577TMC3     H 8613   3.330   4.553  12.409 -0.0116  0.3744 -0.0499
  577TMC3    H1 8614   3.092   0.150  12.463 -0.5259  0.2295 -0.6618
  577TMC3    H2 8615   3.366   0.146  12.129 -1.4536 -1.4480 -0.9737
  577TMC3    C7 8616   3.253   0.284  12.315  0.7955 -0.4587  0.7615
  577TMC3    C8 8617   3.418   4.606  12.169 -0.2001 -0.3448  0.2056
  577TMC3    O1 8618   3.271   0.321  12.430 -0.1125  0.0107 -0.3080
  577TMC3    O2 8619   3.390   4.491  12.200  0.3693 -0.0565 -0.1283
  578MPD2     C 8620   1.623   0.627   1.183 -0.6172  0.3088  0.0003
  578MPD2    C1 8621   1.593   0.495   1.166  0.1345  0.5666  0.1345
  578MPD2    C2 8622   1.550   0.415   1.274 -0.8487  0.3663 -0.0991
  578MPD2    C3 8623   1.540   0.471   1.400 -0.8518 -0.7449 -0.5097
  578MPD2    C4 8624   1.570   0.604   1.417 -0.2698  0.5562 -0.4480
  578MPD2    C5 8625   1.607   0.678   1.308 -0.2099 -0.6746  0.4538
  578MPD2     H 8626   1.532   0.309   1.267  0.1041  0.1686  0.4373
  578MPD2    H1 8627   1.558   0.649   1.515 -1.6019 -0.7603  0.0066
  578MPD2    H2 8628   1.669   0.690   1.108  2.1990  0.8589  2.1763
  578MPD2    H3 8629   1.627   0.782   1.330  2.4686 -1.4953  1.8147
  578MPD2     N 8630   1.491   0.385   1.507 -0.1200 -0.0263  0.0437
  578MPD2    H5 8631   1.443   0.301   1.476 -0.8733  0.8538 -1.1296
  578MPD2    N1 8632   1.621   0.450   1.039 -0.0510  0.0928 -0.0118
  578MPD2    H7 8633   1.656   0.520   0.974 -0.7459 -1.2128 -1.7991
  579TMC3    C1 8634   1.476   0.297   1.723 -0.5875 -0.6557  0.2130
  579TMC3    C2 8635   1.565   0.290   1.833 -0.0100 -0.3060 -0.7414
  579TMC3    C3 8636   1.624   0.171   1.861  0.5208  0.3396  0.4980
  579TMC3    C4 8637   1.447   0.190   1.651  0.7802  1.1776 -0.3252
  579TMC3    C5 8638   1.509   0.072   1.685 -0.0178  0.4658 -0.5673
  579TMC3    C6 8639   1.608   0.066   1.780  0.1540  0.3848  0.0761
  579TMC3     C 8640   1.501   0.412   1.639  0.4891  0.0031  1.3740
  579TMC3     O 8641   1.573   0.495   1.689 -0.1320 -0.0652 -0.0372
  579TMC3     H 8642   1.587   0.373   1.899  0.2205  0.9305 -2.3648
  579TMC3    H1 8643   1.368   0.193   1.577  1.3671 -1.2029 -1.0475
  579TMC3    H2 8644   1.658   4.713   1.810 -1.6473 -0.4183  0.6697
  579TMC3    C7 8645   1.528   4.711   1.581  0.7065 -0.1787 -0.3717
  579TMC3    C8 8646   1.768   0.168   1.901  0.5187 -0.5223 -0.0908
  579TMC3    O1 8647   1.604   4.615   1.606 -0.4005  0.2060  0.2786
  579TMC3    O2 8648   1.800   0.208   2.014 -0.0104 -0.0123  0.2686
  580TMC3    C1 8649   0.313   3.675  11.740 -0.0163  0.2797 -0.1217
  580TMC3    C2 8650   0.383   3.687  11.621  0.1462  0.4732  0.4567
  580TMC3    C3 8651   0.457   3.579  11.582 -0.5506 -0.7356  0.0899
  580TMC3    C4 8652   0.339   3.561  11.812 -0.0704 -0.3227  0.2466
  580TMC3    C5 8653   0.424   3.460  11.768 -0.9622  0.2912  0.1029
  580TMC3    C6 8654   0.488   3.460  11.651  0.2883 -0.4303 -0.1647
  580TMC3     C 8655   0.320   3.795  11.825 -0.0287 -1.0748 -0.4853
  580TMC3     O 8656   0.325   3.899  11.760 -0.1492  0.1727  0.0043
  580TMC3     H 8657   0.385   3.780  11.566 -0.6796 -0.3958 -1.0326
  580TMC3    H1 8658   0.275   3.545  11.898 -1.7797  1.5584 -0.6901
  580TMC3    H2 8659   0.535   3.374  11.605 -0.6671 -1.3898  0.6544
  580TMC3    C7 8660   0.489   3.407  11.891 -0.0439 -0.0568  0.0634
  580TMC3    C8 8661   0.522   3.578  11.452 -0.2498 -0.1811  0.5269
  580TMC3    O1 8662   0.481   3.474  11.992 -0.3777 -0.0732 -0.0639
  580TMC3    O2 8663   0.541   3.474  11.396  0.5560 -0.0188 -0.5853
  581MPD2     C 8664   3.593   3.860  15.277 -0.0943 -0.1045  0.0817
  581MPD2    C1 8665   3.493   3.815  15.364  0.5361 -0.4856  0.1683
  581MPD2    C2 8666   3.364   3.812  15.321  0.0680 -0.3472 -0.3684
  581MPD2    C3 8667   3.331   3.847  15.189 -0.6993  0.0595 -0.1397
  581MPD2    C4 8668   3.427   3.903  15.108  0.8113  0.1925  0.3461
  581MPD2    C5 8669   3.556   3.906  15.156 -0.8196  0.7249 -0.7696
  581MPD2     H 8670   3.282   3.771  15.380  0.0610 -0.4554 -0.4537
  581MPD2    H1 8671   3.407   3.928  15.005 -1.1102 -0.6800  0.5100
  581MPD2    H2 8672   3.691   3.861  15.322 -0.6173  1.0246  1.1834
  581MPD2    H3 8673   3.637   3.943  15.095 -0.2856  1.8694  0.6322
  581MPD2     N 8674   3.190   3.846  15.152 -0.1975 -0.5938 -0.0960
  581MPD2    H5 8675   3.130   3.814  15.226 -0.1006 -3.4832 -1.2879
  581MPD2    N1 8676   3.537   3.781  15.496 -0.2789 -0.0398  0.0126
  581MPD2    H7 8677   3.635   3.777  15.520 -0.4605 -3.7704  0.1544
  582TMC3    C1 8678   3.521   3.695  15.719 -0.2142  0.6494 -0.1094
  582TMC3    C2 8679   3.574   3.786  15.807  0.9032  0.2471 -0.5470
  582TMC3    C3 8680   3.560   3.752  15.940  0.3627  0.6223 -0.0661
  582TMC3    C4 8681   3.472   3.576  15.760 -0.3238 -0.2722  0.3864
  582TMC3    C5 8682   3.459   3.540  15.891 -0.5296 -0.0239  0.1925
  582TMC3    C6 8683   3.497   3.635  15.981 -0.5471 -0.7596 -0.2849
  582TMC3     C 8684   3.455   3.755  15.599 -0.4443  1.0652  0.6298
  582TMC3     O 8685   3.333   3.751  15.598  0.2181 -0.2406 -0.3624
  582TMC3     H 8686   3.595   3.886  15.772 -1.0272  0.8725  0.0970
  582TMC3    H1 8687   3.434   3.515  15.678 -0.1291  0.3615 -0.1758
  582TMC3    H2 8688   3.468   3.628  16.085 -0.7960 -1.2938 -0.3895
  582TMC3    C7 8689   3.343   3.474  15.932 -0.6809 -0.5999  0.1236
  582TMC3    C8 8690   3.579   3.853  16.048 -0.3800 -0.5408  0.2737
  582TMC3    O1 8691   3.319   3.410  16.034 -0.2114  0.0853  0.0972
  582TMC3    O2 8692   3.521   3.841  16.155  0.0831  0.0751 -0.0497
  583MPD2     C 8693   2.998   1.032  16.393 -0.2058  0.2122 -0.6936
  583MPD2    C1 8694   2.976   1.170  16.406 -0.0126  0.1098 -0.2860
  583MPD2    C2 8695   2.914   1.221  16.522  0.3066 -0.2279  0.2689
  583MPD2    C3 8696   2.884   1.142  16.631 -0.6876  0.7667  0.3781
  583MPD2    C4 8697   2.905   1.003  16.617 -0.5255  0.0690 -0.5666
  583MPD2    C5 8698   2.970   0.956  16.502  0.3053 -0.5901 -0.2278
  583MPD2     H 8699   2.906   1.329  16.516 -1.5270 -0.3696  0.3091
  583MPD2    H1 8700   2.896   0.935  16.701 -1.4927  0.8400 -0.0508
  583MPD2    H2 8701   3.051   0.994  16.306 -2.1165 -1.3312 -1.1692
  583MPD2    H3 8702   2.991   0.850  16.507 -1.3612 -0.8997  0.1221
  583MPD2     N 8703   2.830   1.205  16.747 -0.0437  0.8486 -0.5293
  583MPD2    H5 8704   2.834   1.306  16.750 -0.8341  0.8613  0.1223
  583MPD2    N1 8705   3.042   1.268  16.331 -0.9138  0.0201  0.4418
  583MPD2    H7 8706   3.041   1.367  16.355 -2.3464 -0.3647  1.9394
  584TMC3    C1 8707   2.776   1.225  16.976  0.1050 -0.0126  0.1043
  584TMC3    C2 8708   2.811   1.359  16.959  0.3258  0.0730 -0.5230
  584TMC3    C3 8709   2.822   1.435  17.075 -0.0806  0.1196  0.6265
  584TMC3    C4 8710   2.766   1.165  17.096  0.7919  0.6254  0.0696
  584TMC3    C5 8711   2.778   1.246  17.209 -0.0072  1.0840 -0.5312
  584TMC3    C6 8712   2.806   1.383  17.197  0.7820 -0.0413  0.2258
  584TMC3     C 8713   2.797   1.135  16.861 -0.0625 -0.3798 -0.2601
  584TMC3     O 8714   2.803   1.016  16.882 -0.5999  0.4049  0.8845
  584TMC3     H 8715   2.829   1.404  16.863  0.7530  2.0246  0.4835
  584TMC3    H1 8716   2.744   1.059  17.103  1.1073  0.7410  2.8089
  584TMC3    H2 8717   2.810   1.444  17.286 -0.3485 -0.4260  0.5392
  584TMC3    C7 8718   2.724   1.189  17.334  0.2355 -0.1965 -0.4793
  584TMC3    C8 8719   2.840   1.576  17.046  0.4853  0.0836 -0.0346
  584TMC3    O1 8720   2.741   1.257  17.437  0.0179 -0.0236 -0.0996
  584TMC3    O2 8721   2.819   1.621  16.934  0.2291 -0.0757  0.1299
  585MPD2     C 8722   2.705   4.428   0.762 -0.1316  0.4295  0.2989
  585MPD2    C1 8723   2.793   4.444   0.660  0.1430  0.1024  0.6157
  585MPD2    C2 8724   2.845   4.332   0.600  0.7100  0.5069 -0.1092
  585MPD2    C3 8725   2.820   4.205   0.657 -0.5937  0.1557 -0.1456
  585MPD2    C4 8726   2.745   4.200   0.773  0.2280  0.0136  0.4434
  585MPD2    C5 8727   2.690   4.306   0.820  0.1385  0.1396 -0.1149
  585MPD2     H 8728   2.907   4.344   0.513 -1.2405  1.6879 -1.3239
  585MPD2    H1 8729   2.728   4.103   0.818 -2.9809 -0.4545 -1.8388
  585MPD2    H2 8730   2.654   4.509   0.814 -0.5261  0.9644 -0.9357
  585MPD2    H3 8731   2.619   4.300   0.901  0.6506 -0.4752  0.2829
  585MPD2     N 8732   2.874   4.088   0.605  0.1953 -0.4039  0.0815
  585MPD2    H5 8733   2.853   4.001   0.652  0.8397  0.7896  2.5367
  585MPD2    N1 8734   2.824   4.577   0.607 -0.3236 -0.3691 -0.6008
  585MPD2    H7 8735   2.767   4.650   0.648 -0.7996 -0.5300 -0.9634
  586TMC3    C1 8736   2.966   3.943   0.451  0.1063  1.3109  0.2546
  586TMC3    C2 8737   3.075   3.908   0.376  0.0627  0.6865 -0.2546
  586TMC3    C3 8738   3.078   3.795   0.303 -0.2583 -0.1751  0.5020
  586TMC3    C4 8739   2.848   3.873   0.446  0.2987 -0.2944 -0.4520
  586TMC3    C5 8740   2.860   3.754   0.377  0.1396  0.0855  0.1214
  586TMC3    C6 8741   2.975   3.714   0.324  0.1575 -0.3448  1.0953
  586TMC3     C 8742   2.952   4.079   0.493 -0.4584 -0.6222 -0.3350
  586TMC3     O 8743   2.999   4.162   0.416 -0.4674  0.2246  0.4791
  586TMC3     H 8744   3.153   3.982   0.359  0.6138 -0.0151 -0.8086
  586TMC3    H1 8745   2.759   3.913   0.493 -0.7595 -0.7811 -2.0669
  586TMC3    H2 8746   2.988   3.614   0.285  2.2919 -0.3831  1.9099
  586TMC3    C7 8747   2.745   3.740   0.291  0.4274 -0.1820 -1.2637
  586TMC3    C8 8748   3.105   3.802   0.162  0.2233 -0.6124 -0.3805
  586TMC3    O1 8749   2.632   3.770   0.329 -0.1813 -0.2721  0.4840
  586TMC3    O2 8750   3.092   3.690   0.116  0.1786 -0.5593 -0.6550
  587TMC3    C1 8751   0.068   3.462  16.518 -0.6149  0.8260  0.2179
  587TMC3    C2 8752   0.053   3.596  16.507  1.3639 -0.1760 -0.4379
  587TMC3    C3 8753   0.151   3.676  16.548 -0.4699  0.7592  0.5286
  587TMC3    C4 8754   0.184   3.401  16.554  0.6326 -0.5597  0.7080
  587TMC3    C5 8755   0.285   3.487  16.581  0.3516 -0.3390 -0.4957
  587TMC3    C6 8756   0.275   3.623  16.584 -0.2109  0.5548  0.2427
  587TMC3     C 8757   4.714   3.387  16.431  0.3429 -0.1761  0.1285
  587TMC3     O 8758   0.025   3.300  16.360  0.1353 -0.4092 -0.7613
  587TMC3     H 8759   4.698   3.634  16.468  1.0980 -2.7408 -2.2656
  587TMC3    H1 8760   0.199   3.294  16.549 -2.9451 -1.0788  1.2017
  587TMC3    H2 8761   0.353   3.687  16.624 -0.0114 -0.6701  1.7875
  587TMC3    C7 8762   0.414   3.439  16.612 -0.3053 -0.2599 -0.5814
  587TMC3    C8 8763   0.163   3.804  16.483 -0.5745  0.0798 -0.7773
  587TMC3    O1 8764   0.415   3.323  16.657 -0.1101 -0.5286 -0.6901
  587TMC3    O2 8765   0.270   3.820  16.428  0.5337 -0.4186 -0.1545
  588TMC3    C1 8766   2.373   1.330  10.046  0.3491 -0.1239 -0.0686
  588TMC3    C2 8767   2.348   1.215   9.987  0.6517 -0.3224  0.1403
  588TMC3    C3 8768   2.450   1.123   9.984 -0.1696  0.6855  0.0801
  588TMC3    C4 8769   2.494   1.368  10.091 -0.2795  0.1575 -0.3824
  588TMC3    C5 8770   2.593   1.275  10.075 -0.0621  0.4423 -0.9149
  588TMC3    C6 8771   2.576   1.155  10.023 -0.3149 -0.5201 -0.3308
  588TMC3     C 8772   2.273   1.428  10.036 -0.1506 -0.2205  0.2184
  588TMC3     O 8773   2.193   1.419   9.945  0.5860 -0.0153 -0.0892
  588TMC3     H 8774   2.245   1.191   9.962  0.5801 -1.1217  1.2233
  588TMC3    H1 8775   2.511   1.457  10.151  1.1187 -0.3849  0.0259
  588TMC3    H2 8776   2.659   1.087  10.003 -0.3776 -0.5584 -0.4626
  588TMC3    C7 8777   2.722   1.313  10.135 -0.1765  0.6875 -0.8198
  588TMC3    C8 8778   2.417   0.987   9.944  0.3075  0.4580 -0.5639
  588TMC3    O1 8779   2.784   1.225  10.196 -0.7322 -1.3323  0.0517
  588TMC3    O2 8780   2.307   0.970   9.896 -0.1620  0.2962  0.4827
  589TMC3    C1 8781   1.524   3.829   1.573 -0.3078  0.2863 -0.4309
  589TMC3    C2 8782   1.640   3.854   1.634 -0.1018 -0.1600 -0.1311
  589TMC3    C3 8783   1.754   3.808   1.572  0.1635 -0.2596  0.6746
  589TMC3    C4 8784   1.522   3.764   1.450  0.3515  0.4186 -0.1339
  589TMC3    C5 8785   1.641   3.720   1.395  0.6968 -0.3379  0.0417
  589TMC3    C6 8786   1.760   3.738   1.455  0.0977  0.3011  0.3986
  589TMC3     C 8787   1.399   3.897   1.608  0.1579  0.5230 -0.1635
  589TMC3     O 8788   1.325   3.921   1.515  0.2799  0.7404 -0.1091
  589TMC3     H 8789   1.648   3.920   1.720 -1.0219  1.5807 -1.3796
  589TMC3    H1 8790   1.428   3.740   1.401 -0.0054 -0.7861  1.1221
  589TMC3    H2 8791   1.855   3.712   1.410  0.3559  0.1773  1.0266
  589TMC3    C7 8792   1.639   3.617   1.285 -0.0521 -1.0665  0.0551
  589TMC3    C8 8793   1.877   3.879   1.616  0.1680 -0.5627 -0.2157
  589TMC3    O1 8794   1.531   3.594   1.233 -0.4063  0.1227  0.0203
  589TMC3    O2 8795   1.862   3.965   1.701  1.1563  0.7786  0.7088
  590MPD2     C 8796   0.818   1.641  16.435  0.0880  0.2082 -0.1056
  590MPD2    C1 8797   0.774   1.756  16.371 -0.1746 -0.7547  0.3247
  590MPD2    C2 8798   0.862   1.817  16.286  0.7092 -0.3677 -0.0384
  590MPD2    C3 8799   0.996   1.781  16.285  0.4112  0.0989  0.3848
  590MPD2    C4 8800   1.043   1.664  16.351 -0.1173  0.5080 -0.2800
  590MPD2    C5 8801   0.950   1.599  16.429  0.0496 -0.0940  0.3604
  590MPD2     H 8802   0.837   1.902  16.223  0.4107 -0.4136  0.0226
  590MPD2    H1 8803   1.148   1.639  16.360 -0.4066  0.0005  1.5431
  590MPD2    H2 8804   0.756   1.587  16.506  1.3986  0.7547  1.4404
  590MPD2    H3 8805   0.977   1.521  16.499 -1.6788  0.7371  1.9593
  590MPD2     N 8806   1.084   1.872  16.223  0.6196  0.3188  0.2020
  590MPD2    H5 8807   1.048   1.963  16.196  0.2972 -0.5747 -2.4151
  590MPD2    N1 8808   0.640   1.812  16.383  0.2611 -0.5684 -0.2943
  590MPD2    H7 8809   0.576   1.764  16.445  0.7384 -3.4210 -2.0367
  591TMC3    C1 8810   1.275   1.979  16.177  0.1521 -0.0374  0.5031
  591TMC3    C2 8811   1.379   1.976  16.089 -0.4171  0.0862  0.1846
  591TMC3    C3 8812   1.447   2.093  16.060 -0.1093 -0.1688  0.3774
  591TMC3    C4 8813   1.240   2.095  16.245 -0.6651 -0.0193  0.0577
  591TMC3    C5 8814   1.308   2.206  16.208 -0.6119  0.7789 -0.2803
  591TMC3    C6 8815   1.417   2.212  16.121 -0.1279 -0.6663  0.3071
  591TMC3     C 8816   1.217   1.856  16.207  0.6173  0.1781 -0.5782
  591TMC3     O 8817   1.273   1.745  16.195 -0.1212 -0.3876 -0.1322
  591TMC3     H 8818   1.402   1.884  16.036 -0.2999 -0.0406  0.4596
  591TMC3    H1 8819   1.152   2.092  16.309 -0.9735  1.3532 -0.3177
  591TMC3    H2 8820   1.485   2.296  16.127  1.7993 -2.3472  1.6103
  591TMC3    C7 8821   1.269   2.326  16.280 -0.7329  0.6893 -0.3079
  591TMC3    C8 8822   1.529   2.101  15.941 -0.0746 -0.2795 -0.9499
  591TMC3    O1 8823   1.228   2.302  16.393 -0.3882  0.0548  0.2124
  591TMC3    O2 8824   1.566   1.996  15.897  0.1160  0.5005 -0.6824
  592MPD2     C 8825   1.629   3.409  11.973 -0.3598 -0.3452 -0.3790
  592MPD2    C1 8826   1.672   3.508  12.052  0.1013 -0.5951  0.9364
  592MPD2    C2 8827   1.688   3.476  12.183  0.1202 -0.1919 -0.0114
  592MPD2    C3 8828   1.644   3.360  12.245 -0.1721  0.1964 -0.1633
  592MPD2    C4 8829   1.581   3.270  12.164 -1.0680 -0.0048  0.3490
  592MPD2    C5 8830   1.581   3.295  12.026 -0.4347 -0.2216 -0.7960
  592MPD2     H 8831   1.743   3.544  12.247 -0.7660 -0.3560  0.9229
  592MPD2    H1 8832   1.554   3.170  12.197  0.8197 -0.1254  1.5161
  592MPD2    H2 8833   1.610   3.436  11.869 -2.5183  0.1933  0.1381
  592MPD2    H3 8834   1.533   3.218  11.966 -3.8931  1.4941 -0.1977
  592MPD2     N 8835   1.664   3.342  12.382  0.7720  0.0440 -0.2848
  592MPD2    H5 8836   1.707   3.421  12.428  0.7134 -0.6815  1.0101
  592MPD2    N1 8837   1.706   3.625  11.990  0.5378 -0.1989  0.2291
  592MPD2    H7 8838   1.712   3.631  11.888 -1.9336 -2.0082 -0.0163
  593TMC3    C1 8839   1.796   3.839  11.986  0.8318 -0.8322 -0.3433
  593TMC3    C2 8840   1.803   3.959  12.058  0.0317  0.0312 -0.3948
  593TMC3    C3 8841   1.902   4.051  12.024  0.2638  0.3176  0.3138
  593TMC3    C4 8842   1.893   3.805  11.899 -0.0534 -0.3859  0.3247
  593TMC3    C5 8843   1.994   3.892  11.880  0.3436 -0.9432  0.5559
  593TMC3    C6 8844   2.003   4.013  11.944  0.0663  0.1488  0.8006
  593TMC3     C 8845   1.736   3.734  12.061  0.7735 -0.4118 -0.2745
  593TMC3     O 8846   1.735   3.759  12.181  0.6059 -0.0038  0.1392
  593TMC3     H 8847   1.718   3.989  12.119 -0.3703 -2.0562  0.0663
  593TMC3    H1 8848   1.878   3.719  11.834 -1.1300 -0.7406  1.0507
  593TMC3    H2 8849   2.081   4.084  11.918 -0.0810 -0.7428 -2.0771
  593TMC3    C7 8850   2.058   3.893  11.751  0.4771  0.3146 -0.4182
  593TMC3    C8 8851   1.903   4.180  12.083  0.3285  0.5618  0.3605
  593TMC3    O1 8852   2.164   3.960  11.744  0.5003 -0.4256 -0.1460
  593TMC3    O2 8853   1.798   4.222  12.126 -0.0379 -0.4399 -0.2734
  594MPD2     C 8854   0.086   2.540  14.337 -0.2165 -0.1848  0.1721
  594MPD2    C1 8855   0.139   2.534  14.465 -0.0913  0.1420 -0.1391
  594MPD2    C2 8856   0.267   2.599  14.480  0.3447  0.4268  0.1797
  594MPD2    C3 8857   0.324   2.666  14.380 -0.5455 -0.4854 -0.0898
  594MPD2    C4 8858   0.272   2.668  14.251  0.0951 -0.1220  0.3950
  594MPD2    C5 8859   0.144   2.618  14.236  0.5567  0.2261 -0.5022
  594MPD2     H 8860   0.322   2.608  14.573 -1.4008 -1.1140  1.3819
  594MPD2    H1 8861   0.322   2.712  14.166 -0.2134 -3.3285 -1.4410
  594MPD2    H2 8862   4.729   2.499  14.309 -0.7930  1.9590 -0.9507
  594MPD2    H3 8863   0.105   2.636  14.137 -1.1258  1.8863  0.4743
  594MPD2     N 8864   0.450   2.729  14.398 -0.1047 -0.6710 -0.2975
  594MPD2    H5 8865   0.480   2.743  14.494  1.1689  1.6067 -1.0169
  594MPD2    N1 8866   0.070   2.456  14.559 -0.0060 -0.3196  0.3560
  594MPD2    H7 8867   4.726   2.408  14.525 -2.1779  1.3648  3.3737
  595TMC3    C1 8868   0.846   2.945  14.311  0.2062 -0.3836 -0.3571
  595TMC3    C2 8869   0.756   2.847  14.273 -0.6400 -0.6838 -0.4850
  595TMC3    C3 8870   0.632   2.862  14.330 -0.0255  0.1024 -0.3493
  595TMC3    C4 8871   0.823   3.054  14.390 -0.5385  0.3726  0.4192
  595TMC3    C5 8872   0.700   3.059  14.445  0.0427 -0.4749 -0.3007
  595TMC3    C6 8873   0.607   2.963  14.418 -0.6735 -0.5767 -0.0016
  595TMC3     C 8874   0.990   2.910  14.324 -0.9886  0.0787 -0.0186
  595TMC3     O 8875   1.052   3.001  14.374  0.4320  0.1182  0.0146
  595TMC3     H 8876   0.778   2.753  14.224  0.4211 -1.7724  2.0477
  595TMC3    H1 8877   0.883   3.144  14.393  0.2939 -0.1374 -1.4282
  595TMC3    H2 8878   0.504   2.968  14.453 -1.0056  0.7657 -1.1401
  595TMC3    C7 8879   0.672   3.141  14.556 -0.2028 -0.1538 -0.8254
  595TMC3    C8 8880   0.534   2.766  14.293 -0.1898 -0.6911  0.0297
  595TMC3    O1 8881   0.558   3.128  14.598 -0.7355  0.5317  0.4170
  595TMC3    O2 8882   0.543   2.715  14.183  0.0494  0.0478 -0.2816
  596MPD2     C 8883   3.580   0.956  16.866  0.2496 -0.3742 -0.1332
  596MPD2    C1 8884   3.593   1.086  16.820  0.0673  0.3709 -0.6647
  596MPD2    C2 8885   3.654   1.096  16.695 -0.8026  0.1244  0.4724
  596MPD2    C3 8886   3.718   0.985  16.632  0.2966 -0.2511 -0.9700
  596MPD2    C4 8887   3.687   0.863  16.679 -0.0748  0.1346  0.1419
  596MPD2    C5 8888   3.617   0.847  16.795  1.0782  0.0243  0.9671
  596MPD2     H 8889   3.676   1.198  16.666 -2.3752  1.4592  3.8652
  596MPD2    H1 8890   3.719   0.777  16.621 -1.4526  1.3216 -2.3459
  596MPD2    H2 8891   3.525   0.936  16.957 -0.4918 -0.5287 -0.6213
  596MPD2    H3 8892   3.580   0.752  16.831 -1.9351  0.8341  0.0256
  596MPD2     N 8893   3.797   0.988  16.517 -0.6677 -0.1597  0.1626
  596MPD2    H5 8894   3.827   0.898  16.480  2.2435  0.8927 -0.0813
  596MPD2    N1 8895   3.570   1.212  16.892 -0.6651 -0.5905 -0.4640
  596MPD2    H7 8896   3.572   1.300  16.841  0.5739  0.3153  1.1651
  597TMC3    C1 8897   3.548   1.344  17.090  0.5860 -0.1623  0.2953
  597TMC3    C2 8898   3.625   1.441  17.029 -0.1719  0.8704 -0.0807
  597TMC3    C3 8899   3.648   1.554  17.103  0.9131  0.5397 -0.9820
  597TMC3    C4 8900   3.504   1.346  17.222 -0.3982  0.1275  0.2524
  597TMC3    C5 8901   3.524   1.464  17.281  0.0809  0.0710  0.7891
  597TMC3    C6 8902   3.597   1.569  17.233 -0.4853 -0.2470  0.1061
  597TMC3     C 8903   3.542   1.212  17.027  0.0949 -0.4512 -0.4895
  597TMC3     O 8904   3.511   1.117  17.101 -0.1373 -0.7583 -0.3638
  597TMC3     H 8905   3.672   1.430  16.932 -2.8332 -2.2559 -1.0088
  597TMC3    H1 8906   3.425   1.279  17.253  0.6750 -0.1373  2.4273
  597TMC3    H2 8907   3.616   1.658  17.291  1.0793 -1.4730  1.4998
  597TMC3    C7 8908   3.463   1.476  17.412 -0.1609  0.4187  0.7386
  597TMC3    C8 8909   3.764   1.638  17.081 -0.3673  0.3220 -0.4818
  597TMC3    O1 8910   3.367   1.410  17.449 -0.4332 -0.4387  0.3861
  597TMC3    O2 8911   3.809   1.694  17.185  0.3538 -0.1101 -0.5219
  598TMC3    C1 8912   2.384   2.354  15.443 -0.6512  0.1099 -0.6194
  598TMC3    C2 8913   2.317   2.230  15.432 -0.7246 -0.3322 -0.5975
  598TMC3    C3 8914   2.273   2.201  15.305 -0.3552  0.1798  0.2363
  598TMC3    C4 8915   2.408   2.440  15.336  0.2020 -0.5304 -0.7255
  598TMC3    C5 8916   2.352   2.402  15.215 -0.2405  0.1980 -0.4178
  598TMC3    C6 8917   2.278   2.290  15.201 -0.6597 -0.0318 -0.3629
  598TMC3     C 8918   2.395   2.409  15.579 -0.2921 -0.0290  0.3419
  598TMC3     O 8919   2.425   2.531  15.587 -0.7734  0.3285 -0.9363
  598TMC3     H 8920   2.281   2.170  15.514  1.0228 -0.6790 -0.0850
  598TMC3    H1 8921   2.481   2.519  15.348  0.2990 -0.4130 -2.0748
  598TMC3    H2 8922   2.241   2.262  15.103  1.8089 -2.1876 -0.6680
  598TMC3    C7 8923   2.410   2.457  15.091  0.1835 -0.1188  0.0917
  598TMC3    C8 8924   2.242   2.059  15.270  0.4597 -0.0383 -0.2188
  598TMC3    O1 8925   2.384   2.394  14.992 -0.2321 -0.2234 -0.3930
  598TMC3    O2 8926   2.195   2.046  15.161 -0.4165 -0.2536  0.7483
  599MPD2     C 8927   2.261   4.414  15.725 -0.6414  0.2978 -0.2526
  599MPD2    C1 8928   2.325   4.452  15.842  0.5069 -0.0080 -0.3832
  599MPD2    C2 8929   2.263   4.528  15.940 -0.4022 -0.1094 -0.6433
  599MPD2    C3 8930   2.123   4.539  15.932  0.6233  0.2238  0.0039
  599MPD2    C4 8931   2.054   4.484  15.824 -0.2865 -0.8198 -0.6336
  599MPD2    C5 8932   2.129   4.433  15.714 -0.0601 -0.5236 -0.2237
  599MPD2     H 8933   2.320   4.563  16.025  0.4116 -0.3528 -1.0933
  599MPD2    H1 8934   1.947   4.497  15.817  0.0800  2.2686 -0.6538
  599MPD2    H2 8935   2.315   4.355  15.651  0.2437  1.1708 -0.3121
  599MPD2    H3 8936   2.068   4.392  15.635 -2.7576 -0.1028  1.6322
  599MPD2     N 8937   2.041   4.593  16.038 -0.0959  0.0922 -0.0223
  599MPD2    H5 8938   1.943   4.593  16.013 -0.6750  0.1735  2.2854
  599MPD2    N1 8939   2.465   4.453  15.839 -1.0619  0.0672 -0.6027
  599MPD2    H7 8940   2.505   4.428  15.750  1.1056  2.1185 -0.2020
  600TMC3    C1 8941   1.972   0.011  16.217  0.1430 -0.0981  0.0229
  600TMC3    C2 8942   1.835   4.721  16.207 -0.0856  0.4984  0.1092
  600TMC3    C3 8943   1.734   0.055  16.268 -0.4849 -0.1292  0.1993
  600TMC3    C4 8944   2.008   0.126  16.288 -0.5274  0.4330  0.3176
  600TMC3    C5 8945   1.906   0.196  16.352 -0.1451  0.2768 -0.0686
  600TMC3    C6 8946   1.775   0.151  16.348  0.0094  0.3585 -0.0486
  600TMC3     C 8947   2.081   4.673  16.143 -0.3920  0.2464 -0.3313
  600TMC3     O 8948   2.195   4.703  16.172 -0.0782  0.0840 -0.1581
  600TMC3     H 8949   1.808   4.625  16.163 -0.2096 -0.7012  2.7600
  600TMC3    H1 8950   2.111   0.162  16.289 -0.6042  0.6691 -0.6840
  600TMC3    H2 8951   1.701   0.213  16.398 -2.7056 -1.8613 -1.2780
  600TMC3    C7 8952   1.945   0.313  16.432 -0.5785  0.2054  0.2132
  600TMC3    C8 8953   1.640   4.712  16.334  0.2783 -0.4866 -0.2372
  600TMC3    O1 8954   1.857   0.398  16.457 -0.3662  0.0415 -0.7843
  600TMC3    O2 8955   1.681   4.655  16.434  0.2858 -0.1963 -0.2209
  601MPD2     C 8956   4.107   3.333   0.221 -0.2681  0.2727 -0.6883
  601MPD2    C1 8957   4.029   3.228   0.177  0.8732 -0.3139  0.7510
  601MPD2    C2 8958   3.928   3.167   0.258  0.2087 -0.4180 -0.6474
  601MPD2    C3 8959   3.925   3.200   0.397 -0.0514 -0.7016  0.2439
  601MPD2    C4 8960   4.010   3.301   0.443 -0.5295  0.5542 -0.3095
  601MPD2    C5 8961   4.092   3.368   0.357 -0.2912 -0.7607  0.3103
  601MPD2     H 8962   3.859   3.099   0.210 -1.7628  0.6815  0.6073
  601MPD2    H1 8963   4.022   3.332   0.546 -2.1135  0.2947 -0.0458
  601MPD2    H2 8964   4.176   3.380   0.152  1.3479  0.1534  0.8467
  601MPD2    H3 8965   4.153   3.452   0.388  1.6026 -2.5620  1.4643
  601MPD2     N 8966   3.833   3.140   0.486 -0.2669 -0.1461  0.1525
  601MPD2    H5 8967   3.836   3.164   0.585 -2.8444 -0.5735  0.3358
  601MPD2    N1 8968   4.027   3.206   0.037  0.0953 -0.0884  0.2915
  601MPD2    H7 8969   3.948   3.159  17.748  0.9191  1.3817 -2.8361
  602TMC3    C1 8970   4.112   3.217  17.570  0.3725 -0.2662  0.1052
  602TMC3    C2 8971   4.229   3.203  17.494  0.0106  0.1656 -0.4669
  602TMC3    C3 8972   4.215   3.225  17.361  0.0078 -0.2001  0.2442
  602TMC3    C4 8973   3.997   3.268  17.520  0.0746  0.2022  0.3286
  602TMC3    C5 8974   3.984   3.290  17.388  0.4929  0.7976  0.9118
  602TMC3    C6 8975   4.092   3.263  17.308  0.2759 -0.1501  0.1765
  602TMC3     C 8976   4.139   3.224  17.711  0.1151 -0.1427  0.3221
  602TMC3     O 8977   4.259   3.233  17.737 -0.2886  0.5633  0.1345
  602TMC3     H 8978   4.327   3.176  17.532 -0.2416  2.2451  1.6970
  602TMC3    H1 8979   3.909   3.280  17.583  0.0405 -1.0289  0.5277
  602TMC3    H2 8980   4.074   3.254  17.201 -2.7360  1.5868  0.5358
  602TMC3    C7 8981   3.864   3.354  17.334  0.1006  0.0111 -1.3144
  602TMC3    C8 8982   4.344   3.237  17.292 -0.9532  0.5938 -0.6604
  602TMC3    O1 8983   3.759   3.339  17.391  0.2306 -0.4700 -0.1543
  602TMC3    O2 8984   4.438   3.168  17.327 -0.2569 -0.2221  0.0282
  603TMC3    C1 8985   2.622   3.021  10.997  0.8149  0.0776  0.3377
  603TMC3    C2 8986   2.665   2.983  11.122 -0.5301  0.5642 -0.1765
  603TMC3    C3 8987   2.775   3.049  11.166  0.0406 -0.3157 -0.3355
  603TMC3    C4 8988   2.667   3.146  10.939  0.0671  0.2768 -0.1093
  603TMC3    C5 8989   2.763   3.215  11.007 -0.0152 -0.4056  0.3122
  603TMC3    C6 8990   2.828   3.170  11.121  0.2506 -0.2790 -0.3802
  603TMC3     C 8991   2.500   2.965  10.942  0.4529 -0.1861 -0.3341
  603TMC3     O 8992   2.461   3.008  10.835 -0.4080 -0.2771 -0.1886
  603TMC3     H 8993   2.667   2.879  11.152 -0.1607  0.4934 -0.4486
  603TMC3    H1 8994   2.624   3.180  10.846 -1.6989  0.1099  0.6344
  603TMC3    H2 8995   2.914   3.227  11.155  0.3568 -0.7840  0.1954
  603TMC3    C7 8996   2.817   3.332  10.938  1.2056  0.0863 -0.6865
  603TMC3    C8 8997   2.823   3.004  11.300 -0.5241  0.7066  0.1557
  603TMC3    O1 8998   2.929   3.363  10.971  0.1047  0.0280  0.2085
  603TMC3    O2 8999   2.764   2.909  11.356  0.5446 -0.6270  0.0675
  604MPD2     C 9000   2.880   1.969  16.195  0.4009  0.9240  1.0368
  604MPD2    C1 9001   2.934   2.087  16.229 -0.5281  0.5710  0.6769
  604MPD2    C2 9002   3.006   2.159  16.133  0.5358 -0.1828 -0.2303
  604MPD2    C3 9003   3.024   2.097  16.010 -0.2535 -0.0058 -0.5718
  604MPD2    C4 9004   2.970   1.971  15.975 -0.4868  0.1015 -0.3456
  604MPD2    C5 9005   2.893   1.907  16.072  0.2357  0.5102  0.4624
  604MPD2     H 9006   3.053   2.256  16.149  0.6490 -0.2490 -0.1655
  604MPD2    H1 9007   2.976   1.919  15.881 -0.2469  0.2028 -0.3841
  604MPD2    H2 9008   2.826   1.908  16.267 -0.1277 -0.9355 -0.9587
  604MPD2    H3 9009   2.848   1.809  16.056 -1.5124  1.7960 -2.5491
  604MPD2     N 9010   3.120   2.163  15.925  0.4910  0.3211 -0.3432
  604MPD2    H5 9011   3.152   2.257  15.945  2.1472 -0.4404  0.6462
  604MPD2    N1 9012   2.910   2.128  16.363  0.0912  0.0446 -0.3078
  604MPD2    H7 9013   2.843   2.076  16.418  0.5925 -1.3372 -1.0276
  605TMC3    C1 9014   2.917   2.269  16.555  0.0402 -0.4967  0.1800
  605TMC3    C2 9015   3.014   2.324  16.634  0.2085  0.2396 -0.7374
  605TMC3    C3 9016   2.971   2.404  16.735 -0.1324  0.0670 -0.2875
  605TMC3    C4 9017   2.777   2.283  16.573 -0.8549 -0.4120  0.7723
  605TMC3    C5 9018   2.738   2.369  16.673 -0.0802  0.3815 -0.2743
  605TMC3    C6 9019   2.838   2.433  16.749  0.0472  0.1554  0.1366
  605TMC3     C 9020   2.966   2.236  16.421 -0.1523  0.0134 -0.2143
  605TMC3     O 9021   3.071   2.288  16.381  0.6225 -0.1164  0.0307
  605TMC3     H 9022   3.117   2.316  16.600  0.1352  1.2763 -1.2035
  605TMC3    H1 9023   2.715   2.258  16.488 -0.3174  0.8554 -0.0032
  605TMC3    H2 9024   2.800   2.501  16.824  1.0914  0.2511  0.5772
  605TMC3    C7 9025   2.602   2.412  16.658  0.4809 -0.2943 -0.4871
  605TMC3    C8 9026   3.078   2.464  16.810  0.5223 -0.0541 -0.0063
  605TMC3    O1 9027   2.588   2.527  16.687 -0.3509  0.2694  0.0319
  605TMC3    O2 9028   3.187   2.421  16.781 -0.0784 -0.1151  0.2426
  606TMC3    C1 9029   3.598   0.018   0.654 -0.6049  0.5571 -0.4052
  606TMC3    C2 9030   3.685   0.015   0.755  1.1465  0.8005 -0.7329
  606TMC3    C3 9031   3.801   0.091   0.752  0.2378  0.0666 -0.0244
  606TMC3    C4 9032   3.626   0.098   0.540  0.1973 -0.0752  0.2554
  606TMC3    C5 9033   3.739   0.176   0.539  0.3408  0.2047  0.4779
  606TMC3    C6 9034   3.830   0.171   0.646  0.4473 -0.3098 -0.5870
  606TMC3     C 9035   3.485   4.667   0.638  0.2441  0.3815  0.3377
  606TMC3     O 9036   3.432   4.655   0.524  0.0761  0.8857 -0.6876
  606TMC3     H 9037   3.677   4.679   0.833 -1.2771  0.7090 -1.0529
  606TMC3    H1 9038   3.557   0.095   0.457  0.8890  2.3438 -0.4015
  606TMC3    H2 9039   3.912   0.241   0.641  0.0418  0.1699 -0.4702
  606TMC3    C7 9040   3.757   0.288   0.452  0.0470  0.3861 -0.1883
  606TMC3    C8 9041   3.889   0.094   0.866 -0.1620 -0.7147  0.3414
  606TMC3    O1 9042   3.839   0.377   0.482  0.6000 -1.3180 -0.9439
  606TMC3    O2 9043   3.853   0.019   0.956  0.0170 -0.0156 -0.2127
  607MPD2     C 9044   2.109   3.528  11.798  0.4938  0.7376  0.2913
  607MPD2    C1 9045   2.236   3.569  11.785 -0.4659  0.2207  0.3494
  607MPD2    C2 9046   2.321   3.581  11.889 -0.1004  0.0103 -0.6521
  607MPD2    C3 9047   2.276   3.560  12.016 -0.1082  0.1276  0.1766
  607MPD2    C4 9048   2.152   3.507  12.036 -0.1953  0.4165  0.1241
  607MPD2    C5 9049   2.065   3.503  11.926 -0.6178 -0.2646 -0.4651
  607MPD2     H 9050   2.421   3.607  11.856 -0.4866  1.4484 -0.6875
  607MPD2    H1 9051   2.122   3.474  12.134 -1.8546 -0.3501 -0.6408
  607MPD2    H2 9052   2.042   3.513  11.714  2.5104  0.0009 -1.1754
  607MPD2    H3 9053   1.964   3.469  11.948 -0.4482 -0.6890 -0.3346
  607MPD2     N 9054   2.378   3.571  12.120  0.4529  0.1860  0.3950
  607MPD2    H5 9055   2.462   3.617  12.088  0.2284 -0.4638 -1.1294
  607MPD2    N1 9056   2.297   3.585  11.662 -0.2725 -0.2718 -0.2663
  607MPD2    H7 9057   2.394   3.618  11.664  0.3608 -2.1719  0.4098
  608TMC3    C1 9058   2.358   3.519  11.448 -0.4145 -0.2497  0.4777
  608TMC3    C2 9059   2.479   3.482  11.507 -0.4444 -0.3615 -0.0443
  608TMC3    C3 9060   2.585   3.454  11.428  0.2369 -0.2039  0.0381
  608TMC3    C4 9061   2.345   3.534  11.314  0.6049  0.0684  0.5787
  608TMC3    C5 9062   2.458   3.501  11.236  0.5505 -0.1670  0.0844
  608TMC3    C6 9063   2.579   3.455  11.292 -0.0763  0.3105 -0.5985
  608TMC3     C 9064   2.250   3.552  11.538  0.3456  0.0161  1.0440
  608TMC3     O 9065   2.140   3.534  11.492  0.2450 -0.0405  0.4140
  608TMC3     H 9066   2.482   3.441  11.607 -0.5697 -1.8296 -0.6472
  608TMC3    H1 9067   2.253   3.565  11.265  2.0116 -0.3951 -2.3569
  608TMC3    H2 9068   2.664   3.420  11.235 -0.1806 -1.6955  0.4928
  608TMC3    C7 9069   2.479   3.593  11.130  0.4973  0.1238 -0.3716
  608TMC3    C8 9070   2.709   3.423  11.502 -0.5398  0.3951  0.1677
  608TMC3    O1 9071   2.386   3.642  11.063 -0.1629  0.0396  0.1206
  608TMC3    O2 9072   2.789   3.348  11.443  0.1475  0.0346  0.5456
  609TMC3    C1 9073   0.560   2.954   9.270 -0.4747  0.1608  0.1956
  609TMC3    C2 9074   0.508   2.897   9.158  0.0160 -0.0125  0.9652
  609TMC3    C3 9075   0.588   2.861   9.052 -0.4535  0.3283 -0.5225
  609TMC3    C4 9076   0.692   2.980   9.279 -0.5024 -0.1459  0.1680
  609TMC3    C5 9077   0.769   2.922   9.185  0.4271 -0.1313 -0.5123
  609TMC3    C6 9078   0.721   2.870   9.065  0.2152 -0.7388 -0.0658
  609TMC3     C 9079   0.464   2.988   9.376 -0.4996  0.1981 -0.2871
  609TMC3     O 9080   0.361   2.926   9.372 -0.0882 -0.1463  0.1225
  609TMC3     H 9081   0.401   2.882   9.153  0.1537 -0.5828 -0.3245
  609TMC3    H1 9082   0.726   3.005   9.379 -2.2217  0.4873  0.6008
  609TMC3    H2 9083   0.783   2.885   8.978 -0.2391  0.5839 -0.1580
  609TMC3    C7 9084   0.855   2.825   9.255  0.3200  0.4597 -0.2835
  609TMC3    C8 9085   0.528   2.797   8.937  0.5752 -0.1959  0.6465
  609TMC3    O1 9086   0.860   2.829   9.380 -0.4657 -0.8607 -0.3045
  609TMC3    O2 9087   0.419   2.740   8.949  0.0722  0.4665 -0.2573
  610TMC3    C1 9088   2.766   3.404  12.974 -0.0939  0.3606 -0.1868
  610TMC3    C2 9089   2.806   3.421  12.847 -0.0641 -0.4570 -0.5258
  610TMC3    C3 9090   2.936   3.441  12.827  0.0808  0.2379  0.0453
  610TMC3    C4 9091   2.846   3.420  13.087  0.8215  0.1235 -0.5944
  610TMC3    C5 9092   2.981   3.438  13.065  0.5394 -0.5726  0.4745
  610TMC3    C6 9093   3.028   3.454  12.938 -0.0233 -0.0654  0.2911
  610TMC3     C 9094   2.627   3.378  12.988 -0.1922  0.4326  0.2157
  610TMC3     O 9095   2.581   3.287  12.919  0.3467 -1.1065  0.4011
  610TMC3     H 9096   2.738   3.407  12.764 -1.7563  0.4079  0.7185
  610TMC3    H1 9097   2.810   3.381  13.182  0.2788  0.9585 -0.4568
  610TMC3    H2 9098   3.132   3.480  12.923 -0.3266  1.5793  1.0142
  610TMC3    C7 9099   3.072   3.398  13.180 -0.4675  0.2353  0.0733
  610TMC3    C8 9100   2.969   3.477  12.688 -0.8151 -0.0085  0.2284
  610TMC3    O1 9101   3.026   3.322  13.263 -0.2961 -0.3076 -0.1137
  610TMC3    O2 9102   2.880   3.542  12.635  0.2291 -0.1379  0.0396
  611MPD2     C 9103   1.626   3.962  10.669 -0.0201 -0.2369 -0.3247
  611MPD2    C1 9104   1.669   3.831  10.660 -0.2554 -0.2155  0.2165
  611MPD2    C2 9105   1.800   3.811  10.612  0.1208  0.3045  0.2123
  611MPD2    C3 9106   1.885   3.913  10.587 -0.0757  0.3735 -0.2173
  611MPD2    C4 9107   1.840   4.041  10.608  0.1356  0.3644 -0.2353
  611MPD2    C5 9108   1.714   4.068  10.654 -0.0920 -0.3910  0.0452
  611MPD2     H 9109   1.839   3.709  10.613 -1.0309 -0.1506 -0.6764
  611MPD2    H1 9110   1.908   4.126  10.608  0.2570  0.2641 -0.5351
  611MPD2    H2 9111   1.527   3.982  10.708  0.4453  2.6996 -0.6620
  611MPD2    H3 9112   1.680   4.165  10.687 -0.9376 -0.8437  0.4918
  611MPD2     N 9113   2.016   3.893  10.540 -0.1564  0.2652 -0.3702
  611MPD2    H5 9114   2.067   3.980  10.534  1.9108 -1.0296 -1.4422
  611MPD2    N1 9115   1.573   3.729  10.691 -0.3017 -0.3558 -0.1504
  611MPD2    H7 9116   1.481   3.759  10.722  0.7322  1.8256  0.7724
  612TMC3    C1 9117   2.195   3.810  10.413  0.1225 -0.5542 -0.3247
  612TMC3    C2 9118   2.316   3.736  10.428  1.0371  0.0565 -0.6942
  612TMC3    C3 9119   2.410   3.758  10.328 -0.1330 -0.2494 -0.3667
  612TMC3    C4 9120   2.179   3.898  10.311  0.6148  0.9657  0.2863
  612TMC3    C5 9121   2.276   3.916  10.221  0.2323  0.8055 -0.5038
  612TMC3    C6 9122   2.390   3.840  10.217 -0.4202  0.3323 -0.2953
  612TMC3     C 9123   2.080   3.781  10.499  0.1926  0.0408 -0.7748
  612TMC3     O 9124   2.040   3.666  10.493 -0.4668  0.5364 -0.1567
  612TMC3     H 9125   2.309   3.673  10.515 -1.2958  0.4342 -0.5851
  612TMC3    H1 9126   2.087   3.956  10.300  0.3936  0.1504 -2.1563
  612TMC3    H2 9127   2.469   3.870  10.149  3.2275  0.8488  4.1797
  612TMC3    C7 9128   2.260   4.017  10.113 -0.0701  0.1518 -0.0612
  612TMC3    C8 9129   2.551   3.729  10.363  1.1253 -0.2236 -1.1095
  612TMC3    O1 9130   2.356   4.088  10.090  0.4153 -0.7145  0.4166
  612TMC3    O2 9131   2.641   3.791  10.310 -0.5591 -0.0230 -0.0079
  613MPD2     C 9132   0.739   0.666  16.780 -0.0293 -0.7512  0.8915
  613MPD2    C1 9133   0.754   0.722  16.663 -0.1996  0.0021  0.0437
  613MPD2    C2 9134   0.713   0.652  16.548 -0.0686  0.0557  0.0249
  613MPD2    C3 9135   0.639   0.532  16.558  0.0090 -0.0841  0.1502
  613MPD2    C4 9136   0.615   0.489  16.685 -0.5561  0.0704  0.0489
  613MPD2    C5 9137   0.668   0.552  16.795  0.9330 -0.3478 -0.7782
  613MPD2     H 9138   0.731   0.703  16.455  0.2139 -1.2609 -0.6484
  613MPD2    H1 9139   0.553   0.402  16.704 -0.0825 -0.2864 -0.0376
  613MPD2    H2 9140   0.773   0.709  16.873 -1.1138  1.5317  0.2485
  613MPD2    H3 9141   0.651   0.518  16.896 -1.6221 -1.3110 -1.5222
  613MPD2     N 9142   0.604   0.468  16.435 -0.4363  0.3960 -0.3894
  613MPD2    H5 9143   0.629   0.520  16.352  2.6825  2.4817  1.8134
  613MPD2    N1 9144   0.814   0.847  16.639 -0.9745  0.3812  0.3352
  613MPD2    H7 9145   0.819   0.877  16.542 -0.7060 -1.8061 -0.3156
  614TMC3    C1 9146   0.942   1.032  16.655  0.3090 -0.0080  0.1585
  614TMC3    C2 9147   0.997   0.991  16.535  0.1953  0.4796  0.4134
  614TMC3    C3 9148   0.964   1.059  16.424 -0.2649 -0.0250 -0.0321
  614TMC3    C4 9149   0.883   1.153  16.665 -0.0244  1.1137  0.2323
  614TMC3    C5 9150   0.853   1.224  16.553 -0.0288  0.3168 -0.5945
  614TMC3    C6 9151   0.893   1.180  16.431  0.7893 -0.4308 -0.7449
  614TMC3     C 9152   0.885   0.922  16.726 -0.1706  0.2996  0.1083
  614TMC3     O 9153   0.880   0.914  16.847 -0.2846  0.4640  0.1038
  614TMC3     H 9154   1.039   0.892  16.521  1.0521  0.9279 -0.1404
  614TMC3    H1 9155   0.831   1.177  16.757  1.1875  0.8825  0.9692
  614TMC3    H2 9156   0.886   1.241  16.342 -0.3366 -0.9050 -0.9888
  614TMC3    C7 9157   0.729   1.307  16.560 -0.5143  0.0883  0.1144
  614TMC3    C8 9158   0.923   0.957  16.324 -0.2228 -0.5148 -0.3501
  614TMC3    O1 9159   0.701   1.355  16.667  0.6031 -0.5023 -0.8602
  614TMC3    O2 9160   0.824   0.890  16.357  0.2311  0.3538 -0.1228
  615MPD2     C 9161   4.134   2.177  16.620  0.1330 -0.5286 -0.3107
  615MPD2    C1 9162   4.240   2.235  16.550  0.5248  0.1415  0.3218
  615MPD2    C2 9163   4.235   2.256  16.415 -0.6006 -0.3187 -0.0654
  615MPD2    C3 9164   4.117   2.232  16.341  0.2714  0.5274 -0.3763
  615MPD2    C4 9165   4.015   2.166  16.408 -0.1180 -0.0112  0.0079
  615MPD2    C5 9166   4.015   2.148  16.546 -0.1008  0.5826  0.2395
  615MPD2     H 9167   4.325   2.299  16.373  0.4248 -1.7278  0.7012
  615MPD2    H1 9168   3.920   2.147  16.358 -0.2094  0.1958  0.1010
  615MPD2    H2 9169   4.129   2.163  16.728  2.4140  1.4579  0.0682
  615MPD2    H3 9170   3.925   2.110  16.593  0.8165 -2.1611 -0.2236
  615MPD2     N 9171   4.104   2.282  16.208  0.0889  0.0670 -0.2387
  615MPD2    H5 9172   4.018   2.284  16.154  0.9870 -1.4607 -1.7045
  615MPD2    N1 9173   4.358   2.268  16.614 -0.6426  0.2244  0.1267
  615MPD2    H7 9174   4.434   2.316  16.566 -2.6544  1.7663 -1.4827
  616TMC3    C1 9175   4.528   2.286  16.769  0.4967 -0.3260  0.4859
  616TMC3    C2 9176   4.564   2.405  16.716  0.2572 -0.1868  0.0814
  616TMC3    C3 9177   4.692   2.441  16.706  0.3002 -0.3580 -0.1831
  616TMC3    C4 9178   4.622   2.202  16.829  0.4159  0.5610 -0.1765
  616TMC3    C5 9179   0.017   2.245  16.816 -0.4835 -0.6864 -0.9650
  616TMC3    C6 9180   0.057   2.360  16.747  0.0652 -1.2247 -0.1453
  616TMC3     C 9181   4.391   2.235  16.741  0.1670 -0.3171  0.1238
  616TMC3     O 9182   4.333   2.172  16.826  0.0427 -0.2464  0.6117
  616TMC3     H 9183   4.481   2.467  16.683  1.1273 -0.8086 -3.2778
  616TMC3    H1 9184   4.602   2.109  16.881  4.8328 -0.5638 -0.4606
  616TMC3    H2 9185   0.160   2.388  16.728 -0.3094 -1.0363 -1.8734
  616TMC3    C7 9186   0.124   2.160  16.867 -0.2327  0.2984 -0.3238
  616TMC3    C8 9187   4.713   2.584  16.688 -0.3543 -0.0458  0.1335
  616TMC3    O1 9188   0.229   2.175  16.812  0.2810 -0.2884 -0.4398
  616TMC3    O2 9189   4.623   2.662  16.704 -0.6049 -0.3467 -0.7750
  617MPD2     C 9190   3.213   0.048  14.481 -0.1817 -0.1500  0.3001
  617MPD2    C1 9191   3.149   4.721  14.377 -0.1297 -0.2737 -1.0394
  617MPD2    C2 9192   3.010   4.722  14.366 -0.0474  0.1517 -1.0176
  617MPD2    C3 9193   2.938   0.065  14.445 -0.5507  0.1237  1.1229
  617MPD2    C4 9194   2.998   0.142  14.543 -0.0991 -0.2074 -0.2071
  617MPD2    C5 9195   3.133   0.129  14.561 -0.2048  0.6280 -0.6784
  617MPD2     H 9196   2.958   4.661  14.293  0.2354 -3.0727  1.4697
  617MPD2    H1 9197   2.942   0.207  14.609 -0.0242 -2.0695  1.6835
  617MPD2    H2 9198   3.321   0.039  14.490 -0.1652  0.2527  0.5187
  617MPD2    H3 9199   3.189   0.178  14.639 -0.0129  1.0806 -1.1050
  617MPD2     N 9200   2.801   0.062  14.447  0.2331  0.2761 -0.0606
  617MPD2    H5 9201   2.746   0.096  14.525  0.2306  3.5363 -1.4815
  617MPD2    N1 9202   3.240   4.651  14.291 -0.2180  0.3694 -0.3892
  617MPD2    H7 9203   3.337   4.663  14.318 -0.5277  0.5010  0.6870
  618TMC3    C1 9204   3.340   4.568  14.093 -0.2781  0.5352  0.4301
  618TMC3    C2 9205   3.330   4.496  13.972  0.3110 -0.4109 -0.1982
  618TMC3    C3 9206   3.444   4.478  13.896  0.8907 -0.0580  0.2186
  618TMC3    C4 9207   3.452   4.634  14.124  0.3296  0.1193 -0.3424
  618TMC3    C5 9208   3.564   4.613  14.047 -0.4019  0.1739  0.0977
  618TMC3    C6 9209   3.565   4.528  13.940 -0.3128  0.6223  0.9166
  618TMC3     C 9210   3.214   4.594  14.169  0.5930  0.3623 -0.0210
  618TMC3     O 9211   3.106   4.566  14.114 -0.6457 -0.0681  0.0344
  618TMC3     H 9212   3.232   4.464  13.940  0.8973 -0.8228 -1.5529
  618TMC3    H1 9213   3.457   4.707  14.203 -3.1469  1.2416 -1.1564
  618TMC3    H2 9214   3.660   4.516  13.889 -0.7376 -0.0957  0.2970
  618TMC3    C7 9215   3.684   4.681  14.101  0.2504 -0.4420  0.5401
  618TMC3    C8 9216   3.427   4.430  13.762 -0.1839 -0.3813 -0.1442
  618TMC3    O1 9217   3.685   4.692  14.221  0.2749 -0.3269  0.0972
  618TMC3    O2 9218   3.321   4.365  13.748 -0.3987 -0.4057  0.3464
  619MPD2     C 9219   4.606   1.653  13.558  0.1523 -0.0639 -0.1467
  619MPD2    C1 9220   4.525   1.765  13.554  0.7475  0.1782 -0.6475
  619MPD2    C2 9221   4.388   1.750  13.588 -0.1689  0.0508  0.4329
  619MPD2    C3 9222   4.334   1.623  13.634  0.2133 -0.5273 -0.8621
  619MPD2    C4 9223   4.427   1.519  13.640  0.1318 -0.1936  0.1945
  619MPD2    C5 9224   4.554   1.534  13.600  0.1969  1.1791  0.5681
  619MPD2     H 9225   4.329   1.840  13.581 -1.0918 -0.3824  2.6001
  619MPD2    H1 9226   4.390   1.420  13.665 -0.3196  0.5842  2.6241
  619MPD2    H2 9227   4.710   1.645  13.530  0.2692 -1.5315  0.6962
  619MPD2    H3 9228   4.620   1.448  13.606  0.8697  1.5256 -1.8732
  619MPD2     N 9229   4.195   1.593  13.665  0.5113 -0.3953  1.1100
  619MPD2    H5 9230   4.180   1.503  13.710  2.6796 -0.8577  0.9000
  619MPD2    N1 9231   4.565   1.891  13.498  0.5543  0.4622  0.2264
  619MPD2    H7 9232   4.496   1.966  13.495 -0.7080 -0.6970  0.4775
  620TMC3    C1 9233   4.706   2.047  13.403 -0.1845 -0.8448  0.6352
  620TMC3    C2 9234   4.593   2.124  13.394  0.5726 -0.5506  0.2178
  620TMC3    C3 9235   4.599   2.259  13.378 -0.4587  0.1926 -0.8907
  620TMC3    C4 9236   0.088   2.110  13.421  0.6946 -0.5261 -0.3190
  620TMC3    C5 9237   0.094   2.246  13.404 -0.1352  0.4788 -0.4496
  620TMC3    C6 9238   4.716   2.323  13.380 -0.2122  0.1663  0.2563
  620TMC3     C 9239   4.696   1.918  13.465  0.0704  0.0227 -1.1097
  620TMC3     O 9240   0.059   1.855  13.498  0.1020  0.8283 -0.2515
  620TMC3     H 9241   4.495   2.080  13.380  0.1518  0.0284  1.3131
  620TMC3    H1 9242   0.178   2.055  13.446  1.8846  1.4283 -0.3688
  620TMC3    H2 9243   4.711   2.425  13.343  1.3187  0.4670  0.8844
  620TMC3    C7 9244   0.174   2.309  13.503 -0.1218  0.6058  0.2498
  620TMC3    C8 9245   4.487   2.333  13.435 -0.5454 -0.0404 -0.7399
  620TMC3    O1 9246   0.198   2.235  13.599  0.1543  0.2123  0.5217
  620TMC3    O2 9247   4.386   2.272  13.462  0.2407  0.0739 -0.1789
  621MPD2     C 9248   0.052   1.549  10.393 -0.3767  0.0774 -0.5406
  621MPD2    C1 9249   0.132   1.569  10.282  0.0101 -0.5282  0.3830
  621MPD2    C2 9250   0.164   1.703  10.246  0.6309  0.5833 -0.1679
  621MPD2    C3 9251   0.115   1.812  10.319 -0.4732 -0.2409 -0.1258
  621MPD2    C4 9252   0.050   1.782  10.441 -0.1332  0.0254  0.4121
  621MPD2    C5 9253   0.012   1.655  10.472  0.3644 -0.7729 -0.6737
  621MPD2     H 9254   0.232   1.721  10.163  1.1476  0.6594  0.2710
  621MPD2    H1 9255   0.001   1.861  10.497 -0.1113 -0.5201  1.2049
  621MPD2    H2 9256   0.015   1.451  10.424 -1.7789 -0.0822 -2.6808
  621MPD2    H3 9257   4.680   1.632  10.550 -0.2145  0.4685 -0.8343
  621MPD2     N 9258   0.154   1.936  10.274  0.0718 -0.8860 -0.6388
  621MPD2    H5 9259   0.204   1.945  10.186  0.3271 -2.2001 -0.6252
  621MPD2    N1 9260   0.181   1.460  10.205  0.0989  0.1165 -0.2334
  621MPD2    H7 9261   0.216   1.488  10.114  2.4033  0.0764  0.6471
  622TMC3    C1 9262   0.130   1.234  10.121 -0.2819 -0.2806 -0.4526
  622TMC3    C2 9263   0.063   1.121  10.161  0.4720 -0.2428 -0.8132
  622TMC3    C3 9264   4.733   1.060  10.062 -0.2234 -0.1643  0.3223
  622TMC3    C4 9265   0.133   1.285   9.993 -0.0859 -0.0107 -0.1137
  622TMC3    C5 9266   0.069   1.208   9.901  0.9097  0.7512 -0.5233
  622TMC3    C6 9267   4.732   1.102   9.931  0.4694 -0.5656 -0.9483
  622TMC3     C 9268   0.163   1.323  10.236 -0.1053 -0.0444  0.9642
  622TMC3     O 9269   0.157   1.275  10.350 -0.0523 -0.4957  0.2904
  622TMC3     H 9270   0.054   1.087  10.264 -0.2567  4.2370  0.5865
  622TMC3    H1 9271   0.184   1.377   9.966 -0.8956  0.6021  0.4214
  622TMC3    H2 9272   4.686   1.040   9.854 -0.9434  0.9473 -1.3133
  622TMC3    C7 9273   0.094   1.239   9.758  0.5304  0.2198  0.0682
  622TMC3    C8 9274   4.599   1.026  10.112  0.3769  0.3665 -1.4981
  622TMC3    O1 9275   0.080   1.141   9.682  0.2482 -0.4461 -0.3955
  622TMC3    O2 9276   4.582   1.048  10.231 -0.2970 -0.1095  0.1029
  623MPD2     C 9277   3.603   2.828  16.268 -0.3685 -0.3823 -0.1541
  623MPD2    C1 9278   3.524   2.778  16.368 -0.7482  0.3832  0.3322
  623MPD2    C2 9279   3.579   2.771  16.494 -0.1024 -0.1783 -0.6772
  623MPD2    C3 9280   3.706   2.803  16.517  0.2868  0.0670 -0.3176
  623MPD2    C4 9281   3.795   2.835  16.415 -0.2614 -0.3893  1.0188
  623MPD2    C5 9282   3.738   2.850  16.292  0.4646 -0.1745  0.5296
  623MPD2     H 9283   3.519   2.734  16.576  0.4966 -1.9912 -1.0493
  623MPD2    H1 9284   3.889   2.889  16.416  0.6108 -1.8982  1.3869
  623MPD2    H2 9285   3.546   2.837  16.176  1.2278 -1.5918 -1.2589
  623MPD2    H3 9286   3.809   2.878  16.216  0.4624 -0.8159  0.2855
  623MPD2     N 9287   3.740   2.802  16.653  0.6811  0.1206  0.3800
  623MPD2    H5 9288   3.672   2.759  16.714 -0.7047  2.2387  0.3086
  623MPD2    N1 9289   3.386   2.741  16.341  0.3660  0.3034  0.5022
  623MPD2    H7 9290   3.355   2.734  16.244  2.4361 -0.6570 -0.0904
  624TMC3    C1 9291   3.936   2.668  16.999  1.4952 -0.1247 -0.1076
  624TMC3    C2 9292   3.820   2.663  17.073 -0.6339  0.3432  0.0631
  624TMC3    C3 9293   3.715   2.722  17.018  0.1058 -0.0323 -0.4121
  624TMC3    C4 9294   3.952   2.756  16.898 -0.4503 -0.4977  0.1040
  624TMC3    C5 9295   3.837   2.821  16.848  0.0424 -0.2633  0.7287
  624TMC3    C6 9296   3.712   2.799  16.906  0.1378  0.4217  0.3261
  624TMC3     C 9297   4.034   2.565  17.025  0.3297 -0.2949 -0.1961
  624TMC3     O 9298   4.000   2.471  17.096 -0.1517 -0.3904  0.3311
  624TMC3     H 9299   3.804   2.595  17.156 -2.8112  0.1729 -0.4974
  624TMC3    H1 9300   4.044   2.764  16.841 -1.1973 -2.2836 -1.3335
  624TMC3    H2 9301   3.622   2.850  16.874 -1.1781 -2.9884 -1.4343
  624TMC3    C7 9302   3.852   2.849  16.709 -0.3732 -0.2372  0.8966
  624TMC3    C8 9303   3.584   2.712  17.083 -0.0059  0.3522  0.4507
  624TMC3    O1 9304   3.961   2.878  16.663 -0.0798  0.3228  0.4367
  624TMC3    O2 9305   3.589   2.715  17.206  0.1031  0.0227 -0.3694
  625MPD2     C 9306   4.108   3.794   0.569  0.1917 -0.1979  0.3286
  625MPD2    C1 9307   4.097   3.890   0.664 -0.3874  0.0388 -0.9252
  625MPD2    C2 9308   4.209   3.917   0.741  0.3462  0.9352 -0.6966
  625MPD2    C3 9309   4.327   3.845   0.732  0.6656 -0.5459  0.2808
  625MPD2    C4 9310   4.340   3.752   0.633  0.7237 -0.3445 -0.8310
  625MPD2    C5 9311   4.229   3.730   0.550 -0.1769 -0.5533  0.2326
  625MPD2     H 9312   4.209   4.001   0.810  1.5134 -0.0349  0.5038
  625MPD2    H1 9313   4.431   3.697   0.611  0.7100 -0.5326 -0.4216
  625MPD2    H2 9314   4.035   3.764   0.495  0.0426  0.8774  0.0330
  625MPD2    H3 9315   4.223   3.663   0.465  0.5096  1.7887 -1.6877
  625MPD2     N 9316   4.431   3.889   0.812 -0.2944 -0.9990 -0.7823
  625MPD2    H5 9317   4.417   3.973   0.867 -0.1308 -0.4145 -1.6410
  625MPD2    N1 9318   3.982   3.959   0.679  0.0024  0.1894 -0.5446
  625MPD2    H7 9319   3.989   4.034   0.747  1.3685 -0.5564  0.1205
  626TMC3    C1 9320   3.763   4.046   0.636  0.3225 -0.4224 -0.1480
  626TMC3    C2 9321   3.669   4.062   0.531 -0.4864 -0.1384  0.2067
  626TMC3    C3 9322   3.609   4.190   0.504  0.2635  0.0762  0.4992
  626TMC3    C4 9323   3.798   4.156   0.716 -0.4433 -0.2921  0.2772
  626TMC3    C5 9324   3.746   4.275   0.676  0.1174  0.1233 -0.6763
  626TMC3    C6 9325   3.662   4.296   0.575  0.1586 -0.6102  0.1289
  626TMC3     C 9326   3.866   3.950   0.602  0.8816 -0.3841 -1.1453
  626TMC3     O 9327   3.846   3.872   0.508  0.4562  0.2318 -0.1545
  626TMC3     H 9328   3.659   3.984   0.456  1.4857  1.0182 -1.2336
  626TMC3    H1 9329   3.867   4.141   0.798  1.3196 -0.9875 -1.3316
  626TMC3    H2 9330   3.639   4.395   0.539  1.0177 -0.7073 -0.6826
  626TMC3    C7 9331   3.807   4.393   0.729  0.1942  0.1987  0.3818
  626TMC3    C8 9332   3.549   4.213   0.373  0.4563  0.3618  0.0233
  626TMC3    O1 9333   3.841   4.477   0.650 -0.6177 -0.6005 -0.2243
  626TMC3    O2 9334   3.587   4.313   0.312 -0.4461 -0.2358  0.5245
  627MPD2     C 9335   2.696   3.546  14.511 -0.0188 -0.2740 -0.3496
  627MPD2    C1 9336   2.615   3.637  14.577 -0.1103 -0.2145  0.0454
  627MPD2    C2 9337   2.480   3.652  14.545  1.3602 -0.7476 -0.1057
  627MPD2    C3 9338   2.424   3.567  14.446 -0.1393  1.0381  0.0598
  627MPD2    C4 9339   2.508   3.482  14.377 -0.7003  0.4694  0.7637
  627MPD2    C5 9340   2.640   3.470  14.412  0.2886  0.2998 -0.1551
  627MPD2     H 9341   2.424   3.720  14.608  0.2140  0.1063 -2.0640
  627MPD2    H1 9342   2.469   3.413  14.302 -1.9424 -0.7372  2.5407
  627MPD2    H2 9343   2.801   3.519  14.521 -0.4066 -2.3431 -1.7443
  627MPD2    H3 9344   2.705   3.402  14.358  2.6879  0.9506  1.9126
  627MPD2     N 9345   2.287   3.576  14.406 -0.6344  0.4453 -0.5563
  627MPD2    H5 9346   2.235   3.653  14.447  0.1596  0.8959 -0.3964
  627MPD2    N1 9347   2.672   3.710  14.686 -0.0068  0.0852  0.1854
  627MPD2    H7 9348   2.615   3.785  14.724  0.1389 -0.6861  1.9623
  628TMC3    C1 9349   2.836   3.784  14.842  0.6625 -0.2395 -0.0614
  628TMC3    C2 9350   2.962   3.765  14.894  0.1800 -0.4585  0.1254
  628TMC3    C3 9351   3.000   3.840  14.999  0.0651 -0.4919  0.2995
  628TMC3    C4 9352   2.757   3.877  14.898 -0.8693  0.4485 -0.2377
  628TMC3    C5 9353   2.798   3.952  15.007 -0.3189  0.2974 -0.1175
  628TMC3    C6 9354   2.925   3.937  15.060  0.6265 -0.3575  0.4587
  628TMC3     C 9355   2.797   3.688  14.738 -0.6087  0.1159  0.3997
  628TMC3     O 9356   2.877   3.602  14.711 -0.1487 -0.2700  0.2867
  628TMC3     H 9357   3.026   3.693  14.846 -1.7540 -1.2318 -1.3062
  628TMC3    H1 9358   2.659   3.896  14.854 -1.5610  0.7383  1.4370
  628TMC3    H2 9359   2.967   3.980  15.150 -1.6925  2.2736  0.2755
  628TMC3    C7 9360   2.731   4.065  15.053  1.1612  0.1223 -0.0250
  628TMC3    C8 9361   3.148   3.856  15.021  0.5896 -0.0690  0.6222
  628TMC3    O1 9362   2.778   4.125  15.147 -0.3706  0.2248  0.8680
  628TMC3    O2 9363   3.224   3.845  14.924  0.1821 -0.0314 -0.6064
  629MPD2     C 9364   0.306   2.973  16.588  0.1163  0.1623  0.0498
  629MPD2    C1 9365   0.366   2.844  16.572 -0.5387 -0.1550  0.8361
  629MPD2    C2 9366   0.293   2.728  16.591 -0.5691  0.4485  0.4250
  629MPD2    C3 9367   0.161   2.731  16.627 -0.5268  0.0938 -0.4073
  629MPD2    C4 9368   0.097   2.857  16.633  0.5418 -0.2597 -0.0618
  629MPD2    C5 9369   0.170   2.974  16.612  0.3808  0.2805  0.6198
  629MPD2     H 9370   0.343   2.631  16.593  0.6694  1.0919  0.2878
  629MPD2    H1 9371   4.730   2.873  16.653  0.5442  0.1389 -0.3813
  629MPD2    H2 9372   0.365   3.062  16.569  1.3120 -0.3868  1.2076
  629MPD2    H3 9373   0.113   3.066  16.616 -1.7487 -1.1727  3.7968
  629MPD2     N 9374   0.096   2.607  16.646  0.2058  0.3303 -0.3024
  629MPD2    H5 9375   0.153   2.529  16.613 -0.0145  1.1007 -2.4938
  629MPD2    N1 9376   0.500   2.845  16.538  0.5030  0.5729  0.2598
  629MPD2    H7 9377   0.548   2.934  16.527  1.1720  0.1978  0.1676
  630TMC3    C1 9378   0.728   2.777  16.508  0.2064 -0.9924  0.2435
  630TMC3    C2 9379   0.763   2.904  16.477 -0.1451  0.9847  0.3641
  630TMC3    C3 9380   0.893   2.940  16.504  0.4749  0.0414  0.8937
  630TMC3    C4 9381   0.815   2.684  16.552 -0.7710  0.2731  0.3376
  630TMC3    C5 9382   0.941   2.725  16.590  0.4430 -0.2394  0.0252
  630TMC3    C6 9383   0.976   2.856  16.573 -0.1862  1.0949 -0.6560
  630TMC3     C 9384   0.586   2.738  16.518 -0.2835 -1.2036  0.4156
  630TMC3     O 9385   0.555   2.621  16.540  1.0134  0.0255 -0.1037
  630TMC3     H 9386   0.700   2.958  16.408 -2.6070 -0.3852  1.5376
  630TMC3    H1 9387   0.776   2.597  16.603  3.1206 -1.6300  0.1075
  630TMC3    H2 9388   1.072   2.895  16.604  0.0919  0.9436 -1.3239
  630TMC3    C7 9389   1.013   2.661  16.705  0.2084  0.1601  0.2730
  630TMC3    C8 9390   0.956   3.071  16.468  0.9823 -0.3428  0.1939
  630TMC3    O1 9391   1.068   2.731  16.789 -0.5248 -0.2144  0.3923
  630TMC3    O2 9392   1.079   3.071  16.467  0.2564  0.3444 -0.1230
  631MPD2     C 9393   3.977   3.199  15.895  0.0262 -0.4186  0.1673
  631MPD2    C1 9394   4.029   3.141  15.782  0.4021  0.3779  0.4976
  631MPD2    C2 9395   4.048   3.004  15.764  0.4636 -0.1757 -0.4881
  631MPD2    C3 9396   4.029   2.926  15.880 -0.3130 -0.2601  0.5155
  631MPD2    C4 9397   3.974   2.984  15.996 -0.1880 -0.4885  0.8520
  631MPD2    C5 9398   3.944   3.113  16.004 -0.6586 -0.7045 -0.7085
  631MPD2     H 9399   4.079   2.959  15.671  0.3805 -1.3803  0.0645
  631MPD2    H1 9400   3.964   2.925  16.086  0.6401 -1.9842 -0.0363
  631MPD2    H2 9401   3.955   3.305  15.890  1.5055 -0.1271 -0.0670
  631MPD2    H3 9402   3.885   3.143  16.090 -1.2564  0.7770 -1.6523
  631MPD2     N 9403   4.042   2.790  15.864  0.6172  0.0140  0.8370
  631MPD2    H5 9404   4.062   2.777  15.765 -1.6143 -2.7652  0.7763
  631MPD2    N1 9405   4.054   3.232  15.674 -0.0855  0.0842  0.3842
  631MPD2    H7 9406   4.042   3.330  15.697  1.4680 -0.1880  2.3101
  632TMC3    C1 9407   4.081   3.325  15.466  0.3343  0.1965  0.6210
  632TMC3    C2 9408   3.966   3.405  15.490 -0.8870  0.2712  0.2798
  632TMC3    C3 9409   3.896   3.456  15.381 -0.2637  0.2160 -0.0531
  632TMC3    C4 9410   4.125   3.308  15.342  0.4645  0.2881 -0.3913
  632TMC3    C5 9411   4.058   3.367  15.240 -0.3486 -0.2268  0.4479
  632TMC3    C6 9412   3.945   3.440  15.250  0.0021  0.1005  0.2052
  632TMC3     C 9413   4.101   3.204  15.548 -0.4006  0.1061 -0.3209
  632TMC3     O 9414   4.122   3.097  15.485 -0.0870 -0.3887 -0.0235
  632TMC3     H 9415   3.922   3.417  15.588  1.7027  0.7799  1.3969
  632TMC3    H1 9416   4.207   3.240  15.319  1.5551  1.3179  0.4571
  632TMC3    H2 9417   3.914   3.495  15.162  1.9254  2.4352  0.9641
  632TMC3    C7 9418   4.124   3.355  15.108 -0.9412 -0.5725 -0.0977
  632TMC3    C8 9419   3.757   3.477  15.402  0.2117  0.6995  0.9539
  632TMC3    O1 9420   4.057   3.376  15.007  0.4860  0.0849  0.4007
  632TMC3    O2 9421   3.723   3.469  15.518 -0.4811 -0.4482 -0.0306
  633MPD2     C 9422   3.122   1.067  17.342  0.1009  0.4414  1.3658
  633MPD2    C1 9423   3.119   0.980  17.233  0.1562 -0.2957  0.0488
  633MPD2    C2 9424   3.138   0.843  17.246 -0.1878 -0.4987 -0.2385
  633MPD2    C3 9425   3.154   0.790  17.371 -0.0153  0.3420 -0.3276
  633MPD2    C4 9426   3.142   0.873  17.480  0.9551  0.1005  0.2821
  633MPD2    C5 9427   3.132   1.009  17.465  0.0835  0.2713 -0.1579
  633MPD2     H 9428   3.146   0.780  17.158 -1.2725  1.5901 -1.8246
  633MPD2    H1 9429   3.150   0.839  17.582  1.8208  3.1021  1.2091
  633MPD2    H2 9430   3.115   1.174  17.329 -3.4226 -0.1730 -2.1347
  633MPD2    H3 9431   3.149   1.069  17.553 -2.7354  0.7423  0.0635
  633MPD2     N 9432   3.164   0.649  17.399  0.2136  0.1205  0.2820
  633MPD2    H5 9433   3.176   0.621  17.496  0.5596 -0.8132 -0.0309
  633MPD2    N1 9434   3.142   1.030  17.101 -0.5703 -0.4621 -0.7437
  633MPD2    H7 9435   3.151   0.956  17.033 -0.9830 -1.5943  0.4413
  634TMC3    C1 9436   3.152   1.185  16.923 -0.3684  1.1918  0.2243
  634TMC3    C2 9437   3.200   1.081  16.840 -0.0467  0.3540  0.5802
  634TMC3    C3 9438   3.245   1.115  16.716  0.3782  0.1087 -0.1146
  634TMC3    C4 9439   3.137   1.317  16.877  0.7259 -0.3569  0.0228
  634TMC3    C5 9440   3.171   1.333  16.744 -0.0175 -0.1428  0.3593
  634TMC3    C6 9441   3.224   1.239  16.668 -0.1478  0.4155 -0.4104
  634TMC3     C 9442   3.137   1.162  17.064  0.2072 -0.2022  0.4457
  634TMC3     O 9443   3.134   1.261  17.134  0.6755  0.5174  0.1001
  634TMC3     H 9444   3.229   0.986  16.882 -0.3512  0.1546  0.3391
  634TMC3    H1 9445   3.081   1.395  16.927 -2.2561 -0.9070 -2.4407
  634TMC3    H2 9446   3.253   1.265  16.567 -0.3906 -0.2543 -0.6547
  634TMC3    C7 9447   3.143   1.464  16.681  0.2628  0.3054 -0.0246
  634TMC3    C8 9448   3.320   1.020  16.644 -0.0092 -0.0661 -0.0828
  634TMC3    O1 9449   3.128   1.457  16.561 -0.6774  0.6784  0.4583
  634TMC3    O2 9450   3.295   0.904  16.679  0.1218 -0.3679 -0.0091
  635TMC3    C1 9451   3.283   2.038   0.788 -0.7769  0.1718  0.1486
  635TMC3    C2 9452   3.153   2.022   0.827  0.0496  0.3804 -0.0236
  635TMC3    C3 9453   3.132   1.896   0.879 -0.3276  0.0903  0.1360
  635TMC3    C4 9454   3.391   1.950   0.803  1.3103 -0.7796 -0.5823
  635TMC3    C5 9455   3.357   1.825   0.849  0.5340  0.5666  0.4206
  635TMC3    C6 9456   3.229   1.798   0.894 -0.3403  1.0416  0.3145
  635TMC3     C 9457   3.313   2.173   0.756  0.3907  0.7076  0.1766
  635TMC3     O 9458   3.425   2.206   0.799  0.2594 -0.2822  0.5120
  635TMC3     H 9459   3.076   2.098   0.823 -0.3256 -0.0676 -1.1032
  635TMC3    H1 9460   3.493   1.976   0.777  2.1498  0.0991  3.5718
  635TMC3    H2 9461   3.210   1.697   0.929 -0.0398  0.2836 -1.6807
  635TMC3    C7 9462   3.462   1.726   0.849  0.2395 -0.0970 -0.0207
  635TMC3    C8 9463   2.993   1.875   0.920  0.1491 -0.5371 -0.3360
  635TMC3    O1 9464   3.573   1.758   0.890 -0.2558  0.2234  0.1077
  635TMC3    O2 9465   2.918   1.940   0.847 -0.1442  0.5854 -0.1887
  636MPD2     C 9466   4.736   0.969  16.068 -1.1011 -0.7497  0.2326
  636MPD2    C1 9467   0.063   0.957  16.185 -0.4180 -0.7240  0.6643
  636MPD2    C2 9468   0.153   0.856  16.203  0.5033  0.7812 -0.2817
  636MPD2    C3 9469   0.181   0.764  16.105 -0.1900  0.3237 -0.6276
  636MPD2    C4 9470   0.097   0.758  15.999  0.3161 -0.3951  0.2960
  636MPD2    C5 9471   0.007   0.865  15.980  0.0881 -0.3705  0.2495
  636MPD2     H 9472   0.213   0.851  16.293  0.6990  1.8529 -0.3516
  636MPD2    H1 9473   0.095   0.676  15.929 -0.2214  0.3680 -0.5780
  636MPD2    H2 9474   4.668   1.049  16.044 -0.2756  0.0179  0.4328
  636MPD2    H3 9475   4.696   0.868  15.883 -0.0670  0.4231  0.3582
  636MPD2     N 9476   0.286   0.672  16.128  0.0337 -0.1706 -0.4585
  636MPD2    H5 9477   0.330   0.671  16.220  1.0319 -1.3800 -0.9373
  636MPD2    N1 9478   0.052   1.059  16.289  0.6855 -0.0441 -0.2388
  636MPD2    H7 9479   0.114   1.053  16.369 -0.2070 -0.6329  0.4176
  637TMC3    C1 9480   0.418   0.477  16.089 -0.0655 -0.6363 -0.1826
  637TMC3    C2 9481   0.396   0.436  16.222  0.1538 -1.1240 -0.3959
  637TMC3    C3 9482   0.496   0.359  16.274 -0.8093  0.6435  0.1528
  637TMC3    C4 9483   0.536   0.460  16.031 -0.5701  0.0986  0.2927
  637TMC3    C5 9484   0.640   0.404  16.093 -0.1845 -0.0936 -0.1551
  637TMC3    C6 9485   0.620   0.345  16.216  0.7837  0.4293 -0.1248
  637TMC3     C 9486   0.324   0.578  16.031 -0.5184 -0.6315  0.1940
  637TMC3     O 9487   0.309   0.576  15.909  0.1096  0.1912  0.1892
  637TMC3     H 9488   0.304   0.446  16.279  0.7329 -0.0596  0.3511
  637TMC3    H1 9489   0.543   0.502  15.931  1.6501 -2.2756 -0.5389
  637TMC3    H2 9490   0.701   0.284  16.255  0.3143 -1.2004 -1.6762
  637TMC3    C7 9491   0.758   0.487  16.095  0.6407  0.2921  0.8521
  637TMC3    C8 9492   0.506   0.371  16.420 -0.1062  0.2569 -0.1225
  637TMC3    O1 9493   0.807   0.497  16.206  0.1203 -0.3411  0.2830
  637TMC3    O2 9494   0.444   0.306  16.501 -0.4507  0.2437 -0.3132
  638MPD2     C 9495   4.559   0.143  15.341 -0.0307 -0.4467 -1.0598
  638MPD2    C1 9496   4.630   0.062  15.255 -0.1780 -0.0235 -0.0447
  638MPD2    C2 9497   4.631   4.667  15.280  0.6322 -0.6349  0.3661
  638MPD2    C3 9498   4.564   4.605  15.385  0.1650 -0.1044  0.0527
  638MPD2    C4 9499   4.489   4.686  15.474  0.0417  0.4599 -0.4813
  638MPD2    C5 9500   4.491   0.084  15.447  0.8697 -0.7555  0.3450
  638MPD2     H 9501   4.688   4.592  15.226  0.3242  0.2590 -1.2056
  638MPD2    H1 9502   4.446   4.649  15.566  2.6824 -1.1930  0.0623
  638MPD2    H2 9503   4.562   0.251  15.331 -3.5844 -0.5719 -3.2259
  638MPD2    H3 9504   4.448   0.161  15.510 -2.8101 -0.7432 -2.1770
  638MPD2     N 9505   4.558   4.466  15.407  0.3320  0.0277 -0.4729
  638MPD2    H5 9506   4.506   4.433  15.488 -0.2873  1.7629 -0.1650
  638MPD2    N1 9507   4.703   0.123  15.147  0.3467  0.7411 -0.1364
  638MPD2    H7 9508   4.683   0.222  15.139  0.4288  0.8937  1.5418
  639TMC3    C1 9509   4.591   4.240  15.375  0.1673 -0.6638  0.2795
  639TMC3    C2 9510   4.547   4.154  15.281 -0.3739 -0.3265 -0.5074
  639TMC3    C3 9511   4.628   4.047  15.255 -0.8777 -0.1512 -0.3081
  639TMC3    C4 9512   4.701   4.215  15.447  0.7277 -0.2270  0.6470
  639TMC3    C5 9513   0.045   4.112  15.413 -0.3069  0.0153  0.2877
  639TMC3    C6 9514   0.017   4.029  15.307 -0.3885  0.7269  0.7089
  639TMC3     C 9515   4.596   4.374  15.318  0.2416 -0.0637 -0.8496
  639TMC3     O 9516   4.635   4.369  15.200  0.4315  0.8233  0.3403
  639TMC3     H 9517   4.491   4.197  15.198  0.1243  2.2030  0.4523
  639TMC3    H1 9518   0.004   4.294  15.508  0.3348 -0.8544  1.7275
  639TMC3    H2 9519   0.073   3.939  15.287  0.3731  1.6246 -1.2312
  639TMC3    C7 9520   0.178   4.095  15.472  0.0175 -0.3416  0.2140
  639TMC3    C8 9521   4.591   3.970  15.137  0.4930  0.5134  0.4546
  639TMC3    O1 9522   0.192   4.126  15.588  0.0448  0.1084 -0.7074
  639TMC3    O2 9523   4.681   3.915  15.079 -0.3876  0.8583  0.1658
  640MPD2     C 9524   0.785   3.469  10.615  0.0775  0.4595  0.2095
  640MPD2    C1 9525   0.799   3.548  10.505  0.3158 -0.0057 -0.6344
  640MPD2    C2 9526   0.772   3.687  10.515 -0.5780  0.2193 -0.4757
  640MPD2    C3 9527   0.703   3.735  10.629  0.7736 -0.2851 -0.7124
  640MPD2    C4 9528   0.679   3.652  10.731 -0.1205 -1.0136  0.4102
  640MPD2    C5 9529   0.739   3.526  10.729  0.2786 -0.5552 -0.6309
  640MPD2     H 9530   0.809   3.753  10.438  1.1868  0.6729  0.7806
  640MPD2    H1 9531   0.628   3.687  10.820  0.8432 -1.3148  1.0762
  640MPD2    H2 9532   0.800   3.362  10.619 -0.4605  0.3234 -1.6050
  640MPD2    H3 9533   0.739   3.465  10.820  0.7504  0.9855  0.3967
  640MPD2     N 9534   0.663   3.866  10.631 -0.0291 -0.5778 -0.2620
  640MPD2    H5 9535   0.605   3.891  10.710 -0.2013 -2.3722  0.1807
  640MPD2    N1 9536   0.846   3.489  10.385  0.4724  0.2006 -0.2913
  640MPD2    H7 9537   0.862   3.390  10.400 -1.0887 -0.0299 -0.1222
  641TMC3    C1 9538   0.855   3.457  10.146 -0.8899 -0.6771  0.1689
  641TMC3    C2 9539   0.941   3.354  10.164 -0.3559  0.5419 -0.9586
  641TMC3    C3 9540   0.980   3.290  10.051  0.0003 -0.1846 -0.4361
  641TMC3    C4 9541   0.800   3.497  10.024 -0.0359 -0.1576  0.1201
  641TMC3    C5 9542   0.828   3.425   9.916  0.6434  0.7377  0.4091
  641TMC3    C6 9543   0.927   3.330   9.929  0.2481  0.1623 -0.0777
  641TMC3     C 9544   0.827   3.545  10.259 -0.2796 -0.3609 -1.1685
  641TMC3     O 9545   0.762   3.643  10.229 -0.1052  0.2789  0.1910
  641TMC3     H 9546   0.995   3.342  10.257 -2.0051 -0.2884 -0.1053
  641TMC3    H1 9547   0.730   3.579  10.019  0.8183  0.5322 -0.3943
  641TMC3    H2 9548   0.948   3.262   9.847  0.3640  0.6426 -0.4544
  641TMC3    C7 9549   0.786   3.460   9.784  0.3404 -0.1975 -0.6153
  641TMC3    C8 9550   1.023   3.152  10.050 -0.4112 -0.3004 -0.0482
  641TMC3    O1 9551   0.845   3.398   9.698 -0.1566 -0.3943  0.0467
  641TMC3    O2 9552   1.047   3.097   9.941  0.3019 -0.0740  0.4290
  642TMC3    C1 9553   1.748   4.422  12.423  0.0742 -0.6231 -0.0244
  642TMC3    C2 9554   1.885   4.431  12.432 -0.0395 -0.5114  0.0416
  642TMC3    C3 9555   1.958   4.313  12.452  0.0730 -0.1700  0.2401
  642TMC3    C4 9556   1.690   4.298  12.440 -0.4317  0.6593 -0.5321
  642TMC3    C5 9557   1.771   4.192  12.456  0.0068  0.1622 -0.6574
  642TMC3    C6 9558   1.901   4.188  12.452 -0.3042  0.1186 -0.7538
  642TMC3     C 9559   1.672   4.545  12.443  1.0210  0.5697 -1.0355
  642TMC3     O 9560   1.729   4.654  12.423  0.5887 -0.2532 -0.1954
  642TMC3     H 9561   1.933   4.528  12.424  2.1857 -1.8448 -2.5214
  642TMC3    H1 9562   1.584   4.279  12.445 -0.3431  0.6296  1.4564
  642TMC3    H2 9563   1.962   4.103  12.480 -0.1059  0.7675  0.7953
  642TMC3    C7 9564   1.706   4.070  12.503  0.2155 -0.2328 -1.0620
  642TMC3    C8 9565   2.081   4.322  12.537 -0.0341  0.5082  0.1546
  642TMC3    O1 9566   1.758   3.969  12.457  0.5716 -0.7749 -0.7940
  642TMC3    O2 9567   2.106   4.228  12.611 -0.5407 -0.5050  0.2545
  643TMC3    C1 9568   0.743   3.719   0.371 -0.2237  0.3030 -0.8301
  643TMC3    C2 9569   0.621   3.761   0.325 -0.3655 -0.1628  0.1682
  643TMC3    C3 9570   0.558   3.681   0.236  0.0603 -0.3976  0.2991
  643TMC3    C4 9571   0.808   3.604   0.325 -0.3632  0.6088 -0.4895
  643TMC3    C5 9572   0.740   3.530   0.232  0.9788  0.1363 -0.2235
  643TMC3    C6 9573   0.613   3.565   0.194  0.5195 -0.5267 -0.6461
  643TMC3     C 9574   0.810   3.795   0.475  0.8485  0.1532 -0.2397
  643TMC3     O 9575   0.786   3.912   0.497  0.0954 -0.1627  1.1024
  643TMC3     H 9576   0.581   3.854   0.365 -2.0499 -1.4501  1.4949
  643TMC3    H1 9577   0.909   3.576   0.354  0.4627  2.7752 -1.2906
  643TMC3    H2 9578   0.552   3.501   0.132 -0.7586  1.7574 -1.7463
  643TMC3    C7 9579   0.791   3.398   0.205  0.1335 -0.2648  0.7047
  643TMC3    C8 9580   0.489   3.743   0.124  0.3653  0.2876 -0.0056
  643TMC3    O1 9581   0.846   3.342   0.298 -0.3114 -0.3094 -0.0147
  643TMC3    O2 9582   0.402   3.669   0.071  0.2591  0.5132  0.4019
  644MPD2     C 9583   0.947   4.236  10.247 -0.8939  0.3123  0.3783
  644MPD2    C1 9584   0.979   4.224  10.112 -0.4068  0.2236  0.0019
  644MPD2    C2 9585   1.009   4.337  10.042  0.5686  0.2804  0.1339
  644MPD2    C3 9586   1.002   4.467  10.095 -0.2023 -0.2971 -0.1772
  644MPD2    C4 9587   0.968   4.480  10.229  1.0944 -0.7375 -0.6588
  644MPD2    C5 9588   0.956   4.362  10.303  0.2484  0.4584  0.4638
  644MPD2     H 9589   1.034   4.330   9.937 -1.8620 -1.9505 -0.2677
  644MPD2    H1 9590   0.951   4.574  10.282 -1.5287 -1.5029 -0.1454
  644MPD2    H2 9591   0.932   4.151  10.313 -1.7305 -0.6905 -1.1075
  644MPD2    H3 9592   0.948   4.374  10.411 -0.7929  3.0440  0.1091
  644MPD2     N 9593   1.020   4.583  10.008  0.0042 -0.7038  0.0729
  644MPD2    H5 9594   1.042   4.561   9.912  0.1843 -1.1247  0.2090
  644MPD2    N1 9595   0.987   4.095  10.059 -0.2318 -0.6454 -0.3478
  644MPD2    H7 9596   0.963   4.019  10.122 -1.1325  2.2509  2.8776
  645TMC3    C1 9597   1.003   0.063   9.938  0.0529  0.2701  0.2552
  645TMC3    C2 9598   1.100   0.150   9.917 -0.1198  0.0949 -0.9740
  645TMC3    C3 9599   1.121   0.208   9.796 -0.3302  0.4661  0.2961
  645TMC3    C4 9600   0.910   0.022   9.845  0.7941  0.4457  0.7920
  645TMC3    C5 9601   0.928   0.080   9.722 -0.2702  0.0884  0.1929
  645TMC3    C6 9602   1.027   0.169   9.698  0.7776 -0.2348  0.1750
  645TMC3     C 9603   1.021   4.709  10.050 -0.0294  0.6188 -0.1221
  645TMC3     O 9604   1.048   0.019  10.157 -0.1589  0.0362  0.5077
  645TMC3     H 9605   1.179   0.153   9.992 -1.7885 -0.3702  0.8178
  645TMC3    H1 9606   0.831   4.690   9.866  0.2176  0.3115 -1.9189
  645TMC3    H2 9607   1.042   0.218   9.602  0.6050 -0.8433 -0.1654
  645TMC3    C7 9608   0.823   0.073   9.619 -0.1760  0.3149 -0.0133
  645TMC3    C8 9609   1.225   0.297   9.762 -0.2560  0.4327 -0.8434
  645TMC3    O1 9610   0.850   0.109   9.507  0.0286  0.3079  0.1477
  645TMC3    O2 9611   1.252   0.294   9.641  0.4445  0.5596  1.0216
  646MPD2     C 9612   0.356   3.280  14.419 -0.4891  0.3226  0.8201
  646MPD2    C1 9613   0.295   3.321  14.535 -0.1031 -0.0451  0.2588
  646MPD2    C2 9614   0.208   3.426  14.521 -0.0349 -0.6031 -0.0196
  646MPD2    C3 9615   0.184   3.495  14.397  1.0678  0.1308 -1.1287
  646MPD2    C4 9616   0.247   3.449  14.279  0.6139 -0.3539  0.4448
  646MPD2    C5 9617   0.328   3.338  14.302 -0.3404 -0.7912  0.4696
  646MPD2     H 9618   0.157   3.470  14.606 -1.5247 -0.9025 -0.7648
  646MPD2    H1 9619   0.224   3.488  14.181  0.2203 -1.7492 -0.0214
  646MPD2    H2 9620   0.423   3.196  14.418 -0.4976  0.4135 -4.6107
  646MPD2    H3 9621   0.384   3.307  14.214 -0.7439  2.2220 -0.8576
  646MPD2     N 9622   0.097   3.599  14.400  0.6173 -0.1884 -0.2133
  646MPD2    H5 9623   0.051   3.624  14.487 -0.3737  3.4757 -1.7543
  646MPD2    N1 9624   0.316   3.247  14.652  0.8505  0.0443  0.0335
  646MPD2    H7 9625   0.374   3.164  14.640  0.7690 -0.2904  1.8632
  647TMC3    C1 9626   0.254   3.164  14.868  0.3671  0.5752 -0.2128
  647TMC3    C2 9627   0.174   3.181  14.973  0.5325 -0.0088  0.1845
  647TMC3    C3 9628   0.225   3.164  15.097 -0.0988 -0.0886  0.6477
  647TMC3    C4 9629   0.388   3.122  14.890 -0.0982 -0.1068  0.4419
  647TMC3    C5 9630   0.436   3.104  15.019  0.2957  0.3196  0.1518
  647TMC3    C6 9631   0.346   3.130  15.127  0.7528  0.9534  0.0104
  647TMC3     C 9632   0.235   3.262  14.765 -0.0670  0.0351  0.4909
  647TMC3     O 9633   0.166   3.355  14.800 -0.3135  0.6073  0.2538
  647TMC3     H 9634   0.068   3.194  14.954  0.2661 -2.2465  0.1359
  647TMC3    H1 9635   0.450   3.119  14.802 -0.4143  0.2031  0.2108
  647TMC3    H2 9636   0.387   3.132  15.227 -1.2144  0.3445  0.8298
  647TMC3    C7 9637   0.562   3.039  15.052 -0.1815 -0.6572  0.2833
  647TMC3    C8 9638   0.132   3.195  15.206 -0.2181  0.3109  0.6447
  647TMC3    O1 9639   0.594   3.027  15.171 -0.1834 -0.0710  0.3014
  647TMC3    O2 9640   0.014   3.225  15.176  0.1686  0.7004 -0.6376
  648TMC3    C1 9641   3.878   1.091  16.303 -0.2534 -0.7136 -0.7077
  648TMC3    C2 9642   3.924   0.977  16.265 -0.0322  0.2416  0.1025
  648TMC3    C3 9643   3.994   0.980  16.148 -0.4122 -0.4018 -0.5818
  648TMC3    C4 9644   3.883   1.212  16.226  0.2308  0.8543 -0.2449
  648TMC3    C5 9645   3.962   1.206  16.114  0.0822 -0.3544  0.3210
  648TMC3    C6 9646   4.022   1.094  16.080 -0.8292  0.0928 -0.3395
  648TMC3     C 9647   3.806   1.100  16.429  0.4558 -0.0933 -0.0601
  648TMC3     O 9648   3.763   1.211  16.452  0.0384 -0.2807 -0.2192
  648TMC3     H 9649   3.905   0.889  16.325  2.7320  1.0450  2.1729
  648TMC3    H1 9650   3.828   1.301  16.255  2.0214  2.4687 -1.8355
  648TMC3    H2 9651   4.084   1.093  15.991  0.2321 -0.5557  0.4249
  648TMC3    C7 9652   3.932   1.291  16.001 -0.4926  0.7445  0.1375
  648TMC3    C8 9653   4.074   0.868  16.099 -0.4058  0.1348 -0.3506
  648TMC3    O1 9654   3.970   1.249  15.889  0.5069 -0.3161 -0.3358
  648TMC3    O2 9655   4.085   0.844  15.979 -0.2355  0.2652  0.0982
  649TMC3    C1 9656   2.777   1.748  12.740  0.7424 -0.6427  0.2313
  649TMC3    C2 9657   2.887   1.811  12.792 -0.5783 -0.7169  0.2110
  649TMC3    C3 9658   2.982   1.734  12.846  0.7500 -0.1388 -0.1114
  649TMC3    C4 9659   2.766   1.613  12.722  0.3500  0.3230  0.0122
  649TMC3    C5 9660   2.863   1.534  12.791 -0.7476 -0.1283  0.3225
  649TMC3    C6 9661   2.974   1.595  12.841 -1.1733 -0.9639  0.1723
  649TMC3     C 9662   2.654   1.826  12.735 -0.1319  0.1047  0.0573
  649TMC3     O 9663   2.657   1.929  12.800  0.4434  0.7235 -0.1629
  649TMC3     H 9664   2.890   1.919  12.795  0.0926 -0.7161 -0.6753
  649TMC3    H1 9665   2.683   1.553  12.686 -1.0317  2.1330  0.2296
  649TMC3    H2 9666   3.051   1.539  12.893  0.5800  0.4690 -0.8927
  649TMC3    C7 9667   2.813   1.418  12.864  0.2459  0.1040  0.1196
  649TMC3    C8 9668   3.107   1.792  12.892  0.7675  0.3986  0.0259
  649TMC3    O1 9669   2.697   1.378  12.854 -0.1468 -0.2097 -0.0614
  649TMC3    O2 9670   3.138   1.892  12.829 -0.2440 -0.4979 -0.0825
  650TMC3    C1 9671   1.007   3.387  12.699 -0.2938  0.0674 -0.5266
  650TMC3    C2 9672   0.948   3.514  12.697  0.3371  0.5785 -0.6891
  650TMC3    C3 9673   0.883   3.552  12.582 -0.2191  0.4627  0.3762
  650TMC3    C4 9674   0.997   3.300  12.589 -0.0046 -0.3980  0.0784
  650TMC3    C5 9675   0.936   3.346  12.477 -0.0613  0.3179  0.1257
  650TMC3    C6 9676   0.880   3.472  12.470 -0.2399 -0.1826  0.4203
  650TMC3     C 9677   1.062   3.355  12.822 -0.3970  0.0049 -0.3887
  650TMC3     O 9678   1.033   3.430  12.913 -0.1404  0.6623 -0.1554
  650TMC3     H 9679   0.953   3.587  12.777  0.8979 -0.4284  0.1852
  650TMC3    H1 9680   1.030   3.197  12.595  0.6502  0.0267  3.2536
  650TMC3    H2 9681   0.839   3.522  12.383 -0.6695  0.9543  1.2758
  650TMC3    C7 9682   0.908   3.250  12.372  0.0279  0.1006  0.6949
  650TMC3    C8 9683   0.854   3.695  12.571  0.0577  0.3390  0.1960
  650TMC3    O1 9684   0.956   3.137  12.389 -0.1946 -0.1947 -0.0720
  650TMC3    O2 9685   0.896   3.759  12.474 -0.7222 -0.1560  0.1905
  651MPD2     C 9686   0.109   0.895  10.485 -0.0752  0.3430  0.4632
  651MPD2    C1 9687   0.103   0.909  10.625 -0.1067 -0.5238 -0.6906
  651MPD2    C2 9688   0.231   0.907  10.687 -0.2480 -0.4162  0.7822
  651MPD2    C3 9689   0.355   0.902  10.615 -0.1585  0.3462 -0.3798
  651MPD2    C4 9690   0.342   0.887  10.476  0.1818 -0.6371 -0.3037
  651MPD2    C5 9691   0.226   0.868  10.420 -0.3990 -0.1315 -0.9562
  651MPD2     H 9692   0.229   0.895  10.794 -1.6382 -1.0508  0.6778
  651MPD2    H1 9693   0.427   0.873  10.410 -0.5272  1.6569 -1.7304
  651MPD2    H2 9694   0.022   0.890  10.421 -1.1142  1.2615  1.7907
  651MPD2    H3 9695   0.208   0.839  10.317  0.8439 -2.1686 -0.6033
  651MPD2     N 9696   0.478   0.913  10.690 -0.2318 -0.1617  0.1880
  651MPD2    H5 9697   0.467   0.929  10.790  0.2377  0.5254  0.1347
  651MPD2    N1 9698   4.722   0.885  10.686 -0.0991 -0.3754 -0.2665
  651MPD2    H7 9699   4.644   0.884  10.621  0.1453  3.1328 -0.5988
  652TMC3    C1 9700   0.938   0.855  10.735  1.1737 -0.1472 -0.3951
  652TMC3    C2 9701   0.821   0.822  10.674 -0.3287  0.6282  0.4447
  652TMC3    C3 9702   0.713   0.896  10.713  0.1665 -0.0430  0.1183
  652TMC3    C4 9703   0.949   0.945  10.836  0.6395  0.7281 -0.0476
  652TMC3    C5 9704   0.842   1.017  10.868  0.0253 -0.5302 -0.5291
  652TMC3    C6 9705   0.719   0.997  10.804  0.0212  0.7932 -1.0287
  652TMC3     C 9706   1.052   0.769  10.717 -0.3160 -0.2633 -0.3689
  652TMC3     O 9707   1.107   0.748  10.827  0.5030  0.1104  0.6376
  652TMC3     H 9708   0.815   0.751  10.592 -1.1463  0.0973  0.9616
  652TMC3    H1 9709   1.048   0.969  10.873 -0.4382  2.4764  1.7229
  652TMC3    H2 9710   0.623   1.043  10.826  0.3645  0.9831  0.0740
  652TMC3    C7 9711   0.874   1.136  10.941 -0.0605 -0.7189 -0.2540
  652TMC3    C8 9712   0.600   0.884  10.630 -0.9522  0.0800  0.0398
  652TMC3    O1 9713   0.793   1.168  11.027  0.1966  0.1334  0.4639
  652TMC3    O2 9714   0.618   0.829  10.524  0.2803 -0.2651  0.5315
  653MPD2     C 9715   2.951   1.068   0.244  0.7349 -0.0094  0.8343
  653MPD2    C1 9716   2.890   1.133   0.131  0.0013  0.3814  0.2364
  653MPD2    C2 9717   2.863   1.060   0.014  0.2508 -0.2907  0.0818
  653MPD2    C3 9718   2.887   0.925   0.002  0.3837 -0.0553  1.0772
  653MPD2    C4 9719   2.959   0.870   0.105  0.1794 -0.5657 -0.1081
  653MPD2    C5 9720   2.986   0.939   0.225 -0.3184  0.6282 -1.2348
  653MPD2     H 9721   2.812   1.113  17.687  0.2835 -1.5361 -0.7501
  653MPD2    H1 9722   3.005   0.772   0.096  0.0845 -0.6938  0.8031
  653MPD2    H2 9723   2.971   1.120   0.337  1.2393 -0.6407  1.0852
  653MPD2    H3 9724   3.043   0.890   0.303 -2.7148  0.4675  0.4256
  653MPD2     N 9725   2.856   0.847  17.646  0.1456  0.2514 -0.5348
  653MPD2    H5 9726   2.819   0.907  17.572  0.1500  0.4736 -0.3548
  653MPD2    N1 9727   2.865   1.270   0.134 -0.3772  0.6775 -0.0713
  653MPD2    H7 9728   2.867   1.321   0.046  0.6910  0.9508  0.1145
  654TMC3    C1 9729   2.793   0.652  17.514 -0.0267  0.0471  0.2097
  654TMC3    C2 9730   2.806   0.717  17.394 -0.3753 -0.2118 -0.2949
  654TMC3    C3 9731   2.832   0.641  17.283 -0.3750  0.2766  0.3641
  654TMC3    C4 9732   2.809   0.515  17.523  0.1156  0.5636 -0.0219
  654TMC3    C5 9733   2.847   0.449  17.404 -0.1193 -0.5783 -0.2133
  654TMC3    C6 9734   2.859   0.509  17.287  0.5904 -0.0512 -0.7359
  654TMC3     C 9735   2.831   0.716  17.647  0.0239 -0.4863  0.0208
  654TMC3     O 9736   2.852   0.639  17.735 -0.2865 -0.1727  0.6099
  654TMC3     H 9737   2.807   0.825  17.384 -1.0191  0.1348  3.2194
  654TMC3    H1 9738   2.800   0.461  17.616 -0.2150 -0.6073 -0.7437
  654TMC3    H2 9739   2.885   0.444  17.204 -0.5010  1.5875 -2.3767
  654TMC3    C7 9740   2.905   0.321  17.417 -0.7389  0.4690  0.6484
  654TMC3    C8 9741   2.776   0.698  17.158 -0.3650 -0.3184 -0.3022
  654TMC3    O1 9742   2.958   0.271  17.317 -0.2428  0.4144 -0.3764
  654TMC3    O2 9743   2.755   0.818  17.149  0.5097  0.6623 -0.2571
  655MPD2     C 9744   4.374   1.105  16.034 -0.5726  0.6070  0.3333
  655MPD2    C1 9745   4.414   1.215  15.956  0.6799  0.2411  0.1483
  655MPD2    C2 9746   4.481   1.184  15.837 -0.2328  0.1917  1.2566
  655MPD2    C3 9747   4.509   1.054  15.793 -0.2656 -0.1993 -0.7571
  655MPD2    C4 9748   4.472   0.951  15.873  0.2495 -0.6134  0.3755
  655MPD2    C5 9749   4.414   0.982  15.995 -0.1059 -0.1358  0.4036
  655MPD2     H 9750   4.503   1.271  15.775 -0.1435  1.0198  2.4445
  655MPD2    H1 9751   4.497   0.849  15.847 -2.2710 -0.9100 -0.9049
  655MPD2    H2 9752   4.335   1.109  16.135 -0.4485 -0.5670  0.4231
  655MPD2    H3 9753   4.385   0.893  16.050 -1.2619 -0.9970 -1.5986
  655MPD2     N 9754   4.570   1.026  15.667  0.1278 -0.2320  0.4054
  655MPD2    H5 9755   4.592   0.928  15.654 -0.6296 -0.2928 -0.4220
  655MPD2    N1 9756   4.372   1.350  15.983 -0.0520  0.1794 -0.0020
  655MPD2    H7 9757   4.397   1.425  15.920  0.0417 -0.6674 -0.9624
  656TMC3    C1 9758   4.239   1.521  16.079 -0.5456 -1.0002  0.1197
  656TMC3    C2 9759   4.180   1.568  16.192 -0.3158  1.2259  0.4329
  656TMC3    C3 9760   4.093   1.674  16.188  0.0009 -0.4921  0.4392
  656TMC3    C4 9761   4.209   1.574  15.957 -0.3554  0.1317  0.4388
  656TMC3    C5 9762   4.105   1.658  15.955  1.1690  0.5434 -0.4416
  656TMC3    C6 9763   4.054   1.718  16.063  0.1817  0.3378  0.2044
  656TMC3     C 9764   4.297   1.389  16.091  0.0828 -0.2154 -0.2352
  656TMC3     O 9765   4.269   1.337  16.197  0.0275 -0.4428 -0.1396
  656TMC3     H 9766   4.201   1.531  16.291  0.8308  0.9981  0.1038
  656TMC3    H1 9767   4.242   1.542  15.859 -0.4779  0.6734  0.2233
  656TMC3    H2 9768   3.973   1.790  16.054  0.1453  0.6332  2.7861
  656TMC3    C7 9769   4.087   1.719  15.820  0.7996  0.0276 -0.0226
  656TMC3    C8 9770   3.988   1.647  16.281 -0.6372 -0.0117 -0.3625
  656TMC3    O1 9771   4.175   1.712  15.740  0.2098  0.4030  0.1820
  656TMC3    O2 9772   3.959   1.532  16.302  0.3370  0.0464  0.0719
  657TMC3    C1 9773   3.150   0.277  15.615  0.0559 -0.3042  0.5103
  657TMC3    C2 9774   3.282   0.240  15.603  0.0941 -0.4149 -0.1750
  657TMC3    C3 9775   3.364   0.260  15.711  0.7367 -0.2038  0.7603
  657TMC3    C4 9776   3.107   0.330  15.734  0.2318  0.8228 -0.5610
  657TMC3    C5 9777   3.194   0.352  15.841  0.0279  0.2989  0.5614
  657TMC3    C6 9778   3.322   0.309  15.833 -0.0778 -0.6198 -0.0306
  657TMC3     C 9779   3.051   0.240  15.514  0.2290  1.0222 -0.4046
  657TMC3     O 9780   2.938   0.285  15.522 -0.2670  0.0166 -0.5907
  657TMC3     H 9781   3.326   0.213  15.508  0.6444 -0.9731  0.2416
  657TMC3    H1 9782   3.005   0.365  15.738 -0.1242 -0.2404 -0.2975
  657TMC3    H2 9783   3.382   0.290  15.922  0.4196 -0.0269 -0.2362
  657TMC3    C7 9784   3.132   0.371  15.971 -0.0128 -0.6950  0.4033
  657TMC3    C8 9785   3.508   0.242  15.680 -0.1670 -0.2125  0.0675
  657TMC3    O1 9786   3.007   0.352  15.972  0.4185  0.2109  0.3119
  657TMC3    O2 9787   3.546   0.176  15.585  0.4044  0.6725 -0.5323
  658MPD2     C 9788   0.168   1.470  15.102  0.0589 -0.4670  0.7754
  658MPD2    C1 9789   0.136   1.342  15.058  0.1163  0.4238 -0.0902
  658MPD2    C2 9790   0.186   1.307  14.933  0.4961 -0.2206 -0.6456
  658MPD2    C3 9791   0.266   1.391  14.859 -0.0661 -0.6409 -0.6574
  658MPD2    C4 9792   0.303   1.515  14.904  0.6277  0.1806 -0.0185
  658MPD2    C5 9793   0.261   1.551  15.026 -1.0135 -0.9085 -0.6656
  658MPD2     H 9794   0.169   1.208  14.893 -0.2845 -0.9044  1.4177
  658MPD2    H1 9795   0.365   1.580  14.844  2.0041 -1.2754 -0.1848
  658MPD2    H2 9796   0.133   1.502  15.199  0.4074  1.9070  0.1211
  658MPD2    H3 9797   0.295   1.651  15.051 -2.4208 -0.6735  0.3406
  658MPD2     N 9798   0.303   1.348  14.734 -0.2544  0.4494 -0.5200
  658MPD2    H5 9799   0.258   1.265  14.698  0.0614 -0.3909  1.0124
  658MPD2    N1 9800   0.067   1.251  15.140 -0.0688 -0.7073 -0.0506
  658MPD2    H7 9801   0.079   1.270  15.239 -3.3825 -0.5298  0.3169
  659TMC3    C1 9802   4.663   1.072  15.215  0.2621  0.5075 -0.1524
  659TMC3    C2 9803   4.653   1.123  15.341  0.1076 -0.3596 -1.3998
  659TMC3    C3 9804   4.604   1.048  15.442  0.4631 -0.4296 -0.0864
  659TMC3    C4 9805   4.575   0.974  15.176  0.0584 -0.2100 -0.6654
  659TMC3    C5 9806   4.505   0.912  15.276  0.7668 -0.4743 -0.0067
  659TMC3    C6 9807   4.525   0.938  15.410  0.1646 -0.0378  0.9377
  659TMC3     C 9808   4.728   1.138  15.101  0.0194 -0.3769 -0.3514
  659TMC3     O 9809   4.722   1.077  14.994  0.0171  0.1393 -0.0098
  659TMC3     H 9810   4.723   1.201  15.370 -1.4894  0.4221  0.3663
  659TMC3    H1 9811   4.563   0.936  15.075 -0.7711 -0.0568 -0.6277
  659TMC3    H2 9812   4.476   0.873  15.482 -0.6808  1.2411  1.5258
  659TMC3    C7 9813   4.403   0.806  15.248  0.5498 -0.2041 -0.0531
  659TMC3    C8 9814   4.592   1.113  15.564 -0.1451  0.6427  0.4118
  659TMC3    O1 9815   4.330   0.772  15.340  0.0905 -0.2201 -0.2729
  659TMC3    O2 9816   4.586   1.237  15.558 -0.7923 -0.6096 -0.0387
  660MPD2     C 9817   2.920   4.171  12.753 -0.5522  0.2633 -0.4718
  660MPD2    C1 9818   2.796   4.218  12.723  0.0078 -0.7315  0.1194
  660MPD2    C2 9819   2.684   4.185  12.805 -0.2678  0.3090  0.8506
  660MPD2    C3 9820   2.706   4.130  12.930  0.1036  0.5464  0.4943
  660MPD2    C4 9821   2.835   4.111  12.968  0.2943  0.2064  0.7729
  660MPD2    C5 9822   2.938   4.130  12.879  0.6925  0.4669 -0.1230
  660MPD2     H 9823   2.582   4.203  12.775 -0.1391 -2.9775 -1.5673
  660MPD2    H1 9824   2.860   4.077  13.068 -0.4270 -0.8031  0.6177
  660MPD2    H2 9825   3.011   4.184  12.696  1.1310  0.1964  2.1899
  660MPD2    H3 9826   3.034   4.102  12.921  0.3417  0.0400  0.3864
  660MPD2     N 9827   2.604   4.090  13.021 -0.1985  0.1643 -0.1195
  660MPD2    H5 9828   2.634   4.068  13.115  0.5716  0.9040 -0.1915
  660MPD2    N1 9829   2.785   4.289  12.602  0.5325 -0.2441 -0.1829
  660MPD2    H7 9830   2.873   4.314  12.558  1.1524 -0.7899  0.7317
  661TMC3    C1 9831   2.687   4.435  12.441  0.7994 -0.1124  0.0235
  661TMC3    C2 9832   2.798   4.509  12.416  0.0898 -0.5900 -0.5065
  661TMC3    C3 9833   2.796   4.631  12.349  0.2053 -0.0686 -0.7735
  661TMC3    C4 9834   2.570   4.482  12.396  0.6748  0.5830 -0.0429
  661TMC3    C5 9835   2.564   4.607  12.338 -0.2862 -0.1972 -0.8083
  661TMC3    C6 9836   2.678   4.678  12.308  0.2575  0.0338  0.0105
  661TMC3     C 9837   2.668   4.328  12.545 -0.2679 -0.1624 -0.0754
  661TMC3     O 9838   2.552   4.285  12.559 -0.3728  0.0787  1.0187
  661TMC3     H 9839   2.892   4.483  12.463 -0.1331 -0.7451 -0.1481
  661TMC3    H1 9840   2.478   4.444  12.440  1.0769 -2.0322 -1.4851
  661TMC3    H2 9841   2.669   0.028  12.246 -0.4399  0.1863  0.3320
  661TMC3    C7 9842   2.440   4.645  12.268 -0.2012 -0.8070  0.3518
  661TMC3    C8 9843   2.906   4.662  12.262 -0.0905  0.0031 -0.0992
  661TMC3    O1 9844   2.427   0.016  12.211  0.4671  0.0291 -0.0342
  661TMC3    O2 9845   2.914   0.038  12.221 -0.1827  0.0576  0.2371
  662MPD2     C 9846   2.995   4.016  17.472  0.3233 -0.7895 -0.4895
  662MPD2    C1 9847   3.026   3.887  17.506  0.4279 -0.3498 -0.6117
  662MPD2    C2 9848   3.063   3.856  17.631  0.1778 -0.2129 -0.3501
  662MPD2    C3 9849   3.047   3.953  17.727  0.0777  0.2027 -0.3220
  662MPD2    C4 9850   3.019   4.088  17.692  0.1426  0.0818 -0.2570
  662MPD2    C5 9851   3.011   4.112  17.560  0.8452 -0.3197  0.4025
  662MPD2     H 9852   3.084   3.751  17.652  3.5249  0.4956 -0.2161
  662MPD2    H1 9853   3.007   4.168   0.011  0.5517  0.2188 -0.3436
  662MPD2    H2 9854   2.973   4.042  17.369  2.0343 -0.4200 -0.7643
  662MPD2    H3 9855   2.983   4.213  17.530  0.5124 -0.2017  1.1138
  662MPD2     N 9856   3.065   3.922   0.106  0.1335  0.5951  0.3639
  662MPD2    H5 9857   3.031   3.989   0.174 -0.2084  0.7514  0.0357
  662MPD2    N1 9858   3.025   3.787  17.410  0.2255 -0.7738  0.3129
  662MPD2    H7 9859   3.031   3.691  17.441  1.9658 -0.0303  2.2526
  663TMC3    C1 9860   2.998   3.662  17.212  0.3893 -0.0115  0.0995
  663TMC3    C2 9861   3.022   3.548  17.290  0.1967 -0.5507  0.0682
  663TMC3    C3 9862   3.027   3.422  17.234  0.1026  0.2747  0.3448
  663TMC3    C4 9863   2.966   3.648  17.078  0.8153  0.1162  0.0623
  663TMC3    C5 9864   2.968   3.518  17.030 -0.1257  0.1612  0.7550
  663TMC3    C6 9865   2.991   3.409  17.106 -0.6934  0.0546 -0.2683
  663TMC3     C 9866   3.008   3.790  17.270 -0.2622 -0.6898  0.9757
  663TMC3     O 9867   3.004   3.890  17.199 -0.0657 -0.1600  0.4808
  663TMC3     H 9868   3.060   3.555  17.391  0.3781  3.3732 -0.2689
  663TMC3    H1 9869   2.927   3.726  17.013  1.1902  0.5155  0.3170
  663TMC3    H2 9870   3.031   3.324  17.053  1.3008  1.3459 -0.8486
  663TMC3    C7 9871   2.853   3.487  16.946  0.3059  0.2509  0.3546
  663TMC3    C8 9872   2.941   3.329  17.296 -0.2556 -0.2066 -0.2060
  663TMC3    O1 9873   2.826   3.563  16.848  0.3449 -0.3740  0.2908
  663TMC3    O2 9874   2.889   3.243  17.220 -0.4991  0.1958 -0.2891
  664MPD2     C 9875   0.866   2.656  17.721 -0.2183  0.8926 -0.1582
  664MPD2    C1 9876   0.999   2.673  17.743  0.7207 -0.4085  0.0795
  664MPD2    C2 9877   1.041   2.669   0.124 -0.0814 -0.5854  0.3306
  664MPD2    C3 9878   0.953   2.630   0.228  0.2749  0.0241 -0.1614
  664MPD2    C4 9879   0.823   2.586   0.192  0.2390  0.5173 -0.2041
  664MPD2    C5 9880   0.785   2.608   0.062 -0.6323 -0.2187 -0.4894
  664MPD2     H 9881   1.141   2.698   0.157  0.1637  0.9357 -1.7462
  664MPD2    H1 9882   0.732   2.569   0.249  0.0355  0.1898 -0.6265
  664MPD2    H2 9883   0.814   2.678  17.629 -1.3410 -1.8800 -0.2003
  664MPD2    H3 9884   0.681   2.589   0.037 -0.4688  0.7004 -1.8773
  664MPD2     N 9885   1.006   2.623   0.361 -0.3969  0.1568  0.2541
  664MPD2    H5 9886   1.104   2.648   0.375 -1.0024  3.1735 -0.9068
  664MPD2    N1 9887   1.093   2.695  17.643 -0.3952  0.4003  0.0050
  664MPD2    H7 9888   1.181   2.731  17.679 -0.0033  1.8608 -2.4342
  665TMC3    C1 9889   0.979   2.630   0.594 -0.0946 -0.8416 -0.5889
  665TMC3    C2 9890   0.907   2.586   0.701  0.3281 -0.2330  0.4187
  665TMC3    C3 9891   0.917   2.661   0.813 -0.6750  0.2028  0.2320
  665TMC3    C4 9892   1.065   2.733   0.599 -0.7329  0.2029  0.6324
  665TMC3    C5 9893   1.085   2.793   0.725 -0.4653 -0.3340  0.1963
  665TMC3    C6 9894   1.012   2.761   0.834 -0.7056  0.4423 -0.3716
  665TMC3     C 9895   0.924   2.601   0.466  0.8252  0.4116 -0.8034
  665TMC3     O 9896   0.804   2.560   0.464  0.0361  0.2623 -0.4068
  665TMC3     H 9897   0.818   2.526   0.686 -0.1746  0.7244 -0.4532
  665TMC3    H1 9898   1.110   2.771   0.509  2.2293  0.7593  2.3628
  665TMC3    H2 9899   1.010   2.825   0.921 -0.1729 -0.0772  0.0136
  665TMC3    C7 9900   1.168   2.911   0.732  0.0249  0.4857  0.2525
  665TMC3    C8 9901   0.794   2.670   0.883  0.6122  0.2993  0.1911
  665TMC3    O1 9902   1.229   2.937   0.628 -0.4455 -0.9145 -0.3649
  665TMC3    O2 9903   0.711   2.762   0.864  0.1492 -0.5015  0.3541
  666TMC3    C1 9904   0.203   2.156  10.280  0.5228  0.1964  0.7650
  666TMC3    C2 9905   0.332   2.123  10.248 -0.2728 -0.4361 -0.5549
  666TMC3    C3 9906   0.415   2.231  10.238 -0.6697  0.1295 -0.3303
  666TMC3    C4 9907   0.151   2.278  10.285 -0.1056 -0.4077  0.4474
  666TMC3    C5 9908   0.236   2.388  10.262 -0.6509 -0.5150  0.5168
  666TMC3    C6 9909   0.365   2.364  10.243 -0.6355  0.1225 -0.2866
  666TMC3     C 9910   0.128   2.056  10.332 -0.3594  0.1764  0.0104
  666TMC3     O 9911   0.054   2.090  10.425 -0.2522 -0.4146 -0.0214
  666TMC3     H 9912   0.372   2.026  10.271  2.1111  0.2197 -1.9353
  666TMC3    H1 9913   0.044   2.291  10.297 -0.2432 -2.1354  1.1813
  666TMC3    H2 9914   0.439   2.441  10.259  1.9237 -2.3748  0.0108
  666TMC3    C7 9915   0.195   2.528  10.278  0.4698  0.0310 -0.4989
  666TMC3    C8 9916   0.553   2.210  10.281  0.0671 -0.0096  0.4247
  666TMC3    O1 9917   0.075   2.549  10.301  0.2001 -0.1008 -0.1162
  666TMC3    O2 9918   0.572   2.108  10.347  0.2915 -0.1205 -0.3963
  667MPD2     C 9919   1.943   2.205  14.703 -0.2986 -0.2412 -0.5748
  667MPD2    C1 9920   1.935   2.286  14.810 -0.0872  0.2882 -0.3947
  667MPD2    C2 9921   1.840   2.252  14.904 -0.5339 -0.6190 -0.2776
  667MPD2    C3 9922   1.764   2.134  14.897 -0.5245 -0.1808  0.5220
  667MPD2    C4 9923   1.792   2.043  14.793  0.3059 -0.0230 -0.6481
  667MPD2    C5 9924   1.879   2.081  14.701 -0.5843  0.2238  0.1117
  667MPD2     H 9925   1.832   2.305  14.999  1.3091  1.6660 -1.4030
  667MPD2    H1 9926   1.744   1.950  14.766  2.4769 -1.4135  0.2451
  667MPD2    H2 9927   2.014   2.216  14.623  0.3760 -0.9555 -0.0785
  667MPD2    H3 9928   1.886   2.021  14.610 -1.4482 -1.5441  1.2011
  667MPD2     N 9929   1.669   2.098  14.990 -0.4142 -0.4239 -0.1524
  667MPD2    H5 9930   1.631   2.004  14.984 -0.8163 -0.4412  2.7167
  667MPD2    N1 9931   2.011   2.399  14.833  0.1866 -0.0856 -0.1286
  667MPD2    H7 9932   1.993   2.459  14.913  0.7693  0.1255 -0.1522
  668TMC3    C1 9933   2.185   2.550  14.791 -0.4604  0.1896  0.1924
  668TMC3    C2 9934   2.257   2.611  14.691 -0.4519  0.2432 -0.8552
  668TMC3    C3 9935   2.325   2.726  14.727 -0.4696 -0.2329  1.0435
  668TMC3    C4 9936   2.187   2.599  14.917 -0.6986  0.1668 -0.2520
  668TMC3    C5 9937   2.252   2.721  14.944 -0.1003  0.0757 -0.0132
  668TMC3    C6 9938   2.318   2.786  14.845  0.3753  0.6444  0.1461
  668TMC3     C 9939   2.123   2.425  14.759 -0.3086 -0.1919 -0.6555
  668TMC3     O 9940   2.170   2.366  14.661 -0.4392 -0.4682  0.5240
  668TMC3     H 9941   2.264   2.561  14.595  0.9820  0.7559 -1.0230
  668TMC3    H1 9942   2.138   2.549  15.000  1.3219  1.4226  1.7173
  668TMC3    H2 9943   2.342   2.891  14.861  0.0206  0.7099  0.2423
  668TMC3    C7 9944   2.209   2.811  15.058  1.1476  0.2791 -0.1334
  668TMC3    C8 9945   2.363   2.815  14.616 -0.2775  0.3294 -0.7295
  668TMC3    O1 9946   2.273   2.915  15.076 -0.0853 -0.1791 -0.4884
  668TMC3    O2 9947   2.286   2.808  14.517 -0.1067 -0.5252  0.4482
  669TMC3    C1 9948   4.656   2.228  14.917  0.0842  0.7794  0.2832
  669TMC3    C2 9949   4.545   2.205  14.846 -0.4498 -0.0064  0.0480
  669TMC3    C3 9950   4.524   2.279  14.731  0.5076  0.4927 -1.0637
  669TMC3    C4 9951   0.011   2.309  14.867 -0.0426 -0.1862  0.0283
  669TMC3    C5 9952   4.719   2.382  14.759  0.4425  0.0086 -0.4671
  669TMC3    C6 9953   4.608   2.373  14.688  0.3970 -0.7217 -0.2115
  669TMC3     C 9954   4.647   2.198  15.053  0.0924  0.1077  0.9809
  669TMC3     O 9955   4.555   2.125  15.084  0.0566  0.6977 -0.3094
  669TMC3     H 9956   4.459   2.144  14.873  0.2306 -0.2580  1.6516
  669TMC3    H1 9957   0.118   2.306  14.889 -0.3309 -0.9033  1.3848
  669TMC3    H2 9958   4.583   2.426  14.596  1.3367  2.9933  1.6849
  669TMC3    C7 9959   0.094   2.449  14.690 -0.5349 -0.1742 -0.2277
  669TMC3    C8 9960   4.398   2.279  14.668 -0.0521 -0.1321 -0.3204
  669TMC3    O1 9961   0.188   2.494  14.754  0.0785  0.1076 -1.0024
  669TMC3    O2 9962   4.354   2.182  14.610  0.2344  0.0240  0.0770
  670MPD2     C 9963   2.851   4.447  13.620  0.0167 -0.1959 -0.1082
  670MPD2    C1 9964   2.961   4.490  13.684  0.7489  0.3193 -0.3389
  670MPD2    C2 9965   2.965   4.491  13.821 -0.6232  0.1773  0.3274
  670MPD2    C3 9966   2.856   4.451  13.896 -0.4687 -0.3540 -0.7202
  670MPD2    C4 9967   2.740   4.415  13.831 -0.5764 -0.2909  0.3764
  670MPD2    C5 9968   2.741   4.408  13.694  0.8802 -0.3756 -0.1062
  670MPD2     H 9969   3.048   4.530  13.878  0.9972 -1.2989 -1.0155
  670MPD2    H1 9970   2.651   4.368  13.872 -1.7028  1.8825  0.4521
  670MPD2    H2 9971   2.855   4.439  13.511  2.1145  0.0849 -0.0372
  670MPD2    H3 9972   2.652   4.373  13.642  0.8584 -2.1230  1.0884
  670MPD2     N 9973   2.870   4.439  14.038  0.5949 -0.4020 -0.5407
  670MPD2    H5 9974   2.959   4.472  14.076 -0.8471  2.9776 -0.0880
  670MPD2    N1 9975   3.084   4.540  13.624 -0.5246  1.1030  0.2053
  670MPD2    H7 9976   3.152   4.592  13.678  0.3181 -1.1424  1.2996
  671TMC3    C1 9977   2.815   4.368  14.247  0.6037  0.2423 -0.0221
  671TMC3    C2 9978   2.935   4.308  14.269 -0.1528 -0.6612 -0.5462
  671TMC3    C3 9979   2.949   4.212  14.368  0.3381  0.1540  0.5095
  671TMC3    C4 9980   2.717   4.348  14.339  0.3499 -0.6324 -0.5324
  671TMC3    C5 9981   2.727   4.245  14.431  0.1456  0.0202 -0.3127
  671TMC3    C6 9982   2.853   4.189  14.460 -0.5698 -1.0671 -0.4422
  671TMC3     C 9983   2.769   4.389  14.115  0.3937 -0.4324  0.0251
  671TMC3     O 9984   2.652   4.363  14.102  0.0650 -0.2238  0.1134
  671TMC3     H 9985   3.017   4.313  14.198  0.2692  0.7254  0.0399
  671TMC3    H1 9986   2.623   4.400  14.327  0.7042  0.2651  0.6381
  671TMC3    H2 9987   2.868   4.116  14.540 -0.7653 -0.0109  0.5568
  671TMC3    C7 9988   2.640   4.126  14.394  0.6007 -0.0066  0.4296
  671TMC3    C8 9989   3.021   4.101  14.323 -0.2952  0.8290 -0.0893
  671TMC3    O1 9990   2.671   4.029  14.460 -0.1863  0.3226  0.2163
  671TMC3    O2 9991   3.125   4.123  14.271  0.3589 -0.0529  0.0687
  672MPD2     C 9992   2.783   1.060   1.137 -0.4637 -0.2219 -0.3032
  672MPD2    C1 9993   2.909   0.992   1.143 -0.1092  0.6108  0.2926
  672MPD2    C2 9994   3.026   1.065   1.152  0.1902 -0.1471 -0.4299
  672MPD2    C3 9995   3.028   1.199   1.125  0.1486 -0.3495  0.0227
  672MPD2    C4 9996   2.905   1.253   1.093 -0.1757 -0.2043 -0.0025
  672MPD2    C5 9997   2.785   1.189   1.108 -0.7819 -0.2946 -0.8876
  672MPD2     H 9998   3.114   1.012   1.186 -0.6981 -0.3957  1.4809
  672MPD2    H1 9999   2.911   1.360   1.082 -0.1174 -0.3508 -1.2949
  672MPD2    H210000   2.690   1.008   1.156 -0.3454 -0.0262  0.7929
  672MPD2    H310001   2.692   1.246   1.103  0.0413  1.4412  3.8575
  672MPD2     N10002   3.147   1.275   1.139  0.2160 -0.9625  0.2411
  672MPD2    H510003   3.137   1.375   1.126 -1.4597 -1.3232 -1.2119
  672MPD2    N110004   2.904   0.849   1.155  0.4060 -0.8443 -0.1343
  672MPD2    H710005   2.992   0.801   1.145  0.6160 -0.5076  0.0832
  673TMC3    C110006   2.807   0.638   1.188 -0.4949  0.3114  0.3372
  673TMC3    C210007   2.926   0.609   1.245  0.3400 -0.1126  0.4971
  673TMC3    C310008   2.980   0.487   1.209  0.2972 -0.0526 -0.3708
  673TMC3    C410009   2.743   0.556   1.102  0.0796  0.0130  0.7569
  673TMC3    C510010   2.808   0.444   1.051 -0.3398  0.6076  0.0366
  673TMC3    C610011   2.923   0.407   1.113  0.0530  0.4901 -0.3015
  673TMC3     C10012   2.786   0.775   1.147 -0.4658 -0.6107 -0.0891
  673TMC3     O10013   2.680   0.805   1.101 -0.2373 -0.0082 -0.3137
  673TMC3     H10014   2.979   0.672   1.316 -2.6414  2.5699  0.2994
  673TMC3    H110015   2.642   0.578   1.067  1.0094 -0.1507 -2.0186
  673TMC3    H210016   2.962   0.307   1.101  0.1601  0.5648 -0.5650
  673TMC3    C710017   2.819   0.437   0.907 -0.4737 -0.5824  0.8015
  673TMC3    C810018   3.053   0.417   1.308  0.4073  0.3178  0.3152
  673TMC3    O110019   2.876   0.340   0.861 -0.7084 -0.4628  0.2598
  673TMC3    O210020   3.017   0.303   1.329 -0.6983  0.4275  0.0969
  674MPD2     C10021   3.533   0.455   0.644 -0.1334 -0.4104 -0.5686
  674MPD2    C110022   3.470   0.356   0.721 -0.5798  0.3412  0.0232
  674MPD2    C210023   3.371   0.289   0.655 -0.0801 -0.0296 -0.5907
  674MPD2    C310024   3.323   0.315   0.527  0.3576  0.2051 -0.5737
  674MPD2    C410025   3.396   0.409   0.460  0.3307 -0.4346  0.1621
  674MPD2    C510026   3.505   0.478   0.515 -0.0896  0.1023 -0.1328
  674MPD2     H10027   3.310   0.216   0.707 -0.8886  1.7558  0.9795
  674MPD2    H110028   3.361   0.443   0.363 -0.1438  0.4959  0.6587
  674MPD2    H210029   3.610   0.521   0.683  2.1656 -1.7686 -2.8187
  674MPD2    H310030   3.557   0.552   0.456  0.2763 -0.5243 -0.5971
  674MPD2     N10031   3.207   0.237   0.484  0.2306 -0.0642 -0.3126
  674MPD2    H510032   3.168   0.162   0.541  0.8308 -0.9005 -1.0005
  674MPD2    N110033   3.528   0.339   0.852 -0.9278 -0.1912  0.5564
  674MPD2    H710034   3.605   0.402   0.871 -1.4183  0.1025  1.5372
  675TMC3    C110035   3.567   0.231   1.053 -0.9407 -0.6482 -0.2090
  675TMC3    C210036   3.506   0.177   1.158 -0.5302  0.1056 -0.1202
  675TMC3    C310037   3.567   0.184   1.280  0.1683  0.1329  0.5045
  675TMC3    C410038   3.682   0.304   1.065 -1.4910  0.2095  0.1910
  675TMC3    C510039   3.740   0.313   1.189  0.7038 -1.0934  0.0413
  675TMC3    C610040   3.685   0.257   1.303 -0.2135 -0.8489  0.0077
  675TMC3     C10041   3.482   0.242   0.936 -0.2282  0.7755 -0.5951
  675TMC3     O10042   3.386   0.165   0.929  0.8187  0.1069 -0.2437
  675TMC3     H10043   3.406   0.137   1.157 -0.8734  0.9150  1.0924
  675TMC3    H110044   3.731   0.347   0.978 -0.8348  0.7146  0.8005
  675TMC3    H210045   3.710   0.288   1.403  2.4978 -3.5366  0.1668
  675TMC3    C710046   3.865   0.390   1.208 -0.3597 -0.3254 -0.6559
  675TMC3    C810047   3.512   0.115   1.395  0.9103  0.0804  0.1476
  675TMC3    O110048   3.940   0.359   1.298  0.1545 -0.1496 -0.4710
  675TMC3    O210049   3.391   0.084   1.395 -0.6318  0.0294  0.2414
  676MPD2     C10050   1.085   3.305  11.647  0.0171  0.0157 -0.5545
  676MPD2    C110051   1.111   3.208  11.741  0.1754  0.2085  0.1095
  676MPD2    C210052   1.129   3.080  11.685 -0.8151  0.6989 -0.8333
  676MPD2    C310053   1.133   3.057  11.553 -0.4105  0.6653 -0.8060
  676MPD2    C410054   1.139   3.161  11.460  0.1485 -0.1490 -0.2762
  676MPD2    C510055   1.103   3.283  11.510 -0.2382  0.7649  0.0168
  676MPD2     H10056   1.142   2.995  11.751  3.4014 -0.2752 -2.9281
  676MPD2    H110057   1.156   3.153  11.354  1.1300  0.7977 -0.1848
  676MPD2    H210058   1.076   3.409  11.677  0.8655 -0.2486  0.6516
  676MPD2    H310059   1.090   3.370  11.447 -0.1805 -1.0622 -2.5062
  676MPD2     N10060   1.144   2.926  11.496  0.0631 -0.8690  0.5930
  676MPD2    H510061   1.148   2.924  11.395 -0.2165  0.8201  0.5453
  676MPD2    N110062   1.120   3.250  11.874  0.2113 -0.7426  0.0202
  676MPD2    H710063   1.106   3.349  11.892  2.5867 -0.4767  0.3178
  677TMC3    C110064   1.153   3.242  12.104 -0.1323  0.5622 -0.0936
  677TMC3    C210065   1.194   3.173  12.208  0.5946  0.1486 -0.2229
  677TMC3    C310066   1.234   3.237  12.323 -0.7553 -0.6153  0.0910
  677TMC3    C410067   1.174   3.378  12.100 -0.3127 -0.5515 -0.0600
  677TMC3    C510068   1.234   3.442  12.209  0.2466 -0.0799  0.1051
  677TMC3    C610069   1.272   3.365  12.317 -0.8662  0.7733 -0.7340
  677TMC3     C10070   1.140   3.168  11.982 -0.3796 -0.6751 -0.2905
  677TMC3     O10071   1.170   3.047  11.975  0.6945  0.1978 -0.4161
  677TMC3     H10072   1.201   3.065  12.197 -2.2561 -0.0321 -0.2536
  677TMC3    H110073   1.134   3.438  12.019 -2.1676 -0.7072  0.7519
  677TMC3    H210074   1.323   3.417  12.397  2.3982 -1.7588 -1.1710
  677TMC3    C710075   1.287   3.582  12.219 -0.1099  0.0372  0.3547
  677TMC3    C810076   1.272   3.165  12.451  0.9517 -0.7105 -0.4500
  677TMC3    O110077   1.312   3.631  12.330 -0.0263  0.1023 -0.2474
  677TMC3    O210078   1.307   3.241  12.541 -0.0182 -0.4158 -0.5617
  678MPD2     C10079   2.365   3.987   1.592 -0.0937 -0.3912  0.5216
  678MPD2    C110080   2.347   3.855   1.554 -0.3868  0.3457 -0.3356
  678MPD2    C210081   2.224   3.794   1.556  0.0770 -0.7821 -0.5007
  678MPD2    C310082   2.120   3.869   1.597 -0.2380  0.0612  0.4273
  678MPD2    C410083   2.137   4.000   1.638 -0.1345 -0.4802  0.7888
  678MPD2    C510084   2.256   4.065   1.621 -0.4672 -0.1974  0.0170
  678MPD2     H10085   2.204   3.691   1.527  0.3541 -0.3237 -2.3587
  678MPD2    H110086   2.051   4.062   1.656  0.4839  0.8490 -0.8580
  678MPD2    H210087   2.462   4.034   1.579 -0.1840 -0.8420 -1.7650
  678MPD2    H310088   2.264   4.171   1.643  2.5423 -0.7917  1.7701
  678MPD2     N10089   1.995   3.822   1.572 -0.1558 -0.3078 -0.8000
  678MPD2    H510090   1.997   3.727   1.536  0.3836  0.4005 -2.6076
  678MPD2    N110091   2.459   3.776   1.498 -0.3056 -0.2616 -0.5597
  678MPD2    H710092   2.442   3.679   1.473  1.9055 -0.5057 -1.1167
  679TMC3    C110093   2.804   3.549   1.392  0.1958 -0.1277  0.4350
  679TMC3    C210094   2.703   3.632   1.445  0.0339 -0.0998 -0.2150
  679TMC3    C310095   2.670   3.742   1.382 -0.2633  0.1399 -0.3357
  679TMC3    C410096   2.883   3.596   1.293 -0.4126 -0.1694  0.3058
  679TMC3    C510097   2.853   3.721   1.243  0.3548  0.2725 -0.6989
  679TMC3    C610098   2.745   3.791   1.286  0.0244  1.1617  0.1566
  679TMC3     C10099   2.793   3.408   1.438 -0.9548 -0.5392  0.4936
  679TMC3     O10100   2.718   3.385   1.530 -0.3040  0.0648 -0.4525
  679TMC3     H10101   2.635   3.588   1.517 -1.4208  2.1675 -0.1895
  679TMC3    H110102   2.970   3.537   1.269  0.3233  0.0499  2.4202
  679TMC3    H210103   2.714   3.876   1.226 -2.1835  0.4749  0.3075
  679TMC3    C710104   2.881   3.732   1.100  0.7347  0.1034 -0.1858
  679TMC3    C810105   2.575   3.833   1.440 -0.5811  0.1706 -0.3622
  679TMC3    O110106   2.813   3.799   1.023 -0.1341 -0.6904  0.1795
  679TMC3    O210107   2.597   3.950   1.419  0.2637 -0.2170  0.2135
  680MPD2     C10108   2.144   1.705  13.204  0.2763 -0.1168  0.7427
  680MPD2    C110109   2.238   1.650  13.294  0.4716  0.1196  0.1645
  680MPD2    C210110   2.307   1.737  13.368 -0.3836 -0.1338 -0.1373
  680MPD2    C310111   2.287   1.874  13.380  0.1767  0.0723 -0.7097
  680MPD2    C410112   2.189   1.919  13.300 -0.2338  0.0526 -0.5765
  680MPD2    C510113   2.128   1.842  13.209  0.0678 -0.3386 -0.0063
  680MPD2     H10114   2.377   1.687  13.433  1.9437  1.3764 -1.5111
  680MPD2    H110115   2.167   2.025  13.301 -2.3144 -0.3812 -1.3296
  680MPD2    H210116   2.090   1.651  13.127 -0.3450 -0.6807  1.5608
  680MPD2    H310117   2.052   1.890  13.148 -2.1177 -1.7395  1.5823
  680MPD2     N10118   2.353   1.963  13.470  0.0038  0.3963  0.2247
  680MPD2    H510119   2.330   2.062  13.474 -0.3275  0.2762  1.1657
  680MPD2    N110120   2.252   1.512  13.323  0.4081  0.3367  0.2482
  680MPD2    H710121   2.316   1.495  13.400 -0.2344 -1.1462  0.4455
  681TMC3    C110122   2.206   1.294  13.354 -1.0394 -0.4281 -1.2475
  681TMC3    C210123   2.192   1.352  13.478 -0.2144 -0.4257 -0.2657
  681TMC3    C310124   2.281   1.344  13.585 -0.3245  0.3945 -0.2933
  681TMC3    C410125   2.322   1.224  13.334  0.3815 -0.5324 -0.2715
  681TMC3    C510126   2.419   1.219  13.433 -0.2847 -0.4978 -0.5262
  681TMC3    C610127   2.400   1.275  13.558  0.4492  0.0018  0.0027
  681TMC3     C10128   2.189   1.405  13.260 -0.3294 -0.5415 -0.5460
  681TMC3     O10129   2.103   1.405  13.174  0.3605  0.6457 -0.1009
  681TMC3     H10130   2.102   1.411  13.493  1.0724  1.4439  0.0764
  681TMC3    H110131   2.343   1.177  13.239 -0.7872  1.6584 -1.6340
  681TMC3    H210132   2.477   1.270  13.634 -2.2525 -0.6762  2.6464
  681TMC3    C710133   2.557   1.190  13.411 -0.1365 -0.4221  0.1396
  681TMC3    C810134   2.260   1.444  13.686  0.2163 -0.2375 -0.7001
  681TMC3    O110135   2.631   1.155  13.498  0.0105 -0.2966  0.0950
  681TMC3    O210136   2.157   1.516  13.686 -0.1244 -0.5255 -0.0995
  682MPD2     C10137   0.027   3.666  10.899 -0.2958  0.5387 -0.1830
  682MPD2    C110138   4.732   3.534  10.938  0.0447 -0.7419 -0.5823
  682MPD2    C210139   4.682   3.519  11.063  0.2697 -0.7437 -0.1410
  682MPD2    C310140   4.663   3.623  11.149 -0.1930 -1.1619  0.1007
  682MPD2    C410141   4.688   3.752  11.103 -1.1441  0.4882 -0.1878
  682MPD2    C510142   0.002   3.772  10.982  0.4725  0.0498 -0.3094
  682MPD2     H10143   4.657   3.420  11.098 -3.5595  0.0322 -0.7636
  682MPD2    H110144   4.676   3.829  11.179  0.4379  3.0110 -2.4657
  682MPD2    H210145   0.073   3.678  10.802  0.2799  2.8330  0.3722
  682MPD2    H310146   0.031   3.872  10.950 -1.9151  0.8112 -0.1121
  682MPD2     N10147   4.608   3.613  11.279  0.1245  0.4081  0.5392
  682MPD2    H510148   4.583   3.695  11.334 -3.1452  2.1715 -3.6053
  682MPD2    N110149   0.004   3.418  10.856 -0.3114  0.5224  0.1231
  682MPD2    H710150   0.002   3.327  10.899 -2.5109 -0.0320 -1.1234
  683TMC3    C110151   4.566   3.534  11.704 -0.6839 -0.2902  0.0466
  683TMC3    C210152   4.487   3.432  11.744 -0.0491  0.5094  0.2703
  683TMC3    C310153   4.416   3.373  11.643  1.0993  0.1620  0.4366
  683TMC3    C410154   4.595   3.578  11.574  0.0760  0.5027 -0.5581
  683TMC3    C510155   4.527   3.507  11.479  0.1157 -0.3124 -0.6008
  683TMC3    C610156   4.443   3.406  11.512  0.1952 -0.3970  0.1872
  683TMC3     C10157   4.657   3.584  11.809  0.6375  0.2814  0.1602
  683TMC3     O10158   4.714   3.692  11.787  0.4292 -0.1612 -0.3895
  683TMC3     H10159   4.468   3.405  11.847  1.2908  0.9349  0.6229
  683TMC3    H110160   4.674   3.646  11.543 -2.0682  2.5397 -1.5933
  683TMC3    H210161   4.389   3.361  11.430  0.3161 -1.3482  0.6357
  683TMC3    C710162   4.575   3.492  11.341  0.3890  0.0994 -0.3400
  683TMC3    C810163   4.371   3.241  11.677 -0.1376 -0.2718 -0.0353
  683TMC3    O110164   4.595   3.378  11.298  0.3150  0.2770  0.2381
  683TMC3    O210165   4.357   3.215  11.794  0.2802 -0.7971  0.2423
  684MPD2     C10166   2.658   2.950  16.598  0.2258 -0.0894 -0.2628
  684MPD2    C110167   2.796   2.943  16.604  0.1271  0.7952 -0.0163
  684MPD2    C210168   2.870   3.059  16.629  0.2710  0.0700 -0.1894
  684MPD2    C310169   2.816   3.185  16.621 -0.1976 -1.1200  0.5397
  684MPD2    C410170   2.682   3.193  16.605 -0.2037  0.2698 -0.2788
  684MPD2    C510171   2.601   3.076  16.587 -0.2240 -0.4284  0.9300
  684MPD2     H10172   2.975   3.037  16.644 -0.1187 -0.0787  2.2777
  684MPD2    H110173   2.617   3.279  16.601 -2.2063 -1.3594 -3.1537
  684MPD2    H210174   2.603   2.858  16.593  0.2320 -0.0587 -0.8379
  684MPD2    H310175   2.493   3.082  16.580 -0.1780 -0.4974  0.1086
  684MPD2     N10176   2.896   3.302  16.625  0.3368 -0.4286  0.0920
  684MPD2    H510177   2.843   3.386  16.606  0.0712 -0.4355  0.8321
  684MPD2    N110178   2.872   2.827  16.563 -0.0068 -0.5781 -0.6518
  684MPD2    H710179   2.971   2.828  16.584 -0.3544  1.2016  0.9114
  685TMC3    C110180   2.927   2.640  16.447 -0.2284  0.0456  0.3270
  685TMC3    C210181   2.905   2.619  16.313 -0.1369  0.4917  0.6755
  685TMC3    C310182   3.006   2.630  16.222  0.3126  0.2368  0.3044
  685TMC3    C410183   3.054   2.678  16.477  0.7526 -0.6022  0.1435
  685TMC3    C510184   3.157   2.697  16.387  0.3607 -0.0754  0.9633
  685TMC3    C610185   3.132   2.680  16.249  0.0187  0.1287  0.4651
  685TMC3     C10186   2.816   2.720  16.501 -0.2496 -0.2387 -0.1862
  685TMC3     O10187   2.716   2.710  16.441  0.1446 -0.8116  0.0075
  685TMC3     H10188   2.812   2.570  16.286 -0.4719  0.6278  1.6030
  685TMC3    H110189   3.080   2.703  16.579  1.2942 -1.4223  0.2120
  685TMC3    H210190   3.194   2.726  16.173 -0.3789  1.4914  0.9542
  685TMC3    C710191   3.291   2.731  16.439  0.6092  0.1706 -0.7193
  685TMC3    C810192   2.956   2.643  16.087  0.2888 -0.1144  0.1314
  685TMC3    O110193   3.290   2.762  16.556 -0.3253  0.2786 -0.5658
  685TMC3    O210194   3.015   2.595  15.992  0.1313  0.4942  0.2583
  686MPD2     C10195   4.451   2.963  15.893  0.3431  0.7370  0.6279
  686MPD2    C110196   4.409   2.853  15.959  0.3533  0.5368 -0.2147
  686MPD2    C210197   4.413   2.738  15.889  0.3444  0.2448 -0.8641
  686MPD2    C310198   4.434   2.734  15.752  0.4165 -0.9714 -0.1546
  686MPD2    C410199   4.466   2.846  15.686  0.5148  0.0007  0.3340
  686MPD2    C510200   4.475   2.960  15.761 -0.4583  0.5838 -0.4975
  686MPD2     H10201   4.408   2.648  15.949  3.5865  1.2962  0.9498
  686MPD2    H110202   4.480   2.842  15.578  0.5146 -0.0063  0.3342
  686MPD2    H210203   4.450   3.057  15.947  1.2501  0.0046  1.9186
  686MPD2    H310204   4.488   3.054  15.709 -1.8813  0.5910 -0.8223
  686MPD2     N10205   4.432   2.611  15.676 -0.2486 -0.3864  0.3608
  686MPD2    H510206   4.467   2.620  15.581 -1.0868  0.5460  0.1369
  686MPD2    N110207   4.364   2.862  16.095  0.0238  0.1495 -0.8808
  686MPD2    H710208   4.357   2.952  16.140  0.2887  0.5572 -1.6572
  687TMC3    C110209   4.277   2.480  15.823  0.2497 -0.2168  0.6955
  687TMC3    C210210   4.169   2.556  15.799  0.3771 -0.1146 -0.2528
  687TMC3    C310211   4.070   2.554  15.895  0.6888 -0.0048 -0.0963
  687TMC3    C410212   4.282   2.371  15.908 -0.3986 -1.0438  0.4159
  687TMC3    C510213   4.183   2.371  16.004  0.0243  0.8607  0.1491
  687TMC3    C610214   4.075   2.457  15.998  0.2962 -0.1319  0.9708
  687TMC3     C10215   4.370   2.489  15.707  0.5566  0.8590 -0.2141
  687TMC3     O10216   4.380   2.384  15.645  0.3212 -0.3775 -0.3547
  687TMC3     H10217   4.180   2.628  15.719 -0.1289  0.5175  0.2553
  687TMC3    H110218   4.359   2.296  15.898  0.1904 -0.4073  0.1367
  687TMC3    H210219   4.010   2.469  16.084  0.5848  0.8861  1.0424
  687TMC3    C710220   4.215   2.305  16.134 -0.5926  0.7691  0.3280
  687TMC3    C810221   4.011   2.684  15.940  0.3168  0.0799 -0.2041
  687TMC3    O110222   4.329   2.262  16.153 -0.5782  0.7769  0.1623
  687TMC3    O210223   3.944   2.681  16.042  0.8431  0.0847 -0.1917
  688MPD2     C10224   3.441   1.697   0.130  0.3458 -0.1291 -0.4208
  688MPD2    C110225   3.341   1.652   0.048  0.4628 -0.2570  0.4200
  688MPD2    C210226   3.372   1.615  17.668  0.2259 -0.1494  0.0539
  688MPD2    C310227   3.505   1.607  17.621 -0.0105 -0.2568 -0.3246
  688MPD2    C410228   3.604   1.642  17.716 -0.7365  0.0676  0.1067
  688MPD2    C510229   3.574   1.695   0.083 -0.1036 -0.6087 -0.2965
  688MPD2     H10230   3.298   1.578  17.597  0.2782 -1.7285  0.8308
  688MPD2    H110231   3.706   1.617  17.689 -0.6015  0.1962  0.4920
  688MPD2    H210232   3.427   1.721   0.235  1.6341  0.1667 -0.3145
  688MPD2    H310233   3.655   1.732   0.145 -1.0966 -1.6340  1.6157
  688MPD2     N10234   3.544   1.551  17.492  0.6601 -0.3862  0.5173
  688MPD2    H510235   3.640   1.565  17.464  0.9365  0.2569  1.7891
  688MPD2    N110236   3.203   1.641   0.085 -0.2945 -0.0768 -0.1834
  688MPD2    H710237   3.136   1.617   0.012 -3.0091  3.0586  1.2955
  689TMC3    C110238   3.004   1.649   0.194  0.0385  0.1725  0.1741
  689TMC3    C210239   2.928   1.735   0.258 -0.9262 -0.1456  0.4545
  689TMC3    C310240   2.823   1.691   0.337 -0.2852  0.0301 -0.1701
  689TMC3    C410241   2.966   1.517   0.175  0.4251  0.6495  1.2903
  689TMC3    C510242   2.862   1.476   0.249 -0.1699  0.0598  0.3081
  689TMC3    C610243   2.791   1.561   0.329  0.7314  0.9616  1.1110
  689TMC3     C10244   3.145   1.686   0.196 -0.0964  0.0145  0.4025
  689TMC3     O10245   3.186   1.760   0.286  0.4955 -0.4090 -0.1974
  689TMC3     H10246   2.973   1.833   0.265  0.1071 -0.5798 -0.1154
  689TMC3    H110247   3.035   1.454   0.119  1.3510  2.4506  0.4142
  689TMC3    H210248   2.714   1.521   0.393 -0.5332 -0.7688 -1.4705
  689TMC3    C710249   2.840   1.334   0.256 -0.3365  0.0785  0.1890
  689TMC3    C810250   2.780   1.766   0.454  0.4550 -0.8024 -0.5954
  689TMC3    O110251   2.806   1.296   0.364  0.3719  0.2506 -0.0052
  689TMC3    O210252   2.866   1.841   0.497  0.6433 -0.2622  0.5474
  690MPD2     C10253   1.596   3.573  15.598 -0.8655 -0.2931 -0.2684
  690MPD2    C110254   1.472   3.558  15.557 -0.6816  0.2301  0.1406
  690MPD2    C210255   1.449   3.507  15.428  0.3438  0.0753 -0.4041
  690MPD2    C310256   1.551   3.499  15.335  0.3228 -0.0843 -1.0850
  690MPD2    C410257   1.679   3.514  15.381  0.0496  0.4071 -0.3226
  690MPD2    C510258   1.703   3.546  15.512  0.6767  0.4705  0.7338
  690MPD2     H10259   1.346   3.502  15.394  0.7650  1.4675 -1.8525
  690MPD2    H110260   1.767   3.510  15.318  0.7784  2.7087  0.5614
  690MPD2    H210261   1.631   3.603  15.696  0.4279 -1.1541 -0.4775
  690MPD2    H310262   1.803   3.568  15.549  1.0591 -0.5809  0.3383
  690MPD2     N10263   1.523   3.453  15.203 -0.1997  0.0720 -0.4698
  690MPD2    H510264   1.424   3.445  15.181  0.0620 -1.3777 -1.0816
  690MPD2    N110265   1.357   3.587  15.635  0.4608 -0.3937  0.7202
  690MPD2    H710266   1.272   3.564  15.585  1.4736  1.3090 -1.7972
  691TMC3    C110267   1.242   3.615  15.842 -0.4859 -0.4133  0.2446
  691TMC3    C210268   1.146   3.681  15.777  0.2118 -0.0251 -1.0152
  691TMC3    C310269   1.018   3.672  15.817 -0.0823 -0.0286  0.1526
  691TMC3    C410270   1.210   3.526  15.935 -0.0409  0.6465  0.1906
  691TMC3    C510271   1.079   3.519  15.976 -0.0300 -0.1576 -0.0376
  691TMC3    C610272   0.984   3.585  15.912 -0.1747  0.7155  0.2176
  691TMC3     C10273   1.368   3.590  15.767  0.3776 -0.5333 -0.0049
  691TMC3     O10274   1.466   3.555  15.835  0.3316 -0.7756  0.2300
  691TMC3     H10275   1.171   3.743  15.691  1.1930 -0.7512 -1.2471
  691TMC3    H110276   1.288   3.464  15.977  0.3118 -0.5020 -2.1833
  691TMC3    H210277   0.879   3.568  15.931 -0.0035  1.4107  1.8247
  691TMC3    C710278   1.045   3.393  16.040  0.2440  1.1304  0.0275
  691TMC3    C810279   0.915   3.701  15.716 -0.2941 -0.1831 -0.1504
  691TMC3    O110280   1.147   3.326  16.060  0.1400  0.1033  0.3741
  691TMC3    O210281   0.954   3.711  15.599 -0.0206  0.5066 -0.5002
  692TMC3    C110282   2.680   4.418  15.910 -0.6494 -0.0410  0.3604
  692TMC3    C210283   2.774   4.447  15.997  0.2158 -0.6113  0.7645
  692TMC3    C310284   2.868   4.362  16.043 -0.4446  0.1382  0.0903
  692TMC3    C410285   2.669   4.284  15.870 -0.2334  0.4771 -0.4636
  692TMC3    C510286   2.760   4.194  15.924  0.1856  0.0067  0.7611
  692TMC3    C610287   2.860   4.232  16.004  0.0737 -0.3115 -0.6001
  692TMC3     C10288   2.554   4.476  15.937  0.1514 -0.1315 -0.5275
  692TMC3     O10289   2.535   4.491  16.057 -0.7205  0.5534  0.7631
  692TMC3     H10290   2.796   4.552  16.012  2.4067 -1.0936  0.9476
  692TMC3    H110291   2.598   4.263  15.791 -1.0398 -0.3057  0.4720
  692TMC3    H210292   2.910   4.162  16.070  0.2415 -1.1371 -1.5991
  692TMC3    C710293   2.699   4.070  15.940  0.5497 -0.5034  0.2510
  692TMC3    C810294   2.893   4.369  16.190 -0.1478 -0.2589 -0.2336
  692TMC3    O110295   2.578   4.077  15.925 -0.2307 -0.0657 -0.4907
  692TMC3    O210296   2.996   4.318  16.239 -0.1348  0.1107 -0.3634
  693MPD2     C10297   2.458   2.490  10.971 -0.8198 -0.2330 -0.2908
  693MPD2    C110298   2.402   2.418  10.867  0.8947  0.3153 -0.1017
  693MPD2    C210299   2.493   2.386  10.763 -0.3791 -0.1194 -0.1697
  693MPD2    C310300   2.632   2.406  10.769 -0.1161 -0.5398  0.5838
  693MPD2    C410301   2.682   2.472  10.880 -0.5685 -0.5369 -1.0280
  693MPD2    C510302   2.594   2.524  10.976 -0.3222  0.2549 -0.3138
  693MPD2     H10303   2.466   2.322  10.680 -1.4901  1.7961 -1.2919
  693MPD2    H110304   2.787   2.480  10.904 -1.0476  1.1302  0.5438
  693MPD2    H210305   2.405   2.503  11.065  0.0031  1.9309 -0.1291
  693MPD2    H310306   2.633   2.568  11.067 -1.6475  0.4835  0.1495
  693MPD2     N10307   2.726   2.347  10.680 -0.3099 -0.2392 -0.8840
  693MPD2    H510308   2.821   2.345  10.717 -1.1710 -0.8237  1.2281
  693MPD2    N110309   2.267   2.383  10.875 -0.3946 -0.2224 -0.6227
  693MPD2    H710310   2.224   2.412  10.962 -1.1709 -0.5488 -0.8979
  694TMC3    C110311   2.058   2.296  10.821 -0.4772  0.0354  0.0695
  694TMC3    C210312   1.969   2.260  10.727  0.2376 -0.6158  0.0760
  694TMC3    C310313   1.854   2.199  10.769  0.0973  0.4663  0.2545
  694TMC3    C410314   2.018   2.308  10.951  0.2985  0.2656 -0.8884
  694TMC3    C510315   1.900   2.243  10.987 -0.1035 -0.1952  0.0753
  694TMC3    C610316   1.817   2.182  10.897  0.5148 -0.1384  0.5753
  694TMC3     C10317   2.195   2.307  10.785  0.0214 -0.3561  0.2118
  694TMC3     O10318   2.224   2.263  10.675 -0.5983 -0.2575  0.0376
  694TMC3     H10319   1.993   2.261  10.621  2.3308 -0.9691  0.5460
  694TMC3    H110320   2.085   2.324  11.035 -0.3858  2.5958 -0.8042
  694TMC3    H210321   1.728   2.127  10.923  1.0287 -1.3696 -0.2622
  694TMC3    C710322   1.867   2.252  11.125 -0.0544  0.2994  0.0017
  694TMC3    C810323   1.772   2.137  10.672 -0.3186  0.4891 -0.5850
  694TMC3    O110324   1.905   2.349  11.190 -0.4059  0.3175  0.3775
  694TMC3    O210325   1.707   2.040  10.711  0.4459  0.1501  0.0282
  695MPD2     C10326   3.188   4.027  13.417 -1.0291 -0.1303  0.6638
  695MPD2    C110327   3.151   4.006  13.547  0.0755  0.0443  0.4667
  695MPD2    C210328   3.013   4.031  13.576 -0.2102 -0.1544 -0.4650
  695MPD2    C310329   2.926   4.084  13.475 -0.0105 -0.2868 -0.2150
  695MPD2    C410330   2.972   4.112  13.345  0.4529  0.4720 -0.1424
  695MPD2    C510331   3.103   4.083  13.319  0.6833 -0.7344  0.4393
  695MPD2     H10332   2.980   4.026  13.679 -0.3396  1.4211 -0.4230
  695MPD2    H110333   2.904   4.146  13.268  1.0995 -0.6206 -1.1964
  695MPD2    H210334   3.286   4.000  13.379 -0.6710 -0.1266  1.5873
  695MPD2    H310335   3.133   4.095  13.216 -0.2723 -0.8381  0.1476
  695MPD2     N10336   2.788   4.100  13.513 -0.5242  0.4384  0.5842
  695MPD2    H510337   2.761   4.091  13.611 -2.5135 -1.0841 -0.1257
  695MPD2    N110338   3.245   3.965  13.648  0.5061 -0.1721 -0.0737
  695MPD2    H710339   3.215   3.956  13.745  0.7543  2.3398  0.2252
  696TMC3    C110340   2.564   4.150  13.498 -0.2888 -0.0094  0.6758
  696TMC3    C210341   2.523   4.064  13.598  0.0511 -0.2050 -0.0763
  696TMC3    C310342   2.398   4.084  13.652  0.4585  0.0236  0.0348
  696TMC3    C410343   2.477   4.246  13.446  0.1968  0.1808  0.2218
  696TMC3    C510344   2.352   4.259  13.497  0.0748 -0.2591 -0.2422
  696TMC3    C610345   2.308   4.170  13.596 -0.6492 -0.3110 -0.0030
  696TMC3     C10346   2.691   4.136  13.427 -0.1559  0.0512  0.6986
  696TMC3     O10347   2.691   4.173  13.311 -0.4405 -0.2392 -0.0389
  696TMC3     H10348   2.588   4.004  13.661 -1.0954 -0.5692  0.7608
  696TMC3    H110349   2.518   4.326  13.385 -0.2795  0.2599  0.0104
  696TMC3    H210350   2.216   4.187  13.652  0.2300  0.0405  1.3476
  696TMC3    C710351   2.318   4.397  13.519 -0.5954 -0.5956  0.1742
  696TMC3    C810352   2.408   4.113  13.789  0.7764  0.2315 -0.2027
  696TMC3    O110353   2.292   4.470  13.423  0.2995 -0.4286 -0.2364
  696TMC3    O210354   2.418   4.224  13.827 -0.0023  0.1105 -0.6647
  697MPD2     C10355   2.578   1.268  15.478 -0.4041  0.0549  0.7910
  697MPD2    C110356   2.522   1.252  15.350  0.4560  0.2767  0.1408
  697MPD2    C210357   2.553   1.343  15.251 -0.2219  0.1510 -0.2094
  697MPD2    C310358   2.626   1.465  15.285  0.0639  0.7649  0.2760
  697MPD2    C410359   2.682   1.471  15.409  0.0519 -0.1270 -0.0765
  697MPD2    C510360   2.648   1.378  15.508 -0.2005  0.7146 -0.5624
  697MPD2     H10361   2.510   1.331  15.152 -0.4698  2.5249 -0.4027
  697MPD2    H110362   2.735   1.558  15.448 -1.2362  0.4087  0.4658
  697MPD2    H210363   2.555   1.201  15.561  0.6678 -0.3791  0.7455
  697MPD2    H310364   2.684   1.402  15.607  0.5126 -0.6748 -0.4934
  697MPD2     N10365   2.619   1.568  15.189  0.4986  0.0985  0.5629
  697MPD2    H510366   2.563   1.542  15.108  1.0334  1.8764 -0.3887
  697MPD2    N110367   2.431   1.148  15.320  0.5865  0.4412 -0.5416
  697MPD2    H710368   2.406   1.153  15.222  0.7532  1.9208 -0.5057
  698TMC3    C110369   2.598   1.782  15.105  0.0983  0.0554 -0.2246
  698TMC3    C210370   2.596   1.918  15.126 -0.2106  0.2249  0.4277
  698TMC3    C310371   2.571   2.001  15.020 -0.0983  0.1205  0.5278
  698TMC3    C410372   2.606   1.727  14.984 -0.1501  0.2039 -0.6218
  698TMC3    C510373   2.594   1.810  14.878 -0.4005  0.1141 -0.0755
  698TMC3    C610374   2.576   1.943  14.893  0.3266 -0.5938  0.7774
  698TMC3     C10375   2.638   1.698  15.219  0.3884  0.0401  0.1533
  698TMC3     O10376   2.655   1.748  15.330 -0.0956 -0.4696 -0.5579
  698TMC3     H10377   2.615   1.950  15.228  2.5024  1.5608 -0.4911
  698TMC3    H110378   2.626   1.622  14.967  0.7954  0.1323  0.8925
  698TMC3    H210379   2.568   2.003  14.803  1.0609 -1.5321  0.0868
  698TMC3    C710380   2.584   1.748  14.747 -0.8498  0.0254  0.1464
  698TMC3    C810381   2.611   2.138  15.044 -0.4122  0.2073  0.1927
  698TMC3    O110382   2.513   1.805  14.664 -0.1724  0.1664  0.4085
  698TMC3    O210383   2.607   2.185  15.154  0.1876 -0.1463 -0.3463
  699TMC3    C110384   2.399   4.016  13.104  0.9062 -0.4208 -0.0035
  699TMC3    C210385   2.472   3.940  13.197 -0.1558 -0.1306 -0.3172
  699TMC3    C310386   2.395   3.862  13.281 -0.8569 -0.8318 -0.2066
  699TMC3    C410387   2.263   4.010  13.098  0.6199  0.4170  0.0923
  699TMC3    C510388   2.196   3.928  13.189  0.6885 -0.6100 -0.3977
  699TMC3    C610389   2.258   3.841  13.268  0.2146  0.2561  0.0165
  699TMC3     C10390   2.470   4.079  12.992 -0.0265 -0.6038 -0.0648
  699TMC3     O10391   2.414   4.105  12.890  0.1695  0.3309 -0.1975
  699TMC3     H10392   2.579   3.950  13.205 -0.1450 -0.2768 -0.2870
  699TMC3    H110393   2.228   4.087  13.030  0.7510 -1.1832 -1.7716
  699TMC3    H210394   2.207   3.774  13.337 -2.5329  0.1884 -2.0910
  699TMC3    C710395   2.053   3.951  13.222  0.0380  0.1263  0.4526
  699TMC3    C810396   2.450   3.804  13.405 -0.4709  0.4233 -0.9238
  699TMC3    O110397   2.011   3.919  13.332 -0.2180  0.2337 -0.1017
  699TMC3    O210398   2.377   3.760  13.489 -0.3489 -0.4536  0.5642
  700TMC3    C110399   1.476   1.620  17.018  0.1375 -0.1392 -0.5510
  700TMC3    C210400   1.583   1.545  16.982  0.0857 -0.0226  0.7701
  700TMC3    C310401   1.684   1.552  17.079  0.3375 -0.3649 -0.2196
  700TMC3    C410402   1.466   1.698  17.127  0.2397 -0.4145 -0.0566
  700TMC3    C510403   1.567   1.703  17.220 -0.2104  0.0708 -0.1239
  700TMC3    C610404   1.675   1.626  17.194 -0.0797  0.1229 -0.3370
  700TMC3     C10405   1.403   1.654  16.907 -0.4815  0.0359 -0.5707
  700TMC3     O10406   1.351   1.569  16.833 -0.2115 -0.1126  0.0464
  700TMC3     H10407   1.589   1.490  16.888  0.3076 -0.7527  1.2055
  700TMC3    H110408   1.380   1.764  17.137  0.7356  0.1140  0.6971
  700TMC3    H210409   1.764   1.620  17.255 -0.8664  0.6896  0.8549
  700TMC3    C710410   1.582   1.808  17.323  0.5647 -0.5017  0.1849
  700TMC3    C810411   1.812   1.496  17.030 -0.1814 -0.2461 -0.1315
  700TMC3    O110412   1.672   1.787  17.404  0.4659  0.1319  0.3643
  700TMC3    O210413   1.808   1.412  16.942 -0.7229  0.1581  0.1052
  701TMC3    C110414   1.642   0.764  15.358  0.3265 -0.0940 -0.1871
  701TMC3    C210415   1.665   0.679  15.250 -0.0994  0.4184  0.0446
  701TMC3    C310416   1.747   0.716  15.150  0.6310  0.2312 -0.4240
  701TMC3    C410417   1.707   0.885  15.375  0.4233 -0.0417  0.0541
  701TMC3    C510418   1.795   0.905  15.276 -0.0935 -0.3162 -0.5741
  701TMC3    C610419   1.816   0.833  15.159  0.9470 -0.6784  0.5340
  701TMC3     C10420   1.533   0.729  15.447 -0.6233 -0.3305 -0.3123
  701TMC3     O10421   1.533   0.778  15.560  0.2303 -0.1043 -0.8871
  701TMC3     H10422   1.621   0.579  15.252  0.0560  0.3344 -0.9212
  701TMC3    H110423   1.685   0.950  15.458 -0.6091 -1.9224  1.2499
  701TMC3    H210424   1.890   0.859  15.084  0.9759 -2.4536 -0.0374
  701TMC3    C710425   1.882   1.022  15.295 -0.0226  0.1273 -0.3051
  701TMC3    C810426   1.795   0.615  15.054  0.3878  0.2601 -0.4982
  701TMC3    O110427   1.924   1.072  15.192  0.0045  0.4325  0.4330
  701TMC3    O210428   1.902   0.638  15.000 -0.3759 -0.5184 -0.6540
  702MPD2     C10429   1.361   2.674  10.896 -0.3324  0.0367  0.1912
  702MPD2    C110430   1.346   2.755  11.006 -0.0436  0.2797  0.1337
  702MPD2    C210431   1.349   2.893  10.989  0.2334 -0.0307 -0.1807
  702MPD2    C310432   1.362   2.954  10.863 -0.2108 -0.5675 -0.6891
  702MPD2    C410433   1.379   2.870  10.750 -0.6514  0.1185 -0.0181
  702MPD2    C510434   1.380   2.730  10.774  0.0368  0.2292  0.6468
  702MPD2     H10435   1.319   2.956  11.072 -0.6561  0.2469 -0.7146
  702MPD2    H110436   1.391   2.898  10.646 -1.5575 -0.7270 -0.3439
  702MPD2    H210437   1.363   2.566  10.899 -0.4147 -0.0312 -2.1958
  702MPD2    H310438   1.378   2.659  10.692 -0.0557  0.3747  0.5227
  702MPD2     N10439   1.358   3.094  10.846  0.3808 -0.8167  0.1671
  702MPD2    H510440   1.330   3.147  10.929 -1.1271  0.7656 -1.3355
  702MPD2    N110441   1.311   2.713  11.135 -0.0714 -0.0753  0.6584
  702MPD2    H710442   1.310   2.788  11.203  1.0392  0.2429  0.3385
  703TMC3    C110443   1.396   3.303  10.752  0.4103 -1.2466  0.5844
  703TMC3    C210444   1.305   3.352  10.836 -0.3698 -0.1073  0.5762
  703TMC3    C310445   1.316   3.482  10.869 -0.6648 -1.3115  0.2985
  703TMC3    C410446   1.503   3.377  10.708  0.7083  0.2199 -0.1387
  703TMC3    C510447   1.507   3.507  10.739 -0.1990  0.2156 -0.5324
  703TMC3    C610448   1.419   3.562  10.827  0.0003  0.5870 -0.9307
  703TMC3     C10449   1.400   3.161  10.734  0.6705 -0.6763  0.3311
  703TMC3     O10450   1.484   3.120  10.653 -0.8837 -0.0153  0.8155
  703TMC3     H10451   1.217   3.292  10.858  0.1241 -0.9315  0.2645
  703TMC3    H110452   1.576   3.336  10.641  0.2079  0.1127 -0.6160
  703TMC3    H210453   1.422   3.662  10.869 -0.4891  0.4591 -0.5955
  703TMC3    C710454   1.603   3.597  10.679  0.4627 -0.3596 -0.1194
  703TMC3    C810455   1.244   3.535  10.986 -0.5621  0.3802 -0.4136
  703TMC3    O110456   1.704   3.541  10.642  0.2598 -0.4313 -0.1212
  703TMC3    O210457   1.299   3.606  11.063  0.2446 -0.1834 -0.2239
  704TMC3    C110458   3.365   1.350  12.168 -0.5261  0.1848 -0.1094
  704TMC3    C210459   3.467   1.312  12.087 -0.1670 -0.0192  0.4056
  704TMC3    C310460   3.587   1.270  12.144 -0.7971 -0.1828  0.5111
  704TMC3    C410461   3.380   1.346  12.305  0.1485  0.0780 -0.3784
  704TMC3    C510462   3.496   1.297  12.357  0.2981 -0.6320  0.3940
  704TMC3    C610463   3.604   1.273  12.279 -0.1588 -0.5169 -0.0289
  704TMC3     C10464   3.274   1.453  12.134  0.2174  0.4827  0.0478
  704TMC3     O10465   3.217   1.514  12.220 -0.1610  0.3291  0.0619
  704TMC3     H10466   3.459   1.295  11.980 -1.2056 -2.0987  0.8135
  704TMC3    H110467   3.293   1.349  12.369 -0.2525  0.5620 -0.9456
  704TMC3    H210468   3.692   1.236  12.331 -1.5989 -2.9998  0.6320
  704TMC3    C710469   3.472   1.211  12.472  0.4085  0.2500 -0.3902
  704TMC3    C810470   3.658   1.162  12.075 -0.0587  0.0273 -0.6751
  704TMC3    O110471   3.381   1.130  12.458 -0.2173  0.3517  0.0401
  704TMC3    O210472   3.589   1.086  12.016 -0.4308  0.2059 -0.0016
  705MPD2     C10473   3.055   4.044  16.783  0.2196 -0.7434  0.0750
  705MPD2    C110474   3.064   4.176  16.819 -0.5419  0.6670 -0.2718
  705MPD2    C210475   2.961   4.227  16.898  0.5857  0.0931  0.0805
  705MPD2    C310476   2.860   4.145  16.950 -0.1625 -0.2708  0.1576
  705MPD2    C410477   2.853   4.013  16.918  0.8016  0.0416  0.0314
  705MPD2    C510478   2.957   3.962  16.841 -0.5094 -0.3687 -0.6743
  705MPD2     H10479   2.965   4.328  16.936 -2.3021  0.7850 -1.4600
  705MPD2    H110480   2.788   3.937  16.958 -1.1335  0.7331 -1.7522
  705MPD2    H210481   3.130   3.996  16.721  0.6813 -1.1232  0.9217
  705MPD2    H310482   2.956   3.857  16.815 -0.9738 -0.4562 -0.3092
  705MPD2     N10483   2.745   4.195  17.006  0.2786  0.2535  0.1666
  705MPD2    H510484   2.658   4.143  17.006  1.0066 -0.9423  0.6453
  705MPD2    N110485   3.148   4.269  16.752 -0.2368 -0.3459  0.0443
  705MPD2    H710486   3.128   4.367  16.766  0.0269 -0.3825  0.7086
  706TMC3    C110487   3.484   4.439  16.477 -0.0405  0.3732  0.1952
  706TMC3    C210488   3.407   4.550  16.444  0.1494  0.0657  0.6227
  706TMC3    C310489   3.277   4.549  16.484  0.1939 -0.2696 -0.0650
  706TMC3    C410490   3.443   4.341  16.563  0.0999  0.4865 -0.2515
  706TMC3    C510491   3.314   4.351  16.611  0.5140  0.0884 -0.3057
  706TMC3    C610492   3.229   4.456  16.566  0.3036 -0.7065 -0.6154
  706TMC3     C10493   3.598   4.422  16.382 -0.0609  0.3158 -0.2096
  706TMC3     O10494   3.657   4.523  16.349 -0.3328  0.1513 -0.1295
  706TMC3     H10495   3.426   4.619  16.363 -1.8124  1.2391  1.1513
  706TMC3    H110496   3.501   4.254  16.593 -2.1622 -1.3945 -1.3177
  706TMC3    H210497   3.123   4.449  16.585  0.7009  0.5603  1.9612
  706TMC3    C710498   3.263   4.237  16.681 -0.3961  0.2227 -0.4415
  706TMC3    C810499   3.184   4.635  16.403  0.5621 -0.2248 -0.9885
  706TMC3    O110500   3.321   4.129  16.652  0.7592  0.7042 -0.1370
  706TMC3    O210501   3.232   4.700  16.308  0.0760  0.3845 -0.1556
  707TMC3    C110502   4.668   3.599   0.500 -0.0091 -0.3091 -0.8132
  707TMC3    C210503   4.638   3.469   0.506 -0.4571 -0.1405 -0.3421
  707TMC3    C310504   4.517   3.423   0.453  0.4729 -0.4327 -0.1221
  707TMC3    C410505   4.603   3.671   0.400 -0.1458 -0.6140  0.0135
  707TMC3    C510506   4.494   3.614   0.336  0.1180 -0.0584  0.0832
  707TMC3    C610507   4.443   3.491   0.363  0.3371 -0.4828 -1.0419
  707TMC3     C10508   0.065   3.636   0.529  0.2761 -0.0492  0.3625
  707TMC3     O10509   0.086   3.754   0.567 -0.8147  0.2060 -0.7677
  707TMC3     H10510   4.694   3.411   0.578  0.4558  1.3050  0.0994
  707TMC3    H110511   4.642   3.766   0.365 -1.7231  0.0336  0.0402
  707TMC3    H210512   4.373   3.435   0.304 -0.1957  0.9628 -1.7858
  707TMC3    C710513   4.465   3.656   0.197  0.3963  0.4819  0.5136
  707TMC3    C810514   4.475   3.291   0.486  0.4679 -0.2827  0.4492
  707TMC3    O110515   4.488   3.775   0.170  0.0208  0.0953  0.1970
  707TMC3    O210516   4.409   3.228   0.404 -1.3475  0.2599  0.7192
  708MPD2     C10517   1.280   1.819  14.113 -0.1704 -0.0738  0.2639
  708MPD2    C110518   1.198   1.914  14.162  1.1674  0.3828  0.0841
  708MPD2    C210519   1.218   1.966  14.293 -0.0380  0.3552 -0.1157
  708MPD2    C310520   1.329   1.933  14.364 -0.7199  0.2107 -0.7701
  708MPD2    C410521   1.417   1.850  14.301  0.5320 -0.7264  0.6458
  708MPD2    C510522   1.387   1.778  14.185  0.2182  0.3331  1.3862
  708MPD2     H10523   1.159   2.039  14.347 -0.0747  1.4844 -1.6859
  708MPD2    H110524   1.505   1.817  14.354 -0.6796 -2.1816  1.7571
  708MPD2    H210525   1.252   1.763  14.024 -1.3684  0.9302  0.0061
  708MPD2    H310526   1.455   1.698  14.160 -0.4406  0.8219 -1.9087
  708MPD2     N10527   1.352   1.995  14.485 -0.7498 -0.5831 -0.1515
  708MPD2    H510528   1.276   2.057  14.513  0.7518  0.4285  1.6490
  708MPD2    N110529   1.084   1.948  14.088  0.4126  0.0222  0.3586
  708MPD2    H710530   1.071   1.914  13.993  1.1314  0.9695 -0.0683
  709TMC3    C110531   0.875   2.051  14.054  0.0468 -0.5375  0.0768
  709TMC3    C210532   0.913   2.088  13.932  0.4786 -0.5902  0.6583
  709TMC3    C310533   0.841   2.189  13.867 -0.2468  0.0448 -0.2581
  709TMC3    C410534   0.788   2.133  14.122  0.3952  0.5863  0.6425
  709TMC3    C510535   0.741   2.247  14.067 -0.6413 -0.5893  0.7432
  709TMC3    C610536   0.757   2.277  13.936 -0.4837 -0.5765 -0.2948
  709TMC3     C10537   0.991   2.022  14.146  0.1990  0.7835 -0.0074
  709TMC3     O10538   0.980   2.089  14.246 -0.0256 -0.7270  0.0131
  709TMC3     H10539   0.993   2.039  13.877  2.2016 -0.3088  2.9321
  709TMC3    H110540   0.752   2.097  14.217 -0.1130  0.4980  0.4212
  709TMC3    H210541   0.739   2.375  13.892 -0.5916 -0.2929  0.3830
  709TMC3    C710542   0.754   2.355  14.158 -0.3520 -0.0948  0.7784
  709TMC3    C810543   0.849   2.214  13.720  0.1053 -0.1299  0.0740
  709TMC3    O110544   0.701   2.464  14.127 -0.4286 -0.1527 -0.1160
  709TMC3    O210545   0.750   2.260  13.664  0.4138  0.5565 -0.4329
  710TMC3    C110546   2.503   3.449   0.402  0.0492 -0.1466 -0.5815
  710TMC3    C210547   2.554   3.377   0.295  0.7070 -0.1521 -0.4313
  710TMC3    C310548   2.687   3.350   0.306  0.0766 -0.4025 -0.3235
  710TMC3    C410549   2.575   3.477   0.513  0.1911 -0.2789  0.4955
  710TMC3    C510550   2.710   3.452   0.515 -0.4611  0.8602  0.7502
  710TMC3    C610551   2.769   3.396   0.410 -0.2729  0.2260  0.4826
  710TMC3     C10552   2.368   3.501   0.383 -0.0517  0.0569 -0.7281
  710TMC3     O10553   2.313   3.459   0.280 -0.2572 -0.2016 -0.1117
  710TMC3     H10554   2.500   3.341   0.209  1.0733  1.3502 -1.2882
  710TMC3    H110555   2.531   3.526   0.599 -0.5492  1.1763 -0.7270
  710TMC3    H210556   2.876   3.379   0.402 -0.5807 -1.2141 -0.5078
  710TMC3    C710557   2.781   3.516   0.627 -0.5635 -0.4945 -0.4793
  710TMC3    C810558   2.756   3.324   0.179  0.2462  0.3812  0.0250
  710TMC3    O110559   2.714   3.572   0.711 -0.3119 -0.0449 -0.2518
  710TMC3    O210560   2.872   3.366   0.171 -0.5165 -0.6981 -0.5630
  711TMC3    C110561   1.892   4.457  14.884 -0.2770 -0.7666 -1.3861
  711TMC3    C210562   1.931   4.582  14.929 -0.2377 -0.0985  0.3117
  711TMC3    C310563   2.021   4.586  15.039 -0.2162 -0.9432  0.5623
  711TMC3    C410564   1.942   4.338  14.925  0.5012  0.2297  0.0392
  711TMC3    C510565   2.037   4.349  15.026  0.1639 -0.2011 -0.4554
  711TMC3    C610566   2.072   4.466  15.084  0.3570  0.0599 -0.9915
  711TMC3     C10567   1.822   4.459  14.758  0.1767 -0.0003  1.2049
  711TMC3     O10568   1.731   4.534  14.744 -0.3616 -0.2708 -0.3806
  711TMC3     H10569   1.892   4.676  14.892 -0.7981 -0.3446  0.2871
  711TMC3    H110570   1.909   4.238  14.900 -0.4688  0.4640  0.3941
  711TMC3    H210571   2.153   4.471  15.157  0.2118 -0.3073 -0.8043
  711TMC3    C710572   2.106   4.228  15.076 -0.0218  0.7189 -0.0481
  711TMC3    C810573   2.105   4.704  15.036 -0.4018 -0.3638 -0.1468
  711TMC3    O110574   2.162   4.252  15.183  0.2335  0.3400  0.9455
  711TMC3    O210575   2.090   0.040  14.938  0.6723  0.0791  0.3492
  712MPD2     C10576   3.856   0.845  13.640 -0.8524 -0.0811 -0.2129
  712MPD2    C110577   3.743   0.917  13.601 -0.6075 -0.3985  0.4394
  712MPD2    C210578   3.745   1.055  13.625 -0.5425  0.0551  0.6351
  712MPD2    C310579   3.853   1.120  13.688  0.6001  0.2570 -0.0258
  712MPD2    C410580   3.962   1.041  13.714 -0.4864 -0.8203  0.4886
  712MPD2    C510581   3.961   0.910  13.699 -0.0853  0.5526  0.3597
  712MPD2     H10582   3.664   1.116  13.587 -2.8555 -2.1425  2.0060
  712MPD2    H110583   4.049   1.097  13.746 -1.7164  1.6980 -0.5721
  712MPD2    H210584   3.864   0.740  13.614  3.0341  0.2724 -0.3685
  712MPD2    H310585   4.050   0.850  13.715  0.1294  0.8598  0.3360
  712MPD2     N10586   3.865   1.256  13.712  0.2496 -0.9153 -0.1123
  712MPD2    H510587   3.954   1.287  13.748 -0.8548  0.3238  1.5358
  712MPD2    N110588   3.638   0.862  13.523 -0.4131  0.9985  0.4367
  712MPD2    H710589   3.563   0.922  13.493  1.2211  2.1211 -1.3390
  713TMC3    C110590   3.812   1.480  13.707 -0.2204 -0.6873  0.6390
  713TMC3    C210591   3.948   1.511  13.705 -0.0944  0.3689  0.5973
  713TMC3    C310592   3.975   1.647  13.727  0.0714  0.3545 -0.1298
  713TMC3    C410593   3.708   1.569  13.716 -0.0490  0.9319  0.4755
  713TMC3    C510594   3.740   1.698  13.735 -0.5156 -0.1127  0.8395
  713TMC3    C610595   3.873   1.733  13.749 -0.3497  0.4783  0.4654
  713TMC3     C10596   3.762   1.344  13.683  0.3692 -0.4063 -0.1786
  713TMC3     O10597   3.650   1.324  13.644 -0.1275  0.2209  0.0538
  713TMC3     H10598   4.024   1.438  13.677 -0.3943  1.4344 -2.9308
  713TMC3    H110599   3.604   1.541  13.709 -0.0246  1.2485 -1.1151
  713TMC3    H210600   3.898   1.834  13.776  4.1069  0.1641 -2.5316
  713TMC3    C710601   3.633   1.797  13.721  0.3671  0.0142 -0.3366
  713TMC3    C810602   4.099   1.686  13.666  0.0112 -0.0075  0.1120
  713TMC3    O110603   3.519   1.749  13.700  0.2087 -0.6151 -0.1190
  713TMC3    O210604   4.105   1.807  13.646 -0.0998  0.2305 -0.3979
  714MPD2     C10605   1.151   4.721   1.673  0.0072 -0.1159 -0.3075
  714MPD2    C110606   1.147   4.619   1.578  0.1279  0.0085  0.2255
  714MPD2    C210607   1.093   4.647   1.452  0.8579 -0.3583  0.1486
  714MPD2    C310608   1.040   0.029   1.415 -0.0281  0.6333 -0.1025
  714MPD2    C410609   1.049   0.129   1.508 -0.0101  0.1314 -0.5119
  714MPD2    C510610   1.106   0.105   1.632  0.3144  0.3529  0.3074
  714MPD2     H10611   1.075   4.571   1.378 -1.9039 -0.6888  1.1584
  714MPD2    H110612   1.028   0.234   1.489  1.4226  1.2173  3.8005
  714MPD2    H210613   1.194   4.712   1.773  0.0845 -2.3137 -0.5450
  714MPD2    H310614   1.118   0.188   1.700  1.7252 -0.7786  1.4565
  714MPD2     N10615   0.989   0.046   1.287 -0.2197  0.2067  0.0655
  714MPD2    H510616   0.975   4.704   1.227  0.1499 -0.1516  0.4682
  714MPD2    N110617   1.233   4.508   1.607 -0.4730 -0.2652 -0.0147
  714MPD2    H710618   1.292   4.522   1.688 -1.2772  1.2596  0.2966
  715TMC3    C110619   1.376   4.329   1.536 -0.2785  0.1595 -0.3100
  715TMC3    C210620   1.418   4.246   1.442  0.4103 -0.0256  0.2849
  715TMC3    C310621   1.532   4.173   1.473 -0.1129  0.6261 -0.2247
  715TMC3    C410622   1.439   4.345   1.659 -1.2376 -1.6469 -0.4947
  715TMC3    C510623   1.550   4.282   1.682  0.3596 -0.4956 -0.4625
  715TMC3    C610624   1.594   4.192   1.591 -0.2633 -0.5379  0.1384
  715TMC3     C10625   1.252   4.402   1.519  0.2028  0.0650  0.0369
  715TMC3     O10626   1.193   4.389   1.416 -0.3952  0.7126  0.7172
  715TMC3     H10627   1.368   4.229   1.348  1.0617 -0.4031  0.0027
  715TMC3    H110628   1.394   4.400   1.741  0.8306 -0.0078 -0.4501
  715TMC3    H210629   1.678   4.128   1.617 -0.6969 -0.6935  1.1431
  715TMC3    C710630   1.641   4.327   1.784  0.0056  0.4124  0.1777
  715TMC3    C810631   1.601   4.114   1.361  0.1638  0.1120  0.5901
  715TMC3    O110632   1.755   4.278   1.773 -0.2328  0.5669  0.8496
  715TMC3    O210633   1.539   4.115   1.258  0.1576  0.7256  0.0190
  716MPD2     C10634   1.136   2.949  10.337  0.0331  0.4698  0.8252
  716MPD2    C110635   1.111   2.977  10.211  0.4181 -0.6581 -0.2828
  716MPD2    C210636   1.132   2.876  10.120 -0.4640  0.2639  0.4589
  716MPD2    C310637   1.198   2.760  10.157  0.5101  1.2882  0.1625
  716MPD2    C410638   1.235   2.741  10.290  0.3773 -0.1748  0.4559
  716MPD2    C510639   1.187   2.830  10.378 -0.2225 -0.2827 -0.2735
  716MPD2     H10640   1.101   2.886  10.017 -0.3418  0.3052  0.4254
  716MPD2    H110641   1.285   2.652  10.325  1.6098  1.0007  1.6933
  716MPD2    H210642   1.115   3.016  10.419 -0.2492  1.5341 -0.1184
  716MPD2    H310643   1.211   2.812  10.482 -1.2176 -1.1996 -0.2022
  716MPD2     N10644   1.216   2.670  10.054 -0.4418 -0.2036 -0.2950
  716MPD2    H510645   1.184   2.700   9.962 -1.8211  1.9251  0.8944
  716MPD2    N110646   1.054   3.102  10.175  0.0857  0.0149  0.4028
  716MPD2    H710647   1.021   3.161  10.251  0.0511 -1.8232  1.8010
  717TMC3    C110648   1.289   2.486   9.946 -0.0570  0.0328  0.1973
  717TMC3    C210649   1.226   2.547   9.835  0.5136 -0.4093 -1.1112
  717TMC3    C310650   1.269   2.497   9.712 -0.3733 -0.2460 -0.6879
  717TMC3    C410651   1.387   2.392   9.926  0.0083  0.8524  0.0101
  717TMC3    C510652   1.413   2.335   9.806 -0.2622  0.2421 -0.2825
  717TMC3    C610653   1.358   2.394   9.693  0.0805  0.2441 -0.2017
  717TMC3     C10654   1.290   2.555  10.071  0.1888 -0.3497  0.3172
  717TMC3     O10655   1.340   2.506  10.167  0.4272  0.2885  0.1201
  717TMC3     H10656   1.133   2.603   9.841  0.7988  0.0107 -0.5604
  717TMC3    H110657   1.444   2.359  10.012  1.7789  1.8532 -0.7782
  717TMC3    H210658   1.403   2.373   9.597  1.1456 -0.0955  0.3667
  717TMC3    C710659   1.535   2.252   9.800 -0.1494  0.0152  0.0068
  717TMC3    C810660   1.183   2.545   9.607  0.0455  0.2350 -0.3810
  717TMC3    O110661   1.602   2.264   9.897  0.6891  0.3431  0.1085
  717TMC3    O210662   1.096   2.632   9.626 -0.2200 -0.3863 -0.3107
  718MPD2     C10663   0.277   1.721  12.412 -0.9060  0.3788  0.4964
  718MPD2    C110664   0.150   1.691  12.379 -0.7326  0.3915 -0.1160
  718MPD2    C210665   0.067   1.630  12.471  0.2185 -0.4623  0.7094
  718MPD2    C310666   0.112   1.596  12.601  0.1054  0.3862 -0.2167
  718MPD2    C410667   0.242   1.628  12.636  0.6196  0.4385  0.0349
  718MPD2    C510668   0.321   1.691  12.542  0.3434 -0.6812  0.1878
  718MPD2     H10669   4.710   1.588  12.444 -0.5563  1.0990  1.0356
  718MPD2    H110670   0.291   1.603  12.729  1.1815  2.9841  0.4112
  718MPD2    H210671   0.348   1.756  12.338 -0.8305  1.8392  1.2681
  718MPD2    H310672   0.423   1.719  12.565 -0.6590  3.3233 -0.1968
  718MPD2     N10673   0.025   1.515  12.676 -0.1505  0.2404 -0.3195
  718MPD2    H510674   4.673   1.496  12.636 -0.2369  0.6334 -0.3140
  718MPD2    N110675   0.122   1.688  12.240 -0.0775 -0.1204  0.3556
  718MPD2    H710676   0.190   1.720  12.172 -1.3036  2.4480  0.3414
  719TMC3    C110677   0.034   1.562  12.067  0.2163 -0.1377  0.1816
  719TMC3    C210678   4.677   1.468  12.050 -0.4088 -0.2063  0.8046
  719TMC3    C310679   4.722   1.339  12.035 -0.1288  0.7164  0.7670
  719TMC3    C410680   0.166   1.537  12.046  0.4881 -0.1867 -0.3352
  719TMC3    C510681   0.197   1.407  12.018  0.5444  0.0613 -0.1317
  719TMC3    C610682   0.111   1.303  12.024 -0.6704  0.0130 -0.4224
  719TMC3     C10683   0.007   1.638  12.188  0.5425 -0.0341  0.7970
  719TMC3     O10684   4.640   1.607  12.242 -0.6981  0.4489  0.2786
  719TMC3     H10685   4.572   1.491  12.063 -0.2336  1.2544 -0.4384
  719TMC3    H110686   0.243   1.613  12.047  0.2814  0.0144  0.1155
  719TMC3    H210687   0.140   1.201  12.006  0.1179  0.3436 -1.0278
  719TMC3    C710688   0.334   1.377  12.043 -0.1467 -0.2831  0.2287
  719TMC3    C810689   4.647   1.233  12.107  0.3776 -0.4956  0.5162
  719TMC3    O110690   0.412   1.470  12.013 -0.6801  0.1331  0.8507
  719TMC3    O210691   4.716   1.157  12.179 -0.6371 -0.4808  0.0568
  720MPD2     C10692   3.759   3.194  13.878  0.6292  0.5673  0.1495
  720MPD2    C110693   3.877   3.210  13.801  0.2560 -0.7107  0.3732
  720MPD2    C210694   3.989   3.244  13.873  0.0213  0.3774  0.6460
  720MPD2    C310695   3.992   3.244  14.017 -0.2985 -0.6975 -0.2308
  720MPD2    C410696   3.877   3.217  14.081 -0.3052 -0.3608 -0.5393
  720MPD2    C510697   3.762   3.188  14.015  0.0498 -0.2165  0.4780
  720MPD2     H10698   4.082   3.254  13.818  0.1583 -0.9926  0.6200
  720MPD2    H110699   3.875   3.205  14.188  1.4008 -2.5718 -0.7676
  720MPD2    H210700   3.662   3.174  13.833  0.4491  0.6741  0.4844
  720MPD2    H310701   3.676   3.165  14.077 -0.4009  1.9403  0.6503
  720MPD2     N10702   4.117   3.269  14.076 -0.2784  0.2433  0.6745
  720MPD2    H510703   4.193   3.295  14.014 -0.8956  1.8427  0.5844
  720MPD2    N110704   3.891   3.187  13.661 -0.0941  0.3748 -0.1054
  720MPD2    H710705   3.974   3.214  13.611  0.4097 -2.3562 -0.7205
  721TMC3    C110706   4.282   3.313  14.243  0.3670  0.2887  0.0903
  721TMC3    C210707   4.307   3.334  14.378 -1.0257  0.3083  0.4058
  721TMC3    C310708   4.432   3.379  14.410  0.0992  0.2992  0.2960
  721TMC3    C410709   4.385   3.328  14.148  0.8904  0.1403  0.2451
  721TMC3    C510710   4.508   3.365  14.193  0.0660  0.1400  0.2984
  721TMC3    C610711   4.530   3.399  14.319 -0.4050 -0.5296  0.3289
  721TMC3     C10712   4.147   3.265  14.209 -0.3815  0.8032 -0.4688
  721TMC3     O10713   4.067   3.237  14.299  0.0533  0.6081  0.1409
  721TMC3     H10714   4.229   3.319  14.452 -0.0281 -1.8919  1.0353
  721TMC3    H110715   4.375   3.285  14.049  2.5507 -3.5591  1.7147
  721TMC3    H210716   4.632   3.413  14.353 -0.0776  0.8160 -1.2105
  721TMC3    C710717   4.620   3.313  14.114  0.8365  0.0546 -0.3153
  721TMC3    C810718   4.484   3.363  14.545  0.3195  0.6987  0.0421
  721TMC3    O110719   4.649   3.354  14.005  0.3811  0.3763 -0.4750
  721TMC3    O210720   4.604   3.372  14.558 -0.1803  0.1086 -0.2312
  722MPD2     C10721   2.755   1.739  13.211 -0.4007  0.3136  0.2551
  722MPD2    C110722   2.679   1.856  13.211  0.1056  0.7587 -0.0513
  722MPD2    C210723   2.560   1.856  13.146 -1.1375 -0.7345  1.1289
  722MPD2    C310724   2.513   1.754  13.073  0.0225  0.0908 -0.3545
  722MPD2    C410725   2.592   1.637  13.071  0.2735  0.0258 -0.0879
  722MPD2    C510726   2.714   1.637  13.133  0.2004  0.4810 -0.1911
  722MPD2     H10727   2.492   1.940  13.157 -1.5352 -1.2167  2.3740
  722MPD2    H110728   2.567   1.550  13.013 -0.1679  0.4602 -0.5474
  722MPD2    H210729   2.852   1.731  13.258  0.0931 -1.0179 -0.9821
  722MPD2    H310730   2.766   1.542  13.142 -1.0826 -0.3252 -1.2690
  722MPD2     N10731   2.394   1.774  13.003 -0.8366 -0.4574 -0.2991
  722MPD2    H510732   2.342   1.860  13.016  2.0956  1.2790 -0.2220
  722MPD2    N110733   2.725   1.976  13.277 -0.0765  0.3538  0.2897
  722MPD2    H710734   2.679   2.065  13.261  0.1656  0.3256 -0.5957
  723TMC3    C110735   2.208   1.744  12.874  0.5695  0.0217 -0.2294
  723TMC3    C210736   2.106   1.658  12.840  0.5692  0.7011 -0.5749
  723TMC3    C310737   1.978   1.708  12.829 -0.2756 -0.4957  0.4397
  723TMC3    C410738   2.184   1.885  12.891 -0.6288 -0.8329 -0.6588
  723TMC3    C510739   2.052   1.934  12.882 -0.6386 -0.1354 -0.2058
  723TMC3    C610740   1.951   1.844  12.849  0.7440 -0.1080 -0.8787
  723TMC3     C10741   2.335   1.684  12.919 -0.3708  1.3981 -0.4675
  723TMC3     O10742   2.357   1.563  12.906  0.3810  0.6890 -0.5554
  723TMC3     H10743   2.127   1.552  12.841  2.2707  1.0459  2.1999
  723TMC3    H110744   2.265   1.956  12.905 -1.6029 -0.1521  1.3969
  723TMC3    H210745   1.850   1.873  12.876  1.2743  0.8771  0.0481
  723TMC3    C710746   2.022   2.074  12.904  0.1196  0.0894 -0.1166
  723TMC3    C810747   1.874   1.619  12.775  0.1479  0.0977 -0.0158
  723TMC3    O110748   2.094   2.133  12.984  0.3944  0.5274 -1.0140
  723TMC3    O210749   1.781   1.675  12.720  0.5851 -0.2225  0.5040
  724TMC3    C110750   3.181   4.520  10.358  0.2354 -1.0930 -0.0387
  724TMC3    C210751   3.226   4.577  10.237 -0.6212 -0.2805 -0.4226
  724TMC3    C310752   3.321   4.675  10.240 -0.1333 -0.0743  0.1298
  724TMC3    C410753   3.208   4.575  10.479 -0.2127  0.4300 -1.1693
  724TMC3    C510754   3.286   4.688  10.478 -0.2305  0.0615  0.3128
  724TMC3    C610755   3.342   4.734  10.359  0.3753  0.6918 -0.0030
  724TMC3     C10756   3.080   4.410  10.362  0.3710  0.3508  0.7561
  724TMC3     O10757   3.085   4.334  10.458 -0.3586  0.3398 -0.0400
  724TMC3     H10758   3.220   4.515  10.148  1.1787  0.1700 -0.8613
  724TMC3    H110759   3.152   4.541  10.566  0.5211 -0.5819 -1.0894
  724TMC3    H210760   3.418   0.072  10.350  2.2276 -1.0625  0.8595
  724TMC3    C710761   3.288   0.031  10.602  0.5619  0.7193 -0.3406
  724TMC3    C810762   3.362   4.717  10.106  0.1673 -0.4161 -1.3299
  724TMC3    O110763   3.228   4.710  10.694  0.3065 -0.3373  0.1393
  724TMC3    O210764   3.288   4.666  10.018  0.0891 -0.1891 -0.2793
  725TMC3    C110765   0.247   3.268  12.841  0.6030 -0.1692  1.3361
  725TMC3    C210766   0.133   3.301  12.766  0.0851 -0.3850 -0.3383
  725TMC3    C310767   0.104   3.218  12.661 -0.5500  0.3734 -0.3122
  725TMC3    C410768   0.315   3.149  12.818 -0.3314 -0.0513 -0.2057
  725TMC3    C510769   0.272   3.068  12.717 -0.8387 -0.0083  0.1509
  725TMC3    C610770   0.166   3.101  12.630  0.2132  0.0251  0.5411
  725TMC3     C10771   0.290   3.368  12.937 -0.2860  0.0850  0.1466
  725TMC3     O10772   0.236   3.480  12.922 -0.2534 -0.0761  0.1874
  725TMC3     H10773   0.073   3.390  12.774 -2.0526 -1.7677 -1.1716
  725TMC3    H110774   0.399   3.132  12.883 -0.9240 -0.0816  0.5478
  725TMC3    H210775   0.133   3.037  12.548  0.3058 -1.0307  1.3207
  725TMC3    C710776   0.359   2.956  12.693  0.3305  0.2842 -0.1980
  725TMC3    C810777   4.714   3.240  12.596  0.1993  0.1627 -0.3619
  725TMC3    O110778   0.475   2.961  12.729  0.4816 -0.0128 -0.5484
  725TMC3    O210779   4.639   3.142  12.577  0.2382  0.0888  0.0206
  726MPD2     C10780   2.439   4.738  10.525 -0.6040  0.2329 -0.2359
  726MPD2    C110781   2.335   0.054  10.457  0.2845 -0.4148  0.0566
  726MPD2    C210782   2.211   0.003  10.466  0.3808 -0.4978 -0.0686
  726MPD2    C310783   2.187   4.626  10.538 -0.2635 -0.5474 -0.7111
  726MPD2    C410784   2.294   4.569  10.606  0.1588  0.2984 -0.4763
  726MPD2    C510785   2.423   4.621  10.588 -0.5056 -0.3091  0.7665
  726MPD2     H10786   2.136   0.058  10.410 -0.1880 -1.2964 -0.0881
  726MPD2    H110787   2.265   4.486  10.669 -0.6281 -0.3676 -1.7166
  726MPD2    H210788   2.539   0.042  10.521  0.1276 -1.6780 -2.3824
  726MPD2    H310789   2.507   4.579  10.643  0.4376 -1.6073 -1.6709
  726MPD2     N10790   2.059   4.572  10.553  0.1820  0.0657  1.2219
  726MPD2    H510791   2.046   4.482  10.599  2.1854 -1.5474 -1.3609
  726MPD2    N110792   2.350   0.178  10.395 -0.0072 -0.2537 -0.3023
  726MPD2    H710793   2.274   0.210  10.336 -0.4747  1.1771  1.0779
  727TMC3    C110794   2.444   0.379  10.306 -0.1017 -0.1228  0.8723
  727TMC3    C210795   2.473   0.505  10.353  0.0981  0.5105  0.4788
  727TMC3    C310796   2.444   0.608  10.271 -0.0490 -0.2821  0.1579
  727TMC3    C410797   2.363   0.357  10.200  0.4569 -0.3412 -0.0923
  727TMC3    C510798   2.320   0.471  10.130  0.3300  0.7357 -0.0698
  727TMC3    C610799   2.372   0.594  10.158 -0.4960 -0.2985 -0.3331
  727TMC3     C10800   2.457   0.264  10.396 -0.3454  0.0542 -0.3941
  727TMC3     O10801   2.557   0.259  10.471 -0.5179  0.1865 -0.5084
  727TMC3     H10802   2.535   0.520  10.441 -0.1194 -2.6709  1.1675
  727TMC3    H110803   2.346   0.256  10.164  0.0775 -0.2638 -0.1231
  727TMC3    H210804   2.360   0.681  10.095 -0.7130  1.7411  2.5157
  727TMC3    C710805   2.242   0.449  10.010 -0.2994 -0.4312 -0.2425
  727TMC3    C810806   2.490   0.739  10.306 -0.7327  0.7721  0.7865
  727TMC3    O110807   2.228   0.337   9.963  0.7490  0.2085  0.1225
  727TMC3    O210808   2.600   0.744  10.358 -0.0555  0.1869 -0.4556
  728TMC3    C110809   1.563   3.349  14.988 -0.3673  0.7661  0.1505
  728TMC3    C210810   1.652   3.283  14.909  1.1923  1.0813  0.2336
  728TMC3    C310811   1.613   3.275  14.777  1.0818  0.2104 -0.1715
  728TMC3    C410812   1.455   3.419  14.941 -0.1943  0.2939  0.3389
  728TMC3    C510813   1.426   3.417  14.808 -0.1245  0.0420 -0.1619
  728TMC3    C610814   1.504   3.348  14.722 -0.5731 -0.8724 -0.7483
  728TMC3     C10815   1.621   3.395  15.118 -0.1601  0.0847  0.5565
  728TMC3     O10816   1.729   3.352  15.155  0.4023  0.2930 -0.7182
  728TMC3     H10817   1.733   3.226  14.953 -1.1595 -0.3365  2.7111
  728TMC3    H110818   1.381   3.471  15.002  0.5987  2.1117 -0.2346
  728TMC3    H210819   1.490   3.338  14.615  0.1953 -0.8944 -0.8489
  728TMC3    C710820   1.296   3.457  14.761 -0.8077 -0.3241  0.2252
  728TMC3    C810821   1.715   3.227  14.691 -0.1878  0.1272 -0.8833
  728TMC3    O110822   1.204   3.451  14.840 -0.0728 -0.2745 -0.2692
  728TMC3    O210823   1.683   3.173  14.587  0.0441 -0.3232 -0.6450
  729MPD2     C10824   3.227   0.156  16.625 -0.1062  0.7830 -0.2472
  729MPD2    C110825   3.353   0.171  16.673  0.3912 -0.1699  0.7268
  729MPD2    C210826   3.378   0.170  16.809  0.6522 -0.3154  0.3014
  729MPD2    C310827   3.273   0.165  16.894  0.3005  1.0211  0.1310
  729MPD2    C410828   3.142   0.154  16.847  0.3968  0.1435  0.2926
  729MPD2    C510829   3.124   0.147  16.708  0.3412 -0.1422  0.6367
  729MPD2     H10830   3.480   0.172  16.847  0.6998 -0.6130  0.1900
  729MPD2    H110831   3.057   0.143  16.914  1.9455 -2.2673  1.8860
  729MPD2    H210832   3.214   0.161  16.517 -0.6986  1.6589 -0.1327
  729MPD2    H310833   3.026   0.138  16.662  0.3728  1.8195  0.1990
  729MPD2     N10834   3.291   0.174  17.034 -0.6610 -0.5840  0.0400
  729MPD2    H510835   3.203   0.172  17.085 -1.0209  1.1340 -0.4775
  729MPD2    N110836   3.456   0.195  16.578  0.6985 -0.3187  0.3244
  729MPD2    H710837   3.440   0.192  16.478 -1.3471 -1.8507  0.7134
  730TMC3    C110838   3.368   0.277  17.236 -0.5362  0.4750  0.4511
  730TMC3    C210839   3.470   0.292  17.325 -0.0068 -0.3078  0.1320
  730TMC3    C310840   3.458   0.381  17.426  0.9190 -0.0175  0.0481
  730TMC3    C410841   3.248   0.339  17.250  0.2591  0.4214 -0.7947
  730TMC3    C510842   3.244   0.431  17.348  0.5467 -0.1153 -0.2826
  730TMC3    C610843   3.344   0.450  17.440  0.0722  0.0473  0.2948
  730TMC3     C10844   3.402   0.208  17.109  0.4268  0.1749  0.4943
  730TMC3     O10845   3.521   0.211  17.081 -0.1348  0.5071  0.3257
  730TMC3     H10846   3.568   0.253  17.300  0.3112  0.6218 -0.0900
  730TMC3    H110847   3.177   0.328  17.169  0.3687 -1.2000 -0.6622
  730TMC3    H210848   3.341   0.530  17.514  0.1935  2.0180 -1.8374
  730TMC3    C710849   3.190   0.558  17.299 -0.2799  0.1518 -0.8432
  730TMC3    C810850   3.563   0.398  17.518 -0.1938  0.0948 -0.4900
  730TMC3    O110851   3.160   0.571  17.184 -0.0618  0.3837 -0.3382
  730TMC3    O210852   3.673   0.403  17.459 -0.5372  0.0107  0.2563
  731MPD2     C10853   3.893   2.877  12.605  0.7354 -0.3714 -0.5228
  731MPD2    C110854   3.847   2.749  12.608 -0.3334  0.0654  0.0281
  731MPD2    C210855   3.822   2.680  12.724  0.1500 -1.3046 -0.3913
  731MPD2    C310856   3.862   2.736  12.839  0.0493  0.3214 -0.6880
  731MPD2    C410857   3.910   2.866  12.834  0.2465  0.0266 -0.0500
  731MPD2    C510858   3.912   2.939  12.726 -0.1079  0.6981  0.6939
  731MPD2     H10859   3.783   2.579  12.729  1.0010 -1.5977  0.3070
  731MPD2    H110860   3.928   2.914  12.930 -0.9203 -1.6853  1.0260
  731MPD2    H210861   3.907   2.934  12.514  1.1728  1.8954  0.9839
  731MPD2    H310862   3.948   3.040  12.732  0.5371  0.5082  0.0607
  731MPD2     N10863   3.827   2.662  12.953  0.1486  0.2737 -0.1451
  731MPD2    H510864   3.815   2.562  12.941  1.2545  0.3980 -2.2496
  731MPD2    N110865   3.819   2.687  12.482  0.3217 -0.3315  0.1062
  731MPD2    H710866   3.838   2.748  12.402  0.1190 -1.0442 -0.4833
  732TMC3    C110867   3.723   2.533  12.338  0.0092  0.0922 -0.8693
  732TMC3    C210868   3.604   2.471  12.316 -0.5472 -0.4619 -0.1255
  732TMC3    C310869   3.554   2.471  12.193  0.3017 -0.2154 -0.5199
  732TMC3    C410870   3.794   2.584  12.239 -0.2122  0.7007 -0.0794
  732TMC3    C510871   3.742   2.580  12.109  0.3271  0.5161  0.0136
  732TMC3    C610872   3.615   2.530  12.088 -0.2789 -0.1893 -0.2333
  732TMC3     C10873   3.750   2.570  12.469  0.4557 -0.3953  0.1370
  732TMC3     O10874   3.697   2.502  12.554 -0.1590  0.1571 -0.0434
  732TMC3     H10875   3.573   2.404  12.395  1.8860  0.4314  1.5828
  732TMC3    H110876   3.888   2.635  12.257  0.6120 -0.5206 -0.9516
  732TMC3    H210877   3.571   2.528  11.989 -1.1454 -0.0409  0.1477
  732TMC3    C710878   3.835   2.571  12.006  0.3048  0.2408  0.0181
  732TMC3    C810879   3.411   2.430  12.173  0.0152  0.1044  0.5149
  732TMC3    O110880   3.791   2.588  11.895 -0.0489 -0.7749 -0.1599
  732TMC3    O210881   3.367   2.432  12.061  0.4068 -0.0588  0.3668
  733TMC3    C110882   4.559   1.293  13.017 -0.3030  0.1029 -0.2909
  733TMC3    C210883   4.656   1.377  12.986 -0.2864 -0.4931  0.8175
  733TMC3    C310884   4.684   1.390  12.849 -0.7028 -0.0963  0.0493
  733TMC3    C410885   4.494   1.207  12.932 -0.5356  0.6016 -0.3736
  733TMC3    C510886   4.523   1.217  12.798  0.3756 -0.1695  0.8258
  733TMC3    C610887   4.621   1.305  12.756  0.6282  0.1921 -0.4335
  733TMC3     C10888   4.503   1.324  13.147  0.1887  0.8383  0.0386
  733TMC3     O10889   4.525   1.431  13.204  0.1983 -0.5979 -0.1681
  733TMC3     H10890   4.712   1.438  13.056 -1.5820  0.7551  0.7603
  733TMC3    H110891   4.406   1.150  12.959  0.5937 -1.3822 -0.8866
  733TMC3    H210892   4.621   1.323  12.649  1.4594 -2.9423 -0.9423
  733TMC3    C710893   4.416   1.184  12.709 -0.1977  0.6997 -0.0974
  733TMC3    C810894   0.054   1.476  12.805  0.8101  0.3478  0.1752
  733TMC3    O110895   4.307   1.212  12.749 -0.5565  0.4751  0.7275
  733TMC3    O210896   0.132   1.518  12.889  0.3860 -0.1796  0.1052
  734MPD2     C10897   2.959   3.402  11.949  0.7881 -0.0895 -0.4321
  734MPD2    C110898   2.862   3.501  11.961  0.4659  0.5042  0.3307
  734MPD2    C210899   2.787   3.524  11.851 -0.1351 -0.0085 -0.0109
  734MPD2    C310900   2.806   3.452  11.731  0.3344 -0.4573  0.2344
  734MPD2    C410901   2.901   3.350  11.727  0.1520 -0.3504  0.2372
  734MPD2    C510902   2.977   3.330  11.838  0.3268  0.8406  0.2420
  734MPD2     H10903   2.715   3.605  11.847 -2.8071 -2.3178  0.5642
  734MPD2    H110904   2.922   3.293  11.637  0.1087 -1.6353  1.0491
  734MPD2    H210905   3.017   3.381  12.038 -0.1063 -1.1401 -0.0920
  734MPD2    H310906   3.061   3.262  11.833  0.7293  1.3546  0.0782
  734MPD2     N10907   2.714   3.478  11.627  0.1547  0.4633 -0.0903
  734MPD2    H510908   2.651   3.555  11.645  0.3561  0.5388  0.3140
  734MPD2    N110909   2.833   3.559  12.084  0.4770 -0.0036  0.1806
  734MPD2    H710910   2.899   3.538  12.157  0.7957 -0.9189 -0.3704
  735TMC3    C110911   2.686   3.629  12.252  0.2535  0.3781  0.7067
  735TMC3    C210912   2.551   3.663  12.275 -0.0280  1.1173  0.7852
  735TMC3    C310913   2.470   3.576  12.335  0.1054  0.3182  0.2391
  735TMC3    C410914   2.740   3.533  12.332  0.0658 -0.7380  0.0784
  735TMC3    C510915   2.659   3.454  12.406  0.7180  0.3850  0.0959
  735TMC3    C610916   2.520   3.461  12.392  0.2639 -0.0541 -0.3095
  735TMC3     C10917   2.724   3.637  12.113  0.3246 -0.2164  0.1627
  735TMC3     O10918   2.643   3.684  12.036 -0.4022 -0.0020 -0.6568
  735TMC3     H10919   2.507   3.753  12.234  0.1159  0.8081 -0.0341
  735TMC3    H110920   2.847   3.519  12.322  0.0982 -1.2311  1.0993
  735TMC3    H210921   2.452   3.387  12.433  1.3756 -0.4630  0.7617
  735TMC3    C710922   2.712   3.324  12.429  0.2835 -0.8897  0.1419
  735TMC3    C810923   2.362   3.533  12.255  0.3175 -0.4392  0.3528
  735TMC3    O110924   2.813   3.292  12.370  0.2135 -0.2185 -0.4685
  735TMC3    O210925   2.266   3.484  12.315 -0.4323 -0.4928 -0.0488
  736MPD2     C10926   2.583   3.053  12.639  0.2281  0.2931  0.3995
  736MPD2    C110927   2.656   3.120  12.541 -0.6668  0.3596 -0.5071
  736MPD2    C210928   2.727   3.038  12.454 -0.6218 -0.0217  0.3527
  736MPD2    C310929   2.729   2.897  12.458  0.3818  0.2066 -0.3900
  736MPD2    C410930   2.653   2.837  12.559  0.2172  0.2136  0.4851
  736MPD2    C510931   2.584   2.912  12.651 -0.5804  0.4008 -0.2502
  736MPD2     H10932   2.771   3.081  12.365  1.2547  1.7472  2.1698
  736MPD2    H110933   2.649   2.730  12.568 -4.0377  0.3508  0.1344
  736MPD2    H210934   2.513   3.100  12.707 -1.2759  1.5112 -1.9863
  736MPD2    H310935   2.519   2.861  12.721  3.3861  0.1042  3.2191
  736MPD2     N10936   2.790   2.832  12.350 -0.0672 -0.0990  0.3799
  736MPD2    H510937   2.828   2.879  12.268 -1.7001 -1.5043 -1.1897
  736MPD2    N110938   2.644   3.257  12.527  0.0474  0.3626  0.9075
  736MPD2    H710939   2.566   3.302  12.575 -1.2738 -1.3473  0.3637
  737TMC3    C110940   2.856   2.665  12.202 -0.4188  0.3253  0.0098
  737TMC3    C210941   2.901   2.774  12.131 -0.5747 -0.5311  0.7204
  737TMC3    C310942   2.920   2.752  11.997  0.1566 -0.1479 -0.0348
  737TMC3    C410943   2.824   2.542  12.146  1.1243  0.6153 -0.4577
  737TMC3    C510944   2.850   2.528  12.019 -0.2179 -0.7972 -1.0299
  737TMC3    C610945   2.894   2.632  11.944 -0.3438  0.5143 -0.3627
  737TMC3     C10946   2.799   2.695  12.328  0.7545  0.0965  0.0236
  737TMC3     O10947   2.768   2.600  12.398  0.1688 -0.0001 -0.5573
  737TMC3     H10948   2.947   2.861  12.177 -0.4311  0.7344 -1.7690
  737TMC3    H110949   2.780   2.456  12.196 -1.6267  1.5758 -1.2581
  737TMC3    H210950   2.909   2.627  11.837  1.0654 -0.5217 -0.1186
  737TMC3    C710951   2.792   2.418  11.949  0.0889 -0.1691 -1.0408
  737TMC3    C810952   3.005   2.846  11.913  0.1673  0.2722 -0.5407
  737TMC3    O110953   2.719   2.343  12.009 -0.0246 -0.1116  0.3151
  737TMC3    O210954   3.078   2.922  11.973 -0.0378  0.0370  0.0133
  738MPD2     C10955   2.867   2.277  15.105  0.6008  0.4901  0.4793
  738MPD2    C110956   2.815   2.262  14.980  0.2533  0.5487 -0.4905
  738MPD2    C210957   2.891   2.309  14.869  0.1168  0.5055  0.0869
  738MPD2    C310958   3.020   2.364  14.891 -0.0486  0.0218 -0.6365
  738MPD2    C410959   3.074   2.358  15.017  0.5582  1.5321 -0.8685
  738MPD2    C510960   2.996   2.320  15.126  0.3061 -0.6393 -0.2142
  738MPD2     H10961   2.846   2.299  14.771 -0.1860 -0.7401  0.3485
  738MPD2    H110962   3.171   2.404  15.032  2.3983 -1.8058 -2.6553
  738MPD2    H210963   2.823   2.239  15.197 -2.0321 -2.6666 -2.1213
  738MPD2    H310964   3.030   2.335  15.228 -0.5294  1.9367 -0.2983
  738MPD2     N10965   3.106   2.413  14.787 -0.1335 -0.1786  0.0298
  738MPD2    H510966   3.194   2.450  14.821  0.4270  0.9413 -2.6840
  738MPD2    N110967   2.697   2.189  14.945 -0.2595  0.3887 -0.1109
  738MPD2    H710968   2.690   2.158  14.848 -0.7099  1.4408 -0.4207
  739TMC3    C110969   3.192   2.453  14.572 -0.0087 -0.5925 -0.7990
  739TMC3    C210970   3.161   2.476  14.441 -0.4865  1.2485 -0.5041
  739TMC3    C310971   3.249   2.446  14.343 -0.4056 -0.6079  0.3293
  739TMC3    C410972   3.317   2.423  14.616  0.3431 -0.5206 -0.6120
  739TMC3    C510973   3.396   2.381  14.517  0.0330  0.1089  0.7661
  739TMC3    C610974   3.372   2.389  14.381  0.0177 -0.1257  0.6493
  739TMC3     C10975   3.077   2.420  14.654  0.1741 -0.0842  0.0170
  739TMC3     O10976   2.978   2.386  14.595 -0.0840  0.5476  0.0605
  739TMC3     H10977   3.056   2.500  14.427 -0.8446 -0.1127 -0.1264
  739TMC3    H110978   3.342   2.393  14.717 -0.7491 -0.5470 -0.3513
  739TMC3    H210979   3.447   2.361  14.309 -0.4761  2.4396 -0.8616
  739TMC3    C710980   3.526   2.341  14.567  0.0160  0.2929  0.0262
  739TMC3    C810981   3.184   2.385  14.222 -0.0011  0.1327 -0.0091
  739TMC3    O110982   3.565   2.405  14.665 -0.5287 -0.7289 -0.0867
  739TMC3    O210983   3.068   2.409  14.224 -0.9679 -0.8414  0.0052
  740TMC3    C110984   3.746   3.473  14.379  0.0950  0.3069 -0.4462
  740TMC3    C210985   3.792   3.436  14.504  0.3675  0.2807 -0.4329
  740TMC3    C310986   3.924   3.467  14.533  0.6505 -0.3900  0.3614
  740TMC3    C410987   3.829   3.524  14.275 -0.6145 -0.3346  0.3382
  740TMC3    C510988   3.956   3.554  14.319 -0.2923  0.2361 -0.1536
  740TMC3    C610989   4.006   3.536  14.444 -0.7421  0.5039 -0.3872
  740TMC3     C10990   3.605   3.504  14.368 -0.1730 -0.1332  0.4003
  740TMC3     O10991   3.582   3.557  14.262 -0.2278 -0.0387 -0.5339
  740TMC3     H10992   3.727   3.406  14.585  2.4661  0.7909  1.4414
  740TMC3    H110993   3.801   3.545  14.173  1.1241  1.3811  0.2180
  740TMC3    H210994   4.111   3.554  14.462 -0.1212 -1.7091 -1.6728
  740TMC3    C710995   4.061   3.584  14.222  1.2321 -0.0426  0.0592
  740TMC3    C810996   3.992   3.365  14.612  0.7876  0.0835 -0.2186
  740TMC3    O110997   4.162   3.625  14.269 -0.4680 -0.5381  0.2270
  740TMC3    O210998   4.101   3.406  14.647 -0.2564 -0.9788  0.0128
  741TMC3    C110999   2.874   2.977  14.007  0.6018 -0.8305  0.2358
  741TMC3    C211000   2.788   2.874  14.006  0.3283  0.1896 -0.4128
  741TMC3    C311001   2.813   2.761  14.076  0.1328 -0.0020  0.2547
  741TMC3    C411002   2.984   2.968  14.084 -0.7291  0.4949  0.4388
  741TMC3    C511003   3.005   2.856  14.149 -0.9177  0.0710  0.2098
  741TMC3    C611004   2.933   2.742  14.134 -0.1053  0.1777  0.4629
  741TMC3     C11005   2.889   3.067  13.895 -0.4584  0.4475  0.3195
  741TMC3     O11006   2.998   3.125  13.891  0.1399  0.1439  0.4660
  741TMC3     H11007   2.697   2.875  13.947 -1.9518 -1.4684  3.0446
  741TMC3    H111008   3.032   3.057  14.122 -2.2238  1.2934  0.4441
  741TMC3    H211009   2.941   2.662  14.206 -1.9776 -0.6433 -0.2284
  741TMC3    C711010   3.143   2.820  14.176  0.2405 -0.0227 -0.2902
  741TMC3    C811011   2.706   2.664  14.078 -0.5143  0.4032  0.0043
  741TMC3    O111012   3.156   2.736  14.267 -0.1830  0.5863  0.5105
  741TMC3    O211013   2.597   2.708  14.040 -0.1907  0.2402  0.2352
  742TMC3    C111014   2.797   0.981  15.674  0.7154  0.0766  0.2545
  742TMC3    C211015   2.696   0.913  15.611  0.1712  0.7599  0.4085
  742TMC3    C311016   2.718   0.789  15.553 -0.1843  0.3163  0.2623
  742TMC3    C411017   2.906   0.914  15.710  0.3183  0.2367  0.3009
  742TMC3    C511018   2.919   0.783  15.663 -0.2443  0.3722  0.1608
  742TMC3    C611019   2.823   0.712  15.588  0.3317 -0.2276 -0.1536
  742TMC3     C11020   2.764   1.092  15.752  0.1945 -0.3575 -0.1756
  742TMC3     O11021   2.652   1.107  15.802 -0.0386  0.4116 -0.4411
  742TMC3     H11022   2.625   0.979  15.563  1.0257  1.4691  0.0976
  742TMC3    H111023   2.973   0.963  15.779  1.4957 -1.6718  0.5078
  742TMC3    H211024   2.836   0.611  15.551 -0.1221 -0.7411  1.0719
  742TMC3    C711025   3.045   0.718  15.670  0.2540 -0.2166  0.4835
  742TMC3    C811026   2.666   0.767  15.422  0.0944  0.2790 -0.3523
  742TMC3    O111027   3.052   0.616  15.603 -0.5725  0.4980 -0.1516
  742TMC3    O211028   2.671   0.650  15.384 -0.0323 -0.1337 -0.1565
  743MPD2     C11029   0.001   3.292   1.629  0.2140 -0.2246 -0.1405
  743MPD2    C111030   0.106   3.209   1.581 -0.6322 -0.9133 -0.0294
  743MPD2    C211031   0.235   3.236   1.623  0.3696  0.3568 -0.7758
  743MPD2    C311032   0.262   3.334   1.719  0.3411  0.2519  0.9215
  743MPD2    C411033   0.158   3.412   1.771  0.2791  0.0033  0.0610
  743MPD2    C511034   0.033   3.401   1.714 -0.1576 -0.3559 -0.1561
  743MPD2     H11035   0.322   3.182   1.586  0.8803  0.6386  0.0199
  743MPD2    H111036   0.186   3.486   1.845 -2.4141 -0.1309  1.2009
  743MPD2    H211037   4.636   3.282   1.601  0.3492  1.9296 -1.4397
  743MPD2    H311038   4.698   3.475   1.742  2.4596  1.9612  0.7280
  743MPD2     N11039   0.400   3.358   1.737 -0.1839  0.1789  0.2568
  743MPD2    H511040   0.468   3.302   1.686 -1.8905 -0.5533 -1.2310
  743MPD2    N111041   0.072   3.113   1.486  0.3043  0.6773 -0.0964
  743MPD2    H711042   4.714   3.092   1.464  0.0882 -0.8814  2.3031
  744TMC3    C111043   0.096   2.932   1.340  0.4063  1.0418 -0.1400
  744TMC3    C211044   0.004   2.980   1.255  0.1022 -0.3901  0.5134
  744TMC3    C311045   0.001   2.920   1.133 -0.3399 -0.6131  0.2748
  744TMC3    C411046   0.185   2.826   1.314  0.0029  0.4241  0.1167
  744TMC3    C511047   0.182   2.774   1.190 -0.1502  0.5776  0.1973
  744TMC3    C611048   0.086   2.818   1.101  0.2389  0.1771  0.2314
  744TMC3     C11049   0.158   3.024   1.430 -0.3021 -0.6321  0.1345
  744TMC3     O11050   0.280   3.016   1.442 -0.4282  0.4045  0.1878
  744TMC3     H11051   4.681   3.068   1.270 -1.6279 -1.4894 -0.2154
  744TMC3    H111052   0.264   2.796   1.381  0.0320 -1.1211 -0.6210
  744TMC3    H211053   0.088   2.772   1.003 -2.3557  1.3121 -0.3466
  744TMC3    C711054   0.304   2.714   1.137 -0.1997 -0.4380  0.0560
  744TMC3    C811055   4.678   3.004   1.028 -0.0266 -0.1733  0.0822
  744TMC3    O111056   0.323   2.735   1.014 -0.0322  0.0720 -0.4297
  744TMC3    O211057   4.665   3.127   1.046  0.1307 -0.0572  0.1156
  745TMC3    C111058   3.517   0.703  13.401  0.2283  0.3509  0.4334
  745TMC3    C211059   3.428   0.618  13.455 -0.7446  0.1149 -0.4270
  745TMC3    C311060   3.290   0.636  13.430  0.7080  0.6169  0.3183
  745TMC3    C411061   3.495   0.796  13.307 -0.1773  0.3056  0.2994
  745TMC3    C511062   3.361   0.803  13.277 -0.1645  0.6688  0.6143
  745TMC3    C611063   3.262   0.726  13.326  0.5713  0.4737  0.2314
  745TMC3     C11064   3.633   0.727  13.490 -0.0699  0.3370  0.6902
  745TMC3     O11065   3.699   0.629  13.527 -0.0396 -0.4816 -0.0809
  745TMC3     H11066   3.476   0.561  13.534 -2.0465 -1.4212 -0.7669
  745TMC3    H111067   3.573   0.859  13.265  1.0052 -0.9817  0.5767
  745TMC3    H211068   3.159   0.745  13.297  0.2630 -0.9953  0.3620
  745TMC3    C711069   3.318   0.899  13.168 -0.1711 -0.6606 -0.7337
  745TMC3    C811070   3.213   0.659  13.556 -0.5123 -0.2576 -0.1981
  745TMC3    O111071   3.221   0.873  13.098 -0.1974  0.1862 -0.7817
  745TMC3    O211072   3.094   0.671  13.536 -0.1569 -0.0907 -0.1491
  746TMC3    C111073   1.110   2.705  11.464  0.2587  0.2485  0.3783
  746TMC3    C211074   1.224   2.691  11.386  0.0751  0.6018  0.6139
  746TMC3    C311075   1.228   2.576  11.305 -0.2089  0.3724 -0.0757
  746TMC3    C411076   1.012   2.608  11.476 -0.0891  0.7679 -0.7605
  746TMC3    C511077   1.022   2.494  11.400  0.0746  0.4138  0.0764
  746TMC3    C611078   1.134   2.476  11.320 -0.2756 -0.0197 -0.2345
  746TMC3     C11079   1.105   2.814  11.555 -0.0473  0.2967  0.5654
  746TMC3     O11080   1.043   2.790  11.657 -0.3499 -0.1936 -0.1373
  746TMC3     H11081   1.301   2.766  11.375  1.7589 -1.3445 -0.7556
  746TMC3    H111082   0.927   2.636  11.537  0.4076 -2.1939  1.2627
  746TMC3    H211083   1.148   2.384  11.265 -0.2000  1.0416 -1.9917
  746TMC3    C711084   0.897   2.422  11.355  0.3057  0.2134  0.1624
  746TMC3    C811085   1.291   2.580  11.170 -1.1376  0.2123 -0.2475
  746TMC3    O111086   0.905   2.369  11.246 -0.1316 -0.2064  0.4642
  746TMC3    O211087   1.281   2.483  11.099  0.1749 -0.3853 -0.6848
  747TMC3    C111088   3.106   2.329  10.962 -0.4855 -0.3733  0.4323
  747TMC3    C211089   2.993   2.295  11.034 -0.5272  0.3963 -0.2020
  747TMC3    C311090   3.008   2.307  11.167 -0.7951  0.4174  0.1131
  747TMC3    C411091   3.217   2.392  11.012  0.0912  0.1744 -0.4900
  747TMC3    C511092   3.212   2.424  11.142 -0.9055  0.7494  0.0952
  747TMC3    C611093   3.101   2.396  11.220 -0.7118 -0.1093 -0.1399
  747TMC3     C11094   3.087   2.352  10.822 -0.5873  0.2325 -0.7285
  747TMC3     O11095   2.971   2.373  10.790  0.5725  0.3147 -0.3428
  747TMC3     H11096   2.898   2.267  10.989  0.0128 -0.6503 -0.6927
  747TMC3    H111097   3.297   2.426  10.946  0.2509  0.4459 -0.1544
  747TMC3    H211098   3.090   2.439  11.319  0.9554  0.3606 -0.1668
  747TMC3    C711099   3.329   2.482  11.210  1.0110  0.3987  0.7992
  747TMC3    C811100   2.910   2.245  11.253 -0.4905 -1.3034 -0.4064
  747TMC3    O111101   3.308   2.543  11.316  0.0189  0.0774  0.3707
  747TMC3    O211102   2.799   2.234  11.201  0.0229  0.2455 -0.1133
  748MPD2     C11103   4.370   3.881   1.516 -0.5888 -0.2523  0.6653
  748MPD2    C111104   4.434   3.868   1.394  0.1354  0.2813 -0.6613
  748MPD2    C211105   4.565   3.907   1.382 -0.1695  0.4329 -0.1326
  748MPD2    C311106   4.634   3.964   1.486  0.0115 -0.1949  0.1015
  748MPD2    C411107   4.564   3.981   1.607  0.0020  0.1346 -0.3546
  748MPD2    C511108   4.435   3.936   1.622  0.6377  0.0972 -0.0259
  748MPD2     H11109   4.616   3.901   1.287 -0.8438  0.0522 -0.4652
  748MPD2    H111110   4.605   4.040   1.688  1.1159 -0.5916 -0.3787
  748MPD2    H211111   4.268   3.847   1.532 -0.1369 -1.8825 -0.0018
  748MPD2    H311112   4.389   3.947   1.720 -0.5972 -0.4855 -0.5376
  748MPD2     N11113   0.018   4.021   1.461  0.0766  0.6552 -0.4206
  748MPD2    H511114   0.049   4.014   1.364 -2.2070  2.3485 -1.2893
  748MPD2    N111115   4.362   3.811   1.288 -0.2248  0.3551  0.2538
  748MPD2    H711116   4.266   3.801   1.318 -0.8109  2.1414 -1.0025
  749TMC3    C111117   0.237   4.098   1.507  0.0651  0.0787 -0.1471
  749TMC3    C211118   0.338   4.102   1.597  0.2658  0.0234  0.4261
  749TMC3    C311119   0.470   4.096   1.551 -0.4309  0.3002  0.2923
  749TMC3    C411120   0.267   4.101   1.371  0.0320  0.0555 -0.5834
  749TMC3    C511121   0.399   4.099   1.335 -0.0561  0.1356  0.1138
  749TMC3    C611122   0.505   4.106   1.422  0.2719 -0.0163 -0.3456
  749TMC3     C11123   0.108   4.053   1.559 -0.9775  0.1163 -0.3619
  749TMC3     O11124   0.093   4.053   1.681  0.3351  0.7928  0.6283
  749TMC3     H11125   0.302   4.090   1.698 -0.3580  0.8867  0.3073
  749TMC3    H111126   0.188   4.107   1.297 -0.7928  0.3549  0.3206
  749TMC3    H211127   0.609   4.102   1.394 -0.1319 -3.0826 -1.2977
  749TMC3    C711128   0.426   4.085   1.192 -0.9000 -0.3650 -0.4447
  749TMC3    C811129   0.580   4.102   1.646  0.2170  0.7582  0.1201
  749TMC3    O111130   0.335   4.048   1.116  0.4603  0.1018 -0.0104
  749TMC3    O211131   0.542   4.139   1.756  0.4317 -0.2352  0.0346
  750MPD2     C11132   1.121   4.577  11.513 -0.5840  0.2999 -0.1418
  750MPD2    C111133   1.006   4.502  11.545 -0.0594  0.2014  0.2357
  750MPD2    C211134   0.949   4.427  11.441  0.1205 -0.0982  0.1203
  750MPD2    C311135   1.010   4.428  11.314 -0.5356  0.0001 -0.1069
  750MPD2    C411136   1.114   4.511  11.287  0.0388  0.3505  0.4593
  750MPD2    C511137   1.176   4.584  11.385  0.2099 -0.5241 -0.1911
  750MPD2     H11138   0.860   4.371  11.468  0.2793 -0.8821 -0.9898
  750MPD2    H111139   1.150   4.517  11.185 -0.9924  0.7859  0.1094
  750MPD2    H211140   1.176   4.625  11.594  0.1015 -0.7553  0.0199
  750MPD2    H311141   1.268   4.632  11.352  0.1481  1.7274  2.9226
  750MPD2     N11142   0.950   4.367  11.208  0.2290  0.5563 -0.0204
  750MPD2    H511143   1.013   4.377  11.129  0.8020 -0.9065  0.2429
  750MPD2    N111144   0.953   4.511  11.677  0.0377  0.1326  0.9726
  750MPD2    H711145   1.005   4.571  11.740 -0.0341 -0.1305  1.2829
  751TMC3    C111146   0.818   4.218  11.082 -0.1244  0.2031  0.7219
  751TMC3    C211147   0.694   4.151  11.083  0.0851  0.2954 -0.0516
  751TMC3    C311148   0.670   4.037  11.013 -0.3826  0.0430 -0.7886
  751TMC3    C411149   0.923   4.169  11.004 -0.6148 -0.1236 -0.5785
  751TMC3    C511150   0.896   4.056  10.930 -0.1141 -0.3793 -0.4842
  751TMC3    C611151   0.770   3.989  10.933 -0.2255  0.7214  0.0008
  751TMC3     C11152   0.852   4.270  11.208  0.9648  0.0411  0.3238
  751TMC3     O11153   0.774   4.238  11.297 -0.2165 -0.3185  0.2263
  751TMC3     H11154   0.616   4.198  11.142  0.5051  2.1433 -0.9455
  751TMC3    H111155   1.023   4.212  11.003 -0.2178 -1.0720 -1.5876
  751TMC3    H211156   0.757   3.899  10.874 -2.2670  1.7461 -1.1306
  751TMC3    C711157   0.999   4.011  10.840  0.1838  0.1380  0.0417
  751TMC3    C811158   0.548   3.967  11.018 -0.1811 -0.0227  0.4286
  751TMC3    O111159   1.096   4.085  10.816  0.6708 -0.4381 -0.6764
  751TMC3    O211160   0.522   3.910  10.916  0.4974 -0.0606 -0.5344
  752TMC3    C111161   4.090   4.616  17.242 -0.6090  0.4641  0.3661
  752TMC3    C211162   4.168   4.542  17.333  0.1490  0.2225 -0.5661
  752TMC3    C311163   4.114   4.526  17.460 -0.1748 -1.0789  0.0024
  752TMC3    C411164   3.972   4.672  17.276  0.2524  0.1731 -0.1941
  752TMC3    C511165   3.923   4.642  17.405 -0.2886 -0.4876  0.2066
  752TMC3    C611166   3.990   4.569  17.499 -0.4993  0.1109 -0.0132
  752TMC3     C11167   4.172   4.694  17.152 -0.8329 -0.2363 -0.1854
  752TMC3     O11168   4.292   4.707  17.176  0.8854  1.1403 -0.7376
  752TMC3     H11169   4.264   4.499  17.307 -0.1650 -1.3073  0.8238
  752TMC3    H111170   3.923   0.005  17.213  1.0066 -1.5649 -2.7750
  752TMC3    H211171   3.956   4.547  17.599 -0.6913  0.9194  0.0963
  752TMC3    C711172   3.781   4.679  17.432  0.1390  0.3326 -0.4871
  752TMC3    C811173   4.202   4.466  17.555  0.0198  0.0225  0.2224
  752TMC3    O111174   3.721   0.013  17.350  0.2487  0.4546  0.1507
  752TMC3    O211175   4.280   4.381  17.515  0.5613  0.1395  0.2418
  753TMC3    C111176   1.838   0.555  13.397 -0.4774 -0.1048 -0.3739
  753TMC3    C211177   1.929   0.580  13.494  0.0409 -0.1539 -0.5777
  753TMC3    C311178   1.973   0.467  13.562  0.1686 -0.7592 -0.2816
  753TMC3    C411179   1.791   0.430  13.359 -0.0240  0.9584  0.2861
  753TMC3    C511180   1.839   0.315  13.424  0.5019  0.7529 -0.0389
  753TMC3    C611181   1.939   0.338  13.521 -0.2304  0.4624 -0.4984
  753TMC3     C11182   1.785   0.671  13.331  0.0206  0.6048  0.0752
  753TMC3     O11183   1.666   0.660  13.296 -0.4175 -0.2633 -0.1538
  753TMC3     H11184   1.942   0.677  13.542  0.2411  0.9829 -2.9356
  753TMC3    H111185   1.719   0.423  13.278  0.0642  1.5145  0.1633
  753TMC3    H211186   1.984   0.255  13.574 -1.1561 -0.2320 -0.7948
  753TMC3    C711187   1.840   0.184  13.355  0.5985  0.2027 -0.2697
  753TMC3    C811188   2.072   0.473  13.668  0.2993  0.1170 -0.1362
  753TMC3    O111189   1.883   0.091  13.419  0.0265  0.0972  0.6258
  753TMC3    O211190   2.091   0.371  13.737  0.4012  0.4626  0.3464
  754MPD2     C11191   1.140   4.151  13.090  0.0751 -0.1947 -0.2439
  754MPD2    C111192   1.050   4.223  13.170  0.0592  0.0866  0.2900
  754MPD2    C211193   0.917   4.232  13.123 -0.2817  0.4714 -0.2317
  754MPD2    C311194   0.874   4.168  13.012 -0.4422  0.2689 -0.2526
  754MPD2    C411195   0.965   4.095  12.938 -0.2821  0.0390 -0.0690
  754MPD2    C511196   1.096   4.084  12.972 -0.0878 -0.3664 -0.4035
  754MPD2     H11197   0.843   4.286  13.181 -2.6035 -2.4500 -0.4444
  754MPD2    H111198   0.936   4.053  12.843  2.3259  0.7279 -1.1635
  754MPD2    H211199   1.242   4.153  13.126  0.7104 -2.2801 -1.9443
  754MPD2    H311200   1.163   4.026  12.910  0.8872  0.6122 -0.2629
  754MPD2     N11201   0.735   4.155  12.982  0.6617  0.4750 -0.6596
  754MPD2    H511202   0.693   4.087  12.920  0.6192 -0.0660 -0.0479
  754MPD2    N111203   1.102   4.259  13.297 -1.0249  0.7591  0.2836
  754MPD2    H711204   1.190   4.213  13.316  0.4495  3.2259 -0.4724
  755MPD2     C11205   4.600   4.678  13.179  0.3092  0.4763  0.6026
  755MPD2    C111206   4.561   4.544  13.150  0.4577  1.2284  1.1341
  755MPD2    C211207   4.659   4.445  13.129 -0.6009  0.5834  0.2557
  755MPD2    C311208   0.054   4.485  13.146  0.4052  0.3859  0.2165
  755MPD2    C411209   0.089   4.609  13.194  0.0772  1.0360 -0.1958
  755MPD2    C511210   4.728   4.706  13.208 -0.8347  0.5148 -0.1216
  755MPD2     H11211   4.630   4.349  13.089 -0.8680  0.0015  1.8601
  755MPD2    H111212   0.195   4.620  13.215  0.5365  0.6851 -2.3419
  755MPD2    H211213   4.531   0.022  13.177  2.0326  1.8931 -0.2010
  755MPD2    H311214   0.029   0.064  13.235 -0.7582  0.5393 -0.3248
  755MPD2     N11215   0.167   4.396  13.132  0.1031 -0.3521 -0.3212
  755MPD2    H511216   0.263   4.427  13.136 -0.3924  0.9526  1.3524
  755MPD2    N111217   4.421   4.514  13.130  0.1142 -0.4159  0.7859
  755MPD2    H711218   4.402   4.419  13.101 -1.5210  1.2918 -3.7194
  756MPD2     C11219   1.002   0.529   9.891  0.1282 -0.7612  0.1096
  756MPD2    C111220   0.916   0.433   9.939  0.5426 -0.2070  0.5312
  756MPD2    C211221   0.816   0.387   9.859  0.1917  0.5448  0.0952
  756MPD2    C311222   0.789   0.445   9.736  0.2371 -0.1663 -0.7452
  756MPD2    C411223   0.873   0.537   9.691  0.3346  0.1348  0.8665
  756MPD2    C511224   0.982   0.572   9.765  0.1024  0.3259  0.0829
  756MPD2     H11225   0.743   0.318   9.900  0.6321 -0.5361 -0.9564
  756MPD2    H111226   0.854   0.582   9.594  1.7724 -1.9285 -0.3716
  756MPD2    H211227   1.073   0.580   9.956 -0.6378  1.3175 -0.7078
  756MPD2    H311228   1.042   0.653   9.725 -0.2846  2.1439  3.1474
  756MPD2     N11229   0.682   0.417   9.646  0.1842  0.1790  0.1464
  756MPD2    H511230   0.686   0.461   9.555  3.7039  0.5615  0.5119
  756MPD2    N111231   0.916   0.401  10.078 -0.3444  0.2638 -0.5175
  756MPD2    H711232   0.836   0.357  10.122  0.0255 -0.2734 -0.3839
  757MPD2     C11233   4.484   4.690   9.716 -0.6844 -0.5826  0.5466
  757MPD2    C111234   4.598   4.641   9.776  0.3079  0.0468  0.1333
  757MPD2    C211235   4.722   4.704   9.746 -0.7152 -0.1642  0.5664
  757MPD2    C311236   4.726   0.064   9.650 -0.4557 -0.5641 -0.4855
  757MPD2    C411237   4.610   0.120   9.608 -0.2758  0.0494 -0.3779
  757MPD2    C511238   4.493   0.063   9.641  0.2718 -0.4119  0.3430
  757MPD2     H11239   0.068   4.671   9.803 -0.1843  0.2380  0.0027
  757MPD2    H111240   4.605   0.203   9.537  0.6975 -1.0689 -1.7501
  757MPD2    H211241   4.386   4.654   9.741 -1.1859  0.5913  0.2602
  757MPD2    H311242   4.405   0.118   9.610  0.0809  0.5146  2.4997
  757MPD2     N11243   0.112   0.124   9.623 -0.2861 -0.1981 -0.2246
  757MPD2    H511244   0.191   0.097   9.681 -0.6862 -0.9770 -0.0499
  757MPD2    N111245   4.581   4.524   9.862  0.3810  0.0093  0.8578
  757MPD2    H711246   4.489   4.486   9.883 -0.7440  2.3583  0.1665
  758MPD2     C11247   0.592   4.401  15.798  0.1593 -0.4298 -0.5556
  758MPD2    C111248   0.651   4.327  15.891  0.8973  0.1184  0.5823
  758MPD2    C211249   0.594   4.320  16.016  0.7119  0.0802 -0.0186
  758MPD2    C311250   0.466   4.368  16.040  0.0456 -0.3107 -0.8961
  758MPD2    C411251   0.410   4.442  15.937 -0.4784  0.3970 -0.3032
  758MPD2    C511252   0.474   4.463  15.821  1.3014 -0.0646  0.1292
  758MPD2     H11253   0.649   4.284  16.102  0.4603 -0.5178 -0.1095
  758MPD2    H111254   0.310   4.484  15.943 -0.1868  1.3262 -1.9092
  758MPD2    H211255   0.640   4.413  15.702  1.9012 -0.5729  0.2984
  758MPD2    H311256   0.427   4.522  15.743  0.4977  0.1328  0.7633
  758MPD2     N11257   0.405   4.369  16.169 -0.3165 -0.7579  0.5100
  758MPD2    H511258   0.319   4.421  16.177  0.4565  0.4426  0.9547
  758MPD2    N111259   0.772   4.265  15.851 -0.2371  0.5650  1.0455
  758MPD2    H711260   0.808   4.295  15.761  0.3763 -1.1576  0.7085
  759MPD2     C11261   0.047   2.073   9.974  0.6735  0.1893  0.0425
  759MPD2    C111262   4.666   2.119  10.030  0.1474 -1.0172 -0.1637
  759MPD2    C211263   4.649   2.254  10.049 -1.3424  0.5065  0.2866
  759MPD2    C311264   0.002   2.347   9.992  0.5846 -0.3939 -0.0225
  759MPD2    C411265   0.120   2.300   9.947  0.3924 -0.0647  0.5161
  759MPD2    C511266   0.142   2.164   9.937 -0.5224  0.7534 -0.1383
  759MPD2     H11267   4.559   2.291  10.098 -1.7469 -2.2181  1.6040
  759MPD2    H111268   0.208   2.358   9.921  1.0911 -1.0277  0.7397
  759MPD2    H211269   0.076   1.969   9.962  1.1285  0.3726 -0.4624
  759MPD2    H311270   0.227   2.125   9.882 -0.1634  1.2573  0.0638
  759MPD2     N11271   4.711   2.486   9.996  0.5186  1.0442 -0.4719
  759MPD2    H511272   4.622   2.521  10.031  0.3081 -1.2464  1.2560
  759MPD2    N111273   4.565   2.028  10.081  0.6240 -0.4721  0.1239
  759MPD2    H711274   4.480   2.063  10.125 -0.2905 -0.5377 -1.5907
  760MPD2     C11275   4.134   4.267  11.560  0.2079 -0.3539 -0.4115
  760MPD2    C111276   4.178   4.359  11.656 -0.7427 -0.1332 -0.1830
  760MPD2    C211277   4.223   4.309  11.777  0.4593  0.7306 -0.5588
  760MPD2    C311278   4.214   4.173  11.809  0.0508  0.3143 -0.4031
  760MPD2    C411279   4.166   4.088  11.713  0.5020 -0.9250  0.7667
  760MPD2    C511280   4.131   4.133  11.593  0.0163 -0.4363  0.7297
  760MPD2     H11281   4.259   4.384  11.846  0.1517  1.4350 -1.1589
  760MPD2    H111282   4.159   3.981  11.731 -1.5154 -0.7104  1.2241
  760MPD2    H211283   4.108   4.295  11.459  2.8035  2.8373 -0.1896
  760MPD2    H311284   4.107   4.056  11.520  0.3124  0.0656  0.0981
  760MPD2     N11285   4.256   4.128  11.935 -0.0270  0.8265  0.8960
  760MPD2    H511286   4.279   4.031  11.957 -0.0339  1.5044  3.8564
  760MPD2    N111287   4.205   4.498  11.629 -0.0937  0.0714  0.5742
  760MPD2    H711288   4.253   4.554  11.700  2.2785 -2.0476  0.6608
  761MPD2     C11289   0.236   3.726  11.325  0.0626 -0.8822 -0.3565
  761MPD2    C111290   0.283   3.683  11.207 -0.1383  0.4426  0.6193
  761MPD2    C211291   0.349   3.773  11.129 -0.8289 -0.1510  0.3377
  761MPD2    C311292   0.375   3.902  11.178 -0.1518  0.3636 -0.2489
  761MPD2    C411293   0.307   3.954  11.284 -0.2523 -0.7268  0.6092
  761MPD2    C511294   0.237   3.864  11.361 -0.0141 -0.7234  0.2183
  761MPD2     H11295   0.395   3.740  11.037  3.2643 -0.3687  2.4391
  761MPD2    H111296   0.327   4.046  11.337 -1.0852  0.5868 -1.3601
  761MPD2    H211297   0.213   3.651  11.400 -1.7742 -0.5540 -0.6044
  761MPD2    H311298   0.209   3.885  11.463 -1.7313  3.7544 -1.1899
  761MPD2     N11299   0.482   3.984  11.135 -0.7860 -0.2002  0.4271
  761MPD2    H511300   0.516   4.057  11.198 -2.3560  0.9498 -0.0606
  761MPD2    N111301   0.285   3.548  11.179 -0.0548  0.7255  0.0387
  761MPD2    H711302   0.264   3.487  11.258 -0.1005  0.0742 -0.4718
  762MPD2     C11303   0.876   3.478  11.337 -0.2546  0.8448  0.3554
  762MPD2    C111304   0.852   3.388  11.230 -0.2124 -0.5012 -0.2192
  762MPD2    C211305   0.938   3.388  11.121  0.1909  0.1702 -0.1275
  762MPD2    C311306   1.054   3.465  11.127  0.7870 -0.6698 -0.2391
  762MPD2    C411307   1.069   3.560  11.229  0.2396 -0.3734  0.2979
  762MPD2    C511308   0.985   3.564  11.337 -0.2800  0.4631 -0.4872
  762MPD2     H11309   0.923   3.317  11.040 -1.5524  0.9558 -0.5022
  762MPD2    H111310   1.146   3.636  11.223  0.1383 -0.3060 -0.1406
  762MPD2    H211311   0.807   3.490  11.420  0.9199 -0.1781  1.4890
  762MPD2    H311312   0.989   3.628  11.424 -0.3693  1.8917 -1.5334
  762MPD2     N11313   1.136   3.456  11.010 -0.2939 -0.0988 -0.1699
  762MPD2    H511314   1.117   3.379  10.947 -1.0814 -0.2539  0.2592
  762MPD2    N111315   0.735   3.311  11.242  0.3924 -0.1718  0.0555
  762MPD2    H711316   0.678   3.343  11.320 -0.6008 -1.0943 -0.2880
  763MPD2     C11317   1.757   4.192  15.745 -0.2552 -0.0246 -0.4884
  763MPD2    C111318   1.874   4.132  15.781  0.2922  0.2555  1.1349
  763MPD2    C211319   1.921   4.141  15.913 -0.0888  0.3399  0.3638
  763MPD2    C311320   1.865   4.228  16.004  0.9790  0.4005 -0.4040
  763MPD2    C411321   1.748   4.284  15.967 -0.1856  0.1881  0.0139
  763MPD2    C511322   1.697   4.270  15.841 -0.5116  0.0226 -0.1597
  763MPD2     H11323   2.016   4.096  15.940 -0.6048 -0.6789  0.4798
  763MPD2    H111324   1.697   4.358  16.028 -1.6068 -0.5859 -0.2254
  763MPD2    H211325   1.706   4.187  15.650 -0.3942 -0.9644 -0.3625
  763MPD2    H311326   1.598   4.313  15.826 -0.7614 -0.3782  0.3565
  763MPD2     N11327   1.930   4.257  16.126 -0.4391 -0.2659  0.1631
  763MPD2    H511328   2.020   4.217  16.149 -1.2636  0.0748  4.0339
  763MPD2    N111329   1.943   4.043  15.689  0.2466 -0.7330  0.8455
  763MPD2    H711330   1.997   3.967  15.729  1.9856 -0.8359 -1.7656
  764MPD2     C11331   4.429   0.934   0.100  0.5176 -0.5015 -0.6720
  764MPD2    C111332   4.382   0.813   0.150  0.0837 -0.3312 -0.8936
  764MPD2    C211333   4.407   0.773   0.277 -0.4017  0.2124 -0.2250
  764MPD2    C311334   4.479   0.850   0.364 -0.0202 -0.1565  0.8413
  764MPD2    C411335   4.522   0.972   0.321  0.1711 -0.6637  0.7065
  764MPD2    C511336   4.496   1.009   0.193 -0.3413  0.1578 -0.7513
  764MPD2     H11337   4.372   0.675   0.308  0.8951 -0.0273  0.4814
  764MPD2    H111338   4.564   1.044   0.391 -1.2655  1.2478 -0.3793
  764MPD2    H211339   4.395   0.978   0.007 -0.2101 -3.1561 -1.6538
  764MPD2    H311340   4.529   1.106   0.157 -0.3927  0.5807  0.3467
  764MPD2     N11341   4.505   0.812   0.500  0.0868 -0.5559  0.0211
  764MPD2    H511342   4.475   0.720   0.530  0.9485 -0.9877 -0.4337
  764MPD2    N111343   4.320   0.728   0.055 -0.0827 -0.4018 -1.0164
  764MPD2    H711344   4.316   0.630   0.080 -1.3605  0.0394  0.4714
  765MPD2     C11345   0.426   3.750  15.573 -0.6453  0.1194  0.0379
  765MPD2    C111346   0.434   3.811  15.692 -0.0526  0.0659  0.3725
  765MPD2    C211347   0.555   3.811  15.752 -0.2701  0.3657 -0.1138
  765MPD2    C311348   0.669   3.752  15.695  1.2886  0.4045 -0.2650
  765MPD2    C411349   0.665   3.706  15.564 -0.4887 -0.9707 -0.3811
  765MPD2    C511350   0.540   3.704  15.510  1.2302 -0.2502  0.2417
  765MPD2     H11351   0.568   3.861  15.848 -1.0109  2.6862 -1.2246
  765MPD2    H111352   0.754   3.668  15.515  0.1529  0.2899 -0.1964
  765MPD2    H211353   0.329   3.738  15.526 -1.2629  0.6483  1.1934
  765MPD2    H311354   0.520   3.667  15.410  0.4530  0.9183 -0.0307
  765MPD2     N11355   0.792   3.743  15.765 -0.2170  0.1454  0.5143
  765MPD2    H511356   0.789   3.768  15.863 -3.0365  2.7324 -0.2511
  765MPD2    N111357   0.320   3.875  15.751 -0.0181  0.3698  0.5083
  765MPD2    H711358   0.230   3.862  15.705  0.0815  1.9432 -0.1306
  766MPD2     C11359   4.405   3.811  15.485  0.3980 -0.9107  0.3483
  766MPD2    C111360   4.540   3.808  15.525 -0.5687 -0.4368  0.4690
  766MPD2    C211361   4.630   3.741  15.444  0.3741 -0.5064 -0.9136
  766MPD2    C311362   4.590   3.687  15.328  0.0334 -0.3341  0.3637
  766MPD2    C411363   4.458   3.684  15.288 -0.1320  0.2054  0.2290
  766MPD2    C511364   4.365   3.751  15.369  0.4480  0.6574  0.5956
  766MPD2     H11365   4.735   3.736  15.471  0.4107  2.7880 -0.4093
  766MPD2    H111366   4.424   3.639  15.196 -1.9827  2.8796 -0.3994
  766MPD2    H211367   4.332   3.862  15.546 -0.1772 -0.6798 -0.5296
  766MPD2    H311368   4.261   3.746  15.339  0.4984  2.6371  0.1366
  766MPD2     N11369   4.685   3.643  15.229  0.3387 -0.5670 -0.1050
  766MPD2    H511370   4.639   3.612  15.144 -0.4894 -1.1074  0.5378
  766MPD2    N111371   4.576   3.885  15.634  0.1828  0.0970 -0.1943
  766MPD2    H711372   4.499   3.935  15.677  1.6478  2.0308  0.1894
  767MPD2     C11373   4.250   3.876  15.021  0.5812 -0.1456 -0.0302
  767MPD2    C111374   4.387   3.890  15.011  0.9192  0.2362 -0.3957
  767MPD2    C211375   4.450   3.836  14.906  0.2362  0.5233  0.0052
  767MPD2    C311376   4.381   3.774  14.805 -0.2012  0.7155  0.4145
  767MPD2    C411377   4.252   3.741  14.828 -0.2432  0.7647 -0.2384
  767MPD2    C511378   4.187   3.790  14.937 -0.5604  0.0208  0.3167
  767MPD2     H11379   4.555   3.863  14.895  0.8872 -1.3898  1.4536
  767MPD2    H111380   4.185   3.697  14.754 -1.5538  1.4771  0.5148
  767MPD2    H211381   4.197   3.916  15.107 -1.1787  0.7602 -1.5294
  767MPD2    H311382   4.084   3.763  14.958  0.1358  0.4357  4.2132
  767MPD2     N11383   4.446   3.753  14.677  0.3825 -0.1695  0.6282
  767MPD2    H511384   4.547   3.756  14.668  0.0129  0.3361 -3.2108
  767MPD2    N111385   4.457   3.963  15.110 -0.4060  0.0169 -0.0426
  767MPD2    H711386   4.400   3.998  15.186 -0.4647 -0.0408 -0.0598
  768MPD2     C11387   0.960   2.438  10.667  0.0949  0.2672 -0.1024
  768MPD2    C111388   0.892   2.336  10.741 -0.4241  0.6002 -0.3813
  768MPD2    C211389   0.970   2.249  10.824  0.0453 -0.4958  0.4531
  768MPD2    C311390   1.102   2.281  10.850  0.1485 -0.0934  0.1461
  768MPD2    C411391   1.165   2.373  10.769  0.2229 -0.1290 -0.1879
  768MPD2    C511392   1.096   2.452  10.683  0.0237 -0.7654  0.0626
  768MPD2     H11393   0.906   2.178  10.875  0.5805 -0.5634  1.0197
  768MPD2    H111394   1.273   2.382  10.779  0.1204  1.1854 -0.3067
  768MPD2    H211395   0.916   2.516  10.605 -1.8551 -1.3410 -0.7154
  768MPD2    H311396   1.141   2.520  10.612  0.7362  0.4391  1.6741
  768MPD2     N11397   1.183   2.214  10.950 -0.4878  0.2620  0.2164
  768MPD2    H511398   1.275   2.253  10.967 -1.3171  3.5385 -2.8190
  768MPD2    N111399   0.756   2.313  10.740  0.0374 -0.1583  0.7951
  768MPD2    H711400   0.715   2.227  10.774 -0.4870  0.6537  2.1928
  769MPD2     C11401   1.788   0.196  14.752  1.4576  0.1761  0.0423
  769MPD2    C111402   1.660   0.219  14.813 -0.9053 -0.1571 -0.1409
  769MPD2    C211403   1.648   0.309  14.913  1.0186 -0.6595  1.0277
  769MPD2    C311404   1.749   0.395  14.946 -0.5134 -1.4140 -0.1772
  769MPD2    C411405   1.877   0.366  14.891 -0.2669  0.1244 -0.1834
  769MPD2    C511406   1.891   0.265  14.797 -0.0816  0.1703 -1.0991
  769MPD2     H11407   1.554   0.302  14.966  0.9552 -0.2275  0.9776
  769MPD2    H111408   1.968   0.417  14.919  0.3139 -0.2708 -1.3402
  769MPD2    H211409   1.807   0.115  14.683  2.0782  0.1503  0.2403
  769MPD2    H311410   1.991   0.235  14.767  0.2906  0.8059 -0.4912
  769MPD2     N11411   1.715   0.496  15.035  0.2989  0.1695 -0.1146
  769MPD2    H511412   1.628   0.490  15.086  0.1051  4.0929  0.0238
  769MPD2    N111413   1.552   0.149  14.759  0.2153  0.1182  0.0134
  769MPD2    H711414   1.572   0.072  14.697  0.9971  0.5996 -0.3225
  770MPD2     C11415   1.305   3.957  14.665 -0.1148  0.0456 -0.1304
  770MPD2    C111416   1.183   4.002  14.698  0.4710 -0.2623  0.3633
  770MPD2    C211417   1.163   4.139  14.699 -0.7340 -0.1855 -0.1325
  770MPD2    C311418   1.251   4.231  14.645 -0.3380  0.0974  0.6854
  770MPD2    C411419   1.363   4.179  14.595  0.8125 -0.5801  0.1396
  770MPD2    C511420   1.390   4.041  14.600 -0.0144  1.0017  0.9847
  770MPD2     H11421   1.066   4.171  14.735 -1.2918 -1.1661 -0.7747
  770MPD2    H111422   1.433   4.238  14.536  0.0772  0.0418 -0.1064
  770MPD2    H211423   1.344   3.856  14.661  0.7876  0.2942  2.3357
  770MPD2    H311424   1.478   4.002  14.549 -0.4258  0.0240  1.0174
  770MPD2     N11425   1.226   4.371  14.654 -0.2978 -0.7540 -0.5075
  770MPD2    H511426   1.142   4.398  14.705  1.7206  0.7972  2.0401
  770MPD2    N111427   1.098   3.905  14.754 -0.7598 -0.4111 -0.3847
  770MPD2    H711428   1.114   3.809  14.725  0.3542 -0.5294  0.6734
  771MPD2     C11429   2.338   2.790  13.812  0.3612 -0.1174 -0.1865
  771MPD2    C111430   2.282   2.907  13.764 -0.1760  0.5864 -0.3433
  771MPD2    C211431   2.188   2.897  13.661 -0.8256 -0.1842 -0.4208
  771MPD2    C311432   2.158   2.778  13.604  0.1877 -0.2269  0.8452
  771MPD2    C411433   2.217   2.661  13.654 -0.2571  0.2096 -0.4832
  771MPD2    C511434   2.306   2.671  13.752 -0.2944 -0.4219 -0.0295
  771MPD2     H11435   2.148   2.994  13.637 -1.1990 -0.0529  0.7334
  771MPD2    H111436   2.206   2.563  13.607  0.6707 -0.5083  0.7902
  771MPD2    H211437   2.422   2.789  13.880 -0.6211  0.0183  1.0209
  771MPD2    H311438   2.373   2.590  13.777  0.1493 -1.1328 -3.4743
  771MPD2     N11439   2.048   2.769  13.517 -0.8361 -0.3955  0.1762
  771MPD2    H511440   2.011   2.858  13.485 -2.0415 -0.5523  1.1283
  771MPD2    N111441   2.314   3.037  13.806  0.0711 -0.7065  0.3009
  771MPD2    H711442   2.262   3.109  13.756  1.6472 -0.6655 -1.2775
  772MPD2     C11443   1.910   3.613  13.928  0.0548  0.3339 -0.3760
  772MPD2    C111444   1.934   3.478  13.930 -0.0659  0.9824  0.4119
  772MPD2    C211445   1.828   3.391  13.926 -0.6205  0.2489  1.1006
  772MPD2    C311446   1.701   3.446  13.915  0.1504  0.2005  0.2318
  772MPD2    C411447   1.679   3.582  13.918 -0.3060 -0.6300  0.0241
  772MPD2    C511448   1.785   3.663  13.927 -0.2655  0.0733  0.2126
  772MPD2     H11449   1.854   3.287  13.932 -0.3055  0.4157  2.6178
  772MPD2    H111450   1.578   3.622  13.912 -0.3851 -0.7883  0.3277
  772MPD2    H211451   1.988   3.688  13.928  0.8135 -0.4571 -1.1571
  772MPD2    H311452   1.776   3.771  13.926 -0.8115  0.0319  0.7698
  772MPD2     N11453   1.586   3.369  13.922 -0.2230  0.3842 -0.6215
  772MPD2    H511454   1.500   3.422  13.924  0.0637  0.8268 -0.0103
  772MPD2    N111455   2.065   3.426  13.946 -0.3248 -0.5562 -0.2952
  772MPD2    H711456   2.078   3.325  13.944 -1.5247 -0.7206  0.1329
  773MPD2     C11457   1.085   4.648   0.172 -0.1313  0.1534 -0.1595
  773MPD2    C111458   1.031   4.527   0.135 -0.1901  0.4763 -0.2129
  773MPD2    C211459   1.025   4.423   0.223 -0.2985 -0.4332  0.0675
  773MPD2    C311460   1.106   4.429   0.339 -0.0586 -0.0026  0.1291
  773MPD2    C411461   1.159   4.551   0.376 -0.7225 -0.4327  0.6496
  773MPD2    C511462   1.157   4.654   0.289 -0.1679 -0.7589  0.7899
  773MPD2     H11463   0.972   4.333   0.196 -0.7573 -0.0859 -0.1982
  773MPD2    H111464   1.220   4.564   0.465  0.1615  2.5774 -0.3993
  773MPD2    H211465   1.079   4.732   0.105  0.2853  0.3004 -0.0094
  773MPD2    H311466   1.202   0.009   0.318 -1.2964  0.6194 -1.9675
  773MPD2     N11467   1.120   4.308   0.412  0.3218 -0.0141 -0.0908
  773MPD2    H511468   1.059   4.230   0.388  0.9987  0.2343 -2.5395
  773MPD2    N111469   0.965   4.511   0.008 -0.4447  0.0516  0.1514
  773MPD2    H711470   0.920   4.422  17.746 -0.6395  0.0596  0.6568
  774MPD2     C11471   0.966   3.323  13.476  0.9568  0.0837 -0.6176
  774MPD2    C111472   0.843   3.378  13.513 -0.1237 -0.3045 -0.1026
  774MPD2    C211473   0.824   3.510  13.525 -0.2730 -0.2394  0.3669
  774MPD2    C311474   0.926   3.601  13.502  0.4129  0.3408 -0.3154
  774MPD2    C411475   1.053   3.546  13.491 -0.6596 -0.4172  0.3246
  774MPD2    C511476   1.074   3.410  13.488  0.0711  0.8238 -0.4021
  774MPD2     H11477   0.723   3.544  13.547 -1.3012 -1.3115 -2.6565
  774MPD2    H111478   1.136   3.615  13.480 -0.8136 -0.5320 -1.6325
  774MPD2    H211479   0.985   3.217  13.463 -0.3677 -0.4653  1.7954
  774MPD2    H311480   1.176   3.376  13.471  0.0494  0.3183  0.4927
  774MPD2     N11481   0.902   3.740  13.508 -0.5551 -0.0314 -0.1577
  774MPD2    H511482   0.809   3.769  13.537 -0.3529 -0.0388  0.4998
  774MPD2    N111483   0.744   3.282  13.529 -0.1589 -0.2483  0.6544
  774MPD2    H711484   0.773   3.185  13.518 -0.2870 -0.1088 -0.8961
  775MPD2     C11485   1.661   0.373  15.539 -0.5343  0.2959 -0.0307
  775MPD2    C111486   1.710   0.465  15.629 -0.0869  0.1309  0.0751
  775MPD2    C211487   1.821   0.547  15.585 -0.3770 -0.2290 -0.2263
  775MPD2    C311488   1.882   0.524  15.461  0.6854  0.0440  0.0296
  775MPD2    C411489   1.830   0.434  15.378 -0.4607 -0.2807  0.2262
  775MPD2    C511490   1.722   0.358  15.411 -0.1071 -0.2603 -0.5377
  775MPD2     H11491   1.860   0.631  15.642  2.3032 -2.3204  0.9852
  775MPD2    H111492   1.876   0.415  15.281  0.0359 -1.2513  0.6574
  775MPD2    H211493   1.584   0.302  15.568  0.5402 -1.3302 -1.1699
  775MPD2    H311494   1.686   0.289  15.335  1.1106 -0.0391 -1.3045
  775MPD2     N11495   1.998   0.592  15.415  0.0026  0.4352  0.2647
  775MPD2    H511496   2.034   0.552  15.329  0.4624 -1.8774  1.5265
  775MPD2    N111497   1.647   0.477  15.756 -0.5740 -0.0739  0.1750
  775MPD2    H711498   1.569   0.413  15.767  0.7198 -1.1695  2.9995
  776MPD2     C11499   1.026   0.183  12.249 -0.0877 -0.0240 -0.2707
  776MPD2    C111500   0.919   0.165  12.159 -0.0731  0.4100  0.8074
  776MPD2    C211501   0.836   0.281  12.138 -0.7274  0.4899  0.2244
  776MPD2    C311502   0.879   0.404  12.179  0.3216  0.0733  0.2009
  776MPD2    C411503   0.995   0.417  12.252 -0.2610 -0.3630  0.0449
  776MPD2    C511504   1.063   0.304  12.297 -0.0520 -0.6364  0.8314
  776MPD2     H11505   0.733   0.276  12.103 -0.3013  0.5268 -1.0356
  776MPD2    H111506   1.034   0.515  12.279 -0.5876  0.4026 -2.1942
  776MPD2    H211507   1.098   0.103  12.255  0.1954  0.2141 -0.5237
  776MPD2    H311508   1.157   0.319  12.349 -0.3512 -2.0851  1.7800
  776MPD2     N11509   0.801   0.523  12.161  0.1119  0.6568 -0.1060
  776MPD2    H511510   0.836   0.610  12.198  1.6186 -0.4127  0.9597
  776MPD2    N111511   0.890   0.043  12.098 -0.1828 -0.0792 -0.4068
  776MPD2    H711512   0.813   0.044  12.031 -0.8022 -0.5206  0.2896
  777MPD2     C11513   1.161   3.398   0.905 -0.3303  0.5781 -0.3582
  777MPD2    C111514   1.164   3.315   1.015 -0.4312 -0.7184 -0.3905
  777MPD2    C211515   1.166   3.180   0.984  0.7817  0.1708  0.0812
  777MPD2    C311516   1.177   3.126   0.860 -0.2283 -0.1256 -1.1265
  777MPD2    C411517   1.192   3.214   0.750 -0.1290  0.1192  0.1230
  777MPD2    C511518   1.177   3.352   0.775  0.2623  0.0258  0.3628
  777MPD2     H11519   1.151   3.113   1.068  0.1666 -0.1955 -0.3273
  777MPD2    H111520   1.207   3.179   0.648  0.3286 -1.1428  0.6242
  777MPD2    H211521   1.160   3.506   0.917  0.5016  0.3980  1.2312
  777MPD2    H311522   1.189   3.419   0.691 -1.3228  1.7634  1.5102
  777MPD2     N11523   1.158   2.990   0.846 -0.2323  0.1325  0.5063
  777MPD2    H511524   1.125   2.945   0.930  1.1285 -1.9775 -0.0996
  777MPD2    N111525   1.169   3.368   1.142 -0.2809  0.1409  0.0759
  777MPD2    H711526   1.174   3.470   1.145  2.9459 -0.0016 -0.5227
  778MPD2     C11527   2.476   2.996  14.407 -0.0609  0.0017 -0.4521
  778MPD2    C111528   2.534   2.959  14.527  0.6382 -0.6566 -0.3685
  778MPD2    C211529   2.665   2.984  14.541 -0.4143  0.3825 -0.3179
  778MPD2    C311530   2.733   3.070  14.453  0.3626 -0.3135 -0.4989
  778MPD2    C411531   2.675   3.103  14.329  0.1155 -0.6961  0.0878
  778MPD2    C511532   2.546   3.067  14.316  0.1506  0.9387  0.0419
  778MPD2     H11533   2.715   2.944  14.628  0.6177 -0.4361 -1.2857
  778MPD2    H111534   2.726   3.167  14.258  1.2560 -1.1160  0.5210
  778MPD2    H211535   2.374   2.968  14.384 -0.3891  0.9964 -0.2361
  778MPD2    H311536   2.494   3.101  14.227  2.2236 -0.7086 -1.8143
  778MPD2     N11537   2.870   3.099  14.485 -0.6104 -0.0855  0.3864
  778MPD2    H511538   2.917   3.036  14.550  1.3770  0.6213 -0.3650
  778MPD2    N111539   2.483   2.882  14.631 -0.2109 -0.2022  0.0990
  778MPD2    H711540   2.533   2.866  14.718  1.9498  1.1487 -0.8952
  779MPD2     C11541   1.820   1.634  14.026 -0.1639 -0.3450  0.1548
  779MPD2    C111542   1.949   1.681  14.052 -0.4485 -0.2804  0.1657
  779MPD2    C211543   1.968   1.817  14.051 -0.0947  0.5597  0.6450
  779MPD2    C311544   1.865   1.906  14.019 -0.0534  0.3122  0.3914
  779MPD2    C411545   1.742   1.851  13.995  0.1134 -0.3101  0.2241
  779MPD2    C511546   1.718   1.717  14.001  0.2671  0.1896  0.3012
  779MPD2     H11547   2.070   1.851  14.070  0.3119 -1.0577  1.2959
  779MPD2    H111548   1.662   1.921  13.976  1.6259  1.1560 -0.6882
  779MPD2    H211549   1.790   1.530  14.033 -0.7465 -0.3598 -2.6419
  779MPD2    H311550   1.620   1.670  13.998 -0.3138  1.3956  0.3921
  779MPD2     N11551   1.896   2.043  14.017  0.1980  0.2699  0.8869
  779MPD2    H511552   1.984   2.068  14.060  0.5245  1.5202 -0.5201
  779MPD2    N111553   2.056   1.592  14.085 -0.4226 -0.0122  0.1750
  779MPD2    H711554   2.149   1.632  14.093  0.5587 -2.0969 -0.7719
  780MPD2     C11555   1.686   1.654   0.959  0.6667  0.4373  0.1596
  780MPD2    C111556   1.736   1.590   0.846 -0.5273  0.6403 -0.3343
  780MPD2    C211557   1.703   1.630   0.716 -0.5546 -0.1004 -0.4152
  780MPD2    C311558   1.616   1.734   0.703  0.0875 -0.5905  0.1583
  780MPD2    C411559   1.556   1.791   0.814  0.1784 -0.7939  0.7224
  780MPD2    C511560   1.604   1.766   0.936 -0.0397  0.3310  0.1577
  780MPD2     H11561   1.737   1.571   0.632  0.4389 -0.0702 -0.0358
  780MPD2    H111562   1.486   1.873   0.807 -0.2066 -1.0175  1.9766
  780MPD2    H211563   1.708   1.628   1.061  0.3399 -0.5787 -0.0363
  780MPD2    H311564   1.562   1.819   1.021  0.7655  2.5097 -0.8044
  780MPD2     N11565   1.590   1.773   0.574 -0.2823 -0.0835 -0.5551
  780MPD2    H511566   1.612   1.700   0.507  1.2130 -0.2256  0.0908
  780MPD2    N111567   1.821   1.480   0.876 -0.9060  0.1325  0.8016
  780MPD2    H711568   1.848   1.468   0.973  1.2334  0.1378  0.1985
  781MPD2     C11569   3.333   2.819  12.181 -0.3575 -0.1167 -0.8649
  781MPD2    C111570   3.444   2.903  12.205 -0.5921  0.5627  0.1789
  781MPD2    C211571   3.534   2.912  12.097  0.3381 -0.1303 -0.0711
  781MPD2    C311572   3.508   2.850  11.979  0.0010 -0.7756 -0.8963
  781MPD2    C411573   3.400   2.766  11.968  0.0529  0.3520  0.4931
  781MPD2    C511574   3.309   2.749  12.071  0.1725  0.1475  0.2993
  781MPD2     H11575   3.621   2.975  12.112 -1.4449  2.0603  1.0761
  781MPD2    H111576   3.387   2.705  11.879  2.4931  1.8996 -0.9028
  781MPD2    H211577   3.252   2.806  12.251 -1.7848 -2.7511 -3.0128
  781MPD2    H311578   3.225   2.680  12.067 -0.7284  1.1652  1.8061
  781MPD2     N11579   3.591   2.868  11.866 -0.1620 -0.6888  0.1206
  781MPD2    H511580   3.580   2.798  11.792  1.9636 -1.2309  0.3002
  781MPD2    N111581   3.458   2.961  12.328 -0.1161  0.1216 -0.4766
  781MPD2    H711582   3.379   2.956  12.391 -0.8237  1.6438 -1.2459
  782MPD2     C11583   1.323   4.437  10.068  0.1191 -0.1437  0.5710
  782MPD2    C111584   1.357   4.364  10.177 -0.0395  0.1952  0.4237
  782MPD2    C211585   1.378   4.429  10.295 -0.0819 -0.2974 -0.2414
  782MPD2    C311586   1.395   4.567  10.297  0.0431 -0.0766  0.2295
  782MPD2    C411587   1.384   4.636  10.184  0.2131 -0.1858 -0.0826
  782MPD2    C511588   1.335   4.576  10.075  0.0445 -0.0895 -0.1148
  782MPD2     H11589   1.395   4.382  10.391  0.1527  0.8793  0.3003
  782MPD2    H111590   1.405   0.003  10.172 -1.0821 -0.0831 -1.3982
  782MPD2    H211591   1.297   4.390   9.973  0.1678  0.8842  0.0462
  782MPD2    H311592   1.314   4.640   9.990  1.1402  0.0256 -0.3044
  782MPD2     N11593   1.463   4.636  10.406  0.3979  0.6530 -0.1765
  782MPD2    H511594   1.509   4.726  10.393  0.0443  0.7705 -0.6016
  782MPD2    N111595   1.366   4.225  10.170  0.6086  0.1030 -0.2498
  782MPD2    H711596   1.388   4.179  10.257  0.1317 -0.2158 -0.2960
  783MPD2     C11597   1.067   3.664  10.735 -0.3221  0.0186  0.5390
  783MPD2    C111598   1.073   3.801  10.736  0.1322  0.1242 -0.7251
  783MPD2    C211599   1.165   3.860  10.645  0.0654 -0.4130  0.7404
  783MPD2    C311600   1.239   3.786  10.558  0.0962  0.3136 -0.7127
  783MPD2    C411601   1.230   3.652  10.565 -0.0851  0.5879 -0.4807
  783MPD2    C511602   1.139   3.597  10.646 -0.3356 -0.3531 -0.3523
  783MPD2     H11603   1.184   3.966  10.643  2.5559 -0.8762  0.3870
  783MPD2    H111604   1.295   3.580  10.516 -2.1611 -2.2554  0.9186
  783MPD2    H211605   1.004   3.606  10.802  0.4546 -0.7716  0.5870
  783MPD2    H311606   1.132   3.489  10.647  1.0419 -0.4274  2.0659
  783MPD2     N11607   1.329   3.849  10.467 -0.5490  0.1732 -0.3792
  783MPD2    H511608   1.323   3.950  10.467  1.7458  0.2999  1.1864
  783MPD2    N111609   0.991   3.878  10.823  0.3756  0.0385 -0.7614
  783MPD2    H711610   0.913   3.829  10.866 -0.2981  1.3461 -0.4782
  784MPD2     C11611   3.425   0.356   1.644 -0.2779 -0.3487 -0.1286
  784MPD2    C111612   3.457   0.461   1.561  0.0436  0.8154  0.2817
  784MPD2    C211613   3.361   0.507   1.466  0.2966  0.1619 -0.4854
  784MPD2    C311614   3.248   0.442   1.450 -0.3563 -0.1022  0.0408
  784MPD2    C411615   3.217   0.331   1.530 -1.0525  0.8222  0.4521
  784MPD2    C511616   3.307   0.297   1.630 -0.4627 -0.5365  0.7079
  784MPD2     H11617   3.398   0.585   1.400  1.1854 -0.4402 -0.6967
  784MPD2    H111618   3.126   0.271   1.528 -0.9022  0.5463  1.5076
  784MPD2    H211619   3.495   0.318   1.719  1.3516  1.8317 -0.5351
  784MPD2    H311620   3.283   0.210   1.691  1.5911 -3.1675 -2.2004
  784MPD2     N11621   3.157   0.490   1.357  0.6036 -0.2196  0.4279
  784MPD2    H511622   3.159   0.586   1.324 -0.9138 -0.4514 -0.3478
  784MPD2    N111623   3.587   0.521   1.552 -0.0935 -0.1982  0.0984
  784MPD2    H711624   3.596   0.570   1.463 -0.0613  0.3986  0.4302
  785MPD2     C11625   4.228   2.270  10.681  0.3686 -0.6798  0.0185
  785MPD2    C111626   4.147   2.318  10.778  0.2550 -0.5728 -0.6626
  785MPD2    C211627   4.005   2.299  10.759 -0.0063  0.6445 -0.2689
  785MPD2    C311628   3.956   2.227  10.649  0.1099 -0.0866  0.0439
  785MPD2    C411629   4.044   2.168  10.568  0.0590 -0.2164 -0.4404
  785MPD2    C511630   4.171   2.204  10.578  0.0339  0.0306  0.1854
  785MPD2     H11631   3.937   2.350  10.826 -1.1772 -1.3226  0.0539
  785MPD2    H111632   4.015   2.140  10.467  2.7028 -0.5286 -1.1025
  785MPD2    H211633   4.337   2.277  10.681  0.3173  0.2721 -2.7172
  785MPD2    H311634   4.239   2.170  10.500  0.5172  0.4346  0.4258
  785MPD2     N11635   3.814   2.227  10.624  0.0011 -0.1768 -0.1314
  785MPD2    H511636   3.757   2.280  10.690  0.3166 -0.2905  0.2347
  785MPD2    N111637   4.199   2.406  10.875  0.2236 -0.0455  0.5791
  785MPD2    H711638   4.300   2.418  10.870  0.1475 -0.2927 -1.5691
  786MPD2     C11639   2.626   0.943  14.922 -0.6098 -0.1162  0.8065
  786MPD2    C111640   2.599   0.816  14.979 -0.4822 -0.0547 -0.0212
  786MPD2    C211641   2.612   0.800  15.120  0.3113  0.4556 -0.4366
  786MPD2    C311642   2.656   0.899  15.204 -0.1718 -0.7442 -0.5229
  786MPD2    C411643   2.682   1.018  15.143 -0.1476  0.4375 -0.5084
  786MPD2    C511644   2.654   1.041  15.009  0.2840  1.2581 -0.5433
  786MPD2     H11645   2.601   0.701  15.164  0.6352 -0.0512 -1.4847
  786MPD2    H111646   2.719   1.102  15.200 -0.6862 -0.9664  1.9418
  786MPD2    H211647   2.630   0.969  14.817 -0.6523 -0.2204  0.7797
  786MPD2    H311648   2.664   1.138  14.963  0.8602  1.2319 -0.4739
  786MPD2     N11649   2.677   0.886  15.347 -0.5559  0.2865  0.5159
  786MPD2    H511650   2.726   0.963  15.391 -0.5902  1.4246 -1.4030
  786MPD2    N111651   2.581   0.700  14.899  0.5567  0.4072  0.0239
  786MPD2    H711652   2.595   0.612  14.947  0.3258 -0.2700 -1.1513
  787MPD2     C11653   2.985   0.261  14.959  0.8553  0.4926  0.6211
  787MPD2    C111654   2.894   0.189  14.883  0.7483 -0.4216 -0.1013
  787MPD2    C211655   2.920   0.056  14.848 -0.2289 -0.0503 -0.2425
  787MPD2    C311656   3.052   0.014  14.856  0.6889 -0.0837  1.1993
  787MPD2    C411657   3.142   0.085  14.933 -0.0353 -0.3680 -0.5633
  787MPD2    C511658   3.104   0.202  14.986 -0.4400 -0.5876  0.4667
  787MPD2     H11659   2.849   4.733  14.795 -0.5926  0.8302 -0.7762
  787MPD2    H111660   3.240   0.038  14.944  0.4347  0.2816 -1.9094
  787MPD2    H211661   2.964   0.354  15.010  0.7150  0.5957  0.3799
  787MPD2    H311662   3.175   0.264  15.039 -0.7278  1.0288 -1.0402
  787MPD2     N11663   3.085   4.627  14.805 -0.9689  0.5268 -0.1952
  787MPD2    H511664   3.012   4.562  14.776  0.6882 -0.7205 -1.5128
  787MPD2    N111665   2.769   0.254  14.862 -0.1006 -0.2133  0.6673
  787MPD2    H711666   2.761   0.348  14.898  0.8689  0.0192  0.2683
  788MPD2     C11667   4.564   4.484   1.190 -0.2584  0.8294  0.0937
  788MPD2    C111668   4.579   4.446   1.057  0.0962  0.2627 -0.0381
  788MPD2    C211669   4.567   4.542   0.959 -0.0357 -0.0263 -0.3283
  788MPD2    C311670   4.530   4.670   0.996 -0.2536 -0.0969 -0.6378
  788MPD2    C411671   4.511   4.705   1.127 -0.2501  0.0456  0.0206
  788MPD2    C511672   4.544   4.616   1.226  0.6918 -0.5020 -0.0442
  788MPD2     H11673   4.575   4.521   0.853  0.9885 -0.9504 -0.0669
  788MPD2    H111674   4.471   0.065   1.147  0.8298  0.5741 -0.4668
  788MPD2    H211675   4.577   4.417   1.274  0.5770  2.3685  1.2058
  788MPD2    H311676   4.561   4.645   1.330 -0.3680 -1.1324  0.2974
  788MPD2     N11677   4.497   0.031   0.904 -0.2653 -0.5989  0.6259
  788MPD2    H511678   4.489   0.126   0.938 -2.1801  0.1395 -1.8904
  788MPD2    N111679   4.615   4.317   1.016 -0.3406  0.5278  0.2109
  788MPD2    H711680   4.670   4.312   0.931 -2.0289  0.3283 -0.8884
  789MPD2     C11681   0.125   4.062  16.349  0.4184  1.0313 -0.9270
  789MPD2    C111682   0.044   4.011  16.450 -0.0814  0.2701 -0.4901
  789MPD2    C211683   4.684   4.094  16.504  0.1370  0.0297 -0.4848
  789MPD2    C311684   4.657   4.220  16.446 -0.4788  0.3318 -0.2575
  789MPD2    C411685   4.723   4.259  16.327  0.0752  0.6675  0.4396
  789MPD2    C511686   0.090   4.177  16.286  0.9586 -0.6577 -0.3692
  789MPD2     H11687   4.638   4.063  16.597  0.0421 -0.0910 -0.5729
  789MPD2    H111688   4.706   4.353  16.277 -0.5106  0.3996  0.1271
  789MPD2    H211689   0.216   4.016  16.312 -1.2355 -1.5324 -1.8380
  789MPD2    H311690   0.146   4.210  16.199  2.2306  0.2592  0.7841
  789MPD2     N11691   4.549   4.298  16.494 -0.0205 -0.7610  0.3632
  789MPD2    H511692   4.493   4.253  16.565 -0.3859 -0.0563  0.5196
  789MPD2    N111693   0.058   3.882  16.508  0.7861  0.6150  0.3332
  789MPD2    H711694   4.734   3.846  16.579  1.5097  0.2168  0.7806
  790MPD2     C11695   1.110   1.312  13.082 -0.3279  0.5782  0.3724
  790MPD2    C111696   1.174   1.201  13.123  0.5732 -0.7146  0.4363
  790MPD2    C211697   1.110   1.079  13.094 -0.6152  0.2983 -0.5715
  790MPD2    C311698   0.981   1.070  13.044  0.0676 -0.2138 -0.2181
  790MPD2    C411699   0.909   1.189  13.023  0.7354  0.3685 -0.1016
  790MPD2    C511700   0.977   1.311  13.033  0.3175 -0.0601 -0.1130
  790MPD2     H11701   1.162   0.984  13.104 -0.1238  0.4330 -1.8262
  790MPD2    H111702   0.809   1.195  12.983 -0.0908  1.5698  2.1445
  790MPD2    H211703   1.175   1.399  13.084 -2.0948  1.9176  0.0944
  790MPD2    H311704   0.932   1.398  12.988  0.2808 -0.3265 -0.5972
  790MPD2     N11705   0.930   0.944  13.011  0.0375 -0.4872 -0.1843
  790MPD2    H511706   0.978   0.864  13.050 -1.6100 -2.1849 -1.6573
  790MPD2    N111707   1.301   1.208  13.177 -0.1259 -0.2222  0.0215
  790MPD2    H711708   1.341   1.300  13.186  3.5079 -1.7393 -0.5033
  791MPD2     C11709   0.385   0.477  13.230 -0.2530 -0.0759  1.0450
  791MPD2    C111710   0.393   0.485  13.089  0.1888  0.0394 -0.5964
  791MPD2    C211711   0.290   0.427  13.014 -0.0124  0.3348 -0.3825
  791MPD2    C311712   0.181   0.358  13.063  0.2230  0.9913 -0.0076
  791MPD2    C411713   0.180   0.356  13.198  0.4995 -0.2162  0.5371
  791MPD2    C511714   0.276   0.417  13.276 -0.0399  0.2377  0.4899
  791MPD2     H11715   0.285   0.438  12.906  0.4065  0.4618 -0.3896
  791MPD2    H111716   0.101   0.301  13.249 -1.0218  0.5817 -0.9752
  791MPD2    H211717   0.460   0.514  13.299 -1.0838  4.0721 -0.2729
  791MPD2    H311718   0.259   0.425  13.383 -2.4529  0.7743  0.0738
  791MPD2     N11719   0.076   0.312  12.981 -0.0457  0.4516  0.0288
  791MPD2    H511720   0.091   0.322  12.881 -1.4155 -0.8524 -0.3046
  791MPD2    N111721   0.507   0.554  13.027  0.7410 -0.1136 -0.4238
  791MPD2    H711722   0.566   0.616  13.081 -0.5686  0.6125  0.1821
  792MPD2     C11723   1.630   0.973  11.345  0.3936  0.2845  0.1109
  792MPD2    C111724   1.564   0.889  11.259  0.6887 -0.2189  0.4490
  792MPD2    C211725   1.427   0.891  11.252  0.2274  0.3898  0.1418
  792MPD2    C311726   1.353   0.978  11.330 -0.5730  0.0794  0.5884
  792MPD2    C411727   1.420   1.061  11.422 -0.3678  0.6150 -0.7318
  792MPD2    C511728   1.553   1.046  11.429 -0.8282  0.0129  0.1039
  792MPD2     H11729   1.374   0.834  11.178 -0.9348 -0.0800  1.3342
  792MPD2    H111730   1.361   1.128  11.483  2.5756  1.8177  0.8093
  792MPD2    H211731   1.738   0.970  11.355  0.5995  0.9267 -1.8373
  792MPD2    H311732   1.599   1.096  11.513 -0.6766 -2.0398  1.2297
  792MPD2     N11733   1.210   0.991  11.338  0.3552  0.8757  0.1773
  792MPD2    H511734   1.172   1.045  11.415  1.0411 -0.0682  1.1599
  792MPD2    N111735   1.644   0.805  11.176  0.3280 -0.4331  0.6973
  792MPD2    H711736   1.743   0.810  11.200  0.5959 -0.5462 -0.4066
  793MPD2     C11737   0.561   0.528  10.749 -0.1795  0.9561  0.4401
  793MPD2    C111738   0.693   0.526  10.778  0.0421  0.3036  0.2707
  793MPD2    C211739   0.742   0.586  10.894  0.9558  0.2957 -0.1791
  793MPD2    C311740   0.663   0.674  10.965  0.2728 -0.2885 -0.9739
  793MPD2    C411741   0.533   0.682  10.939 -0.1798 -0.2699  0.0806
  793MPD2    C511742   0.480   0.604  10.835 -0.2642 -0.1120 -0.5629
  793MPD2     H11743   0.845   0.574  10.927  0.7241  0.4486  0.6059
  793MPD2    H111744   0.479   0.757  10.996 -0.9591 -1.0009  0.2973
  793MPD2    H211745   0.514   0.479  10.664 -0.7189  0.3405  1.0901
  793MPD2    H311746   0.377   0.605  10.801 -0.0936  2.8645 -0.9942
  793MPD2     N11747   0.727   0.744  11.070 -0.5861  0.2401  0.2248
  793MPD2    H511748   0.823   0.717  11.087  0.1085  1.5665 -1.6282
  793MPD2    N111749   0.789   0.469  10.692 -0.0252  0.1657  0.0271
  793MPD2    H711750   0.882   0.476  10.732 -0.1700 -0.4545  0.4776
  794MPD2     C11751   0.826   0.059  16.938  0.1955 -0.7840 -0.1881
  794MPD2    C111752   0.722   0.024  17.024  0.8589  0.0797  0.0667
  794MPD2    C211753   0.590   0.041  16.986 -0.3158  0.0557 -0.6337
  794MPD2    C311754   0.560   0.104  16.866 -0.6195 -0.2268 -0.5242
  794MPD2    C411755   0.665   0.135  16.779 -0.3784 -0.5811  0.6880
  794MPD2    C511756   0.798   0.119  16.817  0.0812 -0.6099  0.9868
  794MPD2     H11757   0.511   4.738  17.047 -0.2027 -0.1191 -0.6071
  794MPD2    H111758   0.649   0.186  16.684  0.5065 -0.8983  0.3701
  794MPD2    H211759   0.925   0.044  16.980  0.7805  0.4113 -1.1475
  794MPD2    H311760   0.879   0.149  16.751 -1.4455  2.0559  0.3071
  794MPD2     N11761   0.432   0.136  16.828 -0.9973 -0.4266  0.7065
  794MPD2    H511762   0.420   0.175  16.736  1.8711  0.5866  0.7835
  794MPD2    N111763   0.750   4.687  17.145 -0.4827  0.4475  0.4521
  794MPD2    H711764   0.664   4.649  17.186 -0.5361  2.1119  1.8562
  795MPD2     C11765   3.418   2.264  13.716  0.4886 -0.6865 -0.8210
  795MPD2    C111766   3.363   2.145  13.671 -0.5163 -0.2363 -0.2466
  795MPD2    C211767   3.444   2.029  13.680  0.1218  0.5616  0.0328
  795MPD2    C311768   3.581   2.033  13.715  0.0807 -0.0232 -0.2206
  795MPD2    C411769   3.633   2.159  13.739  0.1418 -0.2161 -0.0070
  795MPD2    C511770   3.551   2.270  13.745 -0.0090 -0.0434  0.1057
  795MPD2     H11771   3.399   1.939  13.640  1.0630 -0.4267  1.2189
  795MPD2    H111772   3.739   2.179  13.733  0.0179  0.4690  0.1333
  795MPD2    H211773   3.377   2.364  13.712  0.9991 -0.3936  1.2411
  795MPD2    H311774   3.593   2.368  13.763 -0.3095  0.3749 -1.5296
  795MPD2     N11775   3.670   1.927  13.718  0.0319  0.3377 -0.5668
  795MPD2    H511776   3.765   1.959  13.702  0.2499 -0.7460 -1.3657
  795MPD2    N111777   3.237   2.141  13.613  0.3515 -0.2856  0.0682
  795MPD2    H711778   3.210   2.050  13.575  1.3680  0.0652 -1.5271
  796MPD2     C11779   2.673   3.598  16.132 -0.6739 -0.2832 -0.1649
  796MPD2    C111780   2.803   3.648  16.148 -0.7723 -0.1672 -0.3497
  796MPD2    C211781   2.836   3.768  16.098 -0.1607 -0.7562 -0.9755
  796MPD2    C311782   2.739   3.844  16.032  0.2240  0.0353  0.4071
  796MPD2    C411783   2.608   3.799  16.023  0.1230  0.7002 -0.2595
  796MPD2    C511784   2.575   3.677  16.081  0.0168  0.2060 -0.0071
  796MPD2     H11785   2.933   3.816  16.109  0.1097 -1.2967 -1.0017
  796MPD2    H111786   2.530   3.858  15.975  0.3452 -0.6476 -2.2758
  796MPD2    H211787   2.637   3.503  16.172 -1.5355 -0.3730 -1.1828
  796MPD2    H311788   2.477   3.635  16.062  1.2448 -2.3889 -0.5291
  796MPD2     N11789   2.779   3.974  15.993 -0.0254  0.4877 -0.1126
  796MPD2    H511790   2.875   4.008  15.999  0.0980  0.1672 -0.2512
  796MPD2    N111791   2.897   3.569  16.220  0.4497  0.1497  0.4114
  796MPD2    H711792   2.864   3.474  16.238 -1.3956  0.7266  0.1361
  797MPD2     C11793   3.689   3.479  17.112 -0.5188 -0.6467 -0.8745
  797MPD2    C111794   3.824   3.493  17.128  0.5353 -0.2017  0.2600
  797MPD2    C211795   3.888   3.570  17.039  0.3025 -0.4879  0.0588
  797MPD2    C311796   3.834   3.638  16.939  0.7089 -0.1153 -0.0835
  797MPD2    C411797   3.700   3.624  16.922 -0.3205  0.3857 -0.6791
  797MPD2    C511798   3.630   3.545  17.011  0.3249  0.7564  0.0172
  797MPD2     H11799   3.996   3.569  17.037  0.3078 -0.2134  0.2265
  797MPD2    H111800   3.647   3.671  16.840 -0.2141  0.9202 -0.4357
  797MPD2    H211801   3.622   3.421  17.174 -0.0049  0.5150  0.7845
  797MPD2    H311802   3.523   3.535  16.997  0.4536  1.0108 -1.0860
  797MPD2     N11803   3.909   3.707  16.843  0.0034  0.7010  0.6152
  797MPD2    H511804   3.846   3.753  16.777 -1.0668 -1.7045 -0.0244
  797MPD2    N111805   3.903   3.432  17.225  0.7361  0.3674  0.5269
  797MPD2    H711806   3.998   3.467  17.231  0.6770  0.5478  0.4243
  798MPD2     C11807   4.574   3.444  16.879 -0.5835 -0.2463  1.2631
  798MPD2    C111808   4.460   3.516  16.908  0.1421 -0.3523 -0.4648
  798MPD2    C211809   4.389   3.475  17.018 -0.8772  0.0552 -0.2615
  798MPD2    C311810   4.421   3.372  17.101 -0.8364 -0.4589  0.9926
  798MPD2    C411811   4.535   3.300  17.069 -0.1991 -0.1697  1.0344
  798MPD2    C511812   4.612   3.342  16.963 -0.2253  0.2626 -0.3351
  798MPD2     H11813   4.295   3.525  17.040  0.1664  1.7300  0.4088
  798MPD2    H111814   4.568   3.214  17.125  0.8880 -0.6878 -0.3884
  798MPD2    H211815   4.635   3.467  16.793 -0.2097 -5.3577  0.1659
  798MPD2    H311816   4.693   3.278  16.931  0.8230  1.5989 -0.3707
  798MPD2     N11817   4.329   3.337  17.200  0.1371  0.2983 -0.1196
  798MPD2    H511818   4.242   3.386  17.220  0.1147  1.1649 -2.3896
  798MPD2    N111819   4.391   3.598  16.815 -0.2967  0.8707  0.1320
  798MPD2    H711820   4.292   3.608  16.835  0.0654  2.0108  1.3760
  799MPD2     C11821   2.563   4.314  15.083  0.2307  0.0596 -0.7372
  799MPD2    C111822   2.579   4.241  14.966  0.4503 -0.2274 -0.2951
  799MPD2    C211823   2.537   4.300  14.852  0.5987  0.4150  0.5362
  799MPD2    C311824   2.494   4.429  14.849 -0.0826 -0.2907 -0.1303
  799MPD2    C411825   2.480   4.503  14.964 -0.3950 -0.2490 -0.0732
  799MPD2    C511826   2.516   4.442  15.081 -0.5793  0.6203  0.0724
  799MPD2     H11827   2.547   4.249  14.756  2.1399  0.6706  0.5708
  799MPD2    H111828   2.445   4.606  14.965  0.1668 -0.0612  1.4504
  799MPD2    H211829   2.585   4.272  15.180  1.9798  0.3129 -1.0218
  799MPD2    H311830   2.490   4.485  15.177 -2.4349 -0.8300  0.2236
  799MPD2     N11831   2.474   4.504  14.722  0.1546  0.2615 -0.2922
  799MPD2    H511832   2.464   4.605  14.726  0.8882  0.3248 -0.0395
  799MPD2    N111833   2.648   4.119  14.958 -0.2095  0.6332 -0.3637
  799MPD2    H711834   2.630   4.071  14.870  3.3182 -0.4151 -0.4981
  800MPD2     C11835   3.205   0.943  13.976  0.3157 -0.5009 -0.1206
  800MPD2    C111836   3.332   0.903  13.956  0.6721 -0.3214  0.1642
  800MPD2    C211837   3.357   0.805  13.859  0.2216 -0.0807 -0.0502
  800MPD2    C311838   3.251   0.756  13.783 -0.0910 -0.1483 -0.0931
  800MPD2    C411839   3.122   0.799  13.809  0.2578 -0.7051  0.1282
  800MPD2    C511840   3.103   0.883  13.909  0.2173 -0.8837  0.5976
  800MPD2     H11841   3.456   0.780  13.825  0.7121  1.5589  0.2096
  800MPD2    H111842   3.041   0.770  13.743 -0.5685  1.1676  0.3189
  800MPD2    H211843   3.175   1.017  14.050 -1.6885 -1.6092  0.1744
  800MPD2    H311844   3.005   0.929  13.910  0.8072  0.3632  1.1145
  800MPD2     N11845   3.297   0.686  13.666 -0.1781 -0.3214  0.3042
  800MPD2    H511846   3.398   0.678  13.659 -0.0637  1.9132 -0.7017
  800MPD2    N111847   3.440   0.966  14.028  0.1078 -0.4673  0.4101
  800MPD2    H711848   3.432   1.060  14.066  0.7846  0.5306 -1.9406
  801MPD2     C11849   3.655   1.655  14.054 -0.3319  0.1639 -0.1339
  801MPD2    C111850   3.574   1.540  14.042  0.0176  0.1756 -0.0395
  801MPD2    C211851   3.442   1.557  14.076 -0.2073  0.6405 -0.3216
  801MPD2    C311852   3.390   1.673  14.131 -0.4475 -0.6581  0.2507
  801MPD2    C411853   3.473   1.776  14.135  0.2627 -0.4758 -0.0573
  801MPD2    C511854   3.602   1.769  14.092  0.6979  0.2708 -0.4545
  801MPD2     H11855   3.388   1.463  14.083  1.3244 -0.3867 -2.3623
  801MPD2    H111856   3.433   1.863  14.185 -0.4071 -1.1760  0.6225
  801MPD2    H211857   3.761   1.648  14.034 -0.4200  2.5290 -1.3959
  801MPD2    H311858   3.665   1.857  14.097 -0.3471  1.0518 -1.1626
  801MPD2     N11859   3.258   1.701  14.180 -0.7369  0.2493  0.2487
  801MPD2    H511860   3.237   1.787  14.229  1.4399 -0.6199  2.7205
  801MPD2    N111861   3.617   1.407  14.016 -0.2022  0.4096 -0.3121
  801MPD2    H711862   3.548   1.333  14.011  0.2000 -0.0508  0.8691
  802MPD2     C11863   2.875   2.282   0.286 -0.8151 -0.6714 -0.3434
  802MPD2    C111864   2.779   2.313   0.193 -0.7109 -0.1962  0.4103
  802MPD2    C211865   2.759   2.238   0.073  0.7121  0.4105  0.2990
  802MPD2    C311866   2.840   2.135   0.040  0.4989  0.4503 -0.2676
  802MPD2    C411867   2.942   2.104   0.132  0.3530  0.4600  0.4861
  802MPD2    C511868   2.961   2.185   0.245  0.3307  0.2422  0.2302
  802MPD2     H11869   2.677   2.266   0.008  1.9211  0.7916 -1.0338
  802MPD2    H111870   3.003   2.018   0.110 -1.1199 -0.4729  0.0623
  802MPD2    H211871   2.902   2.345   0.369 -0.7660 -0.0262 -0.8504
  802MPD2    H311872   3.057   2.178   0.295  0.3072 -0.5691  0.1504
  802MPD2     N11873   2.802   2.069  17.676 -0.0188 -0.4843  0.7278
  802MPD2    H511874   2.705   2.083  17.651  0.7224 -0.6829 -2.3480
  802MPD2    N111875   2.677   2.409   0.217  0.6355  0.6733  0.0768
  802MPD2    H711876   2.600   2.419   0.152 -0.3002 -0.0291  1.0681
  803MPD2     C11877   3.774   0.132  12.061 -0.3638  0.4623  0.0292
  803MPD2    C111878   3.739   0.268  12.062  0.2573 -0.1945 -0.4836
  803MPD2    C211879   3.694   0.322  12.183 -0.0058 -0.0111 -0.3827
  803MPD2    C311880   3.692   0.247  12.301 -0.0972 -0.4114 -0.0784
  803MPD2    C411881   3.718   0.112  12.295 -1.1067  0.1081 -0.1238
  803MPD2    C511882   3.754   0.059  12.177 -0.2821  0.9686  0.0034
  803MPD2     H11883   3.673   0.429  12.183  2.3186  0.4489  1.2746
  803MPD2    H111884   3.703   0.046  12.379  1.5061  0.4254  0.5850
  803MPD2    H211885   3.817   0.088  11.971 -0.4327  1.2938 -0.4129
  803MPD2    H311886   3.775   4.691  12.177  1.2987  1.2792  0.9673
  803MPD2     N11887   3.650   0.287  12.427 -0.6459 -0.3904 -0.2791
  803MPD2    H511888   3.646   0.215  12.499 -0.5835  0.4233  0.5450
  803MPD2    N111889   3.740   0.356  11.949 -0.8781 -0.7946  0.1300
  803MPD2    H711890   3.734   0.456  11.964  0.3859 -0.4191 -1.9117
  804MPD2     C11891   2.899   1.870  17.073  0.3210 -0.3722  0.7221
  804MPD2    C111892   2.928   1.772  17.168 -0.3407  0.9611  0.4548
  804MPD2    C211893   2.997   1.807  17.284  0.6906 -0.5651 -0.2713
  804MPD2    C311894   3.037   1.939  17.297  0.4133  0.2215 -0.7598
  804MPD2    C411895   3.001   2.036  17.203 -0.7908 -0.0927 -0.4458
  804MPD2    C511896   2.928   2.001  17.098  0.0568 -0.1398  0.2548
  804MPD2     H11897   3.011   1.731  17.360 -1.0030 -1.0059 -0.4081
  804MPD2    H111898   3.024   2.140  17.223  0.2613 -0.3744 -0.2134
  804MPD2    H211899   2.852   1.845  16.979 -0.7715  1.6111  0.7393
  804MPD2    H311900   2.898   2.084  17.035  0.8096  0.5435  0.7982
  804MPD2     N11901   3.122   1.984  17.401 -0.5911 -0.0824 -0.4147
  804MPD2    H511902   3.136   2.083  17.417 -0.6903 -0.2415  0.6682
  804MPD2    N111903   2.900   1.638  17.155  0.4112  0.5017 -0.1719
  804MPD2    H711904   2.942   1.580  17.227  0.6035  1.3566  0.3988
  805MPD2     C11905   2.347   0.145  15.062 -0.5403 -0.3457 -0.4799
  805MPD2    C111906   2.289   0.068  15.166  0.4759  0.2538 -0.0002
  805MPD2    C211907   2.338   0.084  15.298  0.1823 -0.7601 -0.1841
  805MPD2    C311908   2.453   0.165  15.314  0.7691 -0.2987  0.6741
  805MPD2    C411909   2.500   0.241  15.206  0.9433  0.2418 -0.2505
  805MPD2    C511910   2.446   0.233  15.080 -0.0544  0.3205  0.0918
  805MPD2     H11911   2.302   0.026  15.383  1.9192  1.5969  2.1660
  805MPD2    H111912   2.579   0.316  15.208  0.2010  0.9817  1.5735
  805MPD2    H211913   2.303   0.135  14.963 -0.7481 -0.6081 -0.3593
  805MPD2    H311914   2.467   0.292  14.992  0.1997 -1.8295 -1.2988
  805MPD2     N11915   2.525   0.187  15.436 -0.1115  0.4525 -0.5683
  805MPD2    H511916   2.592   0.263  15.430 -0.5811  0.9430  0.2616
  805MPD2    N111917   2.191   4.706  15.142  0.0994  0.0125  0.2628
  805MPD2    H711918   2.169   4.647  15.222  3.5301 -1.6512 -0.0008
  806MPD2     C11919   3.594   4.568   1.805  0.5931  0.0698  0.0826
  806MPD2    C111920   3.715   4.594   1.744 -0.4928  0.5353  0.8087
  806MPD2    C211921   3.717   4.678   1.633 -0.4843  0.1795  0.2179
  806MPD2    C311922   3.599   4.736   1.595 -0.7680 -0.0341  0.2126
  806MPD2    C411923   3.478   4.712   1.655  0.6027  0.5804  0.4927
  806MPD2    C511924   3.480   4.629   1.758 -0.3051 -0.0999 -0.5824
  806MPD2     H11925   3.807   4.693   1.575 -0.2216 -1.0236  0.3027
  806MPD2    H111926   3.386   0.012   1.613  0.1589  0.3168  1.2342
  806MPD2    H211927   3.580   4.502   1.890  1.5371 -3.0855 -2.2672
  806MPD2    H311928   3.385   4.604   1.803 -0.6811  1.3379 -0.5680
  806MPD2     N11929   3.608   0.069   1.478 -0.3028 -0.0881  0.2817
  806MPD2    H511930   3.706   0.086   1.458 -0.6856 -0.3255 -1.7554
  806MPD2    N111931   3.840   4.532   1.781 -0.3091  0.2339  0.2701
  806MPD2    H711932   3.834   4.450   1.840  0.8587  2.2593  3.2185
  807MPD2     C11933   3.891   3.877   1.687  0.1328  0.2552  0.5745
  807MPD2    C111934   3.830   3.999   1.717  0.0612  0.4972  0.6408
  807MPD2    C211935   3.697   3.992   1.762  0.4544 -0.8977 -0.2530
  807MPD2    C311936   3.630   3.873   1.763  0.5702  0.5786  0.5010
  807MPD2    C411937   3.687   3.759   1.712  0.9545 -0.1593  0.3718
  807MPD2    C511938   3.818   3.763   1.678  0.1180 -0.0642 -0.1004
  807MPD2     H11939   3.640   4.083   1.778 -1.1230 -1.5454 -2.2661
  807MPD2    H111940   3.642   3.661   1.719  1.2808 -0.3773 -0.6878
  807MPD2    H211941   3.996   3.866   1.661 -0.7936 -1.1951 -2.5100
  807MPD2    H311942   3.870   3.672   1.649 -0.4511 -0.7683  1.1087
  807MPD2     N11943   3.500   3.869   1.820 -0.1484  0.2115 -0.1454
  807MPD2    H511944   3.474   3.959   1.860 -1.0294 -0.4875  0.8536
  807MPD2    N111945   3.900   4.124   1.707 -0.1945 -0.0646  0.3806
  807MPD2    H711946   3.850   4.205   1.742 -1.0441 -0.2066 -0.5005
  808MPD2     C11947   3.699   1.268  10.278 -0.5387  0.0899  0.3007
  808MPD2    C111948   3.761   1.248  10.157 -0.2745  0.1145 -0.2874
  808MPD2    C211949   3.814   1.356  10.088 -0.4846  0.7749 -0.2797
  808MPD2    C311950   3.784   1.482  10.124  0.1587  0.2704  0.2776
  808MPD2    C411951   3.731   1.495  10.247 -0.0691 -0.2114 -0.6378
  808MPD2    C511952   3.684   1.393  10.322 -0.0249 -0.4210  0.5376
  808MPD2     H11953   3.871   1.337   9.998  0.4065 -1.9532  0.8628
  808MPD2    H111954   3.696   1.593  10.277 -0.7557 -1.4572  2.6640
  808MPD2    H211955   3.673   1.189  10.347  1.0985 -1.2112 -0.5854
  808MPD2    H311956   3.629   1.421  10.411 -0.8923 -0.3081 -0.0392
  808MPD2     N11957   3.813   1.598  10.052  0.0895  0.3692 -0.1935
  808MPD2    H511958   3.783   1.687  10.091  1.6480  0.0115  1.7889
  808MPD2    N111959   3.792   1.118  10.111  0.5882  0.1737  0.4029
  808MPD2    H711960   3.840   1.111  10.022  2.4001 -2.2723  1.5593
  809MPD2     C11961   4.473   2.312   9.795 -0.5877 -0.0205 -0.4120
  809MPD2    C111962   4.476   2.182   9.746  0.5714 -0.2315 -0.3495
  809MPD2    C211963   4.366   2.106   9.762 -0.4390  0.0858  0.0451
  809MPD2    C311964   4.246   2.155   9.818 -0.2580 -0.6896 -0.0861
  809MPD2    C411965   4.240   2.285   9.869  0.6010  0.3358 -0.5411
  809MPD2    C511966   4.355   2.362   9.852 -0.3419 -0.1768  0.0445
  809MPD2     H11967   4.380   2.007   9.720  1.0791  0.6715 -0.8158
  809MPD2    H111968   4.148   2.323   9.910  1.3330  2.9030 -1.2967
  809MPD2    H211969   4.557   2.380   9.788  0.7503 -1.6656 -0.4342
  809MPD2    H311970   4.354   2.461   9.895 -1.5209  0.6187 -1.8462
  809MPD2     N11971   4.136   2.073   9.835  0.4873 -0.1764  0.2943
  809MPD2    H511972   4.053   2.119   9.872 -1.5001 -2.7061 -1.0523
  809MPD2    N111973   4.588   2.132   9.675 -0.1707 -0.1495 -0.1767
  809MPD2    H711974   4.594   2.030   9.671  4.1548 -0.0410  3.3308
  810MPD2     C11975   3.333   0.597  10.546 -0.3398 -0.3097  0.3196
  810MPD2    C111976   3.201   0.612  10.494 -0.1635  0.4017  0.0839
  810MPD2    C211977   3.125   0.716  10.530 -0.1055  0.2288 -0.2006
  810MPD2    C311978   3.173   0.810  10.622 -0.0577 -0.0287  0.4048
  810MPD2    C411979   3.294   0.787  10.683  0.2834  0.6065 -0.2346
  810MPD2    C511980   3.374   0.682  10.640 -0.9611  0.3537  0.4872
  810MPD2     H11981   3.025   0.726  10.488  0.8745  1.6416 -2.1638
  810MPD2    H111982   3.323   0.862  10.755  0.6890  0.8167 -0.6211
  810MPD2    H211983   3.405   0.523  10.515 -0.5370  0.4518 -1.9456
  810MPD2    H311984   3.467   0.660  10.693 -1.4150  0.1513  1.2004
  810MPD2     N11985   3.112   0.935  10.642  0.0440  0.1065 -0.3756
  810MPD2    H511986   3.140   0.988  10.723  0.0438  0.9032 -0.9006
  810MPD2    N111987   3.156   0.541  10.385 -0.0098 -0.0498  0.1966
  810MPD2    H711988   3.057   0.556  10.363 -0.5381 -1.2447  1.7930
  811MPD2     C11989   2.561   0.507   9.853 -0.9051  0.8657 -0.7879
  811MPD2    C111990   2.660   0.570   9.927 -0.0570 -0.0989  0.2022
  811MPD2    C211991   2.654   0.703   9.955  0.6988  0.4019 -0.1183
  811MPD2    C311992   2.545   0.774   9.911 -0.3144  0.8537  0.7544
  811MPD2    C411993   2.455   0.714   9.830 -0.2551 -0.1487 -0.3534
  811MPD2    C511994   2.454   0.581   9.809 -0.5658  0.3492  0.4659
  811MPD2     H11995   2.725   0.746  10.024 -0.5866  1.7425  0.3520
  811MPD2    H111996   2.369   0.767   9.791 -0.9063 -0.5652  0.5316
  811MPD2    H211997   2.569   0.402   9.826 -0.1468  0.7190 -0.0007
  811MPD2    H311998   2.372   0.541   9.750  0.4034  0.5696 -1.0424
  811MPD2     N11999   2.525   0.904   9.958 -0.4168 -0.3830  0.1711
  811MPD2    H512000   2.608   0.943   9.999  0.0112 -1.0304 -0.0722
  811MPD2    N112001   2.761   0.485   9.974 -0.1042 -0.8830 -0.3319
  811MPD2    H712002   2.753   0.386   9.956 -0.9497 -1.0148  0.7509
  812MPD2     C12003   2.011   0.469  12.215 -0.1892 -0.0977 -0.5229
  812MPD2    C112004   1.931   0.511  12.319 -0.0807 -0.0728 -0.2220
  812MPD2    C212005   1.913   0.431  12.435 -0.1273 -0.1987  0.0488
  812MPD2    C312006   1.975   0.310  12.439 -0.1074 -0.2678  0.7498
  812MPD2    C412007   2.063   0.273  12.334  0.0703  0.4324 -0.1465
  812MPD2    C512008   2.075   0.347  12.220  0.3183  0.3935  0.1317
  812MPD2     H12009   1.844   0.449  12.516 -1.0862 -0.4284 -0.7150
  812MPD2    H112010   2.112   0.176  12.343 -0.5483  0.1219 -0.1341
  812MPD2    H212011   2.016   0.530  12.125  2.4883 -0.7808 -0.8229
  812MPD2    H312012   2.139   0.318  12.137  0.4618 -4.0286  1.7874
  812MPD2     N12013   1.951   0.222  12.543 -0.3520 -0.2667 -0.0650
  812MPD2    H512014   1.886   0.251  12.615  0.4080 -0.1867  0.5900
  812MPD2    N112015   1.869   0.640  12.301 -0.1235  0.7929 -0.2139
  812MPD2    H712016   1.898   0.686  12.215 -1.3322  1.0406 -0.4834
  813MPD2     C12017   1.082   2.106  12.836  0.4727  0.2599  0.4498
  813MPD2    C112018   1.056   2.231  12.895 -0.4210  0.2829 -0.6420
  813MPD2    C212019   0.935   2.238  12.954  0.9412 -0.2917 -0.4264
  813MPD2    C312020   0.846   2.140  12.962  0.3640 -0.4529  0.2389
  813MPD2    C412021   0.864   2.020  12.889 -0.0624 -0.5088  0.4366
  813MPD2    C512022   0.981   2.015  12.822  0.0082 -0.2114  0.9453
  813MPD2     H12023   0.910   2.326  13.012 -1.3818 -1.2064 -0.0689
  813MPD2    H112024   0.789   1.942  12.887  0.2273 -0.7760 -0.1305
  813MPD2    H212025   1.176   2.076  12.790 -0.1906  0.3668 -0.9950
  813MPD2    H312026   0.995   1.924  12.764  1.2999  0.5715  0.0253
  813MPD2     N12027   0.725   2.178  13.027  0.2544 -0.1820  0.4057
  813MPD2    H512028   0.717   2.273  13.061  0.5241  0.0586 -0.2045
  813MPD2    N112029   1.149   2.332  12.904  0.6260 -0.1756  0.4784
  813MPD2    H712030   1.128   2.418  12.954  0.9546 -0.0792  0.4489
  814MPD2     C12031   1.466   3.824  12.879 -0.2531 -0.4018 -0.6728
  814MPD2    C112032   1.523   3.772  12.765  0.0788  0.1071 -0.1988
  814MPD2    C212033   1.568   3.858  12.666  0.3411 -0.2303  0.4499
  814MPD2    C312034   1.556   3.993  12.689 -0.5751 -0.4112 -0.6830
  814MPD2    C412035   1.482   4.038  12.794  0.0724  0.8499 -0.2877
  814MPD2    C512036   1.453   3.953  12.897  0.4426 -0.6960 -0.0792
  814MPD2     H12037   1.621   3.826  12.577 -0.3330 -0.2053  0.0426
  814MPD2    H112038   1.484   4.144  12.818 -0.8752  1.1916 -1.7835
  814MPD2    H212039   1.427   3.756  12.953  1.4027  2.0945  2.4880
  814MPD2    H312040   1.415   3.990  12.992 -1.6634  0.7036 -1.4929
  814MPD2     N12041   1.625   4.091  12.612 -0.4096  0.1944 -0.7630
  814MPD2    H512042   1.605   4.186  12.641  0.8946  0.2959 -0.2378
  814MPD2    N112043   1.542   3.632  12.739  0.6643  0.0422  0.1611
  814MPD2    H712044   1.590   3.613  12.652 -0.8003 -1.3677 -0.3324
  815MPD2     C12045   1.914   1.397  12.122  0.1834  0.1320 -0.5597
  815MPD2    C112046   1.863   1.444  12.009 -0.3199 -0.0710 -0.4925
  815MPD2    C212047   1.724   1.452  12.006 -0.3231 -0.1873 -0.2275
  815MPD2    C312048   1.644   1.411  12.112 -0.8659  0.2100  0.6509
  815MPD2    C412049   1.704   1.369  12.230  0.0639  0.2319  0.7357
  815MPD2    C512050   1.840   1.363  12.234 -0.1039  0.1240 -0.1089
  815MPD2     H12051   1.670   1.487  11.919  1.3449  1.9399 -0.4204
  815MPD2    H112052   1.652   1.340  12.321  0.4662 -2.0394  0.2452
  815MPD2    H212053   2.021   1.391  12.138  0.3324 -0.5168 -1.7793
  815MPD2    H312054   1.888   1.329  12.325  3.4223  0.6478 -1.8030
  815MPD2     N12055   1.503   1.417  12.096  0.1257  0.5442  0.2793
  815MPD2    H512056   1.463   1.458  12.012 -0.4839  0.2471  0.4180
  815MPD2    N112057   1.954   1.481  11.901  0.3120 -0.8715 -0.0821
  815MPD2    H712058   2.052   1.470  11.924  0.1110 -0.0233  1.1865
  816MPD2     C12059   2.146   1.594  17.137  0.8224 -0.1582  0.8869
  816MPD2    C112060   2.053   1.536  17.052  0.9104  0.2610 -0.6066
  816MPD2    C212061   2.098   1.452  16.954  0.1265 -0.1292 -0.5019
  816MPD2    C312062   2.229   1.435  16.930 -0.0735 -0.1652 -0.4944
  816MPD2    C412063   2.318   1.496  17.022 -0.0482  0.1874 -0.0937
  816MPD2    C512064   2.278   1.586  17.112 -0.1744  0.3519  0.4861
  816MPD2     H12065   2.032   1.417  16.876 -0.8772 -1.7170  1.0757
  816MPD2    H112066   2.425   1.481  17.016  0.3362  2.1036  1.9124
  816MPD2    H212067   2.118   1.655  17.223 -2.3543  1.4307 -1.2688
  816MPD2    H312068   2.351   1.629  17.180 -0.5920  1.0163  0.5092
  816MPD2     N12069   2.279   1.363  16.815 -0.5119 -0.4047  0.7493
  816MPD2    H512070   2.214   1.337  16.742 -3.3645  0.8628  2.8801
  816MPD2    N112071   1.920   1.562  17.084  0.1231  0.4722 -0.0094
  816MPD2    H712072   1.908   1.633  17.156  0.8827  1.3498 -0.7489
  817MPD2     C12073   1.359   3.214  10.309 -0.1765 -0.4749  0.6494
  817MPD2    C112074   1.378   3.200  10.173  0.2857 -0.6858  0.2769
  817MPD2    C212075   1.331   3.300  10.091 -0.5316  0.4238 -0.6934
  817MPD2    C312076   1.269   3.416  10.137  0.0683 -0.1308 -0.2179
  817MPD2    C412077   1.248   3.424  10.277 -0.6864 -0.7300  0.1152
  817MPD2    C512078   1.293   3.324  10.360  0.0917  1.3136 -0.5749
  817MPD2     H12079   1.344   3.289   9.984  1.8339 -0.0447 -0.3459
  817MPD2    H112080   1.201   3.506  10.328  0.0380 -0.1533 -0.1429
  817MPD2    H212081   1.386   3.137  10.381  0.7710  1.5609  2.4925
  817MPD2    H312082   1.272   3.329  10.466 -1.4277  0.8427 -0.8574
  817MPD2     N12083   1.220   3.514  10.043  0.3421 -0.6756 -0.6226
  817MPD2    H512084   1.238   3.499   9.944  1.1673  1.2889 -0.7614
  817MPD2    N112085   1.442   3.090  10.110 -0.1123  0.0943 -0.4755
  817MPD2    H712086   1.452   3.085  10.009  3.1643 -1.4043 -0.0617
  818MPD2     C12087   0.215   3.028  10.163  0.1613  0.4008 -0.2341
  818MPD2    C112088   0.136   2.953  10.245  0.4260 -0.2315  0.1592
  818MPD2    C212089   0.156   2.825  10.268  0.0084  0.0160  0.4243
  818MPD2    C312090   0.256   2.759  10.204  0.0987 -0.5707  0.4277
  818MPD2    C412091   0.346   2.828  10.127 -0.7296 -0.0105  0.1593
  818MPD2    C512092   0.323   2.964  10.111 -0.7983 -0.6035 -0.5133
  818MPD2     H12093   0.086   2.773  10.331  1.1198 -0.7390  1.0424
  818MPD2    H112094   0.427   2.773  10.079 -0.5016  1.3929 -1.0712
  818MPD2    H212095   0.208   3.136  10.156 -2.3667  0.2482 -0.1422
  818MPD2    H312096   0.393   3.020  10.049 -0.5336  1.2804  1.4973
  818MPD2     N12097   0.278   2.621  10.209  0.0433 -0.0080  0.0547
  818MPD2    H512098   0.355   2.576  10.161  1.0707  2.7237 -0.8245
  818MPD2    N112099   0.029   3.011  10.315 -1.0667 -0.0213 -0.2835
  818MPD2    H712100   4.721   2.945  10.377 -1.6876  0.9016  0.2141
  819MPD2     C12101   2.824   4.545  15.554 -0.4977  0.5100 -0.1250
  819MPD2    C112102   2.870   4.430  15.616  0.3030 -0.1968  0.2589
  819MPD2    C212103   2.966   4.443  15.716 -0.2618  0.1046 -0.5177
  819MPD2    C312104   3.003   4.567  15.760  0.1939  0.5154  0.1435
  819MPD2    C412105   2.960   4.682  15.698 -0.3071  0.0712 -0.1418
  819MPD2    C512106   2.867   4.672  15.590  0.0984  0.3930 -0.0782
  819MPD2     H12107   3.014   4.358  15.762  0.5402  0.5761 -0.4841
  819MPD2    H112108   3.005   0.039  15.722  0.2151 -0.4965  1.1282
  819MPD2    H212109   2.769   4.542  15.461 -0.3125 -1.2260 -0.1752
  819MPD2    H312110   2.829   0.018  15.533 -2.3092  0.0134  0.9299
  819MPD2     N12111   3.096   4.564  15.868 -0.9520 -0.3258  0.5403
  819MPD2    H512112   3.144   4.476  15.884  2.8066  1.8342  1.1308
  819MPD2    N112113   2.820   4.308  15.564 -0.4224  0.0329  0.7996
  819MPD2    H712114   2.747   4.316  15.494  1.4087  1.3756 -0.9746
  820MPD2     C12115   2.238   3.937  14.913 -0.0182  0.0533  0.2772
  820MPD2    C112116   2.226   4.030  15.017 -0.1875 -0.3169 -0.4200
  820MPD2    C212117   2.310   4.017  15.133  0.0851  0.2233 -0.4403
  820MPD2    C312118   2.411   3.926  15.135  0.5004  0.5240 -0.4186
  820MPD2    C412119   2.419   3.836  15.024 -0.4371 -0.6199 -0.4042
  820MPD2    C512120   2.330   3.839  14.923 -0.3817  0.5580 -0.1892
  820MPD2     H12121   2.293   4.087  15.214 -0.0709 -0.3726  0.0419
  820MPD2    H112122   2.489   3.752  15.019 -3.4734 -3.2618  1.4624
  820MPD2    H212123   2.177   3.947  14.824 -0.4811 -0.0958  0.5793
  820MPD2    H312124   2.341   3.769  14.842 -0.4158  0.8931 -0.4813
  820MPD2     N12125   2.504   3.910  15.243  0.0834 -0.2914  0.2248
  820MPD2    H512126   2.576   3.839  15.241  2.5313  2.1626  0.6203
  820MPD2    N112127   2.129   4.127  14.994  0.1200  0.7747  0.8383
  820MPD2    H712128   2.081   4.127  14.905 -0.4183 -1.3217  1.1188
  821MPD2     C12129   3.322   1.134  12.986 -0.4514  0.3999 -0.1889
  821MPD2    C112130   3.386   1.126  13.105  0.5483 -0.1856 -0.1507
  821MPD2    C212131   3.471   1.227  13.144 -0.3516 -0.3441 -0.4295
  821MPD2    C312132   3.473   1.347  13.083  0.9576 -0.0120 -1.0434
  821MPD2    C412133   3.399   1.364  12.965 -0.9409  0.3974  0.4897
  821MPD2    C512134   3.322   1.258  12.921 -0.1808 -0.1851 -0.2425
  821MPD2     H12135   3.518   1.204  13.239 -2.0501  0.2723  0.5672
  821MPD2    H112136   3.399   1.453  12.902 -0.4368  0.0642  0.0107
  821MPD2    H212137   3.261   1.059  12.938  1.0018 -0.3783 -0.8400
  821MPD2    H312138   3.263   1.275  12.832 -1.7261  1.9863  1.1772
  821MPD2     N12139   3.556   1.457  13.125  0.7015 -0.0555 -0.1128
  821MPD2    H512140   3.572   1.529  13.055 -1.2633 -1.3261 -1.8628
  821MPD2    N112141   3.399   1.008  13.175 -0.3627  0.3838 -0.2963
  821MPD2    H712142   3.461   1.018  13.254 -0.7339 -0.3519  0.0864
  822MPD2     C12143   3.788   1.469  15.810 -0.1390 -0.4255  0.0674
  822MPD2    C112144   3.809   1.500  15.943  0.6682 -0.0677 -0.1661
  822MPD2    C212145   3.743   1.612  15.992 -0.2953  0.0986 -0.8900
  822MPD2    C312146   3.638   1.673  15.924 -0.0014 -0.1772  0.3133
  822MPD2    C412147   3.610   1.636  15.795  0.3170 -0.0226 -0.1785
  822MPD2    C512148   3.689   1.538  15.741 -0.1242 -0.9424  0.1147
  822MPD2     H12149   3.752   1.633  16.098 -1.0997  2.5125 -1.3119
  822MPD2    H112150   3.542   1.686  15.726 -0.7389 -1.4840 -0.1988
  822MPD2    H212151   3.827   1.384  15.755  2.7699 -1.3098  3.4735
  822MPD2    H312152   3.668   1.504  15.641 -1.2249 -1.1480  0.4238
  822MPD2     N12153   3.571   1.786  15.980  0.1319  0.1484  0.5483
  822MPD2    H512154   3.481   1.814  15.943 -0.5700 -1.3560  1.1267
  822MPD2    N112155   3.870   1.412  16.034  0.0932 -0.2073  0.1297
  822MPD2    H712156   3.872   1.437  16.132  2.3749  0.2252 -0.0489
  823MPD2     C12157   3.143   1.968  16.684 -0.1308  0.7324  0.3123
  823MPD2    C112158   3.161   1.883  16.580  0.4106 -0.3255  0.6064
  823MPD2    C212159   3.171   1.749  16.605  0.0927 -0.1338  0.1499
  823MPD2    C312160   3.159   1.693  16.731 -0.0541 -0.0262  0.0636
  823MPD2    C412161   3.148   1.782  16.837  0.8155  0.6887  0.0128
  823MPD2    C512162   3.136   1.915  16.809  0.2627  0.5146  0.2482
  823MPD2     H12163   3.190   1.682  16.522  1.5512 -1.3972  1.4985
  823MPD2    H112164   3.147   1.761  16.943 -0.7557 -0.0716 -0.1636
  823MPD2    H212165   3.148   2.074  16.661  0.6900  0.6417  0.0980
  823MPD2    H312166   3.139   1.984  16.893 -1.6315 -0.0381  0.7779
  823MPD2     N12167   3.164   1.559  16.770 -0.5370 -0.0828  0.0521
  823MPD2    H512168   3.185   1.534  16.866 -0.5920  1.7312  0.5523
  823MPD2    N112169   3.193   1.939  16.454  0.5398 -0.3858  0.1373
  823MPD2    H712170   3.206   2.040  16.448 -1.2136 -0.1959 -0.4644
  824MPD2     C12171   4.238   0.610  16.314 -0.0814  0.9175 -0.7449
  824MPD2    C112172   4.212   0.682  16.201  0.5875  0.9853  0.5168
  824MPD2    C212173   4.264   0.640  16.077  0.2693 -0.3617 -0.0897
  824MPD2    C312174   4.346   0.529  16.070  1.0086 -0.0143 -0.0623
  824MPD2    C412175   4.377   0.456  16.187  0.0720 -0.7269  0.4354
  824MPD2    C512176   4.316   0.495  16.308 -0.0206 -0.0285 -0.0253
  824MPD2     H12177   4.255   0.693  15.983 -2.0423 -1.7720 -0.6524
  824MPD2    H112178   4.441   0.369  16.197 -1.1919 -1.3984  2.6884
  824MPD2    H212179   4.188   0.634  16.407  1.3274 -0.0390  0.2681
  824MPD2    H312180   4.321   0.431  16.395 -1.2334 -0.7188 -0.4587
  824MPD2     N12181   4.412   0.508  15.947  0.0991 -0.2146  0.3668
  824MPD2    H512182   4.401   0.569  15.866  0.8647 -0.8014 -0.1907
  824MPD2    N112183   4.121   0.794  16.207 -0.3055 -0.6959 -0.3128
  824MPD2    H712184   4.096   0.826  16.301  2.3367  0.3096  0.0537
  825MPD2     C12185   0.189   0.802  15.340  0.1885 -0.2243 -0.4234
  825MPD2    C112186   0.129   0.798  15.462  1.0126 -0.1552  0.8089
  825MPD2    C212187   0.152   0.903  15.550  0.4145 -0.1507 -0.1396
  825MPD2    C312188   0.215   1.018  15.514 -0.3167 -0.2324 -0.3929
  825MPD2    C412189   0.274   1.015  15.390 -0.2768  0.0885  0.5262
  825MPD2    C512190   0.263   0.913  15.306 -0.5871 -0.0156 -0.1297
  825MPD2     H12191   0.101   0.900  15.645  0.6760  0.5166  0.0246
  825MPD2    H112192   0.340   1.096  15.363 -0.2904 -0.3477 -0.7909
  825MPD2    H212193   0.182   0.717  15.273  1.6102  0.0691 -0.9240
  825MPD2    H312194   0.307   0.928  15.208 -1.5012  2.4657 -0.1467
  825MPD2     N12195   0.232   1.134  15.595 -0.0536  0.4862 -0.3456
  825MPD2    H512196   0.269   1.219  15.553 -2.5812  0.9643 -1.6103
  825MPD2    N112197   0.058   0.683  15.492  0.2500  0.2374  0.2956
  825MPD2    H712198   0.050   0.600  15.435  1.2105  0.5860 -0.3394
  826MPD2     C12199   0.023   0.295  13.585 -0.4133  0.3284 -0.7888
  826MPD2    C112200   0.039   0.359  13.710 -0.8005  0.0662  0.3984
  826MPD2    C212201   4.681   0.455  13.749  0.5160 -0.2343  0.5712
  826MPD2    C312202   4.566   0.475  13.672 -0.0638 -0.0783  0.8804
  826MPD2    C412203   4.563   0.423  13.544 -0.2274 -0.0995  0.0497
  826MPD2    C512204   4.660   0.343  13.502  0.4696 -0.1075  1.1106
  826MPD2     H12205   4.696   0.510  13.842 -0.1471 -0.3757  0.7641
  826MPD2    H112206   4.484   0.442  13.472 -1.4233  2.2967  1.9847
  826MPD2    H212207   0.098   0.237  13.534  1.7475  1.1353  1.4587
  826MPD2    H312208   4.649   0.302  13.402 -1.0478  0.2829  1.1156
  826MPD2     N12209   4.466   0.565  13.725 -0.1641 -0.3903 -0.1276
  826MPD2    H512210   4.406   0.597  13.650 -1.3265 -1.3709  0.3781
  826MPD2    N112211   0.157   0.327  13.783 -0.3155  0.3656  0.4634
  826MPD2    H712212   0.220   0.259  13.742  0.1537  1.1521 -0.1298
  827MPD2     C12213   0.948   1.937  10.076  0.3123 -0.6866  0.0236
  827MPD2    C112214   0.963   1.806  10.073  0.1228  0.5242 -0.6033
  827MPD2    C212215   0.882   1.725   9.987 -0.3787 -0.6154  0.3907
  827MPD2    C312216   0.814   1.790   9.881 -0.4697 -0.1129 -0.7072
  827MPD2    C412217   0.812   1.923   9.870 -0.7145 -0.1889 -0.1205
  827MPD2    C512218   0.868   1.996   9.978 -0.1675  0.0008  0.0949
  827MPD2     H12219   0.872   1.620  10.011  0.6707 -0.6736  0.5749
  827MPD2    H112220   0.769   1.981   9.789 -0.4902 -2.3713 -1.7942
  827MPD2    H212221   0.993   2.004  10.148  1.3402 -0.2998 -0.9724
  827MPD2    H312222   0.859   2.104   9.986 -1.3129 -0.0915  0.0872
  827MPD2     N12223   0.743   1.704   9.796  0.0097  0.2344 -0.1718
  827MPD2    H512224   0.741   1.604   9.811  0.4082  0.4710  1.4230
  827MPD2    N112225   1.055   1.749  10.165  0.3607  0.4267  0.4006
  827MPD2    H712226   1.110   1.816  10.218  1.9400 -0.4781 -0.0962
  828MPD2     C12227   3.848   1.616  12.417 -0.1833  0.3868 -0.0886
  828MPD2    C112228   3.759   1.596  12.315  0.6475  0.3689  0.5639
  828MPD2    C212229   3.804   1.569  12.191 -0.2189 -0.1181  0.1947
  828MPD2    C312230   3.939   1.551  12.165  0.4861 -0.1795 -0.0677
  828MPD2    C412231   4.021   1.555  12.272  0.1286 -0.7094  0.5157
  828MPD2    C512232   3.979   1.589  12.396 -0.3097 -0.0265 -0.2079
  828MPD2     H12233   3.729   1.569  12.113 -0.0989  0.3003  0.0838
  828MPD2    H112234   4.128   1.544  12.264  0.4866  3.0101  0.2964
  828MPD2    H212235   3.821   1.644  12.518  0.8042  0.2993  0.1984
  828MPD2    H312236   4.048   1.613  12.477  0.4066  0.2259 -0.8857
  828MPD2     N12237   4.005   1.521  12.044  0.4180  0.4366 -0.2891
  828MPD2    H512238   4.106   1.529  12.047  0.3269  0.3551  4.1848
  828MPD2    N112239   3.622   1.629  12.338 -0.6427  0.1496  0.0277
  828MPD2    H712240   3.562   1.646  12.258  2.7548  2.5222 -1.9789
  829MPD2     C12241   3.097   2.046  11.841  0.6630 -0.2196 -0.1973
  829MPD2    C112242   3.003   1.988  11.916  0.3025  0.6654 -0.2720
  829MPD2    C212243   3.047   1.936  12.036  0.6116  0.7608 -0.3957
  829MPD2    C312244   3.181   1.934  12.071 -0.2304  0.3561 -0.7130
  829MPD2    C412245   3.277   1.993  11.981  0.5180  0.4910  0.4930
  829MPD2    C512246   3.230   2.052  11.867 -0.1693 -0.1205 -0.9104
  829MPD2     H12247   2.969   1.886  12.093  0.1803 -0.7301 -2.2695
  829MPD2    H112248   3.383   1.994  12.004  0.4789 -1.5143  0.7564
  829MPD2    H212249   3.062   2.085  11.745  2.0724  0.2766 -0.5119
  829MPD2    H312250   3.303   2.103  11.805  1.9189 -0.4771  1.2291
  829MPD2     N12251   3.229   1.876  12.194  0.0604  0.2617  0.1705
  829MPD2    H512252   3.329   1.859  12.199 -0.0325 -0.6236 -0.8787
  829MPD2    N112253   2.869   1.985  11.864  0.6794 -0.2514  0.4096
  829MPD2    H712254   2.861   2.019  11.768  0.2164 -0.1911  0.4691
  830MPD2     C12255   3.743   4.263  15.752 -1.2173  0.1533 -0.4797
  830MPD2    C112256   3.605   4.264  15.779  0.0208 -1.4955 -0.3308
  830MPD2    C212257   3.518   4.227  15.675 -0.2502 -0.5832 -0.3382
  830MPD2    C312258   3.571   4.173  15.555  0.0465 -0.2711  0.5953
  830MPD2    C412259   3.709   4.158  15.540  0.4201  0.6998  0.0739
  830MPD2    C512260   3.791   4.196  15.647  0.2030  0.0347  0.5004
  830MPD2     H12261   3.410   4.236  15.681  0.0480  1.7140  1.3528
  830MPD2    H112262   3.759   4.121  15.451  0.6882 -0.3451  0.6660
  830MPD2    H212263   3.809   4.306  15.826 -1.3201  0.6427 -0.6669
  830MPD2    H312264   3.899   4.192  15.638  0.1111  2.6095 -1.7295
  830MPD2     N12265   3.486   4.145  15.447 -0.1304  0.1591 -0.1613
  830MPD2    H512266   3.540   4.129  15.362  2.2918  0.1723  1.3594
  830MPD2    N112267   3.563   4.337  15.892  0.3914 -0.0089  0.5229
  830MPD2    H712268   3.633   4.396  15.937  0.3258  2.8334 -3.0429
  831MPD2     C12269   3.740   1.857  16.442 -0.5827 -0.3994  0.0695
  831MPD2    C112270   3.786   1.756  16.363  0.1719 -0.0955 -0.6917
  831MPD2    C212271   3.699   1.654  16.336  0.3348 -0.5534  0.8056
  831MPD2    C312272   3.566   1.660  16.366 -0.5616  0.3470 -0.0582
  831MPD2    C412273   3.522   1.762  16.449 -0.8192 -0.1427  0.0711
  831MPD2    C512274   3.611   1.856  16.491 -0.9330 -0.7843  0.6044
  831MPD2     H12275   3.741   1.567  16.286 -0.3141  1.0941 -2.5529
  831MPD2    H112276   3.419   1.769  16.480 -1.1759  1.6360 -1.5173
  831MPD2    H212277   3.816   1.930  16.468 -2.9867  2.1387  0.0500
  831MPD2    H312278   3.572   1.929  16.561 -0.7877 -1.0363  0.9464
  831MPD2     N12279   3.463   1.574  16.317  0.3480 -0.0248 -0.0957
  831MPD2    H512280   3.366   1.599  16.334  0.7751  0.9188  0.9394
  831MPD2    N112281   3.918   1.756  16.323 -0.2370  0.7704 -0.0873
  831MPD2    H712282   3.960   1.846  16.302  0.4562  0.9737  2.1597
  832MPD2     C12283   1.979   2.355  17.217  0.9888 -0.4261 -0.4269
  832MPD2    C112284   2.002   2.480  17.166  0.4636  0.2841  0.0436
  832MPD2    C212285   1.914   2.528  17.077 -0.3630 -0.5784 -0.4363
  832MPD2    C312286   1.794   2.453  17.053  0.3298 -0.5462  0.4951
  832MPD2    C412287   1.780   2.324  17.103  0.6052  0.5960 -0.4619
  832MPD2    C512288   1.871   2.277  17.193  0.1787 -0.3675 -0.6902
  832MPD2     H12289   1.924   2.632  17.046  1.6837 -0.1913  1.5259
  832MPD2    H112290   1.696   2.263  17.074  0.3430  1.0952 -0.7576
  832MPD2    H212291   2.055   2.316  17.284  0.7820  0.7557  0.4844
  832MPD2    H312292   1.857   2.189  17.255 -1.5173 -0.6603 -1.4915
  832MPD2     N12293   1.689   2.493  16.968 -0.3450  0.1593  0.7115
  832MPD2    H512294   1.617   2.424  16.947  0.9678 -0.0271 -3.0268
  832MPD2    N112295   2.124   2.549  17.198 -0.6184 -0.2119 -0.0176
  832MPD2    H712296   2.196   2.506  17.255 -0.3161 -1.6936 -1.4847
  833MPD2     C12297   4.472   4.406  12.730  0.2272  0.0047  0.0069
  833MPD2    C112298   4.513   4.463  12.611  0.2794 -0.7768  0.3455
  833MPD2    C212299   4.635   4.426  12.564  0.4145 -0.2498  0.7368
  833MPD2    C312300   4.718   4.347  12.646 -0.0338  0.1276  0.1163
  833MPD2    C412301   4.679   4.296  12.771  0.2548  0.1810 -0.2398
  833MPD2    C512302   4.551   4.331  12.812  0.0184 -0.5759 -0.5146
  833MPD2     H12303   4.679   4.471  12.475 -0.2162  0.5655  0.8382
  833MPD2    H112304   4.731   4.230  12.840 -1.5830 -1.2321 -0.2144
  833MPD2    H212305   4.374   4.428  12.770 -1.0095 -1.0268 -2.4419
  833MPD2    H312306   4.505   4.301  12.906  1.6198 -1.5892 -0.0475
  833MPD2     N12307   0.099   4.304  12.587  0.4950 -0.3135 -0.1981
  833MPD2    H512308   0.114   4.331  12.491  1.1944  0.6738  0.2017
  833MPD2    N112309   4.420   4.544  12.538  0.1888  0.2385 -0.1277
  833MPD2    H712310   4.329   4.559  12.581 -0.5457  1.1198 -1.9893
  834MPD2     C12311   0.055   3.428  12.113  0.3595 -0.4658  0.1777
  834MPD2    C112312   0.029   3.534  12.027  0.2652 -0.9706  0.3330
  834MPD2    C212313   0.067   3.657  12.065 -0.1449 -0.2944 -0.3636
  834MPD2    C312314   0.134   3.674  12.188 -0.5041 -0.0237  0.1665
  834MPD2    C412315   0.159   3.564  12.270 -0.1709  0.1040  0.2018
  834MPD2    C512316   0.122   3.438  12.232  0.4605 -0.2557 -0.7301
  834MPD2     H12317   0.050   3.743  12.001 -1.7473  1.7636  2.8042
  834MPD2    H112318   0.221   3.570  12.359 -1.4647 -0.1802  1.1278
  834MPD2    H212319   0.028   3.327  12.087  0.5726  0.0117 -1.9007
  834MPD2    H312320   0.155   3.355  12.295  0.4467  1.1409  1.1309
  834MPD2     N12321   0.170   3.812  12.217  0.9114  0.1430  0.3927
  834MPD2    H512322   0.150   3.890  12.155  0.0208 -1.1738 -0.9712
  834MPD2    N112323   4.683   3.499  11.918  0.4597 -0.0904  0.5808
  834MPD2    H712324   4.637   3.409  11.917  0.0698  0.1230 -0.9673
  835MPD2     C12325   4.684   1.869  10.810 -0.0667 -0.6084 -0.3941
  835MPD2    C112326   4.578   1.891  10.896  0.2233 -0.9646  0.0384
  835MPD2    C212327   4.584   1.893  11.037  0.1627 -0.4047 -0.3955
  835MPD2    C312328   4.705   1.857  11.094 -0.1329 -0.3489  0.2791
  835MPD2    C412329   0.069   1.819  11.006  0.4364 -0.3226 -0.2910
  835MPD2    C512330   0.059   1.826  10.868 -0.1939  0.0338  0.5112
  835MPD2     H12331   4.494   1.910  11.094  0.6165  0.3542  0.0836
  835MPD2    H112332   0.159   1.770  11.041 -0.6468 -1.1630  1.3079
  835MPD2    H212333   4.667   1.875  10.703  0.6898  0.9157 -0.4143
  835MPD2    H312334   0.142   1.786  10.811  0.2564  0.1067  1.1113
  835MPD2     N12335   4.734   1.839  11.232 -0.0357 -0.2012  0.0848
  835MPD2    H512336   0.078   1.792  11.266  0.1555 -0.1855 -0.3561
  835MPD2    N112337   4.448   1.898  10.842 -0.1571  0.1996 -0.4951
  835MPD2    H712338   4.376   1.895  10.914  1.1947 -1.9390  0.7707
  836MPD2     C12339   4.041   1.753  11.556  0.4922  0.3496 -0.0691
  836MPD2    C112340   4.136   1.762  11.653  0.0293  0.4180  0.4845
  836MPD2    C212341   4.100   1.785  11.781 -0.2162  0.4179  0.5836
  836MPD2    C312342   3.969   1.807  11.814 -0.3727  0.8062  0.2961
  836MPD2    C412343   3.869   1.795  11.722 -0.1374 -0.2399 -0.2496
  836MPD2    C512344   3.908   1.771  11.596 -0.6112 -0.3612 -0.4776
  836MPD2     H12345   4.181   1.785  11.853  0.3368 -1.3237 -0.0539
  836MPD2    H112346   3.764   1.811  11.744  0.1981  0.7420  0.6629
  836MPD2    H212347   4.066   1.720  11.456  0.2825  1.0941 -0.3671
  836MPD2    H312348   3.833   1.762  11.519 -0.2438 -1.7352 -0.6756
  836MPD2     N12349   3.920   1.839  11.939  0.6517  0.3042 -0.0885
  836MPD2    H512350   3.819   1.847  11.945  0.7885  0.5903  1.6787
  836MPD2    N112351   4.272   1.737  11.616 -0.0242 -0.1611 -0.2097
  836MPD2    H712352   4.291   1.724  11.517  0.7524  0.4954 -0.1473
  837MPD2     C12353   2.917   1.491  10.286 -0.2919  0.1265  0.0511
  837MPD2    C112354   2.824   1.537  10.189 -0.3981 -0.2885 -0.1204
  837MPD2    C212355   2.805   1.675  10.176  0.1387  0.8752 -0.0655
  837MPD2    C312356   2.873   1.760  10.258  1.3459  0.5123 -0.3382
  837MPD2    C412357   2.949   1.715  10.361  0.1614 -0.4858 -0.5961
  837MPD2    C512358   2.969   1.580  10.367 -0.4719 -0.6262  0.0814
  837MPD2     H12359   2.742   1.707  10.094  0.2230  0.4582 -0.2964
  837MPD2    H112360   3.007   1.777  10.428  2.7318 -3.4735 -0.0501
  837MPD2    H212361   2.926   1.384  10.304  1.8680  0.0177 -1.6545
  837MPD2    H312362   3.025   1.533  10.448  0.2664 -2.3533 -1.4241
  837MPD2     N12363   2.855   1.898  10.231 -0.2010 -0.5385  1.1974
  837MPD2    H512364   2.791   1.911  10.153 -0.1450  0.8256  1.3776
  837MPD2    N112365   2.738   1.450  10.123 -0.5011  0.6830 -0.1715
  837MPD2    H712366   2.683   1.500  10.053 -1.4263  1.3083  0.9990
  838MPD2     C12367   0.859   3.799  11.153 -0.2271 -0.2389  0.2537
  838MPD2    C112368   0.850   3.867  11.273  0.1719 -0.2159  0.2892
  838MPD2    C212369   0.747   3.845  11.358 -0.3193 -0.3158 -0.0815
  838MPD2    C312370   0.660   3.740  11.330 -0.0548 -0.2203  0.2646
  838MPD2    C412371   0.653   3.683  11.207 -0.9312  0.7398 -0.5105
  838MPD2    C512372   0.760   3.706  11.125  0.2113  0.0534 -0.7381
  838MPD2     H12373   0.757   3.878  11.460  2.5982  1.0119 -0.7903
  838MPD2    H112374   0.575   3.608  11.200 -0.6890  0.4583 -0.1529
  838MPD2    H212375   0.945   3.808  11.087 -0.4982  1.4198  0.1277
  838MPD2    H312376   0.768   3.650  11.032  1.6619 -0.7439 -0.1114
  838MPD2     N12377   0.576   3.701  11.434 -0.1636  0.4563 -0.9437
  838MPD2    H512378   0.572   3.766  11.512 -0.9081 -0.3468 -0.3122
  838MPD2    N112379   0.958   3.951  11.325  0.2645 -0.2614  0.2822
  838MPD2    H712380   0.950   3.996  11.416  0.7785  2.0372 -0.7861
  839MPD2     C12381   1.382   3.872  12.178 -0.0121 -0.1770  0.4225
  839MPD2    C112382   1.329   3.782  12.081  0.6008 -0.1801 -0.2023
  839MPD2    C212383   1.311   3.834  11.949  0.1790 -0.0415 -0.4122
  839MPD2    C312384   1.353   3.967  11.915 -0.2120 -0.1516 -0.0006
  839MPD2    C412385   1.406   4.042  12.017  0.1532 -0.0719  0.2138
  839MPD2    C512386   1.412   3.999  12.146 -0.0923 -0.8065  0.0972
  839MPD2     H12387   1.263   3.774  11.873  1.6842 -0.7715 -0.7894
  839MPD2    H112388   1.443   4.141  11.992  0.6393 -0.7347 -1.7390
  839MPD2    H212389   1.402   3.840  12.280  0.8984  1.7195  0.8443
  839MPD2    H312390   1.451   4.063  12.224 -0.2849  1.9595 -2.0727
  839MPD2     N12391   1.342   4.016  11.780 -0.3790  0.1506 -0.3982
  839MPD2    H512392   1.379   4.109  11.767 -1.7586  1.1869  2.9388
  839MPD2    N112393   1.291   3.645  12.100 -0.1187  0.5633 -0.2341
  839MPD2    H712394   1.268   3.597  12.013  1.2252 -0.5611  0.0404
  840MPD2     C12395   1.576   2.073  10.205 -0.3385  0.3113 -0.1244
  840MPD2    C112396   1.579   1.982  10.306  0.2960 -0.9200  0.0674
  840MPD2    C212397   1.637   2.027  10.423  0.2481 -0.1220  0.0390
  840MPD2    C312398   1.700   2.151  10.432 -0.1005 -0.6120  0.0763
  840MPD2    C412399   1.707   2.233  10.321 -0.0294  0.1021 -0.1946
  840MPD2    C512400   1.632   2.198  10.209 -0.0139 -0.3064  0.5641
  840MPD2     H12401   1.646   1.956  10.505 -0.7667 -2.0442 -1.5346
  840MPD2    H112402   1.757   2.329  10.329 -0.0602  0.0513  0.6184
  840MPD2    H212403   1.539   2.047  10.107  0.7636 -3.5489  0.4834
  840MPD2    H312404   1.630   2.267  10.125  1.3565 -1.1188 -0.1337
  840MPD2     N12405   1.778   2.193  10.544 -0.7367  0.5032  0.4030
  840MPD2    H512406   1.834   2.276  10.532 -0.6771  0.0353 -2.8340
  840MPD2    N112407   1.517   1.856  10.298 -0.0367  0.2397 -0.4718
  840MPD2    H712408   1.483   1.828  10.207 -2.4889  3.1615 -0.4529
  841MPD2     C12409   0.741   2.428  14.845 -0.6048  0.3261 -0.0864
  841MPD2    C112410   0.768   2.304  14.800 -0.6645 -0.0034 -1.3365
  841MPD2    C212411   0.867   2.233  14.863  0.1844 -0.5080 -0.7561
  841MPD2    C312412   0.937   2.286  14.963  0.3406  0.3419  0.3374
  841MPD2    C412413   0.909   2.408  15.013 -0.1354 -0.4303  0.2764
  841MPD2    C512414   0.809   2.476  14.953 -0.4581  0.3662  0.5528
  841MPD2     H12415   0.899   2.135  14.828 -0.5833 -0.6629 -1.0388
  841MPD2    H112416   0.957   2.462  15.094  1.7316 -0.6077 -0.7119
  841MPD2    H212417   0.675   2.501  14.801  0.4310  1.8412  0.8863
  841MPD2    H312418   0.803   2.581  14.982 -3.1117  0.5438 -0.6050
  841MPD2     N12419   1.049   2.213  15.011  0.2766  0.2795  0.0372
  841MPD2    H512420   1.066   2.118  14.979  2.5400  0.4218  0.8353
  841MPD2    N112421   0.703   2.253  14.690  0.7181  0.2175  0.2074
  841MPD2    H712422   0.724   2.155  14.673 -0.7153  0.5887 -3.6122
  842MPD2     C12423   1.029   2.308  16.788 -0.3621  0.2264 -0.7408
  842MPD2    C112424   1.060   2.441  16.803 -0.2285 -0.3083 -0.7923
  842MPD2    C212425   1.138   2.486  16.909  0.5624 -0.2528 -0.4541
  842MPD2    C312426   1.177   2.396  17.004 -0.2737 -0.4999  0.6966
  842MPD2    C412427   1.133   2.267  16.994 -0.4142  0.4222 -0.1164
  842MPD2    C512428   1.075   2.223  16.878  0.3078 -0.4970  0.0753
  842MPD2     H12429   1.132   2.589  16.943 -2.6658  0.0076 -1.8592
  842MPD2    H112430   1.152   2.193  17.070 -2.7346 -0.4771 -0.4171
  842MPD2    H212431   0.983   2.257  16.704 -1.5220  0.9278 -0.5302
  842MPD2    H312432   1.060   2.118  16.860 -1.0834 -0.3105  0.1715
  842MPD2     N12433   1.249   2.444  17.120 -0.3400 -0.6314  0.0761
  842MPD2    H512434   1.244   2.383  17.201 -0.5504 -0.8450 -0.1020
  842MPD2    N112435   1.002   2.524  16.703 -0.1720  0.3542  0.8756
  842MPD2    H712436   0.960   2.480  16.622  0.8590 -0.0897  0.5802
  843MPD2     C12437   3.706   3.665  17.421  0.6814 -0.5184 -0.2906
  843MPD2    C112438   3.669   3.631  17.554 -0.1211 -0.1136  0.1894
  843MPD2    C212439   3.694   3.726  17.649 -0.6480  0.1743 -0.1908
  843MPD2    C312440   3.744   3.849  17.614 -0.2501 -0.2212 -0.1657
  843MPD2    C412441   3.761   3.884  17.480 -0.7256  0.0363 -0.4544
  843MPD2    C512442   3.740   3.794  17.389  0.9009 -0.0448  0.3051
  843MPD2     H12443   3.683   3.700  17.753 -0.6900 -0.8788 -0.4618
  843MPD2    H112444   3.805   3.976  17.442 -0.3806 -0.1129 -0.4146
  843MPD2    H212445   3.702   3.600  17.334 -1.2068  3.9850 -3.6224
  843MPD2    H312446   3.760   3.813  17.284 -0.3892  0.1185  0.0892
  843MPD2     N12447   3.775   3.947  17.708  0.1387 -0.5834 -0.0553
  843MPD2    H512448   3.795   4.038  17.669 -0.0925  0.8585  3.1370
  843MPD2    N112449   3.625   3.501  17.586  0.0460  0.2399 -0.7952
  843MPD2    H712450   3.626   3.423  17.521 -1.2214 -0.3830 -0.0635
  844MPD2     C12451   1.668   1.924  16.351 -0.0310  0.2561 -0.1384
  844MPD2    C112452   1.746   2.024  16.293  0.2169  0.3041  1.0935
  844MPD2    C212453   1.785   2.129  16.379  0.2638 -0.2522 -0.1961
  844MPD2    C312454   1.753   2.128  16.510 -0.3725 -0.4424  0.4880
  844MPD2    C412455   1.671   2.027  16.564  0.0119  0.3519 -0.5351
  844MPD2    C512456   1.629   1.930  16.483  0.6156  0.2746 -0.5667
  844MPD2     H12457   1.840   2.210  16.333  1.8506  0.3838  2.8370
  844MPD2    H112458   1.638   2.031  16.667 -0.8488  0.4046 -0.8116
  844MPD2    H212459   1.630   1.835  16.304 -0.9846 -0.5210  2.1023
  844MPD2    H312460   1.570   1.846  16.519  2.6889 -1.3507 -0.9535
  844MPD2     N12461   1.812   2.229  16.592  0.0142  0.2513 -0.0584
  844MPD2    H512462   1.872   2.290  16.537  0.0815 -1.5368 -1.9489
  844MPD2    N112463   1.800   2.020  16.160 -0.1298 -0.1943 -0.3557
  844MPD2    H712464   1.861   2.096  16.132  0.0226  0.0181  0.5429
  845MPD2     C12465   1.991   3.176  16.778  0.1455  0.3691 -0.5516
  845MPD2    C112466   2.071   3.112  16.868  0.0856  0.0272 -0.5723
  845MPD2    C212467   2.084   2.975  16.868  0.3088  0.3089 -1.0131
  845MPD2    C312468   2.030   2.900  16.764  0.4701  0.6084 -0.2007
  845MPD2    C412469   1.954   2.963  16.662  0.3008 -0.2193 -0.6068
  845MPD2    C512470   1.932   3.101  16.682 -0.2622  0.0635 -0.0789
  845MPD2     H12471   2.146   2.932  16.946  1.4480  1.8571 -1.0675
  845MPD2    H112472   1.905   2.917  16.577 -0.2604 -2.2689  0.8155
  845MPD2    H212473   1.968   3.280  16.797  0.9820  0.3155  0.7753
  845MPD2    H312474   1.886   3.145  16.594 -0.5796 -0.9742 -0.4251
  845MPD2     N12475   2.041   2.756  16.773  0.0165  0.1207 -0.3177
  845MPD2    H512476   2.089   2.716  16.853  1.5642  2.8821  0.1300
  845MPD2    N112477   2.114   3.190  16.975  0.1369  0.4183 -0.0024
  845MPD2    H712478   2.086   3.287  16.973 -2.5968 -0.3276  0.9191
  846MPD2     C12479   4.294   3.576  13.766  0.4467  0.0617  0.1518
  846MPD2    C112480   4.151   3.564  13.742  0.2023 -0.3676  0.1840
  846MPD2    C212481   4.067   3.566  13.852  0.1676 -0.2211 -0.4306
  846MPD2    C312482   4.120   3.560  13.979  0.3160  0.6121 -0.3856
  846MPD2    C412483   4.258   3.574  14.000 -0.5373  0.7572  0.0583
  846MPD2    C512484   4.343   3.587  13.893  0.8266  0.2221 -0.0185
  846MPD2     H12485   3.960   3.564  13.835 -0.2014 -1.2477  2.1610
  846MPD2    H112486   4.296   3.586  14.100 -2.3020  3.8452  0.3390
  846MPD2    H212487   4.355   3.579  13.677  0.5035 -0.5712  0.1710
  846MPD2    H312488   4.449   3.590  13.910  0.8430 -3.7025  0.5330
  846MPD2     N12489   4.029   3.557  14.091 -0.0146  0.0940  0.1750
  846MPD2    H512490   3.931   3.548  14.064 -0.0077 -0.7348  0.4208
  846MPD2    N112491   4.101   3.575  13.606 -0.6356 -0.3827 -0.1663
  846MPD2    H712492   4.006   3.607  13.592 -1.1334 -1.2408  1.2968
  847MPD2     C12493   4.280   4.131  14.606  0.1580  0.0282 -0.4737
  847MPD2    C112494   4.324   4.234  14.523 -0.3747 -0.5234  0.0203
  847MPD2    C212495   4.395   4.333  14.581 -0.1410  0.1026 -0.6232
  847MPD2    C312496   4.422   4.335  14.715  0.0179 -0.1852  0.3726
  847MPD2    C412497   4.364   4.241  14.794  0.0438 -0.7123 -0.8454
  847MPD2    C512498   4.287   4.141  14.739 -0.6119 -0.1149  0.2986
  847MPD2     H12499   4.434   4.412  14.518 -0.4476  2.0729  1.6739
  847MPD2    H112500   4.367   4.237  14.902  0.5232 -0.7737 -0.8584
  847MPD2    H212501   4.238   4.041  14.563 -0.5888 -0.7928  1.9293
  847MPD2    H312502   4.247   4.070  14.811 -0.5406  1.5915  2.0182
  847MPD2     N12503   4.479   4.452  14.773  0.0039 -0.9501 -0.3133
  847MPD2    H512504   4.480   4.460  14.874  3.1124 -0.2006 -0.4275
  847MPD2    N112505   4.298   4.246  14.380 -0.7823  0.4440 -0.0146
  847MPD2    H712506   4.344   4.327  14.340 -1.0204  1.2369  1.3006
  848MPD2     C12507   1.685   2.805  16.231 -0.1842 -0.1633  0.6680
  848MPD2    C112508   1.648   2.844  16.356 -0.0493 -0.1998 -0.1457
  848MPD2    C212509   1.627   2.983  16.377  0.2036  0.0145 -0.2531
  848MPD2    C312510   1.625   3.066  16.270  0.4045  0.0512 -0.3417
  848MPD2    C412511   1.656   3.015  16.144 -0.4136 -0.1594 -0.2903
  848MPD2    C512512   1.680   2.889  16.125  0.5309  0.5542  0.4389
  848MPD2     H12513   1.600   3.018  16.476 -0.9472  1.0434 -0.9270
  848MPD2    H112514   1.669   3.078  16.057 -0.5555 -0.1479 -0.3040
  848MPD2    H212515   1.712   2.703  16.206  2.1077  0.5187  0.3892
  848MPD2    H312516   1.719   2.860  16.028  0.8272  1.2597  0.3450
  848MPD2     N12517   1.609   3.206  16.281  0.6291 -0.6610  0.2124
  848MPD2    H512518   1.597   3.264  16.198 -1.7037 -0.4641  0.7065
  848MPD2    N112519   1.620   2.764  16.461  0.1007 -0.1578 -0.0191
  848MPD2    H712520   1.616   2.800  16.556  1.3659  2.2444 -0.8859
  849MPD2     C12521   0.816   2.526  14.396  0.0073 -0.0645 -0.0663
  849MPD2    C112522   0.866   2.404  14.375  0.1459  0.6114 -0.3322
  849MPD2    C212523   0.965   2.345  14.458  0.3016 -0.2237  0.5965
  849MPD2    C312524   1.014   2.414  14.573  0.0289 -0.5933  0.3030
  849MPD2    C412525   0.952   2.529  14.591 -0.5028 -0.2096 -0.3510
  849MPD2    C512526   0.861   2.591  14.507 -0.5909 -0.3871  0.0422
  849MPD2     H12527   1.008   2.248  14.432  1.0541  0.1922  0.2747
  849MPD2    H112528   0.968   2.586  14.682  0.9485 -1.5632  0.2407
  849MPD2    H212529   0.738   2.574  14.338  0.1708  1.0535  0.6429
  849MPD2    H312530   0.831   2.692  14.532  3.8211  0.6563  1.2422
  849MPD2     N12531   1.114   2.369  14.663  0.2426  0.7889 -0.0712
  849MPD2    H512532   1.136   2.433  14.738  1.1568  0.4414 -0.0503
  849MPD2    N112533   0.839   2.322  14.259  0.0337  0.1460  0.0637
  849MPD2    H712534   0.882   2.230  14.252  0.9648  0.5887 -0.0585
  850MPD2     C12535   4.139   0.495  14.924 -0.6482 -0.4779 -0.1023
  850MPD2    C112536   4.107   0.534  15.052 -0.0680 -0.0343  0.6870
  850MPD2    C212537   4.185   0.627  15.116  0.3146 -0.1715 -0.0117
  850MPD2    C312538   4.294   0.685  15.053 -0.1650 -0.9662  0.0464
  850MPD2    C412539   4.323   0.650  14.928 -0.2444  0.0297 -0.0382
  850MPD2    C512540   4.253   0.548  14.867  0.3579  0.8353 -0.5022
  850MPD2     H12541   4.172   0.658  15.219 -0.3727 -0.9134  0.1202
  850MPD2    H112542   4.418   0.677  14.883  0.0027  0.3212  0.6539
  850MPD2    H212543   4.079   0.422  14.873  0.5155 -0.7485 -1.0806
  850MPD2    H312544   4.290   0.512  14.772  1.4478 -2.4251  1.1650
  850MPD2     N12545   4.391   0.770  15.115  1.0032  0.1609  0.3609
  850MPD2    H512546   4.462   0.812  15.057  0.3434  1.0325  0.1828
  850MPD2    N112547   3.989   0.476  15.105 -0.1762  0.1519  0.0658
  850MPD2    H712548   3.931   0.414  15.049 -1.2715 -0.1067  1.4859
  851MPD2     C12549   3.700   4.706  14.855 -0.0208  0.8591  0.6004
  851MPD2    C112550   3.651   4.730  14.984 -0.5219  0.9634  0.4799
  851MPD2    C212551   3.576   4.632  15.044 -0.6609 -0.5355 -0.0440
  851MPD2    C312552   3.542   4.521  14.972 -0.4032 -0.7610  0.2381
  851MPD2    C412553   3.576   4.509  14.838  1.3344  0.1314  0.3220
  851MPD2    C512554   3.656   4.601  14.779 -0.5430 -0.2692 -0.2095
  851MPD2     H12555   3.545   4.634  15.148 -0.7311 -1.3008 -0.0553
  851MPD2    H112556   3.533   4.433  14.774 -1.3279  0.9710  1.0801
  851MPD2    H212557   3.767   0.043  14.817  0.6428 -0.1416 -0.1916
  851MPD2    H312558   3.684   4.596  14.674 -0.0434 -0.4316 -0.0665
  851MPD2     N12559   3.469   4.423  15.041  0.5273 -0.3244 -0.4311
  851MPD2    H512560   3.442   4.453  15.134 -0.5060 -0.2847 -0.7453
  851MPD2    N112561   3.680   0.113  15.045 -0.8836 -0.4459  0.4531
  851MPD2    H712562   3.738   0.181  14.998 -0.8949 -1.2929 -0.7901
  852MPD2     C12563   3.570   2.710  10.082  1.3678 -0.4311 -0.3349
  852MPD2    C112564   3.623   2.719  10.211  1.2765 -0.0752 -0.6314
  852MPD2    C212565   3.684   2.836  10.257  0.1401  0.4152 -0.1208
  852MPD2    C312566   3.685   2.952  10.185 -0.3243  0.3177 -0.1926
  852MPD2    C412567   3.628   2.945  10.061 -0.1865 -0.0226 -0.0482
  852MPD2    C512568   3.572   2.830  10.008 -0.5036 -0.3526  0.3022
  852MPD2     H12569   3.712   2.846  10.361 -3.1897 -2.3764  1.0449
  852MPD2    H112570   3.611   3.038  10.007  0.6355 -0.2274 -0.6614
  852MPD2    H212571   3.524   2.624  10.035 -1.9721  0.3751  1.4209
  852MPD2    H312572   3.527   2.833   9.909 -1.4488 -0.7780  0.7255
  852MPD2     N12573   3.757   3.064  10.237  0.2051 -0.2373 -0.9154
  852MPD2    H512574   3.794   3.051  10.331  1.4656 -0.0860 -1.3983
  852MPD2    N112575   3.605   2.622  10.305  0.1630  0.2991 -0.3265
  852MPD2    H712576   3.643   2.642  10.397 -0.4837  0.3571 -0.0746
  853MPD2     C12577   0.881   2.457  12.679  0.5556 -0.3741 -0.0876
  853MPD2    C112578   0.907   2.592  12.633 -0.2289  0.5653  0.4247
  853MPD2    C212579   0.904   2.609  12.493  0.7226  0.6706 -0.5171
  853MPD2    C312580   0.883   2.499  12.407  0.9367  0.0011 -0.0814
  853MPD2    C412581   0.864   2.373  12.461  0.1592 -0.3822  0.0906
  853MPD2    C512582   0.865   2.355  12.594  0.7748 -0.0129 -0.2672
  853MPD2     H12583   0.925   2.703  12.444  1.2084  0.4401 -0.7451
  853MPD2    H112584   0.827   2.292  12.399 -1.4570 -0.7738  1.5860
  853MPD2    H212585   0.893   2.430  12.783  0.2165 -0.0694  0.0311
  853MPD2    H312586   0.845   2.254  12.628  1.6683 -0.4117 -0.9189
  853MPD2     N12587   0.855   2.520  12.265 -0.2749  0.1536 -0.4815
  853MPD2    H512588   0.830   2.434  12.217  2.3448 -0.6400 -0.4071
  853MPD2    N112589   0.921   2.690  12.722  0.1898  0.4291  0.2119
  853MPD2    H712590   0.906   2.660  12.818  1.6623 -2.1057 -0.3548
  854MPD2     C12591   3.429   3.494  13.251  0.0199 -0.3372  0.7269
  854MPD2    C112592   3.314   3.417  13.260  0.7599  0.1396  0.0260
  854MPD2    C212593   3.311   3.318  13.350  0.1888  0.0505  0.6621
  854MPD2    C312594   3.420   3.295  13.430 -0.5243 -0.1854 -0.3577
  854MPD2    C412595   3.532   3.378  13.428 -0.3560  0.7326  0.2220
  854MPD2    C512596   3.534   3.478  13.336  0.8405  0.0655 -0.0764
  854MPD2     H12597   3.221   3.257  13.355 -1.1415  2.0069  0.5655
  854MPD2    H112598   3.623   3.362  13.485  0.6982  0.5156 -1.5026
  854MPD2    H212599   3.435   3.574  13.178 -1.2055  1.0706  2.1728
  854MPD2    H312600   3.623   3.537  13.318  1.1651 -0.0711  1.0839
  854MPD2     N12601   3.417   3.190  13.532 -0.7666  0.1128  0.0519
  854MPD2    H512602   3.499   3.157  13.581  0.1649  1.5468 -0.5031
  854MPD2    N112603   3.203   3.446  13.168  0.0480 -0.1478 -0.3226
  854MPD2    H712604   3.222   3.506  13.089 -0.5369 -0.5849 -0.7930
  855MPD2     C12605   2.591   2.638  13.568  0.0273  0.0517  0.0869
  855MPD2    C112606   2.667   2.570  13.658  0.2061 -0.3887 -0.5852
  855MPD2    C212607   2.789   2.627  13.683 -0.1999 -0.6455  0.3547
  855MPD2    C312608   2.838   2.741  13.617 -0.0880 -0.7761 -0.2633
  855MPD2    C412609   2.753   2.812  13.536 -0.2802  0.5575  0.1677
  855MPD2    C512610   2.628   2.759  13.516 -0.0549 -0.3354  1.0514
  855MPD2     H12611   2.857   2.583  13.755  0.5067  1.0892  0.7242
  855MPD2    H112612   2.782   2.900  13.479 -0.0016  1.2824  1.4285
  855MPD2    H212613   2.499   2.593  13.532 -0.4503 -0.0489  1.4133
  855MPD2    H312614   2.552   2.802  13.452  1.7055 -0.5042 -1.1567
  855MPD2     N12615   2.966   2.797  13.627 -0.0084 -0.1432  0.1936
  855MPD2    H512616   2.975   2.889  13.585 -1.4636 -0.5158 -0.9281
  855MPD2    N112617   2.641   2.446  13.712  0.1709  0.5015  0.1068
  855MPD2    H712618   2.712   2.420  13.779  0.1632  1.7554  0.6013
  856MPD2     C12619   0.597   4.036  13.446 -0.6689 -0.3186 -0.0473
  856MPD2    C112620   0.473   4.014  13.496 -0.1859  0.2144 -0.5556
  856MPD2    C212621   0.376   4.119  13.497  0.0692  0.6319  0.7082
  856MPD2    C312622   0.408   4.243  13.456 -0.4872  0.5165  0.1713
  856MPD2    C412623   0.529   4.263  13.407  0.2992  0.6389  0.1688
  856MPD2    C512624   0.624   4.161  13.390  1.6068 -0.1823 -0.0756
  856MPD2     H12625   0.287   4.103  13.555 -2.2475  0.2416 -2.9595
  856MPD2    H112626   0.560   4.362  13.376  0.6136  0.1295 -1.1192
  856MPD2    H212627   0.672   3.957  13.446 -0.4014 -0.0585  1.4357
  856MPD2    H312628   0.723   4.189  13.356  1.3905  0.8105  0.1248
  856MPD2     N12629   0.319   4.357  13.470 -0.0130  0.3927  0.8676
  856MPD2    H512630   0.366   4.446  13.458  0.5550 -0.0193 -0.0104
  856MPD2    N112631   0.445   3.901  13.581 -0.0736  0.0900  0.0630
  856MPD2    H712632   0.354   3.888  13.624 -0.0989 -0.8001 -0.2512
  857MPD2     C12633   1.685   1.165  12.618  0.0649  0.1129 -0.1349
  857MPD2    C112634   1.805   1.142  12.698 -0.0125 -0.6187  0.0737
  857MPD2    C212635   1.881   1.250  12.753  0.2644  0.9431  0.3064
  857MPD2    C312636   1.829   1.373  12.730  1.1086  1.0380 -0.2866
  857MPD2    C412637   1.724   1.394  12.647 -0.4375 -0.2132  0.4963
  857MPD2    C512638   1.658   1.290  12.593 -0.9188 -0.2578  0.4475
  857MPD2     H12639   1.970   1.231  12.812  1.9141  0.6036 -2.2840
  857MPD2    H112640   1.681   1.492  12.628  2.1556  1.4200  3.0553
  857MPD2    H212641   1.619   1.084  12.590 -0.1503  0.7708 -1.4984
  857MPD2    H312642   1.572   1.312  12.530 -0.5235 -0.2364 -0.0841
  857MPD2     N12643   1.900   1.486  12.787 -0.1051 -0.2820  0.2364
  857MPD2    H512644   1.987   1.447  12.823 -0.0601  1.8132  2.4123
  857MPD2    N112645   1.841   1.004  12.721 -0.4154  0.5798 -0.0979
  857MPD2    H712646   1.770   0.936  12.697 -0.3035  0.5014 -0.2065
  858MPD2     C12647   1.771   0.070  16.698 -0.0624 -0.2268  0.2381
  858MPD2    C112648   1.896   0.027  16.684  0.3737  0.0607  0.1523
  858MPD2    C212649   1.998   0.106  16.731  0.2256 -0.0530 -0.4610
  858MPD2    C312650   1.965   0.231  16.780 -0.2861 -0.1939 -0.9319
  858MPD2    C412651   1.834   0.286  16.773 -0.3792 -0.3115 -0.3598
  858MPD2    C512652   1.740   0.199  16.729  0.0485  0.4770  0.1093
  858MPD2     H12653   2.099   0.069  16.734  0.6171  1.0330 -0.3736
  858MPD2    H112654   1.808   0.384  16.811  0.0213 -0.2269 -0.3059
  858MPD2    H212655   1.695   0.004  16.658 -1.0654  1.0292  0.0389
  858MPD2    H312656   1.639   0.232  16.709  0.3853  1.4713  0.0345
  858MPD2     N12657   2.058   0.329  16.826  0.2401  0.0167 -0.1428
  858MPD2    H512658   2.025   0.414  16.870  1.9185 -0.4625  2.0534
  858MPD2    N112659   1.918   4.646  16.609 -0.0219  0.0325 -0.9844
  858MPD2    H712660   1.833   4.599  16.578  0.0780 -1.3313  0.7798
  859MPD2     C12661   0.618   2.556  15.521 -0.1319  0.2257 -0.1667
  859MPD2    C112662   0.745   2.526  15.571 -0.1237 -0.1833  0.5839
  859MPD2    C212663   0.763   2.418  15.653  0.4355 -0.2088 -0.2732
  859MPD2    C312664   0.644   2.353  15.696 -0.6313  0.6317  0.1563
  859MPD2    C412665   0.516   2.388  15.651  0.2217  0.1749 -0.6115
  859MPD2    C512666   0.507   2.490  15.569 -0.1473  0.0428  1.1725
  859MPD2     H12667   0.861   2.380  15.677 -0.3271 -0.7889  1.9323
  859MPD2    H112668   0.432   2.328  15.682  0.3841  0.4001  0.2630
  859MPD2    H212669   0.605   2.625  15.438 -0.1041  0.4076 -0.0172
  859MPD2    H312670   0.407   2.514  15.535 -0.1000 -2.1875 -0.5316
  859MPD2     N12671   0.647   2.235  15.779  0.6209 -0.0527 -0.4449
  859MPD2    H512672   0.562   2.180  15.777  0.3734  0.2857  0.4421
  859MPD2    N112673   0.851   2.610  15.523  0.2658  0.1780 -0.4039
  859MPD2    H712674   0.835   2.681  15.452 -0.5377  0.2701 -0.1261
  860MPD2     C12675   3.146   2.292  12.213 -0.2293  0.3657 -0.4593
  860MPD2    C112676   3.215   2.370  12.306  0.9914  0.2646 -0.1489
  860MPD2    C212677   3.155   2.386  12.433 -0.5415 -0.8245 -0.2441
  860MPD2    C312678   3.025   2.328  12.457 -0.7885 -0.0567 -0.2172
  860MPD2    C412679   2.968   2.246  12.361  0.1501 -0.3458  0.3702
  860MPD2    C512680   3.024   2.229  12.235 -0.5863  0.0394  0.4102
  860MPD2     H12681   3.202   2.446  12.511 -0.1532 -1.9921  0.4105
  860MPD2    H112682   2.873   2.199  12.385  1.1042 -2.9518 -0.9122
  860MPD2    H212683   3.196   2.280  12.117 -0.3979 -2.2438 -0.2351
  860MPD2    H312684   2.981   2.164  12.159  3.2958 -0.9533 -0.9325
  860MPD2     N12685   2.959   2.353  12.581  0.1084  0.1721  0.1425
  860MPD2    H512686   2.981   2.441  12.626  2.3502  0.1012 -0.8335
  860MPD2    N112687   3.348   2.420  12.292  0.0278 -0.4130  0.0757
  860MPD2    H712688   3.401   2.451  12.373 -2.0101 -0.8586  1.5767
  861MPD2     C12689   3.002   0.817  11.079 -0.4158  0.0065  0.7831
  861MPD2    C112690   2.910   0.890  11.151 -0.1586 -0.0000  0.4358
  861MPD2    C212691   2.793   0.936  11.091 -0.4580  0.3888 -0.1111
  861MPD2    C312692   2.771   0.907  10.957 -0.0424 -0.2341  0.6921
  861MPD2    C412693   2.868   0.844  10.877 -0.0993  0.4177 -0.0419
  861MPD2    C512694   2.982   0.808  10.939  0.2428  0.5906  0.8819
  861MPD2     H12695   2.721   0.993  11.149  0.6697  0.9625  0.7329
  861MPD2    H112696   2.856   0.816  10.773 -0.6478 -1.7007  0.5990
  861MPD2    H212697   3.099   0.787  11.116 -1.1040 -0.0634  2.5290
  861MPD2    H312698   3.050   0.757  10.871 -0.1132  1.3094 -0.0216
  861MPD2     N12699   2.650   0.942  10.901  0.3108  0.4270  0.2386
  861MPD2    H512700   2.583   0.979  10.967 -1.3015  1.7855 -2.1625
  861MPD2    N112701   2.917   0.899  11.292 -0.3744  0.4259 -0.3443
  861MPD2    H712702   2.855   0.967  11.334 -0.9003 -0.3722  0.1942
  862MPD2     C12703   2.041   0.702  10.382  0.1969 -0.2220  0.0200
  862MPD2    C112704   2.136   0.675  10.479 -0.3547  0.6995 -0.4363
  862MPD2    C212705   2.151   0.548  10.531 -0.4887  0.3406  0.3175
  862MPD2    C312706   2.060   0.451  10.488  0.5281  0.1153 -0.6801
  862MPD2    C412707   1.968   0.475  10.381 -0.4876 -0.2140  0.5737
  862MPD2    C512708   1.967   0.597  10.329 -0.5715  0.4383  0.5264
  862MPD2     H12709   2.208   0.533  10.622  0.0102  1.0475  0.1177
  862MPD2    H112710   1.906   0.394  10.345 -0.3005  0.5854 -1.5184
  862MPD2    H212711   2.022   0.801  10.342  0.4690 -0.3738 -0.4813
  862MPD2    H312712   1.898   0.625  10.250  0.9665  1.9453 -0.2813
  862MPD2     N12713   2.031   0.340  10.568 -0.1296 -0.1927  0.6474
  862MPD2    H512714   1.956   0.275  10.544  0.0148 -1.0204  2.4653
  862MPD2    N112715   2.213   0.776  10.533  0.1563 -0.1762  0.1741
  862MPD2    H712716   2.292   0.748  10.590  0.0726 -0.0944  0.3315
  863MPD2     C12717   0.113   4.084  16.992 -0.0771 -1.0332 -0.3900
  863MPD2    C112718   0.239   4.103  16.933  0.3610  0.9636 -0.2299
  863MPD2    C212719   0.353   4.059  16.998 -0.9724  0.1606 -0.1805
  863MPD2    C312720   0.355   4.003  17.125  0.4095 -0.0122  0.2541
  863MPD2    C412721   0.231   3.968  17.177 -0.3254  0.0617 -0.1930
  863MPD2    C512722   0.114   4.009  17.107  0.1684  0.1687 -0.4579
  863MPD2     H12723   0.450   4.086  16.959 -1.4748 -0.4337 -1.8632
  863MPD2    H112724   0.222   3.913  17.270  0.4495 -0.5138 -0.4545
  863MPD2    H212725   0.017   4.126  16.966 -0.9223 -4.0969 -2.1440
  863MPD2    H312726   0.019   3.999  17.159 -0.1609 -0.8582 -1.2782
  863MPD2     N12727   0.470   3.972  17.204  0.7027 -0.1022 -0.2039
  863MPD2    H512728   0.456   3.927  17.294 -0.9153  1.0551  0.1155
  863MPD2    N112729   0.239   4.179  16.814 -0.5015 -0.0630  0.2114
  863MPD2    H712730   0.153   4.224  16.785  0.0459  0.6963 -0.2049
  864MPD2     C12731   1.298   1.104  17.059 -0.9185 -0.4123 -0.4080
  864MPD2    C112732   1.376   0.993  17.065 -0.7622 -0.1445  0.0579
  864MPD2    C212733   1.509   1.003  17.026 -0.2483  0.2899 -0.5047
  864MPD2    C312734   1.551   1.117  16.956 -0.1196  0.0561 -0.3699
  864MPD2    C412735   1.463   1.217  16.940 -0.2648 -0.3046 -0.0839
  864MPD2    C512736   1.339   1.211  16.991 -0.0138 -0.1645 -0.0686
  864MPD2     H12737   1.576   0.918  17.030 -0.0410  0.5444  1.2712
  864MPD2    H112738   1.500   1.303  16.886  1.2789 -2.8918 -3.1294
  864MPD2    H212739   1.192   1.095  17.077 -1.0570 -1.1715 -1.5753
  864MPD2    H312740   1.272   1.293  16.970  2.4478  1.6612 -0.8371
  864MPD2     N12741   1.680   1.135  16.890 -0.3226  0.1212  0.3337
  864MPD2    H512742   1.702   1.213  16.829  1.0618 -0.2432  0.3593
  864MPD2    N112743   1.325   0.869  17.112 -0.2682  0.2854  0.0236
  864MPD2    H712744   1.224   0.878  17.115 -0.4276 -0.7786 -2.0650
  865MPD2     C12745   1.851   1.069  16.019 -0.4862  0.4130  0.6467
  865MPD2    C112746   1.787   1.018  16.125 -0.2295 -0.3989  0.1954
  865MPD2    C212747   1.820   1.067  16.248  0.0745 -0.4887 -0.5882
  865MPD2    C312748   1.928   1.146  16.271  0.0212  0.0409  0.3969
  865MPD2    C412749   1.992   1.200  16.163  0.3065 -0.3798  0.1521
  865MPD2    C512750   1.948   1.164  16.037 -0.3626 -0.0324  0.4104
  865MPD2     H12751   1.760   1.034  16.332  0.8336 -0.7359 -0.1446
  865MPD2    H112752   2.071   1.271  16.182  0.2893 -0.6829  1.3396
  865MPD2    H212753   1.828   1.048  15.915 -2.6938 -0.8224  1.3801
  865MPD2    H312754   1.994   1.217  15.954  1.1693 -0.1364  1.1955
  865MPD2     N12755   1.970   1.193  16.397 -0.2685  0.1526 -0.3049
  865MPD2    H512756   2.062   1.235  16.412 -1.4617  2.2195  1.1960
  865MPD2    N112757   1.685   0.915  16.100 -0.0063 -0.1655 -0.1096
  865MPD2    H712758   1.672   0.885  16.004  0.6892 -1.4998  0.2114
  866MPD2     C12759   3.336   1.358  11.119 -0.1090  0.1272 -0.1782
  866MPD2    C112760   3.287   1.285  11.224  0.3382  0.6734  0.5972
  866MPD2    C212761   3.159   1.311  11.262 -1.0001  0.8526 -1.1595
  866MPD2    C312762   3.084   1.416  11.209  0.0324 -0.3536  0.0411
  866MPD2    C412763   3.140   1.492  11.106 -0.2928  0.6091  0.4284
  866MPD2    C512764   3.270   1.462  11.071  0.0712  0.8352  0.0936
  866MPD2     H12765   3.105   1.250  11.334  0.2297  0.9282 -0.1813
  866MPD2    H112766   3.088   1.578  11.066  0.1820 -0.0309 -1.5533
  866MPD2    H212767   3.443   1.367  11.102 -0.0941 -0.2167 -0.2653
  866MPD2    H312768   3.314   1.527  10.996  1.9433  0.0671  0.5318
  866MPD2     N12769   2.951   1.452  11.244  0.1734 -0.3602  0.2626
  866MPD2    H512770   2.908   1.518  11.181  0.8487  0.4899  0.6895
  866MPD2    N112771   3.370   1.195  11.290 -0.1706  0.1681  0.4543
  866MPD2    H712772   3.467   1.193  11.260  0.1810 -2.1115  1.7566
  867MPD2     C12773   4.509   0.762  16.883  0.3936 -0.0246 -0.0207
  867MPD2    C112774   4.536   0.642  16.944 -0.4961  0.2198  0.3417
  867MPD2    C212775   4.461   0.605  17.048 -1.0321  0.2270 -0.2544
  867MPD2    C312776   4.364   0.685  17.107 -0.1652 -0.1131  0.1084
  867MPD2    C412777   4.330   0.798  17.038  0.5349 -0.4634 -0.2679
  867MPD2    C512778   4.410   0.840  16.931  0.5079 -0.2660  0.0676
  867MPD2     H12779   4.468   0.510  17.100 -0.1394  0.7438  0.5882
  867MPD2    H112780   4.251   0.862  17.074  1.6900  0.0714  1.2993
  867MPD2    H212781   4.559   0.782  16.789  1.0300 -4.3133 -0.5908
  867MPD2    H312782   4.378   0.930  16.880  0.5898 -1.0784 -1.4189
  867MPD2     N12783   4.287   0.658  17.225  0.1847 -0.0581  0.0735
  867MPD2    H512784   4.208   0.720  17.238  0.2760  0.4088 -1.5225
  867MPD2    N112785   4.626   0.556  16.874 -0.1312  0.6751  0.3986
  867MPD2    H712786   4.669   0.596  16.791  0.8469  0.0171  0.5842
  868MPD2     C12787   1.799   4.149  13.045 -0.0562  0.4327 -0.0907
  868MPD2    C112788   1.851   4.067  13.144  0.5365 -0.2095 -0.4508
  868MPD2    C212789   1.765   4.038  13.247  0.0518 -0.7592 -0.4059
  868MPD2    C312790   1.634   4.081  13.255 -0.6153 -0.3953  1.1556
  868MPD2    C412791   1.584   4.159  13.153 -0.3231 -0.1932 -0.4303
  868MPD2    C512792   1.667   4.186  13.053 -0.3972  0.3454 -0.3203
  868MPD2     H12793   1.796   3.957  13.312 -0.5683 -0.2190  0.5572
  868MPD2    H112794   1.481   4.191  13.158 -0.9425 -2.0592 -1.1718
  868MPD2    H212795   1.853   4.175  12.955 -0.8157 -2.1381 -1.3142
  868MPD2    H312796   1.622   4.251  12.979 -1.2257  0.8784  0.6386
  868MPD2     N12797   1.555   4.029  13.357 -0.5812 -0.0709 -0.1607
  868MPD2    H512798   1.592   3.960  13.421  1.3788  0.4959 -0.6667
  868MPD2    N112799   1.984   4.022  13.127 -0.1839  1.0047 -0.0832
  868MPD2    H712800   2.041   4.054  13.050  0.9786  0.2875  0.4667
  869MPD2     C12801   2.320   2.649   0.810 -0.1752 -0.5286  0.1391
  869MPD2    C112802   2.408   2.559   0.750 -0.0214 -0.5173 -0.1671
  869MPD2    C212803   2.543   2.593   0.752  0.2224 -0.3695  0.8077
  869MPD2    C312804   2.584   2.716   0.810  0.0338 -0.7242 -0.5324
  869MPD2    C412805   2.494   2.790   0.888 -0.7952  0.0960  0.8522
  869MPD2    C512806   2.363   2.761   0.871 -0.6664  0.0197  0.2628
  869MPD2     H12807   2.617   2.535   0.697 -1.2131  2.4195 -4.0568
  869MPD2    H112808   2.523   2.878   0.944  0.7396  0.1668 -0.0295
  869MPD2    H212809   2.214   2.632   0.798 -0.3126  1.0860 -0.8930
  869MPD2    H312810   2.291   2.832   0.910 -1.0319  0.8114 -1.8103
  869MPD2     N12811   2.719   2.738   0.839 -0.3599  0.0242  0.2055
  869MPD2    H512812   2.740   2.815   0.903 -1.7644  0.5454  0.0350
  869MPD2    N112813   2.361   2.439   0.688  0.0256  0.1209  0.6502
  869MPD2    H712814   2.263   2.417   0.696 -0.2610  0.8725 -0.7729
  870MPD2     C12815   2.705   1.654   1.685  0.2702 -0.0399 -0.5128
  870MPD2    C112816   2.703   1.555   1.587 -0.1058 -0.0138  0.7901
  870MPD2    C212817   2.604   1.557   1.489  0.4678  0.5070 -0.6341
  870MPD2    C312818   2.493   1.640   1.498  0.4547 -0.5495  1.0309
  870MPD2    C412819   2.484   1.722   1.613 -0.4332 -0.2126 -0.0766
  870MPD2    C512820   2.589   1.729   1.703  0.2438  0.2830  0.6210
  870MPD2     H12821   2.589   1.474   1.421 -0.8969 -0.7983  1.2578
  870MPD2    H112822   2.399   1.787   1.631 -0.6543 -0.6036  0.2945
  870MPD2    H212823   2.780   1.670   1.761  0.3852 -0.8804 -0.4439
  870MPD2    H312824   2.586   1.798   1.787  0.9591  0.9948  0.0665
  870MPD2     N12825   2.394   1.631   1.395  0.8561  0.6406 -0.8391
  870MPD2    H512826   2.401   1.552   1.332 -0.4671  0.9979 -1.4303
  870MPD2    N112827   2.801   1.455   1.589  0.3751 -0.0180 -0.2609
  870MPD2    H712828   2.879   1.463   1.653  0.7100 -1.9716 -0.4291
  871MPD2     C12829   3.484   1.034  16.309  0.4146 -0.1036  0.4365
  871MPD2    C112830   3.437   0.972  16.425 -0.2155 -0.1045  0.0410
  871MPD2    C212831   3.459   0.835  16.443  0.3407  0.1315 -0.9210
  871MPD2    C312832   3.527   0.763  16.348  0.4916  0.4103 -0.5383
  871MPD2    C412833   3.565   0.827  16.237 -0.2876 -0.8717  0.1763
  871MPD2    C512834   3.547   0.956  16.214 -0.1570  0.5212 -0.3839
  871MPD2     H12835   3.433   0.784  16.535 -2.1473  1.2176 -1.0051
  871MPD2    H112836   3.603   0.777  16.149 -0.8091 -0.4040 -0.3170
  871MPD2    H212837   3.479   1.140  16.289  0.7523 -0.3745 -1.0287
  871MPD2    H312838   3.579   0.997  16.119 -1.8670 -0.0541 -1.2204
  871MPD2     N12839   3.570   0.629  16.375  0.3424  0.6805  0.6865
  871MPD2    H512840   3.539   0.591  16.464 -1.1576 -1.5947 -0.7749
  871MPD2    N112841   3.374   1.057  16.523  0.2237 -0.1588 -0.1339
  871MPD2    H712842   3.384   1.155  16.499 -0.9579 -0.5553 -2.2049
  872MPD2     C12843   0.314   3.025  14.144 -0.0255  0.4102 -0.3819
  872MPD2    C112844   0.255   3.098  14.040 -0.1523 -0.1234 -0.4031
  872MPD2    C212845   0.132   3.163  14.052  0.0878 -0.3565 -0.3741
  872MPD2    C312846   0.059   3.146  14.167  0.1661  0.6486 -0.0692
  872MPD2    C412847   0.112   3.059  14.263 -0.7383 -0.3349 -1.0682
  872MPD2    C512848   0.236   3.008  14.257  0.3232  0.0419 -0.4145
  872MPD2     H12849   0.091   3.234  13.981  2.9344  1.1246 -0.5416
  872MPD2    H112850   0.059   3.043  14.357  2.3859 -1.4062  0.5139
  872MPD2    H212851   0.413   2.980  14.134 -0.5381 -0.7726 -0.1408
  872MPD2    H312852   0.282   2.946  14.334  0.1000  0.5437  0.1189
  872MPD2     N12853   4.675   3.206  14.186  0.1845 -0.0275  0.4429
  872MPD2    H512854   4.639   3.180  14.278 -1.9039 -1.5576 -0.8225
  872MPD2    N112855   0.321   3.113  13.913 -0.2191 -0.0274 -0.2571
  872MPD2    H712856   0.301   3.188  13.848  1.0022  0.1799 -0.3887
  873MPD2     C12857   1.907   3.436   1.113  0.2183  0.3012 -0.1344
  873MPD2    C112858   1.783   3.448   1.172  0.8068  0.6711 -0.1791
  873MPD2    C212859   1.691   3.348   1.158  0.1650 -1.1552  0.0200
  873MPD2    C312860   1.715   3.237   1.085  0.1621 -0.3933 -0.2441
  873MPD2    C412861   1.835   3.233   1.011  0.1484  0.2144 -0.7002
  873MPD2    C512862   1.931   3.332   1.032 -0.2574  0.1464 -0.1330
  873MPD2     H12863   1.592   3.360   1.200 -0.6693  2.1101 -2.8380
  873MPD2    H112864   1.869   3.139   0.968 -2.0569 -0.9479  0.0785
  873MPD2    H212865   1.992   3.501   1.127  0.3666 -0.6401  3.3063
  873MPD2    H312866   2.031   3.326   0.992 -1.8381 -1.2069 -3.8700
  873MPD2     N12867   1.630   3.124   1.082 -0.6606  0.0002 -0.3628
  873MPD2    H512868   1.651   3.057   1.009  1.8368  0.0047  0.3541
  873MPD2    N112869   1.758   3.568   1.244 -0.5216 -0.0302 -0.1660
  873MPD2    H712870   1.845   3.605   1.281 -0.2036 -1.0749  0.1425
  874MPD2     C12871   0.812   3.402  16.362 -0.0083  0.0422  0.3115
  874MPD2    C112872   0.908   3.310  16.411  0.1843 -0.2494  0.0585
  874MPD2    C212873   1.040   3.358  16.429 -0.7200 -0.2798  1.1309
  874MPD2    C312874   1.076   3.480  16.388  0.4138 -0.2542  0.4505
  874MPD2    C412875   0.982   3.568  16.339  0.0691  0.6542  0.0246
  874MPD2    C512876   0.847   3.532  16.330 -0.7450  0.4441  0.6349
  874MPD2     H12877   1.121   3.301  16.472  1.3546 -0.0602 -2.4383
  874MPD2    H112878   1.018   3.665  16.307 -0.9834  1.2334  0.5991
  874MPD2    H212879   0.705   3.383  16.365  0.2913 -1.6808 -0.0555
  874MPD2    H312880   0.771   3.601  16.294 -0.4774  0.6318  0.4356
  874MPD2     N12881   1.217   3.497  16.378 -0.6109  0.2244  0.4766
  874MPD2    H512882   1.274   3.431  16.430 -0.8050  0.2164  0.6822
  874MPD2    N112883   0.869   3.176  16.443 -0.3234 -0.4175 -0.5035
  874MPD2    H712884   0.769   3.158  16.445 -0.4392  0.2681 -0.4029
  875MPD2     C12885   2.724   1.386  14.409  0.2225 -0.0825  0.5633
  875MPD2    C112886   2.604   1.454  14.420 -0.2210  0.3082  0.8563
  875MPD2    C212887   2.589   1.550  14.527 -0.4693  0.0280 -0.6781
  875MPD2    C312888   2.695   1.573  14.616  0.5820  0.2824 -0.0619
  875MPD2    C412889   2.825   1.512  14.597 -0.3071 -0.1952 -0.1671
  875MPD2    C512890   2.830   1.432  14.485  0.3334  0.3284  0.1970
  875MPD2     H12891   2.503   1.616  14.523 -1.9126 -1.7943 -0.1688
  875MPD2    H112892   2.911   1.541  14.657 -0.2951  0.0439 -0.2991
  875MPD2    H212893   2.739   1.304  14.340 -0.7490  0.0001  0.2526
  875MPD2    H312894   2.924   1.382  14.464  0.1410  0.1069 -0.1362
  875MPD2     N12895   2.680   1.654  14.729 -0.0463 -0.2522 -0.2600
  875MPD2    H512896   2.753   1.646  14.798  0.8355 -2.7164 -1.4749
  875MPD2    N112897   2.498   1.439  14.325  0.2312 -0.2258  0.0414
  875MPD2    H712898   2.409   1.481  14.350 -1.5582 -1.5988 -3.9984
  876MPD2     C12899   1.295   2.833  16.370 -0.1413 -0.3855  0.8431
  876MPD2    C112900   1.301   2.807  16.236 -0.3389 -0.6208  0.8325
  876MPD2    C212901   1.299   2.680  16.174 -0.2120 -0.5966  0.2251
  876MPD2    C312902   1.284   2.576  16.263 -0.9281 -0.0584 -0.1335
  876MPD2    C412903   1.267   2.597  16.397  0.1172 -0.6782  0.4904
  876MPD2    C512904   1.275   2.728  16.453  0.1302 -0.1265 -0.9747
  876MPD2     H12905   1.311   2.664  16.067 -0.7434 -0.4114  0.1385
  876MPD2    H112906   1.272   2.520  16.473  0.5802 -0.2551  0.8895
  876MPD2    H212907   1.290   2.931  16.415  0.5748 -1.5134  3.3760
  876MPD2    H312908   1.264   2.752  16.558  1.0427 -0.3922 -0.8170
  876MPD2     N12909   1.303   2.445  16.213  0.3002  0.8089  0.6756
  876MPD2    H512910   1.326   2.435  16.115 -0.9150 -0.1088  0.4769
  876MPD2    N112911   1.295   2.923  16.154  0.2182 -0.1723 -0.2854
  876MPD2    H712912   1.306   3.014  16.199  0.5723  0.1467 -1.0174
  877MPD2     C12913   1.095   3.216  15.355 -1.1654  0.1003 -0.2637
  877MPD2    C112914   1.219   3.171  15.395  0.1697 -0.5151 -0.0063
  877MPD2    C212915   1.318   3.139  15.305 -0.2802 -0.1143  0.1132
  877MPD2    C312916   1.289   3.130  15.165  0.6478 -0.4733 -0.1748
  877MPD2    C412917   1.162   3.176  15.134 -0.5275  0.1257 -0.1141
  877MPD2    C512918   1.064   3.217  15.222 -0.3501  0.6215  0.5225
  877MPD2     H12919   1.413   3.099  15.338  0.0674  0.9036  0.3518
  877MPD2    H112920   1.131   3.164  15.031 -0.2065  0.5608 -0.2581
  877MPD2    H212921   1.012   3.241  15.420 -2.4973  1.5632 -2.5395
  877MPD2    H312922   0.965   3.236  15.181  0.5242  0.4701 -1.6874
  877MPD2     N12923   1.370   3.077  15.065 -0.0323 -0.2048 -0.1360
  877MPD2    H512924   1.323   3.087  14.976  0.5726 -0.5248 -0.4868
  877MPD2    N112925   1.247   3.161  15.533  0.7532 -0.5927  0.2822
  877MPD2    H712926   1.339   3.130  15.564  0.7078 -0.2412  0.7711
  878MPD2     C12927   1.039   2.126  13.268  0.0164 -0.1167 -0.2411
  878MPD2    C112928   1.125   2.212  13.330  0.9407 -0.4553  0.1490
  878MPD2    C212929   1.100   2.245  13.465  0.7295  0.3349 -0.1408
  878MPD2    C312930   0.988   2.191  13.533 -0.6477 -0.4728 -0.5279
  878MPD2    C412931   0.895   2.118  13.460  0.0156  0.4822 -1.0401
  878MPD2    C512932   0.932   2.077  13.337 -0.4168 -0.1251 -0.2603
  878MPD2     H12933   1.168   2.300  13.529  1.8994  1.1636 -2.0981
  878MPD2    H112934   0.816   2.065  13.513  0.6018  1.2277  0.5846
  878MPD2    H212935   1.047   2.083  13.169 -0.7882  1.5678 -1.0358
  878MPD2    H312936   0.864   2.013  13.283 -0.7395 -1.5200  1.7997
  878MPD2     N12937   0.974   2.208  13.670  0.2193  0.1312  0.4438
  878MPD2    H512938   1.060   2.205  13.724 -1.7097  0.1573  3.5432
  878MPD2    N112939   1.222   2.269  13.255 -0.3279 -0.4068  0.5628
  878MPD2    H712940   1.247   2.223  13.168 -2.5802 -0.4268 -0.0541
  879MPD2     C12941   1.682   4.134  17.390  0.4966 -1.0806  0.2202
  879MPD2    C112942   1.715   4.005  17.374  0.1676 -0.5255 -0.1904
  879MPD2    C212943   1.648   3.919  17.286  0.1569 -0.6609  0.4400
  879MPD2    C312944   1.549   3.975  17.207 -0.0378  0.8898  0.1848
  879MPD2    C412945   1.517   4.108  17.233  0.3810  0.0434 -0.0517
  879MPD2    C512946   1.580   4.188  17.318  0.3909 -0.1629 -0.3930
  879MPD2     H12947   1.672   3.813  17.288  1.2391 -0.4122  0.8959
  879MPD2    H112948   1.438   4.151  17.172  0.3515  2.1672  1.5070
  879MPD2    H212949   1.728   4.206  17.458  0.4741  1.0926 -2.0641
  879MPD2    H312950   1.554   4.292  17.333  1.1633 -0.0754  0.3029
  879MPD2     N12951   1.479   3.913  17.098  0.5249  0.4175 -0.5677
  879MPD2    H512952   1.421   3.969  17.037  0.7301  0.5469 -0.6464
  879MPD2    N112953   1.830   3.967  17.441  0.3205  0.6602  0.9366
  879MPD2    H712954   1.876   4.042  17.491  1.6563  1.0248 -0.8476
  880MPD2     C12955   2.825   0.662   0.447  0.2061  0.4186  0.4006
  880MPD2    C112956   2.740   0.737   0.527  0.2954 -0.3819 -0.1044
  880MPD2    C212957   2.709   0.692   0.658  0.2074  0.1704 -0.0707
  880MPD2    C312958   2.777   0.582   0.712 -0.1861  0.1975  0.2437
  880MPD2    C412959   2.867   0.513   0.634  0.3148  0.5645 -0.0608
  880MPD2    C512960   2.891   0.554   0.508  0.1922 -0.5839  0.3573
  880MPD2     H12961   2.626   0.739   0.710  1.3163  1.6826  0.3446
  880MPD2    H112962   2.926   0.428   0.665  1.1721  2.3177  3.0759
  880MPD2    H212963   2.842   0.696   0.345  0.4208  1.4426  0.7753
  880MPD2    H312964   2.956   0.497   0.443 -0.3652  0.6260 -1.2393
  880MPD2     N12965   2.759   0.544   0.846  0.1635  0.1117  0.7246
  880MPD2    H512966   2.707   0.611   0.901  1.1947  0.8168  0.8434
  880MPD2    N112967   2.687   0.850   0.474  0.1902 -0.1335  0.2333
  880MPD2    H712968   2.734   0.885   0.392  0.8657  0.8225  1.0364
  881MPD2     C12969   2.524   0.888  17.381  0.1638  0.2820  0.3526
  881MPD2    C112970   2.576   1.011  17.420 -0.3209 -0.2178  0.3780
  881MPD2    C212971   2.574   1.046  17.550  0.3408  0.1885  0.7724
  881MPD2    C312972   2.529   0.961  17.646 -0.2557  0.9401  0.2174
  881MPD2    C412973   2.488   0.831  17.611 -0.0077 -0.0214  0.5679
  881MPD2    C512974   2.492   0.795  17.478  0.4326 -0.5218 -0.1352
  881MPD2     H12975   2.606   1.147  17.573 -0.7977  0.9587 -0.9873
  881MPD2    H112976   2.463   0.752  17.681 -1.2118 -0.4097 -0.3083
  881MPD2    H212977   2.543   0.848  17.282  0.8128  0.5028  0.3890
  881MPD2    H312978   2.460   0.699  17.439 -1.3314  0.7391 -1.7928
  881MPD2     N12979   2.520   0.997   0.025  0.2838 -0.1713 -0.0976
  881MPD2    H512980   2.502   0.930   0.099 -0.8790  0.2857  0.0407
  881MPD2    N112981   2.651   1.072  17.320 -0.2250 -0.4396 -0.1725
  881MPD2    H712982   2.640   1.039  17.224  0.4985 -0.6470 -0.1852
  882MPD2     C12983   1.367   2.580  14.407  0.3808 -0.6822 -0.1124
  882MPD2    C112984   1.340   2.704  14.460  0.4126 -0.0758 -0.7157
  882MPD2    C212985   1.227   2.767  14.408 -0.6751 -0.2924 -0.2869
  882MPD2    C312986   1.142   2.718  14.313 -0.8690  0.2234 -0.0487
  882MPD2    C412987   1.169   2.595  14.264 -0.4099 -0.1947  0.5909
  882MPD2    C512988   1.285   2.533  14.308  0.4112 -0.6170 -0.2658
  882MPD2     H12989   1.219   2.869  14.443  0.4367 -0.0963 -0.6189
  882MPD2    H112990   1.100   2.535  14.204 -1.5384  1.2689  0.4283
  882MPD2    H212991   1.447   2.517  14.445  0.3286  0.0371  1.2026
  882MPD2    H312992   1.295   2.431  14.274 -0.3738 -1.3450  1.7318
  882MPD2     N12993   1.024   2.785  14.274  0.8551  0.2316  0.2654
  882MPD2    H512994   0.969   2.743  14.200  0.8112  0.7134  0.0263
  882MPD2    N112995   1.425   2.758  14.562  0.6161 -0.0923 -0.1325
  882MPD2    H712996   1.505   2.699  14.583  1.7799  2.0016  1.2140
  883MPD2     C12997   3.164   3.045  16.279  0.0754 -0.1402  0.2051
  883MPD2    C112998   3.278   3.052  16.193 -0.2829  0.6162  0.0625
  883MPD2    C212999   3.400   3.080  16.256 -0.7237  0.6989 -0.0184
  883MPD2    C313000   3.406   3.104  16.391 -0.1111  0.2852  0.4992
  883MPD2    C413001   3.292   3.109  16.474  0.4320  0.1357  0.0983
  883MPD2    C513002   3.176   3.089  16.408  0.3338 -0.3110  0.0479
  883MPD2     H13003   3.492   3.064  16.201 -0.3028  0.5170  0.7429
  883MPD2    H113004   3.292   3.125  16.581 -1.1508 -1.3894  0.3320
  883MPD2    H213005   3.061   3.039  16.247 -0.2483 -0.2936  1.2685
  883MPD2    H313006   3.086   3.087  16.469  0.4113 -0.4733  0.1562
  883MPD2     N13007   3.528   3.146  16.440 -0.1483 -0.6388 -0.1113
  883MPD2    H513008   3.603   3.135  16.372  0.3547  2.4163 -0.0273
  883MPD2    N113009   3.280   3.015  16.056 -0.4830  0.3102  0.3313
  883MPD2    H713010   3.362   3.031  15.998 -1.4559 -1.7827 -1.6189
  884MPD2     C13011   0.682   4.013  15.415  0.3651  0.0332 -0.4789
  884MPD2    C113012   0.617   3.970  15.305  0.8242 -0.1037 -0.9158
  884MPD2    C213013   0.482   3.973  15.300  0.8587  0.8326  0.1817
  884MPD2    C313014   0.406   4.032  15.400 -0.0283 -0.2100 -0.2822
  884MPD2    C413015   0.476   4.096  15.504  0.1689  0.1504  0.0873
  884MPD2    C513016   0.617   4.084  15.512  0.1490  0.2989  0.0415
  884MPD2     H13017   0.437   3.921  15.216  2.5526  1.0622 -0.8745
  884MPD2    H113018   0.433   4.126  15.599  0.2578  0.5031  0.0160
  884MPD2    H213019   0.790   4.016  15.425  0.2933 -0.4558  0.4199
  884MPD2    H313020   0.670   4.134  15.592  0.6291  2.9821 -1.9548
  884MPD2     N13021   0.265   4.045  15.383 -0.5149  0.8762 -0.1316
  884MPD2    H513022   0.231   4.028  15.289  0.3074 -1.9604  0.0953
  884MPD2    N113023   0.685   3.904  15.201 -0.5531  0.5760 -0.1305
  884MPD2    H713024   0.639   3.860  15.122 -0.8619 -1.2330  1.0470
  885MPD2     C13025   3.414   3.925   0.182  0.4981 -0.6439  0.7827
  885MPD2    C113026   3.444   4.064   0.199 -0.1237 -0.0979 -0.4397
  885MPD2    C213027   3.445   4.149   0.089 -0.4420  0.2512 -0.1903
  885MPD2    C313028   3.427   4.096  17.715 -0.4559 -0.4801 -0.3990
  885MPD2    C413029   3.419   3.956  17.698 -0.5178  0.5371  0.5737
  885MPD2    C513030   3.400   3.870   0.052  0.7291 -0.6856  0.2754
  885MPD2     H13031   3.486   4.249   0.100 -0.8016  0.4056 -0.2392
  885MPD2    H113032   3.408   3.916  17.598  1.7824  2.1661 -0.3261
  885MPD2    H213033   3.404   3.861   0.268  1.0062 -0.0708  1.2617
  885MPD2    H313034   3.379   3.765   0.035 -1.0398 -0.6564  2.2977
  885MPD2     N13035   3.403   4.185  17.612  0.2615 -0.2501  0.0443
  885MPD2    H513036   3.383   4.281  17.639 -1.9999  0.0311 -2.6126
  885MPD2    N113037   3.479   4.101   0.330 -0.2479  0.2616 -1.1153
  885MPD2    H713038   3.455   4.039   0.406  0.4956 -0.8730 -1.8075
  886MPD2     C13039   4.697   3.277  15.675 -0.0076 -0.3420  1.5033
  886MPD2    C113040   0.068   3.194  15.683 -0.0664  0.0907  0.0039
  886MPD2    C213041   0.135   3.164  15.566 -0.3964 -0.3434 -0.4108
  886MPD2    C313042   0.103   3.225  15.451 -1.1742 -0.1182 -0.0671
  886MPD2    C413043   0.007   3.323  15.449 -0.2515  0.3727 -0.2123
  886MPD2    C513044   4.679   3.353  15.564 -0.4463  0.2586 -0.1113
  886MPD2     H13045   0.216   3.092  15.571 -1.4722 -1.5108  0.5766
  886MPD2    H113046   4.726   3.378  15.358 -1.0549  1.0012  0.3384
  886MPD2    H213047   4.648   3.302  15.768 -0.2298 -0.8277  1.5213
  886MPD2    H313048   4.602   3.429  15.555  0.8513  1.6459  0.5358
  886MPD2     N13049   0.181   3.186  15.337 -0.7696  0.2019 -1.2623
  886MPD2    H513050   0.272   3.143  15.352 -1.0204  0.0291 -0.2175
  886MPD2    N113051   0.113   3.134  15.804  0.8949  0.1122  0.3072
  886MPD2    H713052   0.198   3.079  15.797  0.8846 -0.0595  1.5270
  887MPD2     C13053   0.735   2.991  16.123 -0.2291 -0.7490 -0.4998
  887MPD2    C113054   0.653   3.098  16.099  0.9161 -0.2472  0.5004
  887MPD2    C213055   0.719   3.219  16.069  0.1159 -0.5168 -0.0821
  887MPD2    C313056   0.856   3.233  16.069  0.4790 -0.1651  0.2035
  887MPD2    C413057   0.932   3.126  16.097 -0.0540  0.1468  0.1057
  887MPD2    C513058   0.874   3.000  16.114 -0.3336 -0.2002  0.0638
  887MPD2     H13059   0.650   3.299  16.045  0.5788  0.0191  0.3539
  887MPD2    H113060   1.040   3.133  16.106 -0.0858 -1.6478  1.8488
  887MPD2    H213061   0.694   2.891  16.132 -1.8779  0.0347  0.6375
  887MPD2    H313062   0.939   2.914  16.119 -0.3143 -0.3015 -1.8793
  887MPD2     N13063   0.911   3.361  16.046 -0.2458 -0.2707 -0.0298
  887MPD2    H513064   0.844   3.434  16.026 -3.3519 -2.4233  2.4564
  887MPD2    N113065   0.515   3.097  16.104  0.7625 -0.7378 -0.4817
  887MPD2    H713066   0.465   3.173  16.059  0.6984  0.6421  1.9076
  888MPD2     C13067   2.601   2.551  14.885  0.5320  0.3039  0.0519
  888MPD2    C113068   2.584   2.619  15.003  0.2563  0.1939  0.5501
  888MPD2    C213069   2.654   2.733  15.032 -0.5414  0.3581 -0.9187
  888MPD2    C313070   2.735   2.797  14.937 -0.0126 -0.0114 -0.0491
  888MPD2    C413071   2.752   2.733  14.817 -0.1888  0.0849  0.4402
  888MPD2    C513072   2.680   2.619  14.792  0.3498 -0.3273  0.1016
  888MPD2     H13073   2.639   2.776  15.131  1.9597 -2.0677  0.5146
  888MPD2    H113074   2.806   2.776  14.732  2.4088 -1.9074  1.0745
  888MPD2    H213075   2.550   2.458  14.865  0.2890  0.1225  1.4957
  888MPD2    H313076   2.701   2.571  14.697 -0.1925 -1.1407  0.3865
  888MPD2     N13077   2.784   2.921  14.975  0.2751 -0.1910  0.0762
  888MPD2    H513078   2.757   2.961  15.065  1.4987 -1.5249  1.0447
  888MPD2    N113079   2.495   2.570  15.104  0.1608 -0.2097  0.4910
  888MPD2    H713080   2.496   2.618  15.194  0.2823 -1.6667  1.2693
  889MPD2     C13081   1.729   2.258  12.757  0.2221 -0.3398  0.2431
  889MPD2    C113082   1.850   2.253  12.828 -0.5234  0.4324 -0.6022
  889MPD2    C213083   1.873   2.352  12.923 -0.0096 -0.5897 -0.2454
  889MPD2    C313084   1.786   2.459  12.932 -0.0152  0.4243 -0.1939
  889MPD2    C413085   1.670   2.465  12.857  0.1941  0.0129 -0.1691
  889MPD2    C513086   1.641   2.366  12.763 -0.4507 -0.2265  0.0904
  889MPD2     H13087   1.952   2.342  12.996  1.2130  0.6623 -1.3902
  889MPD2    H113088   1.602   2.549  12.863 -0.7638 -0.6374 -1.9145
  889MPD2    H213089   1.704   2.179  12.688  0.0969 -0.3404  0.2902
  889MPD2    H313090   1.551   2.366  12.703  0.7884  1.7204 -1.7418
  889MPD2     N13091   1.809   2.554  13.034 -0.2894  0.3141 -0.2018
  889MPD2    H513092   1.895   2.543  13.086 -1.3248  1.2730  1.7186
  889MPD2    N113093   1.918   2.119  12.823  0.5020  0.2896 -0.2159
  889MPD2    H713094   1.891   2.056  12.747 -2.4102  3.5031 -1.8371
  890MPD2     C13095   0.987   3.751  14.462  0.4617  0.0449  0.6582
  890MPD2    C113096   1.121   3.775  14.422  0.5243  0.0514  0.5617
  890MPD2    C213097   1.223   3.690  14.474  0.7336  0.1524  0.0330
  890MPD2    C313098   1.189   3.591  14.572  0.1221  0.0142 -0.2076
  890MPD2    C413099   1.058   3.567  14.609  0.3913 -0.2284 -0.1458
  890MPD2    C513100   0.957   3.646  14.551  0.5156 -0.0263 -0.1406
  890MPD2     H13101   1.326   3.704  14.446  0.9628  0.9811  1.2772
  890MPD2    H113102   1.030   3.489  14.679 -2.7144 -1.0843 -2.3247
  890MPD2    H213103   0.905   3.817  14.438 -1.0850 -1.7376  0.9709
  890MPD2    H313104   0.855   3.622  14.580 -0.5758  2.6722 -1.8193
  890MPD2     N13105   1.301   3.524  14.636  0.1891 -0.1872 -0.1438
  890MPD2    H513106   1.392   3.531  14.593  1.2081 -0.0289  2.0352
  890MPD2    N113107   1.148   3.884  14.338 -0.2726 -0.3132  0.2692
  890MPD2    H713108   1.068   3.945  14.324 -1.3677 -1.8032  0.0768
  891MPD2     C13109   4.398   2.591  16.983  0.8656  0.5019  0.5330
  891MPD2    C113110   4.278   2.534  17.027 -0.9766  0.3532 -0.7242
  891MPD2    C213111   4.284   2.416  17.096  0.1406  0.2926 -0.8431
  891MPD2    C313112   4.399   2.354  17.125 -0.0017 -0.0197  0.5448
  891MPD2    C413113   4.519   2.414  17.087  0.4913  0.1424  0.8186
  891MPD2    C513114   4.514   2.528  17.012  0.4298  0.1863  0.3318
  891MPD2     H13115   4.193   2.366  17.126  0.0468  0.3623 -1.0071
  891MPD2    H113116   4.614   2.370  17.115  0.8175  2.2595  3.1210
  891MPD2    H213117   4.401   2.680  16.921  1.7296  1.4501  1.9412
  891MPD2    H313118   4.606   2.564  16.967  0.9537 -3.3959 -1.4436
  891MPD2     N13119   4.387   2.225  17.182 -0.0833  0.2162  0.1703
  891MPD2    H513120   4.294   2.190  17.204 -2.2874  4.4574 -2.3897
  891MPD2    N113121   4.160   2.607  17.001  0.6539  0.6216  0.3638
  891MPD2    H713122   4.171   2.696  16.954 -1.8918  1.1063  0.6787
  892MPD2     C13123   0.746   3.453  14.953  0.0631  0.5670  0.1987
  892MPD2    C113124   0.637   3.434  14.867 -0.5899  0.0315 -0.1703
  892MPD2    C213125   0.657   3.355  14.755 -0.1757 -0.2011  0.5198
  892MPD2    C313126   0.772   3.289  14.728 -0.8287 -0.5946 -0.1549
  892MPD2    C413127   0.887   3.314  14.800  0.4364  0.0344  0.8600
  892MPD2    C513128   0.866   3.390  14.910 -0.4742 -0.0567 -0.2499
  892MPD2     H13129   0.569   3.330  14.697 -0.1090 -0.3517  0.4833
  892MPD2    H113130   0.985   3.273  14.778  1.2062  1.9623  0.6617
  892MPD2    H213131   0.745   3.523  15.036  0.3704  1.0699 -0.2193
  892MPD2    H313132   0.954   3.419  14.966  0.4923 -3.0411 -0.2049
  892MPD2     N13133   0.780   3.199  14.616  0.0523  0.0601  0.5226
  892MPD2    H513134   0.869   3.186  14.569 -0.0799  0.4905  0.1493
  892MPD2    N113135   0.516   3.505  14.883  0.0432 -0.2713 -0.5714
  892MPD2    H713136   0.447   3.500  14.808  0.8361 -3.1275 -1.1007
  893MPD2     C13137   1.594   3.035   1.681  0.3819 -0.4618 -0.9024
  893MPD2    C113138   1.568   2.926   1.596  0.0281 -0.1594  0.3868
  893MPD2    C213139   1.447   2.866   1.610  0.0976 -0.7874 -0.2691
  893MPD2    C313140   1.358   2.899   1.709 -0.1841  0.6140  0.0847
  893MPD2    C413141   1.389   2.998   1.796 -0.2720  0.4836  0.0116
  893MPD2    C513142   1.503   3.065   1.775 -0.6864 -0.1521 -0.0182
  893MPD2     H13143   1.417   2.784   1.546 -0.7865  0.0024 -0.8722
  893MPD2    H113144   1.323   3.025   1.877  0.5436 -0.8330  1.1154
  893MPD2    H213145   1.681   3.099   1.669  0.0971  0.1750  0.5633
  893MPD2    H313146   1.524   3.152   1.836  2.1780  0.8515 -2.4619
  893MPD2     N13147   1.228   2.841   1.719 -0.0438 -0.5819  0.6294
  893MPD2    H513148   1.177   2.872   1.801  1.3305 -1.4605  1.8142
  893MPD2    N113149   1.664   2.893   1.495 -0.2460  0.0137 -0.7644
  893MPD2    H713150   1.753   2.942   1.494  0.4785 -1.3146 -1.7015
  894MPD2     C13151   0.204   4.412   1.198 -0.6649  0.0100  0.4864
  894MPD2    C113152   0.262   4.482   1.299  0.1050  0.0031  0.3597
  894MPD2    C213153   0.373   4.561   1.271 -0.0532 -0.3859 -0.3749
  894MPD2    C313154   0.437   4.565   1.147  0.9102 -0.2562  0.9988
  894MPD2    C413155   0.388   4.472   1.058 -0.7130  0.3898  0.2474
  894MPD2    C513156   0.271   4.414   1.079  0.2939  0.3654 -0.2221
  894MPD2     H13157   0.403   4.618   1.358 -0.5824 -0.1976 -0.3099
  894MPD2    H113158   0.430   4.454   0.960  1.4406 -0.5783  1.3308
  894MPD2    H213159   0.110   4.358   1.206 -0.0866 -0.9619  0.7294
  894MPD2    H313160   0.240   4.353   0.994 -0.6996 -0.8459  1.0005
  894MPD2     N13161   0.542   4.660   1.123  0.0638  0.1815  0.1416
  894MPD2    H513162   0.570   4.717   1.202  1.5041  0.1875 -0.3804
  894MPD2    N113163   0.200   4.497   1.430 -0.4804 -0.3838 -0.1280
  894MPD2    H713164   0.229   4.562   1.502 -0.9631 -3.8702  3.2397
  895MPD2     C13165   0.200   2.709  13.805 -0.0181 -0.2488 -0.0380
  895MPD2    C113166   0.157   2.747  13.682 -0.3780 -0.0127  0.3188
  895MPD2    C213167   0.147   2.652  13.581 -0.3995  0.3948  0.2846
  895MPD2    C313168   0.190   2.527  13.602  0.6809 -0.3527  0.1382
  895MPD2    C413169   0.229   2.489  13.725 -0.4956 -0.5932  0.1644
  895MPD2    C513170   0.229   2.579  13.835  0.5887  0.0493  0.2660
  895MPD2     H13171   0.088   2.666  13.491 -0.3416  0.0827  0.1972
  895MPD2    H113172   0.257   2.386  13.742  0.8127 -0.6283 -2.2096
  895MPD2    H213173   0.210   2.778  13.888 -1.3012 -0.4866  0.3195
  895MPD2    H313174   0.269   2.550  13.932 -1.0182 -2.6943  0.0904
  895MPD2     N13175   0.166   2.441  13.495  0.4055 -0.3265 -0.1571
  895MPD2    H513176   0.148   2.481  13.403  1.5527 -1.0270 -0.6767
  895MPD2    N113177   0.109   2.872  13.647 -0.1202 -0.5391 -0.2275
  895MPD2    H713178   0.082   2.896  13.553  1.7248  1.7997 -0.1620
  896MPD2     C13179   2.273   0.151   1.806 -0.1064  0.2986 -0.9233
  896MPD2    C113180   2.213   0.134   1.684 -0.2983 -0.7191 -0.6719
  896MPD2    C213181   2.073   0.131   1.680  0.4108 -0.7064 -0.2059
  896MPD2    C313182   1.997   0.139   1.798 -0.4336 -0.0334 -0.6478
  896MPD2    C413183   2.067   0.146   1.921 -0.2593  0.2504 -0.1069
  896MPD2    C513184   2.207   0.153   1.922 -0.0501  1.3101 -0.2256
  896MPD2     H13185   2.018   0.111   1.589  1.8786 -1.0899 -1.0029
  896MPD2    H113186   2.016   0.152   2.017 -0.8171  2.5566 -0.5517
  896MPD2    H213187   2.380   0.168   1.809  0.0435 -0.8418  0.3688
  896MPD2    H313188   2.269   0.172   2.009  1.0941  0.4755 -0.8643
  896MPD2     N13189   1.856   0.141   1.797 -0.4781  0.3175 -0.4186
  896MPD2    H513190   1.814   0.143   1.704  0.8177  1.5509 -0.9653
  896MPD2    N113191   2.297   0.142   1.570 -0.6537  1.1854  0.3982
  896MPD2    H713192   2.396   0.158   1.586 -0.2594 -2.4465  1.5219
  897MPD2     C13193   3.226   1.601  10.637 -0.0414 -0.0820  0.2645
  897MPD2    C113194   3.235   1.719  10.567 -0.4944 -0.1159  0.6169
  897MPD2    C213195   3.169   1.829  10.611 -0.5391 -0.5513 -0.0517
  897MPD2    C313196   3.100   1.829  10.726  0.6599 -0.0155  1.0929
  897MPD2    C413197   3.107   1.714  10.800  0.0181 -1.3569  0.0338
  897MPD2    C513198   3.169   1.598  10.758 -0.0326  0.8946  0.3987
  897MPD2     H13199   3.158   1.910  10.540  0.9783 -1.4183 -1.2844
  897MPD2    H113200   3.056   1.711  10.895  2.0219  1.2204  1.2039
  897MPD2    H213201   3.276   1.514  10.595 -1.1367 -0.5834  0.0166
  897MPD2    H313202   3.183   1.512  10.822  0.7721  2.5958  2.5407
  897MPD2     N13203   3.015   1.938  10.750 -0.8425  0.5549 -0.6242
  897MPD2    H513204   3.003   1.997  10.668  0.2925  1.6697  0.0099
  897MPD2    N113205   3.315   1.720  10.450  0.1698 -0.1615  0.0737
  897MPD2    H713206   3.343   1.630  10.414 -0.6910 -0.8441  1.0924
  898MPD2     C13207   0.181   3.024   0.435 -0.2404  0.5335  0.5971
  898MPD2    C113208   0.294   3.038   0.351  0.0526  0.6518 -0.6454
  898MPD2    C213209   0.277   3.124   0.243  0.3308  0.2143 -0.3210
  898MPD2    C313210   0.160   3.197   0.220 -0.6229 -0.9241 -0.4014
  898MPD2    C413211   0.048   3.167   0.296  0.5131 -0.4485 -0.4537
  898MPD2    C513212   0.068   3.087   0.406 -1.0329 -0.6943 -0.0430
  898MPD2     H13213   0.362   3.144   0.179  0.5769 -0.1525 -0.1138
  898MPD2    H113214   4.695   3.219   0.273  1.0752  1.1974  1.0061
  898MPD2    H213215   0.179   2.959   0.522  0.2770 -1.9608 -1.2459
  898MPD2    H313216   4.726   3.085   0.478  0.4167  2.4726  1.7130
  898MPD2     N13217   0.154   3.280   0.105  0.9859 -0.0083 -0.0487
  898MPD2    H513218   0.219   3.266   0.028 -0.5790 -0.3123 -1.3185
  898MPD2    N113219   0.412   2.969   0.383 -0.5183  0.6498  0.3886
  898MPD2    H713220   0.482   2.976   0.309  0.7503 -3.7586  1.1563
  899MPD2     C13221   0.608   3.469  17.472  0.5578  0.5318 -0.1437
  899MPD2    C113222   0.679   3.553  17.555 -0.6668  0.2849 -0.0759
  899MPD2    C213223   0.725   3.511  17.679  0.3599  0.0000 -0.0257
  899MPD2    C313224   0.698   3.382  17.716  0.6523  0.0538 -0.3066
  899MPD2    C413225   0.633   3.302  17.629 -0.1478 -0.0368  0.6356
  899MPD2    C513226   0.590   3.341  17.505  0.5676 -0.1771 -0.9178
  899MPD2     H13227   0.782   3.579  17.741  1.3148  1.8640 -2.9675
  899MPD2    H113228   0.615   3.201  17.665 -3.0781  0.4864  0.5649
  899MPD2    H213229   0.590   3.493  17.368 -1.2535 -1.3875 -0.2560
  899MPD2    H313230   0.536   3.270  17.443 -0.4753 -0.4895  0.3505
  899MPD2     N13231   0.756   3.334   0.090 -0.5656 -0.6651 -0.3931
  899MPD2    H513232   0.766   3.234   0.100  1.8932 -0.4169 -0.3892
  899MPD2    N113233   0.692   3.684  17.506 -0.2091  0.0597 -0.2235
  899MPD2    H713234   0.664   3.704  17.411 -1.5344  0.5714  0.2831
  900MPD2     C13235   0.692   0.366  12.508  0.2245 -0.3315  0.5138
  900MPD2    C113236   0.615   0.268  12.445  0.1456  0.0242  0.3202
  900MPD2    C213237   0.494   0.311  12.388  0.0341 -0.3870 -0.2264
  900MPD2    C313238   0.449   0.439  12.411 -0.2350  0.7987 -0.1515
  900MPD2    C413239   0.533   0.536  12.470  0.0195 -0.2574 -0.7101
  900MPD2    C513240   0.660   0.497  12.511 -0.4577 -0.4460  0.6320
  900MPD2     H13241   0.421   0.240  12.350  1.1202 -1.6913  0.0923
  900MPD2    H113242   0.505   0.640  12.485 -2.6886 -0.6557 -3.0823
  900MPD2    H213243   0.795   0.343  12.530  1.3202  2.4136 -1.6893
  900MPD2    H313244   0.726   0.571  12.556  0.5301 -1.5637  1.0030
  900MPD2     N13245   0.316   0.462  12.371 -0.2691 -0.5491  0.7273
  900MPD2    H513246   0.271   0.378  12.336  0.0647  0.6006 -2.5200
  900MPD2    N113247   0.669   0.139  12.446  0.3688 -0.1168  0.3663
  900MPD2    H713248   0.759   0.131  12.493 -0.0897  0.4170  1.3441
  901MPD2     C13249   0.569   3.832  12.752 -0.1942  0.5147 -0.7767
  901MPD2    C113250   0.682   3.834  12.671 -0.3109  0.3897 -0.1931
  901MPD2    C213251   0.704   3.946  12.600 -0.0771  0.6365 -0.3468
  901MPD2    C313252   0.626   4.060  12.612 -0.1367  0.3627  0.5534
  901MPD2    C413253   0.512   4.042  12.688 -0.5340 -0.6066 -0.5791
  901MPD2    C513254   0.488   3.930  12.766  0.3930  0.2264  0.0374
  901MPD2     H13255   0.796   3.957  12.543 -0.4506  0.4675 -0.9801
  901MPD2    H113256   0.432   4.113  12.702 -0.2035 -0.2485 -0.5220
  901MPD2    H213257   0.548   3.734  12.792 -1.3460  0.1471 -2.2539
  901MPD2    H313258   0.396   3.914  12.820 -0.8353  0.9256 -1.8423
  901MPD2     N13259   0.671   4.186  12.557  0.3796  0.6332 -0.1979
  901MPD2    H513260   0.751   4.183  12.496  0.0114  0.0988 -0.6558
  901MPD2    N113261   0.757   3.719  12.659  0.5667 -0.2069  0.1195
  901MPD2    H713262   0.736   3.651  12.731  0.3929 -1.6037 -1.2650
  902MPD2     C13263   0.486   2.731  12.564 -0.5534  0.2878 -0.4439
  902MPD2    C113264   0.360   2.771  12.546  0.7612  0.0176 -0.4862
  902MPD2    C213265   0.277   2.706  12.455  0.2338  0.3835  0.2314
  902MPD2    C313266   0.320   2.596  12.377  0.9262  0.3267  0.4429
  902MPD2    C413267   0.452   2.561  12.392 -0.4781  0.2825 -0.3576
  902MPD2    C513268   0.536   2.628  12.484  0.3889 -0.4019  0.0171
  902MPD2     H13269   0.176   2.744  12.452  0.1688  0.1375 -0.6419
  902MPD2    H113270   0.499   2.482  12.334  0.3531 -1.2153  2.3585
  902MPD2    H213271   0.550   2.780  12.636 -0.5607  1.2816 -1.1079
  902MPD2    H313272   0.634   2.584  12.501  0.5441  1.5873  4.2292
  902MPD2     N13273   0.240   2.513  12.294  0.0227 -0.5639  0.3208
  902MPD2    H513274   0.293   2.436  12.254 -2.5810 -0.9941 -2.2735
  902MPD2    N113275   0.296   2.878  12.604 -0.3654 -0.2172  0.1168
  902MPD2    H713276   0.200   2.899  12.578 -0.9042 -1.4151  1.1015
  903MPD2     C13277   4.273   2.438  11.789 -0.2565  0.3346 -0.5297
  903MPD2    C113278   4.286   2.418  11.925 -0.6122  0.6668 -0.1261
  903MPD2    C213279   4.177   2.452  12.009 -0.2159 -0.4318  0.0020
  903MPD2    C313280   4.066   2.505  11.949  0.9035 -0.1369  0.0220
  903MPD2    C413281   4.055   2.524  11.818 -0.2965 -0.4730 -0.1906
  903MPD2    C513282   4.158   2.482  11.737 -0.1633  0.1567  0.0505
  903MPD2     H13283   4.182   2.438  12.116  3.2014  1.3924  0.0890
  903MPD2    H113284   3.973   2.579  11.771 -0.2571 -0.2015  0.0610
  903MPD2    H213285   4.349   2.395  11.725  0.8644 -0.0038  1.0149
  903MPD2    H313286   4.149   2.495  11.629 -2.1934 -0.4516  0.1545
  903MPD2     N13287   3.958   2.533  12.040  0.2401 -0.2818 -0.5689
  903MPD2    H513288   3.971   2.510  12.138  1.1244  3.4420  0.2171
  903MPD2    N113289   4.407   2.364  11.971  0.1563  0.1167  0.6346
  903MPD2    H713290   4.475   2.339  11.901 -1.4043 -2.3708  0.0056
  904MPD2     C13291   3.980   1.828  14.076 -0.4069 -0.2998  0.5663
  904MPD2    C113292   4.062   1.917  14.020  0.2630 -0.0544  0.3044
  904MPD2    C213293   4.187   1.869  13.978  0.4866 -0.8341 -0.2957
  904MPD2    C313294   4.230   1.737  14.008 -0.0681  0.1505  0.5072
  904MPD2    C413295   4.142   1.650  14.072  0.1797  1.0545  0.0228
  904MPD2    C513296   4.013   1.699  14.095 -0.3432  0.7003 -0.2853
  904MPD2     H13297   4.258   1.930  13.923 -0.7817 -2.2834 -3.5369
  904MPD2    H113298   4.156   1.545  14.097 -0.5442  0.5997 -1.4434
  904MPD2    H213299   3.884   1.853  14.121 -1.8574 -1.2793 -2.0156
  904MPD2    H313300   3.948   1.630  14.147 -1.9636  1.6148 -1.0636
  904MPD2     N13301   4.357   1.702  13.966  0.0549  0.1495 -0.3831
  904MPD2    H513302   4.420   1.778  13.941 -1.6523  1.4633 -0.7043
  904MPD2    N113303   4.028   2.058  14.001  0.2685 -0.0926  0.2301
  904MPD2    H713304   4.101   2.122  13.971  0.8504 -1.4275 -1.2041
  905MPD2     C13305   4.372   2.684  13.788 -0.1641  0.8560  0.6602
  905MPD2    C113306   4.299   2.574  13.743 -0.2324 -0.3754  0.0802
  905MPD2    C213307   4.343   2.503  13.631 -0.3991  0.4491  0.6683
  905MPD2    C313308   4.464   2.544  13.573  0.1766 -0.0627 -1.1187
  905MPD2    C413309   4.536   2.651  13.620 -0.0233  0.1809  0.0919
  905MPD2    C513310   4.492   2.725  13.726  0.2832  0.0000  0.5994
  905MPD2     H13311   4.287   2.419  13.591  1.7729 -0.6522 -0.0653
  905MPD2    H113312   4.633   2.671  13.576  0.3071 -1.5207  0.0483
  905MPD2    H213313   4.343   2.734  13.879  0.3687 -0.1178  1.3658
  905MPD2    H313314   4.561   2.801  13.761  2.3553 -3.0283  3.0932
  905MPD2     N13315   4.529   2.461  13.476 -0.3247  0.3849 -0.2230
  905MPD2    H513316   4.623   2.497  13.458  0.2420 -0.2806  1.4809
  905MPD2    N113317   4.186   2.538  13.823 -0.1298  0.3181  0.5410
  905MPD2    H713318   4.179   2.591  13.909  1.6029 -0.2840  1.0692
  906MPD2     C13319   1.800   2.165  11.417  0.0628  0.1309  0.4231
  906MPD2    C113320   1.776   2.098  11.304 -0.5870 -0.2414 -0.1349
  906MPD2    C213321   1.713   1.975  11.316 -0.0195  0.2637  0.0271
  906MPD2    C313322   1.680   1.919  11.439  0.2386  0.2654  0.3660
  906MPD2    C413323   1.705   1.992  11.552 -0.3458  0.2256 -0.1568
  906MPD2    C513324   1.769   2.112  11.542 -0.4405  0.0147  0.4175
  906MPD2     H13325   1.691   1.921  11.225  2.2278  1.8981 -1.4869
  906MPD2    H113326   1.680   1.967  11.655  1.2949 -2.6320 -0.4559
  906MPD2    H213327   1.850   2.261  11.420 -1.7281  1.0952 -0.1860
  906MPD2    H313328   1.773   2.168  11.635  0.4105  2.1178 -0.8893
  906MPD2     N13329   1.620   1.787  11.446  0.1680 -0.6377  0.4931
  906MPD2    H513330   1.592   1.742  11.533  2.0778 -1.9241  0.4605
  906MPD2    N113331   1.812   2.137  11.168  0.3892 -0.4900  0.0224
  906MPD2    H713332   1.806   2.059  11.103 -0.8527 -0.6531  0.3362
  907MPD2     C13333   0.273   1.469  16.378  0.6274  0.3891 -0.1692
  907MPD2    C113334   0.342   1.413  16.268  0.2696  0.1643  0.1448
  907MPD2    C213335   0.472   1.360  16.291  0.4006  0.0848  0.1324
  907MPD2    C313336   0.528   1.355  16.422  1.0229 -0.0035  0.3073
  907MPD2    C413337   0.456   1.415  16.529 -0.0502  0.2558  0.0113
  907MPD2    C513338   0.335   1.470  16.502 -0.2339 -0.0255 -0.6802
  907MPD2     H13339   0.523   1.297  16.219 -1.9530 -1.9895  0.2791
  907MPD2    H113340   0.490   1.420  16.632 -2.0113  2.1457  0.5529
  907MPD2    H213341   0.176   1.515  16.363 -0.4042 -1.4097  0.9415
  907MPD2    H313342   0.279   1.529  16.575  1.0323  0.6650 -0.2655
  907MPD2     N13343   0.660   1.304  16.444 -0.3001  1.0154  1.3055
  907MPD2    H513344   0.702   1.257  16.364 -0.6521 -1.8631  2.8362
  907MPD2    N113345   0.289   1.404  16.141  1.2471 -0.6291  0.3079
  907MPD2    H713346   0.347   1.354  16.074  1.5313 -0.4608  0.4285
  908MPD2     C13347   2.827   1.438   9.768 -0.2702  0.0733 -1.1417
  908MPD2    C113348   2.930   1.372   9.832 -0.0090  0.0550  0.3992
  908MPD2    C213349   3.028   1.443   9.906 -0.7442 -0.5215 -0.3780
  908MPD2    C313350   3.025   1.584   9.926 -0.6626 -0.4733 -0.2526
  908MPD2    C413351   2.913   1.643   9.869 -0.1329  0.9331  0.4520
  908MPD2    C513352   2.819   1.573   9.791 -0.1006  0.4503 -0.4923
  908MPD2     H13353   3.116   1.393   9.945 -0.5853 -1.0892 -1.4763
  908MPD2    H113354   2.890   1.748   9.882  0.6113  0.8679  2.3872
  908MPD2    H213355   2.748   1.385   9.716 -0.0476  1.3731 -2.7937
  908MPD2    H313356   2.740   1.632   9.747 -0.2181 -0.8766 -2.0602
  908MPD2     N13357   3.116   1.654  10.006 -0.1860 -0.1183 -0.3128
  908MPD2    H513358   3.189   1.610  10.060  1.3234  1.7587 -0.8142
  908MPD2    N113359   2.929   1.230   9.805  0.2640 -0.3120  0.3590
  908MPD2    H713360   2.860   1.195   9.740  0.8730  0.6828 -0.8132
  909MPD2     C13361   3.602   4.462  11.714 -0.1648 -0.0807  0.4737
  909MPD2    C113362   3.629   4.592  11.727  0.7709 -0.2115  0.5614
  909MPD2    C213363   3.591   4.650  11.850  0.5406 -0.0171  0.4646
  909MPD2    C313364   3.531   4.582  11.954  0.3269 -0.3739  0.1604
  909MPD2    C413365   3.515   4.450  11.936  0.3352 -0.3674  0.5308
  909MPD2    C513366   3.545   4.385  11.815 -0.3790 -0.2627 -0.2872
  909MPD2     H13367   3.609   0.018  11.860 -0.8367  0.1093  1.5330
  909MPD2    H113368   3.473   4.393  12.018 -0.3478 -3.3260 -1.8972
  909MPD2    H213369   3.598   4.414  11.617 -1.4431 -1.8138  1.3804
  909MPD2    H313370   3.525   4.279  11.801 -1.2381 -0.2577  0.8163
  909MPD2     N13371   3.492   4.653  12.068 -0.0710  0.1720  0.5621
  909MPD2    H513372   3.502   0.015  12.065  0.7965  0.0509 -0.9209
  909MPD2    N113373   3.701   4.671  11.634  0.8997 -0.0597 -0.0331
  909MPD2    H713374   3.721   0.028  11.659 -0.6543  0.4784 -0.8468
  910MPD2     C13375   4.372   1.779  16.456  0.4054 -0.1918  1.2052
  910MPD2    C113376   4.462   1.734  16.357  0.1211  0.3342  0.0909
  910MPD2    C213377   4.453   1.787  16.232  0.5727 -0.3292  0.2606
  910MPD2    C313378   4.353   1.876  16.198  0.7906  0.6484 -0.3101
  910MPD2    C413379   4.263   1.917  16.295  0.4243 -0.4073  0.5841
  910MPD2    C513380   4.273   1.865  16.424  0.1779  0.9125 -0.2926
  910MPD2     H13381   4.523   1.749  16.159  0.7537 -2.0449  1.3402
  910MPD2    H113382   4.192   1.992  16.263 -2.1709 -2.7674  0.7439
  910MPD2    H213383   4.382   1.741  16.556  2.2982 -0.9369  0.7223
  910MPD2    H313384   4.213   1.910  16.503 -0.7196 -1.1888  0.2172
  910MPD2     N13385   4.332   1.937  16.075  0.7802 -0.6565 -0.4526
  910MPD2    H513386   4.252   2.000  16.069  1.0148 -0.3000  0.2087
  910MPD2    N113387   4.574   1.648  16.380  0.1657  0.3633 -0.1338
  910MPD2    H713388   4.645   1.642  16.308  1.5207  0.6123  1.1794
  911MPD2     C13389   2.309   2.212  16.568 -0.2068 -0.5470  0.3966
  911MPD2    C113390   2.384   2.330  16.580  0.7161  0.1742 -0.1121
  911MPD2    C213391   2.331   2.458  16.539  0.8422  0.1182 -0.1300
  911MPD2    C313392   2.203   2.465  16.486  0.4220  0.0564 -0.1351
  911MPD2    C413393   2.139   2.348  16.465  0.1552 -0.5859 -0.0864
  911MPD2    C513394   2.186   2.225  16.507  0.5662 -0.2458  0.1192
  911MPD2     H13395   2.391   2.548  16.540 -1.0215  1.3532  0.7836
  911MPD2    H113396   2.047   2.336  16.410 -1.1869 -0.3105  2.0765
  911MPD2    H213397   2.355   2.118  16.595  0.7628 -0.8085 -2.1601
  911MPD2    H313398   2.125   2.139  16.482  0.2058 -1.0356  3.7870
  911MPD2     N13399   2.156   2.579  16.427  0.0359  0.6353 -0.4901
  911MPD2    H513400   2.078   2.570  16.362 -0.1277 -1.1291 -0.0425
  911MPD2    N113401   2.514   2.310  16.621 -0.0292  0.0343  0.4551
  911MPD2    H713402   2.550   2.215  16.623 -2.9603 -1.1088 -0.4966
  912MPD2     C13403   2.077   2.662  15.689  0.3376 -0.6617  0.1012
  912MPD2    C113404   2.049   2.634  15.819 -0.1282  0.1996 -0.0974
  912MPD2    C213405   2.025   2.503  15.851  0.1127 -0.5460  0.4296
  912MPD2    C313406   2.036   2.404  15.755 -0.7036  0.1786  0.9197
  912MPD2    C413407   2.069   2.434  15.618 -0.2938  0.5591 -0.5015
  912MPD2    C513408   2.088   2.569  15.588 -0.0342 -0.0457 -0.2445
  912MPD2     H13409   2.008   2.470  15.953 -1.5006  2.8815  1.2617
  912MPD2    H113410   2.057   2.357  15.542  3.8178 -0.0200 -0.5693
  912MPD2    H213411   2.102   2.767  15.675  0.8884 -0.5142  2.2422
  912MPD2    H313412   2.118   2.605  15.491  0.6313 -1.4591 -0.5598
  912MPD2     N13413   2.021   2.277  15.809 -0.4646  0.7745  0.3399
  912MPD2    H513414   2.008   2.271  15.910  0.7343  1.3237  0.5273
  912MPD2    N113415   2.060   2.740  15.917  0.9888 -0.3909 -0.3812
  912MPD2    H713416   2.084   2.833  15.884  0.6186  0.6485  2.2547
  913MPD2     C13417   3.049   3.333  10.438  0.2065  0.2643  0.1709
  913MPD2    C113418   3.128   3.423  10.494 -0.7452 -0.0925  0.2792
  913MPD2    C213419   3.139   3.542  10.428  0.4617  0.7093  0.1183
  913MPD2    C313420   3.059   3.584  10.324 -0.2682  0.0444 -0.5963
  913MPD2    C413421   2.959   3.496  10.286  0.1467  1.3635 -0.1021
  913MPD2    C513422   2.962   3.368  10.335 -0.9316 -0.6610  0.0263
  913MPD2     H13423   3.213   3.611  10.468  2.1342 -0.4284 -1.0406
  913MPD2    H113424   2.880   3.517  10.215  0.7147 -1.3265 -1.5442
  913MPD2    H213425   3.048   3.232  10.479  2.1758  0.3883  0.5200
  913MPD2    H313426   2.888   3.300  10.295 -0.3122 -0.0481 -2.1937
  913MPD2     N13427   3.058   3.713  10.255 -0.1365 -0.5787 -0.1277
  913MPD2    H513428   2.997   3.728  10.175  0.9186  1.2820 -0.5763
  913MPD2    N113429   3.205   3.381  10.604 -0.0718  0.3746 -0.9981
  913MPD2    H713430   3.197   3.284  10.630  0.9201  0.8957  1.2791
  914MPD2     C13431   0.726   3.122  11.913  0.1187  0.5303  0.6322
  914MPD2    C113432   0.658   3.235  11.952 -0.0015  0.7691 -0.3807
  914MPD2    C213433   0.698   3.292  12.074  0.2216 -0.4975 -0.1743
  914MPD2    C313434   0.798   3.234  12.152 -0.2798  0.1987  0.1247
  914MPD2    C413435   0.835   3.103  12.126  0.9446 -0.7874 -0.4751
  914MPD2    C513436   0.802   3.053  12.003  0.4990 -0.0872 -0.6707
  914MPD2     H13437   0.653   3.387  12.100  1.5470 -0.2564  1.2018
  914MPD2    H113438   0.893   3.039  12.192  0.0920 -3.0497 -1.9064
  914MPD2    H213439   0.714   3.082  11.813 -1.9845  0.6097  0.8551
  914MPD2    H313440   0.843   2.956  11.976 -2.2449 -1.0842 -1.2909
  914MPD2     N13441   0.840   3.302  12.267  0.2957  0.0944  0.3993
  914MPD2    H513442   0.821   3.401  12.283 -1.0304 -0.1374  0.2743
  914MPD2    N113443   0.567   3.297  11.866 -0.1629  0.6723 -0.0490
  914MPD2    H713444   0.571   3.260  11.771 -0.8247 -1.2466  0.6719
  915MPD2     C13445   3.828   4.137  16.029  0.2334  0.2890  0.1004
  915MPD2    C113446   3.724   4.058  16.076 -0.3795 -0.1809 -0.1712
  915MPD2    C213447   3.651   4.112  16.179  0.1842  0.2446  0.7563
  915MPD2    C313448   3.684   4.236  16.240 -1.0081  0.9393 -0.0072
  915MPD2    C413449   3.798   4.298  16.205 -0.5866 -0.1749 -0.3194
  915MPD2    C513450   3.871   4.251  16.099  0.1046 -0.2059  0.2810
  915MPD2     H13451   3.562   4.063  16.215 -0.1102 -0.0888 -0.4350
  915MPD2    H113452   3.836   4.385  16.257  1.1159 -0.2583 -1.4495
  915MPD2    H213453   3.889   4.104  15.947 -0.6921 -0.4690 -0.2766
  915MPD2    H313454   3.961   4.299  16.062  0.1104  0.1125  0.7128
  915MPD2     N13455   3.598   4.288  16.337  0.0989  0.0557 -0.3644
  915MPD2    H513456   3.523   4.227  16.367 -0.8094  1.3089 -0.0909
  915MPD2    N113457   3.681   3.939  16.006  0.4057  0.1990 -0.0814
  915MPD2    H713458   3.739   3.919  15.926  1.3209  1.0312  0.3662
  916MPD2     C13459   1.631   2.384  15.740  0.4177 -0.3456 -0.6517
  916MPD2    C113460   1.628   2.254  15.777 -0.1506 -0.8357  0.1533
  916MPD2    C213461   1.663   2.158  15.681 -0.2592 -0.4572  0.6170
  916MPD2    C313462   1.717   2.192  15.560 -0.3222  0.3905 -0.5396
  916MPD2    C413463   1.744   2.326  15.541 -0.2053  0.1676 -0.2712
  916MPD2    C513464   1.691   2.417  15.623  0.2677 -0.6332  0.2759
  916MPD2     H13465   1.652   2.053  15.703 -0.9817 -0.6657 -0.7155
  916MPD2    H113466   1.794   2.352  15.449 -1.3544 -1.0897 -1.2538
  916MPD2    H213467   1.591   2.462  15.805  1.6935  0.3722 -0.7221
  916MPD2    H313468   1.698   2.522  15.595 -1.9311 -0.3685  0.7877
  916MPD2     N13469   1.773   2.085  15.483  0.4029  0.0438  0.0684
  916MPD2    H513470   1.763   1.990  15.518  0.3099  0.2011  0.4623
  916MPD2    N113471   1.548   2.229  15.894  0.0464 -0.3105  0.1376
  916MPD2    H713472   1.512   2.307  15.949  1.0749 -0.2555  0.7455
  917MPD2     C13473   1.894   3.832  11.430 -1.0469  1.0612 -0.4807
  917MPD2    C113474   1.994   3.867  11.518 -0.1136 -0.3757  0.2630
  917MPD2    C213475   2.124   3.885  11.467  0.0109  0.3664 -0.1063
  917MPD2    C313476   2.144   3.860  11.332  0.4684  0.5584 -0.4311
  917MPD2    C413477   2.036   3.831  11.252  0.2083  0.5157 -0.3885
  917MPD2    C513478   1.916   3.803  11.302 -0.5774 -0.2084 -0.2240
  917MPD2     H13479   2.204   3.914  11.534  0.2449 -0.7464  0.1009
  917MPD2    H113480   2.049   3.823  11.145 -1.0761 -0.1082 -0.4959
  917MPD2    H213481   1.799   3.802  11.471 -0.5913 -0.1659 -0.3283
  917MPD2    H313482   1.847   3.766  11.228 -1.3370  1.6150 -0.4161
  917MPD2     N13483   2.265   3.879  11.270 -0.1261  0.0113  0.0078
  917MPD2    H513484   2.267   3.865  11.170  0.9653  0.4473 -0.0279
  917MPD2    N113485   1.960   3.880  11.656  0.4488 -0.5226  0.7562
  917MPD2    H713486   1.870   3.844  11.689  0.3846  0.6363  1.8531
  918MPD2     C13487   2.152   4.619  12.190 -0.0949 -0.2201  0.2071
  918MPD2    C113488   2.239   4.518  12.193  0.0089  0.1919 -0.3090
  918MPD2    C213489   2.196   4.391  12.159 -0.1199  0.2615 -0.2313
  918MPD2    C313490   2.064   4.365  12.130 -0.1758 -0.9351  0.0295
  918MPD2    C413491   1.966   4.470  12.134  1.1981 -0.0970 -0.8137
  918MPD2    C513492   2.020   4.595  12.151 -0.8574 -0.7492 -0.3394
  918MPD2     H13493   2.270   4.312  12.152 -0.5733 -0.0180 -1.8442
  918MPD2    H113494   1.861   4.457  12.110  1.0170 -1.6450  0.7644
  918MPD2    H213495   2.186   4.720  12.212 -0.1018  0.0592 -1.0468
  918MPD2    H313496   1.959   4.683  12.136  1.3545  0.9885  0.8416
  918MPD2     N13497   2.032   4.234  12.095  0.1577 -0.2005 -0.7455
  918MPD2    H513498   2.110   4.172  12.077 -0.5330 -1.5775  0.9632
  918MPD2    N113499   2.367   4.531  12.237  0.4444 -0.2331  0.3201
  918MPD2    H713500   2.423   4.446  12.243  0.8785 -0.1447 -2.3198
  919MPD2     C13501   3.140   3.011  11.709  0.2317 -0.0934  0.3803
  919MPD2    C113502   3.024   2.945  11.691  0.2757 -0.4307 -0.8549
  919MPD2    C213503   2.952   2.964  11.578  0.7744  0.1651 -0.1434
  919MPD2    C313504   2.988   3.055  11.481  0.0515 -0.2658  0.1066
  919MPD2    C413505   3.109   3.120  11.504 -0.3420  0.1840 -0.5877
  919MPD2    C513506   3.182   3.101  11.614  0.5977 -0.5441 -0.3549
  919MPD2     H13507   2.857   2.914  11.563  1.0583 -0.4839  0.2370
  919MPD2    H113508   3.150   3.189  11.431 -1.6170  1.3820 -0.1779
  919MPD2    H213509   3.204   2.995  11.795  0.2390 -0.0637  0.3805
  919MPD2    H313510   3.275   3.157  11.613 -0.1636  0.7519  0.9591
  919MPD2     N13511   2.929   3.075  11.352 -0.0731  0.2548 -0.1606
  919MPD2    H513512   2.971   3.149  11.297  1.0320 -0.7367 -0.6555
  919MPD2    N113513   2.970   2.855  11.784 -0.0871 -0.5502  0.3282
  919MPD2    H713514   2.888   2.800  11.762 -0.1871  0.3341 -1.5109
  920MPD2     C13515   2.787   3.688  10.546 -0.6658  0.0008 -0.1980
  920MPD2    C113516   2.666   3.627  10.562 -0.1295  0.6726 -0.3489
  920MPD2    C213517   2.647   3.526  10.663 -0.1896  1.0158 -0.3061
  920MPD2    C313518   2.752   3.490  10.746  0.3646 -0.1520  0.4844
  920MPD2    C413519   2.877   3.548  10.720  1.0738  0.4756  0.0944
  920MPD2    C513520   2.894   3.649  10.626  0.4436 -0.5252  0.0222
  920MPD2     H13521   2.550   3.481  10.673 -0.0208  0.5377 -0.8164
  920MPD2    H113522   2.968   3.514  10.767  0.0833 -1.6499  0.4656
  920MPD2    H213523   2.810   3.761  10.469 -0.0258 -1.1824 -1.1304
  920MPD2    H313524   2.986   3.706  10.617  0.6211 -0.7660  0.3099
  920MPD2     N13525   2.738   3.383  10.836  0.4002  0.1361  0.4430
  920MPD2    H513526   2.643   3.349  10.836  1.1409 -1.9118 -0.2205
  920MPD2    N113527   2.558   3.659  10.480  0.9443 -0.4424  0.3115
  920MPD2    H713528   2.475   3.604  10.501  1.3881 -1.8354 -1.6613
  921MPD2     C13529   3.299   2.757  17.157 -0.0223 -0.0247  0.2721
  921MPD2    C113530   3.347   2.706  17.038 -0.6690 -0.0819 -0.8224
  921MPD2    C213531   3.253   2.653  16.952 -0.3043 -0.5846  0.1153
  921MPD2    C313532   3.126   2.625  16.991 -0.1269  0.2589  0.0611
  921MPD2    C413533   3.083   2.687  17.109  0.5739 -0.2243 -0.1374
  921MPD2    C513534   3.165   2.760  17.188  0.2486 -0.0820 -0.0374
  921MPD2     H13535   3.285   2.605  16.860 -0.0945  0.6012 -0.4420
  921MPD2    H113536   2.986   2.668  17.153 -0.2697  0.4086 -1.7303
  921MPD2    H213537   3.367   2.802  17.229 -0.0845  1.3294 -0.5087
  921MPD2    H313538   3.132   2.805  17.281 -0.8190  2.1535 -1.4978
  921MPD2     N13539   3.038   2.553  16.908  0.1311  0.4158 -0.3817
  921MPD2    H513540   2.941   2.571  16.929 -0.1889 -0.4498 -1.1030
  921MPD2    N113541   3.482   2.702  16.995  0.5056 -0.6107  0.1437
  921MPD2    H713542   3.509   2.684  16.899 -1.2224  0.4712 -0.5464
  922MPD2     C13543   3.797   0.457   0.200  0.0382  0.8581  0.9480
  922MPD2    C113544   3.692   0.373   0.222 -0.4281  0.4263  0.2113
  922MPD2    C213545   3.599   0.357   0.121  0.1643 -0.3299 -0.4951
  922MPD2    C313546   3.620   0.424  17.753  0.2257  0.2304  0.2899
  922MPD2    C413547   3.726   0.501  17.724  0.5223  0.2583 -0.2065
  922MPD2    C513548   3.814   0.524   0.082 -0.1488 -0.4302 -0.5722
  922MPD2     H13549   3.506   0.302   0.130  0.2313 -0.0523  1.9334
  922MPD2    H113550   3.742   0.551  17.629 -0.1393  0.2330 -0.3356
  922MPD2    H213551   3.875   0.473   0.274 -1.3224  0.2872  2.4901
  922MPD2    H313552   3.906   0.580   0.066  1.5301 -2.5665  1.5866
  922MPD2     N13553   3.525   0.403  17.650  0.0807 -0.0256 -0.2007
  922MPD2    H513554   3.434   0.369  17.678 -0.3941  1.3131 -0.1500
  922MPD2    N113555   3.684   0.281   0.331  0.2193 -0.3624 -0.5577
  922MPD2    H713556   3.623   0.200   0.327  1.8409 -1.6185  0.3201
  923MPD2     C13557   1.096   2.582   9.098 -0.0008  0.2056  1.5938
  923MPD2    C113558   1.028   2.644   9.204 -0.1707 -1.2799  0.5677
  923MPD2    C213559   1.058   2.613   9.336  0.4600  0.0418  0.8727
  923MPD2    C313560   1.156   2.516   9.359 -0.0063  0.1531 -0.2250
  923MPD2    C413561   1.222   2.457   9.254  0.1209  0.1882 -0.3290
  923MPD2    C513562   1.193   2.491   9.124  0.3174  0.0186 -0.3137
  923MPD2     H13563   1.004   2.662   9.416 -1.4881  0.0657 -0.4784
  923MPD2    H113564   1.303   2.387   9.273  2.2168  3.2127  1.9625
  923MPD2    H213565   1.086   2.605   8.993  0.4122  0.0964  1.5304
  923MPD2    H313566   1.259   2.452   9.048  2.3544  1.6318  0.6168
  923MPD2     N13567   1.204   2.479   9.489  0.5017 -0.0463  0.8028
  923MPD2    H513568   1.271   2.404   9.498  0.8935  0.1782 -0.2498
  923MPD2    N113569   0.929   2.740   9.168 -0.3227  0.0114  0.6742
  923MPD2    H713570   0.919   2.766   9.071 -0.0855 -0.2806  0.5715
  924MPD2     C13571   0.858   0.754  15.866  0.0802 -0.2208 -0.1116
  924MPD2    C113572   0.832   0.701  15.989  0.1991 -0.4343 -0.2547
  924MPD2    C213573   0.857   0.779  16.101  0.4131  0.8587 -0.9325
  924MPD2    C313574   0.923   0.901  16.089 -0.0671 -0.7462  1.2241
  924MPD2    C413575   0.957   0.953  15.961  0.0530  0.2102  0.4457
  924MPD2    C513576   0.918   0.880  15.846  0.0731 -0.0574  0.5052
  924MPD2     H13577   0.843   0.733  16.199  0.1901  1.9887 -0.4260
  924MPD2    H113578   1.002   1.051  15.952 -1.3842  0.6970 -1.1711
  924MPD2    H213579   0.833   0.700  15.776 -0.8261  0.7485 -0.4561
  924MPD2    H313580   0.939   0.925  15.750 -1.1329  0.0080  0.2717
  924MPD2     N13581   0.963   0.980  16.199 -0.0466 -0.0957 -0.4202
  924MPD2    H513582   1.023   1.060  16.185  0.4979 -0.4936 -0.3717
  924MPD2    N113583   0.762   0.579  15.990  0.6496  0.2067  0.3802
  924MPD2    H713584   0.722   0.544  15.904  1.5388 -2.3366  0.9863
  925MPD2     C13585   4.560   3.381  14.825 -0.4915 -0.3939  0.7193
  925MPD2    C113586   4.428   3.374  14.784  0.6872 -0.0397  0.3929
  925MPD2    C213587   4.327   3.368  14.878 -0.4184  0.6342 -0.2470
  925MPD2    C313588   4.359   3.363  15.014 -0.8658 -0.3774  0.0723
  925MPD2    C413589   4.485   3.359  15.055  0.6054  0.6544  1.0395
  925MPD2    C513590   4.585   3.383  14.962 -0.2737 -0.4267 -0.3117
  925MPD2     H13591   4.224   3.373  14.843 -0.0046 -1.1551 -1.7159
  925MPD2    H113592   4.515   3.338  15.157 -0.3143  2.2479  1.6460
  925MPD2    H213593   4.652   3.389  14.769 -2.5200  0.8209 -2.4225
  925MPD2    H313594   4.689   3.384  14.994 -0.6089  2.5136  0.7077
  925MPD2     N13595   4.259   3.342  15.113  0.4015  0.8853  0.1084
  925MPD2    H513596   4.295   3.338  15.208  1.1799  2.1923 -0.1342
  925MPD2    N113597   4.391   3.374  14.649  0.2240 -0.0538 -0.4631
  925MPD2    H713598   4.292   3.389  14.631  0.4820  1.0180 -1.0024
  926MPD2     C13599   2.831   1.149  13.297  0.3145  0.3873  0.1899
  926MPD2    C113600   2.726   1.220  13.236  0.6302 -0.2120 -1.1820
  926MPD2    C213601   2.752   1.292  13.122  0.4872  0.4217 -0.1840
  926MPD2    C313602   2.881   1.293  13.062  0.0167  0.6596  0.1492
  926MPD2    C413603   2.979   1.231  13.127  0.0859 -0.2727  0.7198
  926MPD2    C513604   2.963   1.162  13.241  0.4531  0.8782  0.0098
  926MPD2     H13605   2.663   1.341  13.085  0.2400  0.8185  0.9270
  926MPD2    H113606   3.075   1.221  13.077  1.3717  1.4006  2.8315
  926MPD2    H213607   2.806   1.092  13.386  2.3745 -0.6907  0.0855
  926MPD2    H313608   3.051   1.114  13.282 -1.9073 -3.1703  0.4028
  926MPD2     N13609   2.907   1.371  12.950 -0.2027  0.0701 -0.0451
  926MPD2    H513610   3.002   1.366  12.913  0.0868 -2.0304  0.9898
  926MPD2    N113611   2.590   1.229  13.284 -0.1525 -0.3778  0.6649
  926MPD2    H713612   2.530   1.280  13.220 -1.0801 -1.0785  0.9888
  927MPD2     C13613   2.610   3.148  17.642  1.0331 -0.4984  0.1201
  927MPD2    C113614   2.703   3.229  17.709  0.7102  0.0799 -0.6642
  927MPD2    C213615   2.810   3.282  17.640 -0.0698 -0.1185 -0.1827
  927MPD2    C313616   2.822   3.273  17.501 -0.1431  0.0019  0.1324
  927MPD2    C413617   2.716   3.221  17.435 -0.2856 -0.7579 -0.0918
  927MPD2    C513618   2.625   3.144  17.507 -0.7226 -0.2177 -0.2378
  927MPD2     H13619   2.873   3.355  17.690 -1.5022  1.7641 -1.1137
  927MPD2    H113620   2.696   3.219  17.328 -0.8437  0.4481 -0.0147
  927MPD2    H213621   2.522   3.095  17.675 -0.6678  2.5755  0.4041
  927MPD2    H313622   2.562   3.071  17.457  1.2209 -0.8565 -1.7399
  927MPD2     N13623   2.919   3.350  17.428 -0.0852 -0.0493  0.5088
  927MPD2    H513624   2.984   3.398  17.489  1.0297 -2.4834  1.2257
  927MPD2    N113625   2.675   3.262   0.086  0.8569 -0.1023 -0.0820
  927MPD2    H713626   2.590   3.223   0.126  1.7844 -2.0298  0.0126
  928MPD2     C13627   0.560   2.541   1.320  0.5285 -0.2977 -0.2304
  928MPD2    C113628   0.517   2.616   1.214 -0.3033  0.1766 -0.1721
  928MPD2    C213629   0.597   2.633   1.107  0.0858  0.5183  0.0420
  928MPD2    C313630   0.716   2.561   1.093 -0.5103 -1.1209  0.4445
  928MPD2    C413631   0.754   2.471   1.197 -0.5002 -0.1107 -0.4521
  928MPD2    C513632   0.681   2.475   1.315 -0.2313 -0.4631  0.2575
  928MPD2     H13633   0.564   2.695   1.024 -0.3192  0.5237  0.2111
  928MPD2    H113634   0.846   2.416   1.201 -0.6261 -0.2339  0.7380
  928MPD2    H213635   0.501   2.532   1.411  0.0541  0.6717 -0.4435
  928MPD2    H313636   0.715   2.418   1.400 -0.4961 -2.2660 -0.8240
  928MPD2     N13637   0.806   2.576   0.984 -0.2067  0.8492  0.3636
  928MPD2    H513638   0.884   2.511   0.983  0.2407  1.3970 -0.5093
  928MPD2    N113639   0.383   2.664   1.233  0.1913  0.0981 -0.3158
  928MPD2    H713640   0.336   2.643   1.321 -0.5928  1.5831 -0.3785
  929MPD2     C13641   1.047   2.350  10.306  0.0027  0.6911  0.3912
  929MPD2    C113642   0.989   2.232  10.352 -0.0795  0.0939 -0.1186
  929MPD2    C213643   0.853   2.214  10.321 -0.6238 -0.3647  0.2532
  929MPD2    C313644   0.781   2.320  10.260  0.0064 -0.1658  0.6597
  929MPD2    C413645   0.842   2.440  10.224  1.1077  0.1977  0.1533
  929MPD2    C513646   0.976   2.451  10.239 -0.0600  0.2313  0.0400
  929MPD2     H13647   0.805   2.133  10.374  1.1559 -0.9003  1.0601
  929MPD2    H113648   0.783   2.523  10.188  0.0314 -0.4144  0.5245
  929MPD2    H213649   1.153   2.365  10.328  0.7394  2.7214 -4.6200
  929MPD2    H313650   1.027   2.540  10.205  0.7186 -0.9818 -1.9339
  929MPD2     N13651   0.632   2.314  10.240  0.7511  0.3091  0.0192
  929MPD2    H513652   0.585   2.395  10.203  0.6072  0.1556 -0.1315
  929MPD2    N113653   1.072   2.151  10.432  0.4940  0.3926  0.0371
  929MPD2    H713654   1.170   2.178  10.431  0.7826 -0.6369  0.2245
  930MPD2     C13655   2.505   3.907  14.243 -0.7470 -0.2238 -0.2076
  930MPD2    C113656   2.520   4.034  14.196 -0.7103 -0.7710  0.2450
  930MPD2    C213657   2.481   4.066  14.068 -0.2821 -0.3426  0.4848
  930MPD2    C313658   2.424   3.969  13.990 -0.2445  0.0428 -0.5476
  930MPD2    C413659   2.407   3.843  14.037  0.1811 -0.1598 -0.2711
  930MPD2    C513660   2.448   3.812  14.164 -0.0541 -0.4696  0.9360
  930MPD2     H13661   2.503   4.165  14.030  0.0316 -1.0688 -1.2595
  930MPD2    H113662   2.379   3.767  13.965  0.1854  0.1447 -0.5990
  930MPD2    H213663   2.533   3.886  14.346 -1.0600 -2.1059 -0.5078
  930MPD2    H313664   2.435   3.712  14.203 -0.7475 -0.2466  1.2642
  930MPD2     N13665   2.402   3.989  13.854  0.1035  0.3970  0.2910
  930MPD2    H513666   2.378   3.902  13.806  0.6697 -0.2586  1.1936
  930MPD2    N113667   2.587   4.133  14.270  0.1221  0.2703 -0.3954
  930MPD2    H713668   2.606   4.221  14.222 -0.8725  0.9390  0.4485
  931MPD2     C13669   3.143   3.534   0.710  0.4311 -0.3174 -0.3708
  931MPD2    C113670   3.008   3.555   0.729 -0.4309 -0.4788 -0.4144
  931MPD2    C213671   2.966   3.621   0.844 -1.2351 -0.1716 -0.6781
  931MPD2    C313672   3.058   3.647   0.947  0.2705 -0.2307  1.5038
  931MPD2    C413673   3.192   3.616   0.925 -0.2514  0.2689  0.7123
  931MPD2    C513674   3.235   3.557   0.812 -0.5281  0.5169  0.2388
  931MPD2     H13675   2.861   3.606   0.866 -1.3781  0.8219 -0.6429
  931MPD2    H113676   3.274   3.650   0.988  0.7247  0.0192 -0.4354
  931MPD2    H213677   3.173   3.489   0.616 -0.1668 -0.3132 -0.5653
  931MPD2    H313678   3.341   3.535   0.797 -0.8639 -1.6932  1.0768
  931MPD2     N13679   3.011   3.688   1.072  0.0921 -0.0547  0.1156
  931MPD2    H513680   3.076   3.682   1.149 -3.0371 -0.6730  2.6660
  931MPD2    N113681   2.918   3.512   0.622  0.5483 -0.2531 -0.2773
  931MPD2    H713682   2.955   3.460   0.543  0.4014 -0.3324 -0.2949
  932MPD2     C13683   4.313   2.947  11.691 -0.5637  0.6984  0.5772
  932MPD2    C113684   4.336   3.014  11.571  0.7841  0.6393 -0.2033
  932MPD2    C213685   4.368   2.953  11.452  0.6872  0.6746  0.3061
  932MPD2    C313686   4.387   2.813  11.453 -0.3946  0.2965  0.5859
  932MPD2    C413687   4.369   2.742  11.572 -0.7026 -0.0787 -0.1137
  932MPD2    C513688   4.331   2.809  11.685  0.2064  0.0275  0.3991
  932MPD2     H13689   4.402   3.010  11.367  1.1675 -0.7366 -0.4584
  932MPD2    H113690   4.376   2.634  11.586 -0.2956 -0.3046 -2.0721
  932MPD2    H213691   4.280   2.995  11.783 -0.0262  0.3881  0.9344
  932MPD2    H313692   4.331   2.757  11.780  0.1985 -1.8615 -0.6302
  932MPD2     N13693   4.431   2.740  11.343  0.0012 -0.6652 -0.3660
  932MPD2    H513694   4.459   2.646  11.368  1.5282  0.0234  0.5684
  932MPD2    N113695   4.344   3.157  11.562 -0.8503  0.2878 -0.4603
  932MPD2    H713696   4.349   3.194  11.468 -1.5648  0.9156 -0.2456
  933MPD2     C13697   4.578   2.849   0.718  0.4877  0.4330  0.0086
  933MPD2    C113698   4.596   2.949   0.805 -0.3109  0.6320 -0.4962
  933MPD2    C213699   4.571   3.077   0.770 -0.7410  0.7345  0.1052
  933MPD2    C313700   4.524   3.105   0.646 -0.1897  0.2316  0.1093
  933MPD2    C413701   4.506   3.009   0.551 -0.0900  0.3935 -0.2905
  933MPD2    C513702   4.533   2.877   0.587 -0.0483  0.3159 -0.3637
  933MPD2     H13703   4.594   3.161   0.834  0.3690  0.5669 -0.0815
  933MPD2    H113704   4.468   3.026   0.451  0.9063 -3.2327 -1.2846
  933MPD2    H213705   4.589   2.745   0.748  1.2443 -0.1522 -2.3100
  933MPD2    H313706   4.526   2.801   0.510  1.5883 -0.0907 -0.0929
  933MPD2     N13707   4.520   3.244   0.604  0.5373 -0.2852 -0.0314
  933MPD2    H513708   4.543   3.315   0.672 -0.2774 -0.6162  0.5922
  933MPD2    N113709   4.639   2.918   0.928 -0.4276 -0.3436 -0.4805
  933MPD2    H713710   4.639   2.820   0.952 -2.0006 -0.4575 -1.0184
  934MPD2     C13711   1.823   4.604   2.174 -0.0252 -0.4005 -1.2976
  934MPD2    C113712   1.891   4.546   2.069 -0.5237 -0.7194 -0.2827
  934MPD2    C213713   1.813   4.494   1.962  0.1297 -0.3196 -0.3994
  934MPD2    C313714   1.674   4.485   1.973  0.0364  0.3753 -0.6918
  934MPD2    C413715   1.608   4.543   2.079  0.1557  0.5150  0.0528
  934MPD2    C513716   1.686   4.600   2.179 -0.4947  0.5506 -0.0141
  934MPD2     H13717   1.852   4.444   1.874 -2.9645 -1.3277 -1.2028
  934MPD2    H113718   1.500   4.543   2.091 -0.0473  3.2394 -1.7515
  934MPD2    H213719   1.881   4.655   2.250  1.5709 -2.9569 -0.7931
  934MPD2    H313720   1.633   4.645   2.262 -0.6481  0.2934  0.0275
  934MPD2     N13721   1.592   4.422   1.872  0.0705  0.0056 -0.4053
  934MPD2    H513722   1.495   4.451   1.867  0.2878  0.7950 -0.1097
  934MPD2    N113723   2.030   4.569   2.039 -0.2686 -0.3417 -0.4079
  934MPD2    H713724   2.068   4.530   1.954  1.4700  0.3671  0.0501
  935MPD2     C13725   1.978   3.871   1.109 -0.1820  0.1035  0.4447
  935MPD2    C113726   1.839   3.870   1.090 -0.4741 -0.4546 -0.4538
  935MPD2    C213727   1.758   3.944   1.180  0.0887  0.6157  0.1360
  935MPD2    C313728   1.816   4.017   1.282 -0.4058 -0.1587  0.1842
  935MPD2    C413729   1.952   4.022   1.293 -0.0837 -0.6896 -0.1262
  935MPD2    C513730   2.036   3.952   1.202  0.1836  0.1522  0.0978
  935MPD2     H13731   1.651   3.926   1.171 -0.0101  0.9470  0.6573
  935MPD2    H113732   1.993   4.088   1.368 -1.1500 -1.8029  1.4371
  935MPD2    H213733   2.055   3.824   1.049 -0.3746 -0.4734  0.6451
  935MPD2    H313734   2.144   3.948   1.203  0.1923  0.5765  0.6568
  935MPD2     N13735   1.727   4.081   1.379  0.2474 -0.0282 -0.1011
  935MPD2    H513736   1.770   4.121   1.461  0.9746 -0.0636 -0.4590
  935MPD2    N113737   1.773   3.802   0.987  0.7971 -0.1607 -0.8770
  935MPD2    H713738   1.671   3.802   0.992  0.8654 -1.2613  0.4566
  936MPD2     C13739   4.271   1.231  12.459 -0.8134  0.4985  0.1396
  936MPD2    C113740   4.402   1.199  12.465  0.0785  0.3288  0.2034
  936MPD2    C213741   4.484   1.210  12.353 -0.1225 -0.0990 -1.0855
  936MPD2    C313742   4.427   1.239  12.228 -0.0366 -0.2537  0.0532
  936MPD2    C413743   4.298   1.289  12.228  0.3459  0.3857  0.6666
  936MPD2    C513744   4.215   1.276  12.342 -0.2009  0.1010  0.1893
  936MPD2     H13745   4.588   1.186  12.370  0.3744  1.0526 -2.4658
  936MPD2    H113746   4.253   1.322  12.135  0.9834 -1.4923 -0.3043
  936MPD2    H213747   4.207   1.225  12.546 -0.7757  0.5381  0.1701
  936MPD2    H313748   4.108   1.294  12.337 -0.4894 -2.4654 -2.5247
  936MPD2     N13749   4.512   1.263  12.121 -0.6570 -0.0275 -0.7557
  936MPD2    H513750   4.475   1.313  12.041 -1.7753  3.3049  1.8078
  936MPD2    N113751   4.463   1.160  12.587 -0.5881  0.1555 -0.0706
  936MPD2    H713752   4.556   1.120  12.577  0.1007  1.3944  1.3346
  937MPD2     C13753   2.699   2.249  11.722  0.2017 -0.0885 -0.4219
  937MPD2    C113754   2.820   2.307  11.732 -0.0168  0.1292  0.2564
  937MPD2    C213755   2.894   2.312  11.614  0.7073 -0.2353 -0.4761
  937MPD2    C313756   2.861   2.243  11.501  0.7864  0.4302 -0.2477
  937MPD2    C413757   2.742   2.180  11.495  0.0049  0.6750 -0.3383
  937MPD2    C513758   2.656   2.187  11.606 -0.6476  0.4557  0.4257
  937MPD2     H13759   2.990   2.362  11.613  0.9187 -0.6279  0.5916
  937MPD2    H113760   2.702   2.137  11.404  2.6784  0.4813 -1.4149
  937MPD2    H213761   2.633   2.244  11.808 -1.4315  2.7042 -1.4953
  937MPD2    H313762   2.557   2.143  11.597 -0.7141  1.0566 -1.7529
  937MPD2     N13763   2.948   2.260  11.387 -0.1789 -0.3613  0.0556
  937MPD2    H513764   3.038   2.298  11.412 -0.4381  0.3077 -0.0411
  937MPD2    N113765   2.859   2.397  11.833  0.4770  0.4831  0.1196
  937MPD2    H713766   2.944   2.448  11.815 -0.6106  1.6954 -1.4881
  938MPD2     C13767   0.705   4.192   0.779  0.5984 -0.2035  0.6696
  938MPD2    C113768   0.747   4.264   0.889  0.6575  0.1697  0.6585
  938MPD2    C213769   0.696   4.255   1.013  0.3058 -0.3393 -0.7078
  938MPD2    C313770   0.596   4.167   1.034  0.4394  0.7214 -0.5582
  938MPD2    C413771   0.546   4.098   0.926 -0.5190  0.1557 -0.1513
  938MPD2    C513772   0.599   4.108   0.804  0.3316  0.6781  0.0921
  938MPD2     H13773   0.739   4.315   1.093 -1.5140  0.8676 -0.6245
  938MPD2    H113774   0.462   4.030   0.938 -1.6989  1.1244 -2.8581
  938MPD2    H213775   0.744   4.200   0.678 -2.8823 -1.6636 -0.8031
  938MPD2    H313776   0.573   4.049   0.716 -2.3060 -1.0093  2.0190
  938MPD2     N13777   0.540   4.149   1.163 -0.1517  0.2748 -0.7862
  938MPD2    H513778   0.600   4.181   1.238 -0.3611  0.2279 -0.5966
  938MPD2    N113779   0.852   4.363   0.882  0.5439 -0.1159 -0.0183
  938MPD2    H713780   0.888   4.421   0.957 -1.8140 -2.4865  2.9181
  939MPD2     C13781   2.031   4.633   0.812  0.0735  0.2110 -0.3377
  939MPD2    C113782   2.043   0.036   0.823  0.4250 -0.9853  0.0450
  939MPD2    C213783   2.100   0.093   0.717  0.2086 -0.2146 -0.0327
  939MPD2    C313784   2.138   0.027   0.599 -0.1936  0.3947 -0.6384
  939MPD2    C413785   2.106   4.637   0.584 -0.2962  0.4542  0.9817
  939MPD2    C513786   2.048   4.574   0.691 -0.0016  0.4156  0.0753
  939MPD2     H13787   2.115   0.200   0.723  2.4448 -0.5961  1.4263
  939MPD2    H113788   2.129   4.572   0.500 -0.6166  1.5772  0.0305
  939MPD2    H213789   1.969   4.581   0.885 -0.6263 -0.4650 -1.4183
  939MPD2    H313790   2.022   4.471   0.670  0.8583 -0.0138  1.1128
  939MPD2     N13791   2.205   0.104   0.502 -0.0495  0.3646  0.6596
  939MPD2    H513792   2.204   0.205   0.510 -2.0688  0.3083  1.0544
  939MPD2    N113793   2.011   0.098   0.944 -0.3645 -0.3347  0.0370
  939MPD2    H713794   1.983   0.027   1.011  0.4336 -1.0063 -0.3414
  940MPD2     C13795   0.367   1.402  13.439  0.5342 -0.8290  0.0882
  940MPD2    C113796   0.490   1.374  13.393 -0.1883 -0.1831  0.2505
  940MPD2    C213797   0.511   1.362  13.255 -0.8066  0.3618 -0.4259
  940MPD2    C313798   0.400   1.360  13.167  0.7518 -0.1747  0.8863
  940MPD2    C413799   0.274   1.378  13.228  0.1097 -0.7531  0.1435
  940MPD2    C513800   0.262   1.406  13.358  0.4556 -0.0195 -0.1517
  940MPD2     H13801   0.608   1.336  13.214  0.0188  0.8186  1.2072
  940MPD2    H113802   0.184   1.380  13.168  0.8060 -0.6730 -0.8938
  940MPD2    H213803   0.348   1.407  13.545 -0.2091  1.2437 -0.1362
  940MPD2    H313804   0.165   1.421  13.405  0.1535 -3.6307  0.3864
  940MPD2     N13805   0.406   1.349  13.028  0.0091 -0.0048  0.1163
  940MPD2    H513806   0.321   1.315  12.985  1.0761 -1.6129 -0.7587
  940MPD2    N113807   0.603   1.378  13.477  0.2552 -0.4373 -0.0790
  940MPD2    H713808   0.685   1.353  13.423 -0.7976 -0.8260 -1.5219
  941MPD2     C13809   0.247   0.615   9.570  1.1488 -0.9162  0.5618
  941MPD2    C113810   0.301   0.581   9.691  0.1556  0.1890 -0.1846
  941MPD2    C213811   0.237   0.486   9.776  0.6648  0.3782  0.6462
  941MPD2    C313812   0.109   0.441   9.748 -0.5431 -0.1149 -0.3176
  941MPD2    C413813   0.054   0.483   9.629  0.0639 -0.4968  0.2488
  941MPD2    C513814   0.132   0.555   9.543 -0.2274  0.0318 -0.1986
  941MPD2     H13815   0.288   0.453   9.866  0.4634 -2.1390 -0.1540
  941MPD2    H113816   4.694   0.447   9.604 -0.3444  2.1883 -1.9710
  941MPD2    H213817   0.303   0.686   9.510 -2.1201 -0.0998 -1.5819
  941MPD2    H313818   0.084   0.583   9.449  2.3001  1.4567 -1.0685
  941MPD2     N13819   0.022   0.358   9.826  0.7314 -0.5154  0.8476
  941MPD2    H513820   4.663   0.347   9.801  0.5270 -0.5241  1.6452
  941MPD2    N113821   0.415   0.645   9.745  0.2696  0.4966  0.3465
  941MPD2    H713822   0.455   0.610   9.831 -0.0249  2.0772  1.1417
  942MPD2     C13823   4.539   2.806   9.528  0.1051  0.4580 -0.3782
  942MPD2    C113824   4.566   2.667   9.504 -0.0366 -0.1536  0.0641
  942MPD2    C213825   4.695   2.646   9.465  0.0290 -0.5672 -0.2632
  942MPD2    C313826   0.055   2.747   9.442  0.0160 -0.5766 -0.6612
  942MPD2    C413827   0.020   2.877   9.480 -0.8386  0.0870 -0.0064
  942MPD2    C513828   4.628   2.903   9.520  0.0416  0.1668  0.2946
  942MPD2     H13829   4.705   2.542   9.438 -1.9771 -0.7979 -0.0844
  942MPD2    H113830   0.084   2.964   9.475 -1.5281  0.5054 -1.8520
  942MPD2    H213831   4.442   2.833   9.568  0.5695 -1.7536  2.2429
  942MPD2    H313832   4.602   3.003   9.552 -1.8990 -0.7644  1.6559
  942MPD2     N13833   0.188   2.730   9.399  0.6802 -0.0995 -0.6569
  942MPD2    H513834   0.256   2.805   9.404 -0.0681  0.5113  0.5003
  942MPD2    N113835   4.473   2.557   9.502 -0.1390 -0.4928 -0.2555
  942MPD2    H713836   4.515   2.470   9.473 -1.1678 -1.5118  1.3240
  943MPD2     C13837   4.156   0.574  10.038 -0.7036 -0.4371 -0.0908
  943MPD2    C113838   4.075   0.490  10.107 -1.0115 -0.4829 -0.2401
  943MPD2    C213839   4.020   0.530  10.231 -0.0081 -0.1449 -0.1536
  943MPD2    C313840   4.048   0.656  10.290  0.1019 -0.0789  0.4568
  943MPD2    C413841   4.127   0.736  10.212  0.3714 -0.4364 -0.1114
  943MPD2    C513842   4.177   0.696  10.094 -0.1803  0.2210  0.4899
  943MPD2     H13843   3.943   0.470  10.278 -0.2716  1.1414  1.0575
  943MPD2    H113844   4.148   0.836  10.247  0.8935 -0.8328  0.6954
  943MPD2    H213845   4.209   0.545   9.947  0.2422 -0.2047  0.3887
  943MPD2    H313846   4.243   0.766  10.043  2.3179 -4.9698 -3.3367
  943MPD2     N13847   4.026   0.685  10.427 -0.7808  0.3383 -0.7180
  943MPD2    H513848   4.078   0.762  10.468 -0.1909 -0.1670 -0.5166
  943MPD2    N113849   4.046   0.377  10.032  0.2136  0.2932 -0.3561
  943MPD2    H713850   4.090   0.369   9.941  1.9909  1.2796  0.4102
  944MPD2     C13851   3.143   4.457  10.992 -0.3299 -0.1983 -0.1225
  944MPD2    C113852   3.159   4.395  11.117 -0.2930 -0.1112 -0.3156
  944MPD2    C213853   3.138   4.488  11.228  0.6891  0.3258 -0.6687
  944MPD2    C313854   3.122   4.624  11.216  0.4179 -0.2897 -0.3198
  944MPD2    C413855   3.106   4.674  11.087 -1.0423 -0.0180 -0.2143
  944MPD2    C513856   3.123   4.593  10.975  0.5318 -0.0719 -0.0023
  944MPD2     H13857   3.146   4.457  11.331  0.0905 -1.5536 -1.1852
  944MPD2    H113858   3.084   0.041  11.074 -0.2202  0.7175  4.2592
  944MPD2    H213859   3.156   4.394  10.905  3.0009  1.4486 -0.8158
  944MPD2    H313860   3.107   4.640  10.879  0.4279  2.0365  1.0543
  944MPD2     N13861   3.100   4.695  11.338 -0.3421 -0.1884 -0.3167
  944MPD2    H513862   3.106   4.642  11.424 -1.5050  1.5057  0.8268
  944MPD2    N113863   3.187   4.257  11.135 -0.4450  0.7934 -0.7926
  944MPD2    H713864   3.204   4.201  11.052 -2.9289 -0.4046 -0.4747
    1TMC1    C113865   1.989   4.621  14.017 -0.4674  0.1569  0.1410
    1TMC1    C213866   1.933   4.649  13.895 -0.4401  0.3132 -0.0935
    1TMC1    C313867   1.920   4.551  13.802  0.2201  0.6132 -0.2751
    1TMC1    C413868   2.048   4.499  14.039 -0.2360 -1.0471  0.0884
    1TMC1    C513869   2.047   4.411  13.936 -0.1438  0.8867 -0.2367
    1TMC1    C613870   1.976   4.430  13.816  0.1662  0.2625 -0.4900
    1TMC1     C13871   1.965   4.704  14.130  0.3373  0.1498 -0.7057
    1TMC1     O13872   2.031   4.670  14.226  0.3171 -0.2236 -0.1611
    1TMC1     H13873   1.875   0.000  13.881 -1.2036 -0.5495 -2.4390
    1TMC1    H113874   2.082   4.481  14.140 -0.0110 -0.0439  0.1952
    1TMC1    H213875   1.972   4.354  13.740 -0.7267 -1.7639  1.5857
    1TMC1    C713876   2.116   4.283  13.950  0.0324  0.2539 -0.6941
    1TMC1    C813877   1.901   4.582  13.660  0.4982 -0.4252  0.0845
    1TMC1    O113878   2.101   4.187  13.875 -0.0561 -0.4135  0.2820
    1TMC1    O213879   1.930   4.508  13.567 -0.4923 -0.1045  0.7421
    1TMC1    O313880   2.157   4.271  14.080 -0.1976 -0.0073  0.3992
    1TMC1    H313881   2.211   4.346  14.114 -2.3902  2.6873 -2.0199
    1TMC1    O513882   1.904   4.717  13.651  0.5468 -0.2941 -0.2876
    1TMC1    H513883   1.915   0.017  13.562  2.7372  1.8354  0.9209
    2MPD2     C13884   1.801   0.393  14.364 -0.1341 -0.1686  0.4050
    2MPD2    C113885   1.742   0.389  14.236  0.0819 -0.2585  1.1510
    2MPD2    C213886   1.762   0.276  14.158 -0.2976 -0.1501  0.3532
    2MPD2    C313887   1.856   0.178  14.193 -0.1906  0.2137 -0.8599
    2MPD2    C413888   1.915   0.194  14.319  0.1925  0.5634  1.2505
    2MPD2    C513889   1.889   0.296  14.403 -0.1091 -0.6213  0.0196
    2MPD2     H13890   1.715   0.252  14.063 -1.3642  0.6862  0.6623
    2MPD2    H113891   1.979   0.116  14.360  2.3818  0.0253 -3.2046
    2MPD2    H213892   1.783   0.475  14.433  0.7206  0.6447 -0.3516
    2MPD2    H313893   1.932   0.299  14.503 -0.1222  1.2736 -0.0307
    2MPD2     N13894   1.877   0.068  14.110  0.1437  0.4498  0.3676
    2MPD2    H513895   1.836   0.078  14.017  1.2800 -3.3957 -0.5344
    2MPD2    N113896   1.664   0.491  14.187  0.7288  0.3136  0.6007
    2MPD2    H713897   1.641   0.497  14.089  2.2103 -0.5878  0.2039
    3TMC2    C113898   1.604   0.704  14.154  0.0563  0.0751 -0.8660
    3TMC2    C213899   1.487   0.668  14.085 -0.1486  0.7689 -0.2563
    3TMC2    C313900   1.453   0.754  13.986  0.2191  0.2494  0.6371
    3TMC2    C413901   1.662   0.826  14.142  0.1745  0.0192 -0.3095
    3TMC2    C513902   1.610   0.917  14.054 -0.0100  0.1425 -0.5061
    3TMC2    C613903   1.505   0.887  13.976  0.2792 -0.0669 -0.1715
    3TMC2     C13904   1.654   0.613  14.250 -0.4322 -0.6125  0.3446
    3TMC2     O13905   1.710   0.670  14.349  0.3954 -0.2274  0.2500
    3TMC2     H13906   1.440   0.574  14.111 -0.7780  1.0614 -0.3471
    3TMC2    H113907   1.740   0.850  14.213 -0.5243 -1.1454  0.8439
    3TMC2    H213908   1.489   0.946  13.886  1.0594  1.7233  0.8641
    3TMC2    C713909   1.698   1.018  14.004 -0.1033  0.7827  0.2797
    3TMC2    C813910   1.347   0.731  13.891  0.3469 -0.0727  0.8724
    3TMC2    O113911   1.814   0.998  14.041 -0.1946 -0.0402 -0.0333
    3TMC2    O213912   1.292   0.828  13.842  0.2530 -0.4318  0.5813
    3TMC2    O513913   1.353   0.609  13.838 -0.8225  0.2984 -0.1719
    3TMC2    H513914   1.373   0.534  13.898  0.0325  0.2188 -0.5508
    4TMC2    C113915   1.216   1.814  13.656 -0.4181  0.0532 -0.4875
    4TMC2    C213916   1.257   1.864  13.528 -0.3963 -0.3034 -0.2570
    4TMC2    C313917   1.378   1.818  13.481  0.5292 -0.2053  0.1511
    4TMC2    C413918   1.296   1.735  13.731  0.3788 -0.5226 -0.0550
    4TMC2    C513919   1.414   1.691  13.683 -0.1920 -0.6043 -0.1727
    4TMC2    C613920   1.457   1.732  13.555 -0.2164 -0.6204  0.1181
    4TMC2     C13921   1.084   1.818  13.706  0.0178  0.6786 -0.2373
    4TMC2     O13922   1.075   1.821  13.827 -0.4051  0.6816 -0.1075
    4TMC2     H13923   1.190   1.935  13.482 -0.3626 -0.6953 -0.9059
    4TMC2    H113924   1.258   1.681  13.817  0.9420 -1.1277 -0.1834
    4TMC2    H213925   1.544   1.687  13.510  0.3515 -0.4110  1.0118
    4TMC2    C713926   1.471   1.576  13.763 -1.4185 -0.1583 -0.1921
    4TMC2    C813927   1.432   1.865  13.357  0.6215  0.2611 -0.5242
    4TMC2    O113928   1.409   1.527  13.858 -0.4357  0.3494  0.2266
    4TMC2    O213929   1.493   1.801  13.271  0.1693  0.5119 -0.2581
    4TMC2    O513930   1.424   2.000  13.364 -0.4668  0.0140 -0.4917
    4TMC2    H513931   1.396   2.040  13.449 -3.4477  0.6111 -1.7491
    5MPD2     C13932   0.584   1.778  13.638 -0.0265  0.0630 -0.2510
    5MPD2    C113933   0.643   1.746  13.518 -0.6084 -0.0666 -0.8873
    5MPD2    C213934   0.786   1.759  13.510  0.5127  0.2273 -0.2765
    5MPD2    C313935   0.861   1.790  13.620 -0.3327  0.8242 -0.4964
    5MPD2    C413936   0.802   1.803  13.747 -0.6059  0.5787 -0.3002
    5MPD2    C513937   0.662   1.798  13.751 -0.1678  0.8536  0.3876
    5MPD2     H13938   0.830   1.750  13.411 -0.6616  1.5647 -0.9281
    5MPD2    H113939   0.848   1.832  13.841  2.2680 -0.4335 -1.4200
    5MPD2    H213940   0.476   1.785  13.650  0.0357 -0.3513  0.5440
    5MPD2    H313941   0.618   1.830  13.845 -1.9707 -0.8492  0.1072
    5MPD2     N13942   0.998   1.799  13.603  0.6987  0.0184  0.5867
    5MPD2    H513943   1.031   1.777  13.510  0.0192  1.1160  0.0848
    5MPD2    N113944   0.558   1.732  13.412 -0.0888  0.4344 -0.5810
    5MPD2    H713945   0.460   1.751  13.430 -0.8843 -2.0452 -2.2873
    6MPD1     C13946   0.043   3.216  13.194 -0.3025  0.4006  0.1188
    6MPD1    C113947   0.158   3.147  13.182 -0.3934  0.4228 -0.9734
    6MPD1    C213948   0.165   3.035  13.096  0.0921 -0.3095  0.4921
    6MPD1    C313949   0.056   2.994  13.016  0.2672 -0.2408 -0.5948
    6MPD1    C413950   4.681   3.081  13.013  0.0292 -0.3471  0.0748
    6MPD1    C513951   4.684   3.192  13.101 -0.0182  0.0220 -0.4583
    6MPD1     H13952   0.254   2.975  13.105  0.4105  0.0323 -0.4025
    6MPD1    H113953   4.589   3.068  12.956 -0.2526 -1.8034  0.8654
    6MPD1    H213954   0.042   3.306  13.254 -2.1328 -0.0375  0.7429
    6MPD1    H313955   4.599   3.259  13.094  0.0951  0.3489  1.1794
    6MPD1     N13956   0.050   2.880  12.934 -0.4150  0.1178  0.2617
    6MPD1    H513957   4.698   2.867  12.889 -1.1148 -1.7767  2.2177
    6MPD1    N113958   0.264   3.172  13.274 -0.3080 -0.5048 -0.2894
    6MPD1    H613959   0.255   3.260  13.326 -1.0697 -1.6429  1.4902
    6MPD1    H713960   0.357   3.145  13.242  0.0820  2.6549 -1.8444
    7MPD2     C13961   4.510   2.175  12.978  0.0123 -0.0373 -0.0989
    7MPD2    C113962   4.646   2.196  12.960  0.1048 -0.2790 -0.4911
    7MPD2    C213963   0.012   2.107  12.992  0.5304 -0.0201  0.1370
    7MPD2    C313964   4.713   1.992  13.053 -1.0351 -0.2056  0.4724
    7MPD2    C413965   4.576   1.967  13.071 -0.1975  0.7554  0.5677
    7MPD2    C513966   4.475   2.051  13.034 -0.0693  0.4030 -0.2313
    7MPD2     H13967   0.117   2.119  12.968  0.4535 -0.7231 -0.5633
    7MPD2    H113968   4.555   1.868  13.112 -0.2056 -0.0463 -1.3548
    7MPD2    H213969   4.440   2.252  12.950 -0.5856 -0.6278 -0.2139
    7MPD2    H313970   4.373   2.019  13.051  1.1633 -2.5328  1.4816
    7MPD2     N13971   0.067   1.897  13.099  0.0276 -0.1515 -0.4926
    7MPD2    H513972   0.021   1.817  13.142  0.5094  1.0472  2.1907
    7MPD2    N113973   4.690   2.308  12.899 -0.1715 -0.4089 -0.4726
    7MPD2    H713974   0.052   2.310  12.889 -0.2164  2.2510 -0.4147
    8TMC3    C113975   0.276   1.789  13.109 -0.4001  0.2576  0.3117
    8TMC3    C213976   0.362   1.777  13.217  0.0564 -0.5620 -0.0332
    8TMC3    C313977   0.490   1.723  13.189  0.2327  0.3995 -0.0897
    8TMC3    C413978   0.313   1.755  12.981 -0.1404 -0.1899  0.0073
    8TMC3    C513979   0.437   1.716  12.954 -0.6794 -0.0901 -0.0675
    8TMC3    C613980   0.525   1.697  13.058 -0.3112  0.6063 -0.5004
    8TMC3     C13981   0.204   1.913  13.103  0.2046 -0.0763 -0.0264
    8TMC3     O13982   0.268   2.017  13.103 -0.5673  0.0615 -0.6747
    8TMC3     H13983   0.332   1.814  13.314  2.1138 -0.1077  0.4290
    8TMC3    H113984   0.243   1.764  12.899  1.6789  0.7586 -1.4514
    8TMC3    H213985   0.620   1.655  13.026 -0.3591 -0.5952  0.9291
    8TMC3    C713986   0.486   1.776  12.834  0.3322  0.4224  0.0444
    8TMC3    C813987   0.594   1.705  13.282 -0.0681  0.3656  0.5181
    8TMC3    O113988   0.591   1.730  12.791 -0.2424 -0.8157  0.8314
    8TMC3    O213989   0.702   1.665  13.243 -0.3992 -0.1929  0.3991
    9TMC3    C113990   0.122   2.670  12.830 -0.3289 -0.0521  0.6075
    9TMC3    C213991   0.225   2.594  12.781 -0.4429 -0.4462 -0.4350
    9TMC3    C313992   0.195   2.485  12.711  0.4666  0.3716 -0.7244
    9TMC3    C413993   4.729   2.633  12.828  0.2122 -0.4653 -0.1167
    9TMC3    C513994   4.706   2.507  12.773  1.1368  0.0742 -0.3449
    9TMC3    C613995   0.065   2.439  12.706  0.0127  0.0591  0.6194
    9TMC3     C13996   0.154   2.789  12.917  0.2648 -1.4214  0.1716
    9TMC3     O13997   0.263   2.793  12.968 -0.1911  1.0742  0.3583
    9TMC3     H13998   0.327   2.622  12.808 -1.2178  1.1964  0.8111
    9TMC3    H113999   4.647   2.680  12.880  2.6018 -0.3825  3.5820
    9TMC3    H214000   0.041   2.343  12.661 -0.4493  0.0814  0.8174
    9TMC3    C714001   4.618   2.415  12.845  0.2850 -0.3540  0.0435
    9TMC3    C814002   0.278   2.369  12.744 -0.3257  0.5328  0.8537
    9TMC3    O114003   4.506   2.455  12.865 -0.2446 -0.2143 -0.2493
    9TMC3    O214004   0.255   2.323  12.853 -0.1549  0.2445  0.2280
   10MPD2     C14005   0.551   1.970  12.610 -0.4081  0.1295  0.8795
   10MPD2    C114006   0.462   1.992  12.717 -0.1362  0.4810  0.5730
   10MPD2    C214007   0.399   2.110  12.731  0.0354 -0.2367 -0.5077
   10MPD2    C314008   0.424   2.210  12.641 -0.1310  0.0255 -0.1172
   10MPD2    C414009   0.506   2.188  12.534 -0.0844 -0.3874 -0.8643
   10MPD2    C514010   0.579   2.069  12.524  0.0239 -1.3925  0.6386
   10MPD2     H14011   0.328   2.118  12.812  0.9821  0.6418  0.2435
   10MPD2    H114012   0.529   2.265  12.462 -0.8095 -1.7140 -2.5334
   10MPD2    H214013   0.614   1.883  12.596  0.2422  1.0661 -2.0988
   10MPD2    H314014   0.647   2.048  12.442 -1.1799  0.6620 -0.8889
   10MPD2     N14015   0.359   2.335  12.647  0.2421 -0.5310  0.4026
   10MPD2    H514016   0.387   2.400  12.574 -2.8829  1.6767  1.1702
   10MPD2    N114017   0.429   1.902  12.810  0.1429  0.1182  0.6506
   10MPD2    H714018   0.362   1.934  12.879 -0.4107 -1.2297  0.7474
   11MPD2     C14019   1.827   1.219  13.838  0.2285 -0.1563  0.0476
   11MPD2    C114020   1.698   1.224  13.869 -0.1568 -0.4989  0.0578
   11MPD2    C214021   1.626   1.340  13.852 -0.7245 -0.3208 -0.2836
   11MPD2    C314022   1.678   1.444  13.778  0.0933 -0.3095 -0.2250
   11MPD2    C414023   1.818   1.440  13.751 -0.1770 -0.5703 -0.0513
   11MPD2    C514024   1.885   1.323  13.779  0.0757 -0.2522  0.2503
   11MPD2     H14025   1.520   1.341  13.876 -0.5596 -1.4523  0.4815
   11MPD2    H114026   1.866   1.521  13.698  2.7616 -1.3083  1.5042
   11MPD2    H214027   1.891   1.133  13.851 -1.3375 -1.4400 -0.7754
   11MPD2    H314028   1.985   1.307  13.740 -0.8859  1.0610 -2.7591
   11MPD2     N14029   1.602   1.548  13.731  0.5773  0.4463  0.2459
   11MPD2    H514030   1.651   1.610  13.666  2.8601 -3.6931 -1.9454
   11MPD2    N114031   1.635   1.123  13.943 -0.1855  0.1090 -0.4712
   11MPD2    H714032   1.538   1.127  13.974  0.1024  1.3523  0.2854
    1MPD1     C14033   4.286   2.921  17.148 -0.4570  0.8549  0.1359
    1MPD1    C114034   4.325   2.820  17.228 -0.3542  0.3063  0.3108
    1MPD1    C214035   4.225   2.781  17.311 -0.4797 -0.0044  0.1385
    1MPD1    C314036   4.091   2.813  17.296 -0.2190 -0.0887 -0.0026
    1MPD1    C414037   4.061   2.912  17.206  0.6357 -0.2607  0.3291
    1MPD1    C514038   4.161   2.968  17.136 -0.1953 -0.0524  0.5210
    1MPD1     H14039   4.253   2.706  17.384 -0.7047  3.8988  4.2841
    1MPD1    H114040   3.959   2.930  17.175  0.5460  1.1434  1.4372
    1MPD1    H214041   4.362   2.970  17.088 -0.7321 -0.8618 -1.5940
    1MPD1    H314042   4.150   3.045  17.060 -0.3218 -0.4114  0.1768
    1MPD1     N14043   3.979   2.752  17.373 -0.1370 -0.2415 -0.5330
    1MPD1    H514044   3.887   2.790  17.353 -0.9226 -2.3082 -0.9147
    1MPD1    N114045   4.458   2.779  17.251 -0.0690 -0.5154 -0.8496
    1MPD1    H614046   4.515   2.785  17.167  1.0742 -4.6165 -0.3944
    1MPD1    H714047   4.456   2.680  17.277  0.1458 -0.6182 -1.2239
    2MPD1     C14048   3.286   2.196  17.141  0.8531  0.3959 -0.1374
    2MPD1    C114049   3.411   2.138  17.156 -0.2285 -0.2273 -0.2413
    2MPD1    C214050   3.497   2.199  17.243  0.7267 -0.4616  0.5793
    2MPD1    C314051   3.468   2.323  17.297  0.3031 -0.7594 -0.1772
    2MPD1    C414052   3.353   2.388  17.261  0.0708 -0.0812  0.0343
    2MPD1    C514053   3.262   2.326  17.178  0.4700  0.0512 -0.4652
    2MPD1     H14054   3.595   2.156  17.260  0.6973 -0.2322  1.3347
    2MPD1    H114055   3.340   2.490  17.295 -0.7034 -0.0830 -0.2705
    2MPD1    H214056   3.206   2.152  17.082 -1.0138  0.1944  2.5674
    2MPD1    H314057   3.168   2.371  17.149  0.7523  0.7665 -0.2739
    2MPD1     N14058   3.558   2.375  17.391 -0.0989 -0.4079 -0.3606
    2MPD1    H514059   3.651   2.337  17.398 -1.0092 -2.6799 -0.7493
    2MPD1    N114060   3.444   2.017  17.093 -0.1585  0.6536  0.0423
    2MPD1    H614061   3.405   2.016  16.999 -1.3778  0.6050  0.5371
    2MPD1    H714062   3.543   1.996  17.090 -0.2615 -0.3927  3.1776
    3TMC3    C114063   3.660   2.524  17.537 -0.1445 -0.1968  0.2642
    3TMC3    C214064   3.664   2.516  17.671 -0.4182  0.0341 -0.1732
    3TMC3    C314065   3.780   2.561  17.734  0.3997  0.1249  0.3683
    3TMC3    C414066   3.766   2.573  17.467  0.1670 -0.3715  0.0282
    3TMC3    C514067   3.874   2.611  17.532 -0.4899  0.2362 -0.2725
    3TMC3    C614068   3.892   2.605  17.665  0.1098  0.4901  0.1513
    3TMC3     C14069   3.536   2.488  17.469  0.3471 -0.9930  0.9759
    3TMC3     O14070   3.432   2.551  17.489  0.9013  0.2467  0.2009
    3TMC3     H14071   3.572   2.501  17.727  0.1989  0.0191  0.8256
    3TMC3    H114072   3.755   2.598  17.362 -0.3893 -0.8835 -0.0345
    3TMC3    H214073   3.983   2.636  17.715 -0.5782  2.0210  0.4211
    3TMC3    C714074   3.999   2.649  17.466  0.0702 -0.9841 -0.0539
    3TMC3    C814075   3.795   2.551   0.127  0.5600 -0.4464  0.5532
    3TMC3    O114076   4.106   2.597  17.497  0.3040 -0.0631  0.8181
    3TMC3    O214077   3.903   2.586   0.175 -0.5829 -0.6108  0.1016
    4MPD1     C14078   3.708   2.339   0.580  0.3250 -0.7641  1.0673
    4MPD1    C114079   3.622   2.284   0.485 -0.0658  0.2745 -0.0668
    4MPD1    C214080   3.632   2.325   0.352  0.7432 -0.3913  0.1713
    4MPD1    C314081   3.706   2.432   0.323 -0.5288 -0.2640 -0.0092
    4MPD1    C414082   3.788   2.497   0.421 -0.2458  0.3875 -0.2265
    4MPD1    C514083   3.785   2.446   0.551 -0.1970  0.4713 -0.0814
    4MPD1     H14084   3.590   2.264   0.273 -1.0747  0.1159  0.7562
    4MPD1    H114085   3.861   2.571   0.388 -1.0453  0.0745 -2.7135
    4MPD1    H214086   3.705   2.295   0.680 -1.8407  0.1384  1.4106
    4MPD1    H314087   3.863   2.479   0.618 -0.1543 -0.2289  0.2113
    4MPD1     N14088   3.702   2.469   0.185  0.3801  0.0931 -0.1307
    4MPD1    H514089   3.637   2.417   0.128  1.2507  0.3400 -1.3439
    4MPD1    N114090   3.559   2.160   0.514  0.6471  0.0180 -0.3941
    4MPD1    H614091   3.545   2.161   0.615 -1.0378 -1.8757 -0.6051
    4MPD1    H714092   3.474   2.148   0.459 -0.4164  3.5655  0.4830
    1TCq1    O114093   0.777   2.154  11.107 -0.0717 -0.3130  0.3231
    1TCq1    C114094   0.722   2.037  11.144  0.2211 -0.6645 -0.2466
    1TCq1    O214095   0.648   1.969  11.079 -0.0732 -0.1109  0.1610
    1TCq1    C214096   0.735   2.019  11.285 -0.0216 -0.5601 -0.2650
    1TCq1    C314097   0.632   1.960  11.351 -0.3207  0.3411 -0.3572
    1TCq1    C414098   0.616   1.966  11.490 -0.2333  0.1669  0.3442
    1TCq1    C514099   0.729   1.991  11.560  0.0179 -0.4953 -0.4958
    1TCq1    C614100   0.841   2.047  11.491 -0.0435 -0.9736  0.4534
    1TCq1    C714101   0.845   2.068  11.351 -0.9659 -0.2170 -0.4684
    1TCq1    C814102   0.971   2.042  11.553  0.2955 -1.3522 -0.0816
    1TCq1    O414103   1.059   2.109  11.496  0.1271  0.6310 -0.8007
    1TCq1    C914104   0.530   1.884  11.566  0.0511  0.4315  0.5355
    1TCq1    O514105   0.525   1.895  11.691 -0.2626 -0.2171 -0.1125
    1TCq1    O614106   0.451   1.811  11.502 -0.0591  0.8354 -0.1243
    1TCq1    H114107   0.828   2.198  11.178  0.3680  0.3545 -0.4052
    1TCq1    H214108   0.545   1.925  11.296 -0.4423  2.0546 -1.2715
    1TCq1    H314109   0.730   1.982  11.668  0.1406  1.6343 -0.3141
    1TCq1    H414110   0.937   2.088  11.298 -1.0615  1.2930 -0.0514
    2MPD1     C14111   1.276   1.944  11.939  0.2917 -0.4416  0.3370
    2MPD1    C114112   1.158   1.885  11.963 -0.5009 -0.0206 -0.4770
    2MPD1    C214113   1.064   1.883  11.869  0.6287  0.6227 -0.0499
    2MPD1    C314114   1.078   1.959  11.756 -0.5725  0.4843 -0.0602
    2MPD1    C414115   1.190   2.029  11.735 -0.1031  0.2651 -0.4860
    2MPD1    C514116   1.291   2.015  11.829 -0.2073  0.2055 -0.0505
    2MPD1     H14117   0.976   1.821  11.881  1.3728  0.0471  2.2347
    2MPD1    H114118   1.212   2.087  11.647  0.0206  0.7504 -0.1381
    2MPD1    H214119   1.353   1.936  12.015  0.6652  0.1004  0.0164
    2MPD1    H314120   1.374   2.084  11.816  1.0068 -1.4794 -1.1310
    2MPD1     N14121   0.970   1.968  11.665  0.7415 -0.1512 -0.1752
    2MPD1    H514122   0.886   1.916  11.690 -0.3309  1.1672 -1.0295
    2MPD1    N114123   1.156   1.785  12.060 -0.4072 -0.0674  0.2995
    2MPD1    H614124   1.063   1.755  12.087 -0.5275  2.4330  2.6846
    2MPD1    H714125   1.204   1.821  12.143 -1.0639  1.4012  0.0486
    1TMC1    C114126   1.803   3.858   2.311 -0.2112 -0.3483  1.0611
    1TMC1    C214127   1.855   3.742   2.264  0.2230 -0.2350 -0.4136
    1TMC1    C314128   1.768   3.648   2.215  0.3550 -0.4052  0.1187
    1TMC1    C414129   1.669   3.890   2.289  0.4897 -0.2920 -0.0109
    1TMC1    C514130   1.598   3.791   2.228  0.2992  0.1666 -0.0432
    1TMC1    C614131   1.636   3.673   2.198 -0.5161 -0.4156 -0.0658
    1TMC1     C14132   1.890   3.959   2.357  0.5782  0.4726  0.5356
    1TMC1     O14133   1.843   4.073   2.361 -0.0259  0.2446  0.1342
    1TMC1     H14134   1.959   3.715   2.279  0.9731  2.3137 -0.9172
    1TMC1    H114135   1.618   3.979   2.324  1.1816 -0.5795  1.7321
    1TMC1    H214136   1.569   3.598   2.159  0.0108 -0.0822 -1.6318
    1TMC1    C714137   1.456   3.809   2.225  0.1248  0.5933 -1.1634
    1TMC1    C814138   1.821   3.510   2.193  0.1699  0.3967 -0.1469
    1TMC1    O114139   1.396   3.879   2.309 -0.2648 -0.7056 -0.2571
    1TMC1    O214140   1.805   3.437   2.094  0.1082 -0.6230 -0.4280
    1TMC1    O314141   1.401   3.766   2.112 -0.1548 -0.1959  0.7075
    1TMC1    H314142   1.465   3.742   2.041 -1.0455 -2.5240  0.7077
    1TMC1    O514143   1.930   3.491   2.264 -0.2655  0.0023  0.3222
    1TMC1    H514144   1.920   3.530   2.353 -0.5309 -0.4874  0.5060
    2MPD1     C14145   2.357   4.170   2.343  0.3079  0.3494  0.6829
    2MPD1    C114146   2.374   4.039   2.386 -0.2046 -0.0923 -0.4621
    2MPD1    C214147   2.260   3.962   2.387 -0.1230 -0.1331 -0.4787
    2MPD1    C314148   2.131   4.019   2.354 -0.2459 -0.9452  0.5421
    2MPD1    C414149   2.118   4.149   2.312 -0.1085  0.8926 -0.1253
    2MPD1    C514150   2.233   4.222   2.307  0.2223 -0.2435 -1.1795
    2MPD1     H14151   2.262   3.857   2.410  0.0369  0.3201  1.5530
    2MPD1    H114152   2.019   4.190   2.294 -0.2460  0.6532  0.0932
    2MPD1    H214153   2.441   4.236   2.327  2.9440 -3.4469 -1.2278
    2MPD1    H314154   2.238   4.326   2.274  0.9772 -0.5355 -1.9886
    2MPD1     N14155   2.023   3.929   2.369  0.3991  0.1689 -0.0941
    2MPD1    H514156   2.051   3.831   2.372  0.3377  0.1483 -0.1992
    2MPD1    N114157   2.504   3.987   2.408  0.0576  0.0600  0.2732
    2MPD1    H614158   2.563   4.058   2.451  0.3387 -0.7239  1.1861
    2MPD1    H714159   2.490   3.924   2.486 -3.8595 -2.2612 -2.3139
    1MPD1     C14160   1.886   3.704  12.575 -0.7184 -0.5263  0.1666
    1MPD1    C114161   1.922   3.686  12.444 -0.4805 -1.1036 -0.7749
    1MPD1    C214162   1.964   3.560  12.399 -0.4947 -0.4734 -0.5721
    1MPD1    C314163   1.958   3.455  12.485  0.2421 -0.1003 -0.1304
    1MPD1    C414164   1.925   3.473  12.619 -0.2069 -0.5769  0.0237
    1MPD1    C514165   1.892   3.601  12.656  0.9681  0.1251 -0.0796
    1MPD1     H14166   1.999   3.544  12.297  1.4650  1.4527 -0.2140
    1MPD1    H114167   1.950   3.400  12.695 -2.3436 -0.6875  0.6080
    1MPD1    H214168   1.862   3.802  12.614  0.4147  0.0748 -0.6385
    1MPD1    H314169   1.856   3.614  12.757 -0.8365 -0.4984 -0.6452
    1MPD1     N14170   2.002   3.327  12.435 -0.3765 -0.8994  0.3308
    1MPD1    H514171   2.034   3.329  12.338  1.3818 -0.2927  0.9328
    1MPD1    N114172   1.949   3.794  12.365 -0.4989  0.5376  0.2959
    1MPD1    H614173   1.927   3.768  12.269  1.1196 -2.4840  0.7215
    1MPD1    H714174   1.879   3.866  12.381 -2.1504 -1.3252  1.6432
    2MPD1     C14175   1.711   3.940  11.004 -0.3081 -0.1652 -0.6060
    2MPD1    C114176   1.628   3.830  11.023  0.5966  1.0798 -0.2411
    2MPD1    C214177   1.674   3.704  10.999  0.1264  0.3715 -0.2241
    2MPD1    C314178   1.798   3.679  10.944  0.0064 -0.7851 -0.1867
    2MPD1    C414179   1.878   3.792  10.913 -0.4016  0.0887 -0.2275
    2MPD1    C514180   1.838   3.918  10.949 -0.4569 -0.5142 -0.4636
    2MPD1     H14181   1.610   3.624  11.035  2.1612 -2.0353 -1.9873
    2MPD1    H114182   1.981   3.776  10.882 -0.5005  0.6288 -0.8347
    2MPD1    H214183   1.681   4.041  11.029  0.4673 -0.2681  0.7237
    2MPD1    H314184   1.907   4.001  10.935 -3.2803  1.9206  0.0589
    2MPD1     N14185   1.849   3.553  10.920  0.4085  0.0797  0.1643
    2MPD1    H514186   1.940   3.551  10.875  0.6120  0.1778  0.5719
    2MPD1    N114187   1.500   3.850  11.074  0.1889 -0.3019  0.5325
    2MPD1    H614188   1.459   3.935  11.035  0.3296 -2.0179 -3.3602
    2MPD1    H714189   1.431   3.776  11.063  0.8793 -0.9993  0.9735
    3MPD1     C14190   1.671   2.484  10.829 -0.2020 -0.4528 -0.3052
    3MPD1    C114191   1.714   2.567  10.731  0.1439  0.4262 -0.7605
    3MPD1    C214192   1.773   2.688  10.768  0.6592 -0.1414  0.1107
    3MPD1    C314193   1.746   2.738  10.899 -0.0326 -1.1774  0.9138
    3MPD1    C414194   1.694   2.648  10.989 -0.4868 -0.4907 -0.1359
    3MPD1    C514195   1.658   2.518  10.959  0.4001 -0.0346  0.0016
    3MPD1     H14196   1.813   2.754  10.692 -0.4146  1.0054  0.5452
    3MPD1    H114197   1.661   2.672  11.090  1.7129 -3.3362  1.2417
    3MPD1    H214198   1.623   2.392  10.802 -0.1447 -0.8151  0.8355
    3MPD1    H314199   1.594   2.464  11.027  0.6541  0.0878  0.3383
    3MPD1     N14200   1.770   2.870  10.933  0.3651 -0.5352  0.2441
    3MPD1    H514201   1.739   2.903  11.024  1.4101 -1.1844  0.8456
    3MPD1    N114202   1.750   2.512  10.608 -0.4546 -0.2231  0.3981
    3MPD1    H614203   1.759   2.578  10.531  2.3255 -0.9622  0.0884
    3MPD1    H714204   1.669   2.453  10.587 -1.4264  1.3867 -0.3721
    4MPD2     C14205   2.616   3.072  12.061  0.2894 -0.9749  0.0139
    4MPD2    C114206   2.532   2.970  12.116 -0.5482 -0.5017 -0.7302
    4MPD2    C214207   2.530   2.855  12.048  0.8974 -0.7755 -0.0201
    4MPD2    C314208   2.595   2.841  11.926 -0.1877 -0.0251 -0.8463
    4MPD2    C414209   2.669   2.944  11.872  0.1554 -0.5633  0.2582
    4MPD2    C514210   2.684   3.056  11.946 -0.6326 -0.0611  0.2200
    4MPD2     H14211   2.468   2.773  12.082 -0.0026  0.7025  1.8704
    4MPD2    H114212   2.704   2.942  11.769 -0.8452 -0.2914 -0.0897
    4MPD2    H214213   2.618   3.173  12.102 -0.6179 -0.8228 -0.3103
    4MPD2    H314214   2.740   3.137  11.900 -0.0990 -0.3137  0.4295
    4MPD2     N14215   2.571   2.715  11.864 -0.5316  0.5994 -0.1602
    4MPD2    H514216   2.497   2.662  11.909 -1.9603  1.2673 -1.7442
    4MPD2    N114217   2.450   2.987  12.234  0.4483  0.7233  0.3864
    4MPD2    H714218   2.402   2.904  12.266 -0.9515  1.2863 -0.2707
    5TMC3    C114219   2.312   3.076  12.401  0.4525 -0.2555 -0.1507
    5TMC3    C214220   2.199   3.159  12.390  0.1334  0.4228 -0.0287
    5TMC3    C314221   2.085   3.109  12.437  0.4167  0.8896 -0.2248
    5TMC3    C414222   2.312   2.943  12.446  0.2665  0.4139  0.8200
    5TMC3    C514223   2.187   2.895  12.462  0.5742  1.2825  0.6317
    5TMC3    C614224   2.075   2.980  12.476  0.9474  0.5109  0.2288
    5TMC3     C14225   2.414   3.105  12.296 -0.2291  0.9220 -0.6761
    5TMC3     O14226   2.431   3.215  12.243 -0.3284 -0.0887  0.3112
    5TMC3     H14227   2.205   3.242  12.319 -0.4891 -1.7766 -2.6654
    5TMC3    H114228   2.402   2.885  12.452  0.2736  0.1706 -1.4334
    5TMC3    H214229   1.975   2.945  12.501  0.2472  1.7606 -0.7685
    5TMC3    C714230   2.171   2.783  12.367  0.3404  0.4297 -0.4284
    5TMC3    C814231   1.997   3.209  12.495  0.2291  0.2438  1.0904
    5TMC3    O114232   2.270   2.731  12.320 -0.3434 -0.5275  0.2321
    5TMC3    O214233   1.950   3.188  12.609 -0.3233  0.0921 -0.4735
    6TMC3    C114234   1.866   3.311  10.930  1.0539  0.6423  0.0914
    6TMC3    C214235   1.796   3.204  10.897  0.3973 -0.0318 -0.6890
    6TMC3    C314236   1.845   3.085  10.932 -0.8317 -0.8157 -0.3860
    6TMC3    C414237   1.988   3.306  10.997 -0.1729  0.9231 -0.0324
    6TMC3    C514238   2.027   3.186  11.034 -0.1899 -0.3480 -0.1947
    6TMC3    C614239   1.963   3.070  11.001 -0.1879  0.4282  0.4202
    6TMC3     C14240   1.793   3.429  10.952  0.6091 -0.1310  1.1557
    6TMC3     O14241   1.686   3.400  11.004 -0.0898  0.0388  0.4903
    6TMC3     H14242   1.704   3.207  10.841 -0.4827  1.8762  0.8502
    6TMC3    H114243   2.033   3.399  11.029  0.0697  1.0404 -0.7092
    6TMC3    H214244   2.010   2.977  11.030 -1.4366 -0.6994 -1.2615
    6TMC3    C714245   2.150   3.188  11.116 -0.2224  0.4501 -0.3033
    6TMC3    C814246   1.819   2.972  10.855 -0.7377  0.3710  0.1648
    6TMC3    O114247   2.222   3.287  11.117 -0.5967  0.3702 -0.1734
    6TMC3    O214248   1.859   2.967  10.741  0.4744 -0.5075  0.1547
    7MPD2     C14249   1.935   2.492  12.014  1.1717  0.2267 -0.6814
    7MPD2    C114250   2.057   2.550  12.010  0.1421 -0.4764 -0.0710
    7MPD2    C214251   2.094   2.640  12.111  0.1367 -0.1864 -0.8505
    7MPD2    C314252   2.015   2.651  12.223  0.6400 -0.3249 -0.1877
    7MPD2    C414253   1.887   2.598  12.216  0.4019  0.7033 -0.0230
    7MPD2    C514254   1.844   2.520  12.108  0.1207 -0.0034  0.5526
    7MPD2     H14255   2.189   2.692  12.105  0.8528 -1.5784 -1.5299
    7MPD2    H114256   1.832   2.588  12.309 -1.3584  1.6475 -0.9718
    7MPD2    H214257   1.915   2.420  11.936  0.9924  0.2340 -0.6429
    7MPD2    H314258   1.742   2.483  12.103  0.0793  0.4150 -1.4563
    7MPD2     N14259   2.046   2.729  12.338  0.1742 -0.2282  0.4746
    7MPD2    H514260   1.965   2.762  12.390  0.3634 -0.3473  0.8396
    7MPD2    N114261   2.143   2.503  11.911  0.1693 -0.4718  0.1260
    7MPD2    H714262   2.102   2.445  11.838 -0.6180  1.0460 -0.6453
    8TMC3    C114263   2.344   2.468  11.787  0.5333 -0.2143 -0.0937
    8TMC3    C214264   2.285   2.501  11.664 -0.0102 -0.5673  0.4539
    8TMC3    C314265   2.369   2.553  11.577  0.6686  0.3878 -0.6285
    8TMC3    C414266   2.478   2.490  11.812  0.0142  0.1336  0.3440
    8TMC3    C514267   2.562   2.538  11.718 -0.4454  0.9818  0.0413
    8TMC3    C614268   2.507   2.566  11.596  0.4843  0.0508  0.8111
    8TMC3     C14269   2.276   2.520  11.910  0.0288  0.2649  0.6365
    8TMC3     O14270   2.345   2.591  11.977 -0.8321 -0.6767 -0.3807
    8TMC3     H14271   2.179   2.505  11.641  0.1196 -1.3600 -0.2780
    8TMC3    H114272   2.514   2.464  11.911  2.3400  2.4767  0.1340
    8TMC3    H214273   2.575   2.586  11.514  0.5276  0.8151  1.0324
    8TMC3    C714274   2.634   2.659  11.761  0.3630  0.0174 -0.7695
    8TMC3    C814275   2.303   2.664  11.496  0.3829  0.0563 -0.0749
    8TMC3    O114276   2.717   2.716  11.694 -0.1107 -0.0723  0.7998
    8TMC3    O214277   2.188   2.659  11.460  0.0112  0.3799  0.0527
    9MPD2     C14278   2.480   2.970  11.450 -0.9648  0.3215 -1.2498
    9MPD2    C114279   2.374   2.890  11.437 -0.4393  0.0454  0.4233
    9MPD2    C214280   2.270   2.926  11.356 -0.2256 -0.1590  0.4380
    9MPD2    C314281   2.268   3.043  11.283 -0.2367 -0.2147 -0.4056
    9MPD2    C414282   2.376   3.124  11.307  0.0384 -0.3870  0.0859
    9MPD2    C514283   2.470   3.095  11.396 -0.2269  0.1080 -0.6571
    9MPD2     H14284   2.188   2.856  11.339 -0.1976 -0.5497  1.9103
    9MPD2    H114285   2.385   3.219  11.255 -0.7723 -0.2817  0.1472
    9MPD2    H214286   2.560   2.942  11.516 -0.8790  1.7292 -0.7429
    9MPD2    H314287   2.555   3.161  11.409 -0.2938  0.1827 -0.5959
    9MPD2     N14288   2.154   3.072  11.197 -0.4937 -0.6641 -0.3704
    9MPD2    H514289   2.078   3.007  11.208 -1.0284 -0.1586 -1.0567
    9MPD2    N114290   2.389   2.766  11.493  0.2885 -0.2676 -0.2852
    9MPD2    H714291   2.480   2.741  11.532  0.3501 -2.5859 -1.8952
    1MPD1     C14292   2.653   1.518  16.466  0.4162 -0.2411 -0.5025
    1MPD1    C114293   2.675   1.566  16.593  0.4505  0.7489  0.1023
    1MPD1    C214294   2.576   1.638  16.659  0.1509  0.3877  0.0871
    1MPD1    C314295   2.453   1.651  16.593 -0.4276 -0.0356 -0.3045
    1MPD1    C414296   2.437   1.622  16.458  0.2463  0.5563  0.3383
    1MPD1    C514297   2.544   1.550  16.398  0.0481 -0.5180 -0.0839
    1MPD1     H14298   2.595   1.666  16.762  3.7791 -2.1690  0.1137
    1MPD1    H114299   2.353   1.653  16.397 -0.4148 -0.2962  0.8239
    1MPD1    H214300   2.727   1.470  16.403  1.0408  0.5805 -0.3955
    1MPD1    H314301   2.538   1.523  16.293 -1.8975 -0.0869 -0.0862
    1MPD1     N14302   2.340   1.705  16.655 -0.4691 -0.3271 -0.7777
    1MPD1    H514303   2.252   1.688  16.608 -1.2264  0.1668  0.4803
    1MPD1    N114304   2.791   1.525  16.655  0.0853  0.0959  0.2473
    1MPD1    H614305   2.860   1.518  16.580 -2.3510  0.0731 -1.9566
    1MPD1    H714306   2.834   1.590  16.721  0.5316 -1.3528  1.3837
    2TMC2    C114307   1.989   1.793  16.840 -0.5267  0.2075 -0.4818
    2TMC2    C214308   1.988   1.887  16.944 -0.0032  0.1805  0.1125
    2TMC2    C314309   2.103   1.939  16.988 -0.1236 -0.3770 -0.2892
    2TMC2    C414310   2.102   1.769  16.769  0.6870 -0.3094 -1.1607
    2TMC2    C514311   2.218   1.832  16.815  0.3777 -0.2054 -0.0613
    2TMC2    C614312   2.222   1.911  16.926  0.2709 -0.3143 -0.6508
    2TMC2     C14313   1.857   1.741  16.805  0.0374  0.0828 -0.0022
    2TMC2     O14314   1.759   1.780  16.872  0.5574 -0.1667 -0.3258
    2TMC2     H14315   1.901   1.910  17.004  0.2307 -0.8337  0.8449
    2TMC2    H114316   2.102   1.705  16.681  2.8624 -3.5140  1.1622
    2TMC2    H214317   2.318   1.937  16.969  1.0103 -1.1811 -1.7842
    2TMC2    C714318   2.346   1.795  16.755 -0.5229 -0.0861 -0.1044
    2TMC2    C814319   2.090   1.993  17.126  0.9089 -0.5703  0.5965
    2TMC2    O114320   2.445   1.843  16.802  0.8490 -0.9043  0.2137
    2TMC2    O214321   1.998   1.960  17.201  1.0657 -0.0530  0.3628
    2TMC2    O514322   2.180   2.092  17.145 -0.4907  0.4851  0.7434
    2TMC2    H514323   2.242   2.104  17.070 -1.1368  1.0995  0.3031
    3MPD1     C14324   1.529   1.522  16.460 -0.3638 -0.2348 -0.1030
    3MPD1    C114325   1.659   1.479  16.433 -0.4519  0.4862 -0.5187
    3MPD1    C214326   1.761   1.519  16.520  0.0987 -0.3565 -0.1943
    3MPD1    C314327   1.743   1.603  16.623  0.5116 -0.1478  0.1467
    3MPD1    C414328   1.612   1.652  16.643  0.0740 -0.0723  0.7079
    3MPD1    C514329   1.510   1.598  16.570  0.2304  0.4145 -0.0041
    3MPD1     H14330   1.858   1.475  16.501  0.6343  1.0088 -0.5943
    3MPD1    H114331   1.587   1.727  16.716 -0.9186 -1.6155  1.9633
    3MPD1    H214332   1.439   1.505  16.403 -0.2557 -1.6985  0.1585
    3MPD1    H314333   1.411   1.626  16.602 -1.4963 -2.6458 -2.6191
    3MPD1     N14334   1.856   1.645  16.701  0.1258  0.2374  0.2948
    3MPD1    H514335   1.947   1.608  16.675  0.1984 -0.3870  1.4304
    3MPD1    N114336   1.685   1.404  16.319 -0.1128 -0.2741 -0.1495
    3MPD1    H614337   1.764   1.343  16.343 -0.5956 -0.7161  0.3200
    3MPD1    H714338   1.607   1.345  16.292 -0.3352  0.1277 -0.3860
    1TMC1    C114339   0.744   0.836  14.127  1.1463 -0.3219  0.3096
    1TMC1    C214340   0.798   0.831  14.254 -0.0252  0.1304  0.7123
    1TMC1    C314341   0.725   0.873  14.357 -0.4457 -0.4757  0.3274
    1TMC1    C414342   0.611   0.870  14.107 -0.0911  0.6803  0.2596
    1TMC1    C514343   0.552   0.934  14.213 -0.4311 -0.5348 -0.6803
    1TMC1    C614344   0.609   0.943  14.336  0.2716 -0.2988 -0.2451
    1TMC1     C14345   0.834   0.819  14.016 -0.1807  0.0110 -0.2634
    1TMC1     O14346   0.951   0.842  14.036 -0.5811 -0.2339  0.3972
    1TMC1     H14347   0.897   0.787  14.263 -0.4476 -1.0695 -0.4530
    1TMC1    H114348   0.559   0.871  14.012 -1.1103 -2.4507  0.7849
    1TMC1    H214349   0.545   0.979  14.416  0.7532 -1.0865  0.4811
    1TMC1    C714350   0.411   0.918  14.211 -0.0897 -0.1504 -0.6099
    1TMC1    C814351   0.782   0.873  14.481 -0.0897 -0.3389  1.0238
    1TMC1    O114352   0.329   0.998  14.261  0.1675  0.0759 -0.1381
    1TMC1    O214353   0.902   0.874  14.500 -0.3556  0.1349  0.3506
    1TMC1    O314354   0.382   0.798  14.156 -0.3564  0.5039  0.1883
    1TMC1    H314355   0.465   0.749  14.136 -1.0765  0.4772 -2.6291
    1TMC1    O514356   0.694   0.824  14.575 -0.6086 -0.0907 -0.3678
    1TMC1    H514357   0.604   0.810  14.538 -0.7389 -1.1908  0.3437
    2MPD2     C14358   0.960   0.742  13.757  0.2427 -0.1340 -0.3570
    2MPD2    C114359   0.836   0.706  13.796 -0.3323  0.5316 -0.1556
    2MPD2    C214360   0.759   0.623  13.707 -0.4788 -0.5431 -0.4041
    2MPD2    C314361   0.811   0.575  13.589 -0.0592  0.1561 -0.3352
    2MPD2    C414362   0.941   0.601  13.555 -0.6423 -0.7827  0.1579
    2MPD2    C514363   1.013   0.681  13.642  0.4735  0.2849 -0.0696
    2MPD2     H14364   0.653   0.602  13.719 -0.7284 -0.7352 -2.7921
    2MPD2    H114365   0.995   0.568  13.468  1.7287  0.9379  0.9689
    2MPD2    H214366   1.019   0.817  13.809  0.2278 -1.3418  1.4044
    2MPD2    H314367   1.109   0.718  13.607  1.2516  0.0315  1.7982
    2MPD2     N14368   0.729   0.492  13.508  0.0097 -0.0447  0.3683
    2MPD2    H514369   0.628   0.494  13.521 -0.3355 -2.7277 -2.0276
    2MPD2    N114370   0.766   0.747  13.913  0.1574 -0.7961 -0.3487
    2MPD2    H714371   0.667   0.724  13.911 -0.7093  3.0404 -1.7935
    3TCq1    O114372   0.353   0.029  13.506  0.0965  0.0184  0.7798
    3TCq1    C114373   0.397   0.156  13.515  0.0003  0.4604 -0.0709
    3TCq1    O214374   0.347   0.247  13.585  0.2894  0.1730 -0.0320
    3TCq1    C214375   0.512   0.180  13.426  0.0605  0.0976  1.1955
    3TCq1    C314376   0.499   0.134  13.295  0.3076  0.2330  0.2010
    3TCq1    C414377   0.589   0.182  13.198 -0.5605 -0.4892 -0.8079
    3TCq1    C514378   0.680   0.284  13.228  0.0019  0.1098  0.1930
    3TCq1    C614379   0.663   0.347  13.350 -0.2616 -0.1418  0.2843
    3TCq1    C714380   0.581   0.296  13.450 -0.3850 -0.3311 -0.2278
    3TCq1    C814381   0.772   0.418  13.399 -0.8385  0.6329  0.2588
    3TCq1    O414382   0.880   0.399  13.348  0.2144 -0.4356 -0.0642
    3TCq1    C914383   0.594   0.121  13.070  0.2458 -0.1308 -0.2968
    3TCq1    O514384   0.516   0.019  13.064 -0.4529 -0.1898 -0.0938
    3TCq1    O614385   0.686   0.162  12.994  0.4546  0.5396  0.4271
    3TCq1    H114386   0.429   4.714  13.475 -1.5398 -1.7682 -0.1494
    3TCq1    H214387   0.437   0.049  13.268  0.1320  1.0426 -2.0000
    3TCq1    H314388   0.751   0.312  13.151 -0.2954 -1.5146 -0.6604
    3TCq1    H414389   0.582   0.325  13.554 -0.8779 -1.0337 -0.0261
    1MPD2     C14390   4.170   1.624  14.889  0.3930 -0.0294  0.6850
    1MPD2    C114391   4.100   1.539  14.806 -0.2303  0.3881 -0.0951
    1MPD2    C214392   4.072   1.411  14.843  0.3331  0.4591  0.1902
    1MPD2    C314393   4.108   1.369  14.970  0.5770 -0.0482 -0.2313
    1MPD2    C414394   4.165   1.461  15.058  0.4741 -0.2472 -0.1602
    1MPD2    C514395   4.193   1.588  15.019  0.3683  0.7090  0.2161
    1MPD2     H14396   4.029   1.337  14.775 -0.8735  1.3271  0.0075
    1MPD2    H114397   4.205   1.434  15.155  0.1037  1.3185  0.4211
    1MPD2    H214398   4.196   1.725  14.859 -0.4270 -0.4663 -1.5220
    1MPD2    H314399   4.240   1.648  15.096 -0.8857  2.0740 -0.0592
    1MPD2     N14400   4.091   1.237  15.013 -0.1666 -0.3317  0.1192
    1MPD2    H514401   4.142   1.218  15.098 -1.3936  1.7551  1.3257
    1MPD2    N114402   4.057   1.592  14.681  1.1027  0.0478 -0.0510
    1MPD2    H714403   4.081   1.689  14.660 -4.0521  1.1226 -0.9154
    2TMC3    C114404   3.927   1.591  14.482 -0.4999 -0.1491 -0.0004
    2TMC3    C214405   3.873   1.491  14.401 -0.3770 -0.5443  0.0637
    2TMC3    C314406   3.739   1.509  14.365  0.4391 -0.1927 -0.2738
    2TMC3    C414407   3.858   1.701  14.518 -0.0475  0.2790  0.0447
    2TMC3    C514408   3.726   1.702  14.502  0.8846 -0.2443 -0.4601
    2TMC3    C614409   3.663   1.608  14.418 -0.4052 -0.5700  0.1885
    2TMC3     C14410   4.004   1.522  14.580  0.8094 -0.0413 -0.0645
    2TMC3     O14411   4.006   1.400  14.560  0.6026  0.1857 -0.4228
    2TMC3     H14412   3.945   1.423  14.357 -0.3753  0.5999 -1.7022
    2TMC3    H114413   3.904   1.785  14.569  0.6264 -1.5129  2.3533
    2TMC3    H214414   3.556   1.598  14.407 -0.3170 -2.1788  0.7535
    2TMC3    C714415   3.628   1.796  14.564  0.3938  0.5070 -0.5724
    2TMC3    C814416   3.677   1.375  14.373 -0.0497  0.6255 -0.5183
    2TMC3    O114417   3.514   1.798  14.513 -0.4603 -0.3629 -0.1921
    2TMC3    O214418   3.549   1.368  14.361  0.0234  0.2439 -0.1328
    3TCq1    O114419   3.685   2.656  15.471  0.1158  0.4072 -0.1786
    3TCq1    C114420   3.730   2.536  15.514  0.7906  0.0189  0.3477
    3TCq1    O214421   3.760   2.508  15.630  0.4884  0.5990  0.1284
    3TCq1    C214422   3.768   2.454  15.403 -0.2611  0.3832 -0.7684
    3TCq1    C314423   3.887   2.387  15.411 -0.5165 -0.3208  0.0656
    3TCq1    C414424   3.930   2.310  15.305  0.1808 -0.2027  0.0133
    3TCq1    C514425   3.856   2.304  15.190  0.3513 -0.5249 -0.1046
    3TCq1    C614426   3.729   2.363  15.187 -0.6489 -1.5037 -0.0396
    3TCq1    C714427   3.685   2.440  15.297 -0.1571 -0.1188  0.7166
    3TCq1    C814428   3.620   2.309  15.103  0.1857 -0.3734  0.2402
    3TCq1    O414429   3.524   2.378  15.080  0.0733 -0.4433  0.4736
    3TCq1    C914430   4.064   2.258  15.308  0.1291  0.2324  0.2142
    3TCq1    O514431   4.096   2.187  15.208 -0.2532  0.0420 -0.0759
    3TCq1    O614432   4.136   2.291  15.398 -0.0617  0.4539  0.3946
    3TCq1    H114433   3.665   2.675  15.377  3.1438 -0.9885 -1.0837
    3TCq1    H214434   3.955   2.400  15.496  0.8829  0.5706 -1.1760
    3TCq1    H314435   3.908   2.254  15.109  0.0849  0.3647 -0.8293
    3TCq1    H414436   3.587   2.485  15.284 -0.0834 -0.0084  0.5376
    4MPD2     C14437   3.472   2.178  14.879  0.0734 -0.1326 -0.1589
    4MPD2    C114438   3.591   2.126  14.932  0.4261 -0.3157 -0.2902
    4MPD2    C214439   3.652   2.022  14.864  0.0895 -0.2100  0.1859
    4MPD2    C314440   3.603   1.964  14.748 -0.5554  0.1272  0.3737
    4MPD2    C414441   3.479   2.018  14.704 -0.1283 -0.7620 -0.3934
    4MPD2    C514442   3.409   2.113  14.775  0.4853 -0.6986 -0.2350
    4MPD2     H14443   3.741   1.976  14.905  1.6105  2.4485 -0.1684
    4MPD2    H114444   3.422   1.973  14.624 -0.9113  0.2484 -0.4034
    4MPD2    H214445   3.422   2.259  14.931  1.6403  0.7501 -0.0200
    4MPD2    H314446   3.306   2.136  14.751 -0.0059 -1.5100  1.1031
    4MPD2     N14447   3.676   1.861  14.684 -0.3156 -0.0787  0.2292
    4MPD2    H514448   3.770   1.838  14.716  0.2239  1.0228 -0.5381
    4MPD2    N114449   3.649   2.182  15.050  0.2523 -0.3402  0.5197
    4MPD2    H714450   3.735   2.136  15.080  0.1621  0.3140  1.8034
    5TMC2    C114451   3.925   0.834  14.907 -0.6836 -0.7157  0.6087
    5TMC2    C214452   3.862   0.817  15.029  0.3420 -0.1215 -0.1566
    5TMC2    C314453   3.899   0.890  15.143  0.3993  0.7012  0.6573
    5TMC2    C414454   4.036   0.919  14.903 -0.3066  0.3611 -0.7471
    5TMC2    C514455   4.056   1.009  15.002 -0.2068 -0.5933  0.0390
    5TMC2    C614456   3.992   0.991  15.123  0.6831  0.4206  0.2525
    5TMC2     C14457   3.842   0.810  14.789 -0.2246 -0.6132 -0.3723
    5TMC2     O14458   3.750   0.726  14.792 -0.0719 -0.0834 -0.0704
    5TMC2     H14459   3.775   0.753  15.027 -1.2554  2.0813 -0.9240
    5TMC2    H114460   4.085   0.950  14.811  0.2000  0.6465 -0.3857
    5TMC2    H214461   4.014   1.056  15.207  0.0444  0.1822  0.6029
    5TMC2    C714462   4.038   1.138  14.942  0.6930  0.6526 -0.6368
    5TMC2    C814463   3.826   0.858  15.266 -0.4391  0.2736 -0.0913
    5TMC2    O114464   3.974   1.142  14.843  0.1157  0.0294 -0.7102
    5TMC2    O214465   3.710   0.813  15.257 -0.3673  0.1382  0.1604
    5TMC2    O514466   3.858   0.945  15.366  0.2893  0.1968 -0.5422
    5TMC2    H514467   3.954   0.931  15.383  0.0768  0.5806  0.9638
    6MPD2     C14468   3.620   1.079  14.420 -0.5150  0.0183  0.1570
    6MPD2    C114469   3.729   1.155  14.471  0.0243  0.3212  0.0219
    6MPD2    C214470   3.807   1.096  14.563 -0.0382 -0.2996 -0.0694
    6MPD2    C314471   3.777   0.970  14.612  0.3875 -0.2118  0.6415
    6MPD2    C414472   3.675   0.892  14.563 -0.1029 -0.5807  0.3829
    6MPD2    C514473   3.592   0.952  14.464 -0.5198  0.5030  0.4110
    6MPD2     H14474   3.885   1.157  14.607 -1.5534  0.7792  1.1334
    6MPD2    H114475   3.654   0.794  14.604  0.4679 -0.9540 -0.2275
    6MPD2    H214476   3.560   1.119  14.340 -1.5393  0.2186  1.0266
    6MPD2    H314477   3.511   0.892  14.423 -0.3435  0.1963  0.5163
    6MPD2     N14478   3.858   0.925  14.719  0.0463  0.2990 -0.2572
    6MPD2    H514479   3.930   0.988  14.753 -0.7317  0.2855  1.3624
    6MPD2    N114480   3.761   1.290  14.441  0.4119 -1.3247  0.2093
    6MPD2    H714481   3.854   1.322  14.466  0.7269 -0.2894 -2.2837
  945NH3     N114482   4.576   0.450  15.112  0.3656  0.1860 -0.3016
  945NH3     H214483   4.608   0.447  15.016  2.7483  0.3879  0.4975
  945NH3     H314484   4.502   0.381  15.115  1.7430 -1.2240  0.9016
  945NH3     H414485   4.536   0.543  15.115  2.3060  0.9924  0.2744
  946SOD     NA14486   1.024   1.002   6.942  0.0862 -0.0220 -0.4024
  947SOD     NA14487   0.362   1.636  11.567  0.3215  0.1074  0.2589
  948SOD     NA14488   1.121   0.047  13.091 -0.0020 -0.5919  0.5792
  949SOD     NA14489   1.450   0.495   6.886 -0.0658 -0.1445  0.1810
  950SOD     NA14490   4.654   0.703  17.694 -0.2079  0.0525 -0.0033
  951SOD     NA14491   0.510   0.472   7.580  0.0509  0.3779 -0.1648
  952SOD     NA14492   3.405   0.375  14.020 -0.2341 -0.2390 -0.3910
  953SOD     NA14493   4.334   2.385  15.420 -0.0245  0.0566  0.0890
  954SOL     OW14494   1.354   2.237   3.432 -0.2196  0.0052 -0.0119
  954SOL    HW114495   1.423   2.194   3.382  0.4212  0.6603  0.3048
  954SOL    HW214496   1.313   2.288   3.363 -2.2976 -3.2411 -1.1681
  955SOL     OW14497   0.165   0.977   1.898 -0.4889  0.1192 -0.1989
  955SOL    HW114498   0.211   1.049   1.856 -1.3080 -0.7057 -2.5283
  955SOL    HW214499   0.185   0.985   1.992 -1.6579  0.6515  0.0042
  956SOL     OW14500   1.503   2.443   2.929 -0.3713 -0.1923 -0.3854
  956SOL    HW114501   1.478   2.356   2.897  0.7908  0.4932 -3.2056
  956SOL    HW214502   1.536   2.478   2.846 -1.0569 -0.1189 -0.6215
  957SOL     OW14503   4.492   0.716   8.091  0.6207 -0.3609 -0.4194
  957SOL    HW114504   4.505   0.715   7.996  0.9242 -0.5854 -0.3767
  957SOL    HW214505   4.552   0.783   8.122 -0.6187  0.3125  0.5186
  958SOL     OW14506   2.238   1.779   2.011  0.8823 -0.0457 -0.5237
  958SOL    HW114507   2.305   1.714   2.031  0.0531 -0.8478 -0.3890
  958SOL    HW214508   2.293   1.852   1.982 -0.4409  0.0592 -2.6900
  959SOL     OW14509   0.038   2.957   7.621 -0.4201 -1.0582  0.5893
  959SOL    HW114510   4.726   3.010   7.683 -0.7342  0.1646 -0.7083
  959SOL    HW214511   0.002   2.869   7.635 -0.7388 -1.0614 -0.2629
  960SOL     OW14512   2.635   4.695   8.057 -0.6425  0.3800 -0.6577
  960SOL    HW114513   2.654   4.602   8.062  0.8241  0.8596  2.7986
  960SOL    HW214514   2.561   4.711   8.116  0.4062  1.2090  0.4248
  961SOL     OW14515   2.614   3.200   2.887  0.2374  0.1584  0.1751
  961SOL    HW114516   2.635   3.168   2.974  1.0756  0.0289 -0.0770
  961SOL    HW214517   2.677   3.151   2.835 -1.5767 -1.5896 -0.3933
  962SOL     OW14518   1.132   4.682  13.484  0.1330  0.1229 -0.4669
  962SOL    HW114519   1.219   4.686  13.522  0.0750 -0.3679 -0.2806
  962SOL    HW214520   1.125   0.028  13.441 -0.5111  0.7505  0.8707
  963SOL     OW14521   3.698   3.244   4.781 -0.4995 -0.1914 -0.5835
  963SOL    HW114522   3.634   3.199   4.836  0.5532 -2.4049 -1.1692
  963SOL    HW214523   3.721   3.319   4.835  2.3275  0.1690 -2.3144
  964SOL     OW14524   1.916   4.464   6.525 -0.1085  0.0971  0.2360
  964SOL    HW114525   1.992   4.521   6.538  1.4563 -1.7201 -1.0137
  964SOL    HW214526   1.961   4.381   6.509 -2.0136 -0.5303 -1.7958
  965SOL     OW14527   3.835   1.943   2.209 -0.4467  0.2012 -0.1488
  965SOL    HW114528   3.879   2.013   2.258 -1.7210 -0.0505  1.3646
  965SOL    HW214529   3.762   1.921   2.267 -1.7388 -0.6458 -2.1165
  966SOL     OW14530   3.140   0.850   4.280 -0.0771  0.4530 -0.3399
  966SOL    HW114531   3.166   0.810   4.197  0.6774  2.9952 -1.3212
  966SOL    HW214532   3.225   0.891   4.291  0.0615 -0.3339  1.5349
  967SOL     OW14533   2.260   3.027   8.262  0.2859 -0.1103 -0.5237
  967SOL    HW114534   2.199   3.080   8.314  0.6561 -1.4396  1.2757
  967SOL    HW214535   2.239   2.942   8.302  0.4965 -0.1490 -0.4982
  968SOL     OW14536   3.050   2.244   6.797 -0.2115  0.2447 -0.6212
  968SOL    HW114537   3.063   2.330   6.836  1.7268 -0.8760  1.1561
  968SOL    HW214538   2.966   2.216   6.834 -0.4330  3.0244  0.9522
  969SOL     OW14539   4.675   1.766   0.402 -0.2217 -0.0370  0.0567
  969SOL    HW114540   4.739   1.695   0.396 -0.4049  0.0065 -2.3008
  969SOL    HW214541   4.632   1.742   0.484  0.0082  0.1706  0.2402
  970SOL     OW14542   2.068   1.711   9.188 -0.2653 -0.3064 -0.7002
  970SOL    HW114543   2.069   1.807   9.182 -0.9131 -0.3552 -1.5271
  970SOL    HW214544   2.025   1.693   9.272  0.0709 -2.3563 -0.9678
  971SOL     OW14545   0.390   2.202   4.722 -0.1746  0.6459 -0.4506
  971SOL    HW114546   0.391   2.158   4.637  0.6471  0.3583 -0.2941
  971SOL    HW214547   0.439   2.142   4.779 -2.6335 -1.6404 -0.7520
  972SOL     OW14548   2.828   0.174  11.098  0.1922 -0.4284  0.1461
  972SOL    HW114549   2.898   0.194  11.160  0.8567 -0.7814 -0.4841
  972SOL    HW214550   2.874   0.192  11.016  3.0050 -3.9906  0.9251
  973SOL     OW14551   1.302   0.215   6.835  0.1885  0.0113  0.2211
  973SOL    HW114552   1.221   0.165   6.849  0.5609 -0.0553  2.1253
  973SOL    HW214553   1.350   0.144   6.791  1.5153 -0.0013  1.6986
  974SOL     OW14554   2.313   0.779   2.576 -0.0132  0.5804 -0.3000
  974SOL    HW114555   2.316   0.708   2.512  0.3138 -1.1831  1.6770
  974SOL    HW214556   2.336   0.851   2.517 -0.0850 -0.4395 -1.5620
  975SOL     OW14557   4.529   0.228   0.070 -0.6544  0.3262 -0.4892
  975SOL    HW114558   4.503   0.164   0.004 -0.1149 -0.3869 -0.0200
  975SOL    HW214559   4.597   0.270   0.018  1.1813  0.0022  1.6209
  976SOL     OW14560   3.563   2.464   8.655  0.0122 -0.4580 -0.6562
  976SOL    HW114561   3.544   2.552   8.623 -1.4926 -0.0690  1.3011
  976SOL    HW214562   3.657   2.469   8.673 -0.2410 -0.0727  0.5721
  977SOL     OW14563   2.978   1.033  12.139  0.0187  1.1752  0.2270
  977SOL    HW114564   2.887   1.014  12.162 -0.1385  0.3090 -1.1198
  977SOL    HW214565   2.963   1.076  12.055  3.5431  0.4342 -0.7760
  978SOL     OW14566   0.041   4.427   0.397  0.3925  0.0311  0.4659
  978SOL    HW114567   0.055   4.355   0.458  2.1390  0.1818  0.2380
  978SOL    HW214568   0.013   4.497   0.456  1.0379  0.7450 -0.0677
  979SOL     OW14569   2.620   1.473   4.473 -0.1282  0.2896  0.1880
  979SOL    HW114570   2.669   1.550   4.500 -3.1023  2.8396 -1.5840
  979SOL    HW214571   2.538   1.477   4.522 -0.1667 -2.7854  0.3622
  980SOL     OW14572   0.838   1.532   4.725  0.5786  0.2693  0.0783
  980SOL    HW114573   0.863   1.623   4.710 -0.7900  0.6711  0.2177
  980SOL    HW214574   0.783   1.534   4.804  1.3004 -0.0604  0.5888
  981SOL     OW14575   0.661   0.384   0.138  0.1548 -0.2527 -0.5895
  981SOL    HW114576   0.707   0.301   0.128  0.4531 -0.1971  0.2551
  981SOL    HW214577   0.728   0.448   0.112  2.3256 -2.4270 -0.3869
  982SOL     OW14578   0.460   4.678   3.667 -0.6262  0.0864  0.1481
  982SOL    HW114579   0.513   4.688   3.746 -0.1085 -0.5389 -0.1140
  982SOL    HW214580   0.466   0.030   3.637 -0.0917 -0.5397 -1.6762
  983SOL     OW14581   3.783   0.042   8.805  0.3779 -0.1790 -0.4313
  983SOL    HW114582   3.699   0.080   8.830 -0.4315 -0.4461 -2.8350
  983SOL    HW214583   3.830   0.034   8.888 -1.4758  1.5997  0.7925
  984SOL     OW14584   2.717   0.935  12.154  0.1332  0.0296 -0.0950
  984SOL    HW114585   2.633   0.978  12.138 -0.2210 -0.7964 -0.4194
  984SOL    HW214586   2.705   0.850  12.111 -0.0002 -0.8850  1.7855
  985SOL     OW14587   3.932   1.905   1.568  0.5097 -0.2722  0.0281
  985SOL    HW114588   3.865   1.907   1.500 -1.1719 -1.1520  1.6248
  985SOL    HW214589   3.959   1.814   1.557 -0.0771 -0.8117  2.8812
  986SOL     OW14590   0.872   2.425   3.547  0.2500  0.6416  0.3654
  986SOL    HW114591   0.890   2.476   3.469  2.2943  0.9538  1.0461
  986SOL    HW214592   0.948   2.460   3.593  1.4989 -0.5788 -0.7828
  987SOL     OW14593   0.600   1.098  17.378 -0.4050 -0.0352 -0.4868
  987SOL    HW114594   0.674   1.038  17.382 -1.4061 -1.2694 -0.5217
  987SOL    HW214595   0.530   1.036  17.397 -1.3151  0.7645 -1.2238
  988SOL     OW14596   4.013   1.098   0.332 -0.7451 -0.3124 -0.4429
  988SOL    HW114597   4.070   1.110   0.257 -3.5978 -0.2252 -2.5806
  988SOL    HW214598   4.020   1.003   0.344 -0.1026 -0.3153 -0.8548
  989SOL     OW14599   4.401   1.089   4.527 -0.2327 -0.5758 -0.0531
  989SOL    HW114600   4.331   1.146   4.560  0.6142  1.1209 -1.1946
  989SOL    HW214601   4.482   1.141   4.532  0.2292 -1.3255  0.1854
  990SOL     OW14602   3.441   0.962  11.047  0.1248  0.3669  0.4728
  990SOL    HW114603   3.494   1.007  10.982  1.1175  1.0250  1.7391
  990SOL    HW214604   3.492   0.980  11.126  1.2069 -0.1282 -0.1208
  991SOL     OW14605   0.102   4.564   8.298 -0.3198 -0.4761  0.1241
  991SOL    HW114606   0.180   4.533   8.252  1.3386 -0.2056  2.7522
  991SOL    HW214607   0.055   4.609   8.229  1.7836  1.8595  0.2156
  992SOL     OW14608   0.796   4.404   4.335  0.6836 -0.4028 -0.4769
  992SOL    HW114609   0.873   4.348   4.341  2.1407  1.7300  0.6998
  992SOL    HW214610   0.797   4.433   4.426 -0.5974 -0.1721 -0.5288
  993SOL     OW14611   2.975   2.642   6.104 -0.2450  0.0236  0.3721
  993SOL    HW114612   2.958   2.619   6.195  0.5293  1.0907  0.7829
  993SOL    HW214613   3.064   2.610   6.093 -0.3453 -0.8572  2.2816
  994SOL     OW14614   2.256   0.037  16.986 -0.7365 -0.4813 -0.8372
  994SOL    HW114615   2.272   0.089  16.908  0.7528 -1.4111 -1.1626
  994SOL    HW214616   2.229   0.102  17.050  2.3326 -0.5312  0.5327
  995SOL     OW14617   4.440   1.901   0.254  0.3249  0.2333 -0.0305
  995SOL    HW114618   4.513   1.863   0.303 -0.6837 -0.8443  0.6241
  995SOL    HW214619   4.474   1.987   0.229 -1.8301  0.9299 -0.5555
  996SOL     OW14620   0.460   1.286   6.469  0.1657  0.3077  0.1339
  996SOL    HW114621   0.396   1.325   6.410  1.1603 -0.6615 -1.5796
  996SOL    HW214622   0.405   1.260   6.543 -0.4564 -0.1977 -0.4998
  997SOL     OW14623   3.584   3.497   9.600  0.4294  0.6163  0.5974
  997SOL    HW114624   3.514   3.452   9.553 -0.0456 -0.2823  2.1485
  997SOL    HW214625   3.526   3.542   9.662  0.6151 -1.0795  1.9895
  998SOL     OW14626   1.942   1.438   8.216 -0.4685 -0.3470  0.5052
  998SOL    HW114627   1.951   1.353   8.260 -3.1070 -0.2856  1.1742
  998SOL    HW214628   1.950   1.510   8.279  0.8680 -0.8755  0.9446
  999SOL     OW14629   2.014   0.493   8.099 -0.5058 -0.0638 -0.6792
  999SOL    HW114630   1.955   0.521   8.170 -1.0329 -0.9242 -0.7822
  999SOL    HW214631   1.961   0.464   8.025 -0.5433 -2.1558  0.1849
 1000SOL     OW14632   0.904   2.127  16.260  0.7091  0.2402  0.0271
 1000SOL    HW114633   0.811   2.105  16.256  0.3174  1.4337  2.9397
 1000SOL    HW214634   0.897   2.219  16.235  0.0558  0.0574 -0.4447
 1001SOL     OW14635   3.334   2.385  15.285  0.0756  0.5247 -0.7881
 1001SOL    HW114636   3.408   2.369  15.226 -0.0755 -1.5507 -0.3921
 1001SOL    HW214637   3.299   2.298  15.304 -0.7055  0.9341 -0.3248
 1002SOL     OW14638   2.483   1.143   8.745  0.5251  0.2125  0.0064
 1002SOL    HW114639   2.450   1.231   8.763 -0.4271 -0.0999 -0.2021
 1002SOL    HW214640   2.411   1.083   8.766 -1.8190  3.7108  1.8917
 1003SOL     OW14641   4.234   1.454   5.187  0.0031 -0.0676  0.0187
 1003SOL    HW114642   4.161   1.438   5.127 -0.9676 -0.3044  1.2617
 1003SOL    HW214643   4.302   1.485   5.127 -1.4266  0.9670 -1.0969
 1004SOL     OW14644   2.958   4.312   3.342  0.2138  0.0992 -0.2027
 1004SOL    HW114645   2.974   4.383   3.279 -0.4412  0.7936  0.4187
 1004SOL    HW214646   3.043   4.315   3.386  0.3642  0.5795 -0.5152
 1005SOL     OW14647   1.198   3.339   5.065 -0.2817 -0.3125  0.3311
 1005SOL    HW114648   1.269   3.277   5.049  0.5126  1.3269 -2.4888
 1005SOL    HW214649   1.125   3.284   5.095 -0.2839 -0.5491 -0.1111
 1006SOL     OW14650   0.261   3.465   4.363 -0.5271 -0.3813  0.1196
 1006SOL    HW114651   0.291   3.382   4.401  1.1158  0.8102  1.4104
 1006SOL    HW214652   0.297   3.447   4.276 -1.6007  0.3170 -0.4693
 1007SOL     OW14653   1.241   3.135   4.125  0.4584 -0.5329  0.5778
 1007SOL    HW114654   1.291   3.053   4.129  1.0304 -0.1517  1.2549
 1007SOL    HW214655   1.175   3.121   4.193 -2.4862  1.8387 -1.8348
 1008SOL     OW14656   1.097   3.121   5.220  0.0413 -0.0068 -0.0194
 1008SOL    HW114657   1.030   3.068   5.179  0.5945  0.9496 -2.1397
 1008SOL    HW214658   1.131   3.044   5.267 -1.0138 -0.6543 -0.3263
 1009SOL     OW14659   3.816   4.151  14.628  0.4673 -0.3688  0.0867
 1009SOL    HW114660   3.749   4.090  14.661 -0.6643  1.0633  0.4434
 1009SOL    HW214661   3.898   4.110  14.655  0.3965 -0.9352 -0.5637
 1010SOL     OW14662   1.847   1.462   1.184  0.2377 -0.1816 -0.4738
 1010SOL    HW114663   1.771   1.414   1.216  1.7332 -1.5575  0.9745
 1010SOL    HW214664   1.912   1.450   1.253  0.2249  1.2899 -0.1965
 1011SOL     OW14665   1.912   3.864   9.180  0.3260  0.3522  0.5923
 1011SOL    HW114666   1.865   3.842   9.261 -1.3213  1.3845 -0.0800
 1011SOL    HW214667   1.932   3.957   9.195  0.4688  0.2158  1.2439
 1012SOL     OW14668   4.447   3.727   6.164 -0.0110 -0.4854  0.6923
 1012SOL    HW114669   4.536   3.759   6.179  0.0725 -0.0556 -0.7276
 1012SOL    HW214670   4.432   3.663   6.234 -1.3556 -1.1517 -0.2208
 1013SOL     OW14671   0.167   4.724   0.296  0.6145  0.0618 -0.5235
 1013SOL    HW114672   0.207   4.694   0.378  0.7427  0.8820 -0.2853
 1013SOL    HW214673   0.148   4.639   0.257  3.6920 -0.3985 -1.0269
 1014SOL     OW14674   3.428   0.949  10.039  0.5086 -0.2230 -0.4222
 1014SOL    HW114675   3.454   0.882  10.103  0.8822  1.1836  0.9145
 1014SOL    HW214676   3.355   0.982  10.091  2.4444  0.9425  1.5684
 1015SOL     OW14677   3.030   0.686   0.885  0.0588 -0.2498 -0.3381
 1015SOL    HW114678   3.067   0.774   0.877 -0.6977  0.0082 -0.9665
 1015SOL    HW214679   2.951   0.700   0.834 -1.2032  1.5161  2.0675
 1016SOL     OW14680   1.370   4.724   9.707 -0.5668 -0.2428 -0.3868
 1016SOL    HW114681   1.429   4.650   9.720  0.5049  0.3534 -1.7596
 1016SOL    HW214682   1.419   0.047   9.760 -0.5326 -0.0771 -0.6116
 1017SOL     OW14683   3.608   2.323   9.320  0.2336  0.3868 -0.2685
 1017SOL    HW114684   3.628   2.249   9.263 -1.0900 -0.3373  0.2213
 1017SOL    HW214685   3.559   2.286   9.393 -0.3966  2.3649  0.3250
 1018SOL     OW14686   1.609   2.792  13.679  0.4776  0.1161 -0.1242
 1018SOL    HW114687   1.610   2.874  13.629 -0.5251 -0.0307 -0.3687
 1018SOL    HW214688   1.516   2.771  13.675  0.6063 -0.2419 -1.4076
 1019SOL     OW14689   3.764   3.427   2.838  0.3090 -0.4813  0.4980
 1019SOL    HW114690   3.763   3.332   2.822  2.7264 -0.1766 -1.5167
 1019SOL    HW214691   3.673   3.453   2.824  0.2282  0.3183  2.5448
 1020SOL     OW14692   4.017   3.451   2.673 -0.6650  0.0092  0.3667
 1020SOL    HW114693   3.957   3.390   2.630  0.9351 -0.5273 -1.0969
 1020SOL    HW214694   3.956   3.469   2.745 -2.0911  1.1354 -1.1167
 1021SOL     OW14695   1.194   1.808   3.941  0.2194 -0.0101  0.4239
 1021SOL    HW114696   1.139   1.732   3.923  0.5248 -0.2487  0.4896
 1021SOL    HW214697   1.277   1.769   3.916 -0.2295 -0.7284  0.0691
 1022SOL     OW14698   0.934   1.777  16.819 -1.0023 -0.1944 -0.1672
 1022SOL    HW114699   0.978   1.765  16.735  1.4511  0.2534  1.0586
 1022SOL    HW214700   0.869   1.847  16.809 -0.4213  0.4263  0.3822
 1023SOL     OW14701   3.886   0.828   1.922  0.5238  0.1020  0.1038
 1023SOL    HW114702   3.908   0.921   1.908 -0.8972  0.7576  2.2494
 1023SOL    HW214703   3.797   0.832   1.886  0.5146 -0.8078  0.0417
 1024SOL     OW14704   4.225   4.180  12.561 -0.0963  0.0590  0.1443
 1024SOL    HW114705   4.223   4.260  12.509  0.3281  0.0386  0.0959
 1024SOL    HW214706   4.194   4.214  12.645 -0.4553 -0.9668  0.4278
 1025SOL     OW14707   2.533   3.195   1.074  0.1238 -0.1413  0.3180
 1025SOL    HW114708   2.520   3.237   0.989 -0.0072  0.0817  0.4461
 1025SOL    HW214709   2.445   3.167   1.097  0.0365  0.0146  0.1803
 1026SOL     OW14710   4.559   3.978   2.589  0.0936 -0.3734 -0.0082
 1026SOL    HW114711   4.561   3.998   2.683 -0.1641 -1.5364  0.2449
 1026SOL    HW214712   4.527   3.888   2.594 -1.1120 -0.0944 -2.6139
 1027SOL     OW14713   2.556   2.386   2.361  0.0365 -0.2659  0.5030
 1027SOL    HW114714   2.638   2.364   2.316  0.1973  0.1233  0.6043
 1027SOL    HW214715   2.492   2.319   2.339  0.0328  0.0534 -0.4825
 1028SOL     OW14716   1.560   1.090   2.390  0.2351  0.5443  0.0099
 1028SOL    HW114717   1.596   1.130   2.311  2.3067  0.1818  0.7669
 1028SOL    HW214718   1.610   1.009   2.397  0.4867  0.6401 -0.6797
 1029SOL     OW14719   1.497   2.504  10.409 -0.0331 -0.0237  0.3501
 1029SOL    HW114720   1.550   2.582  10.427 -1.6524  1.2176 -0.1738
 1029SOL    HW214721   1.452   2.527  10.327 -1.0691  1.0572  1.2180
 1030SOL     OW14722   1.616   2.974   4.631  0.1837 -0.5632 -0.9025
 1030SOL    HW114723   1.653   2.977   4.543  2.7831  1.3159  0.2642
 1030SOL    HW214724   1.638   3.058   4.671 -2.7440  0.0030 -0.4623
 1031SOL     OW14725   0.709   1.276   0.817  0.0594 -0.1508 -0.4426
 1031SOL    HW114726   0.681   1.358   0.776 -3.2689 -0.4486  1.2693
 1031SOL    HW214727   0.630   1.222   0.820 -0.2375  0.3852  1.4036
 1032SOL     OW14728   4.664   0.841   2.268 -0.6712 -0.1934 -0.4594
 1032SOL    HW114729   4.681   0.792   2.188  3.1174 -0.0881  0.3108
 1032SOL    HW214730   4.660   0.772   2.334 -2.9123  2.2565  1.9976
 1033SOL     OW14731   1.138   1.119   7.460  0.6910  0.4656  0.4223
 1033SOL    HW114732   1.148   1.143   7.552  0.5666 -0.0962  0.5829
 1033SOL    HW214733   1.179   1.202   7.435 -0.4991  0.3154 -2.0052
 1034SOL     OW14734   2.396   3.086   6.985  0.5429 -0.5667  0.0769
 1034SOL    HW114735   2.366   3.012   7.038 -0.1984  1.2670  2.2053
 1034SOL    HW214736   2.374   3.161   7.040  1.3507  0.3801 -0.8926
 1035SOL     OW14737   4.307   4.323   8.025  0.1649 -0.0822 -0.4395
 1035SOL    HW114738   4.263   4.319   7.941 -1.8903 -1.3361  0.6966
 1035SOL    HW214739   4.235   4.300   8.085  0.7377 -0.4553  0.1059
 1036SOL     OW14740   2.077   4.449   4.936 -0.3739 -0.0990 -0.4290
 1036SOL    HW114741   2.139   4.444   5.008  0.2074  0.6242 -0.8659
 1036SOL    HW214742   2.084   4.359   4.904  1.1063 -0.0273 -0.2951
 1037SOL     OW14743   0.673   1.124   4.012 -0.8730 -0.9249  0.0136
 1037SOL    HW114744   0.649   1.053   3.953 -2.4994 -0.8487  0.5937
 1037SOL    HW214745   0.724   1.182   3.956  0.5382  0.9467  3.2440
 1038SOL     OW14746   3.932   3.271   1.297  0.2884 -0.6680 -0.3774
 1038SOL    HW114747   3.862   3.289   1.234  0.9100  2.0604 -0.3169
 1038SOL    HW214748   3.988   3.210   1.248 -0.5082 -0.9982 -0.8797
 1039SOL     OW14749   1.402   2.746   5.186 -0.0909 -0.2817  1.0470
 1039SOL    HW114750   1.321   2.736   5.236 -0.8936  4.0756  0.6527
 1039SOL    HW214751   1.415   2.655   5.161  1.8918 -0.2249  1.8548
 1040SOL     OW14752   0.584   4.555   5.462  0.4120  0.0141 -0.5685
 1040SOL    HW114753   0.630   4.606   5.529  1.0599  3.5446 -3.7423
 1040SOL    HW214754   0.613   4.468   5.490 -0.8735 -0.8408 -1.8484
 1041SOL     OW14755   0.479   1.495  11.721  1.1070  0.6058 -0.3909
 1041SOL    HW114756   0.547   1.430  11.704 -0.9276 -0.8333 -3.0136
 1041SOL    HW214757   0.464   1.475  11.814 -0.6258 -0.9740 -1.0113
 1042SOL     OW14758   4.136   0.675   3.238 -0.5375 -0.0495  0.0843
 1042SOL    HW114759   4.163   0.585   3.258  2.0572  0.9778  1.1166
 1042SOL    HW214760   4.109   0.707   3.324 -0.2160 -0.7588  0.4507
 1043SOL     OW14761   0.919   0.144  12.625 -1.0072  0.7765 -0.4726
 1043SOL    HW114762   0.946   0.220  12.677 -2.4925  0.0540  1.3743
 1043SOL    HW214763   0.836   0.128  12.669  0.5825  0.3386  2.3980
 1044SOL     OW14764   4.570   1.895   3.509 -0.0098 -0.0054  0.8027
 1044SOL    HW114765   4.617   1.973   3.536 -0.2714  0.7810 -1.0001
 1044SOL    HW214766   4.628   1.823   3.534  0.9175  0.7320  0.7553
 1045SOL     OW14767   0.263   0.763  11.502 -0.0657  0.1294  0.0552
 1045SOL    HW114768   0.280   0.798  11.414 -1.8104  0.8584  0.0108
 1045SOL    HW214769   0.186   0.708  11.485  0.4497 -0.8473  0.8953
 1046SOL     OW14770   2.245   3.546  15.061 -1.1755 -0.2629  0.2262
 1046SOL    HW114771   2.228   3.463  15.106  0.0917 -0.6833 -0.0607
 1046SOL    HW214772   2.274   3.514  14.976  0.7125 -0.5821  0.9799
 1047SOL     OW14773   3.355   1.766  17.203  0.0055 -0.3865 -0.3662
 1047SOL    HW114774   3.332   1.781  17.295  2.1438  0.4468  0.0435
 1047SOL    HW214775   3.402   1.844  17.174  1.5323 -1.5159 -0.9032
 1048SOL     OW14776   1.467   0.965  15.730  0.1152 -0.5221  0.1796
 1048SOL    HW114777   1.380   0.935  15.752 -1.2025  2.0479 -1.4246
 1048SOL    HW214778   1.501   0.895  15.675 -0.0567 -0.5316  0.0866
 1049SOL     OW14779   2.531   3.389   4.282  0.0510  0.4784  0.0877
 1049SOL    HW114780   2.502   3.307   4.242 -1.5323  1.0331  0.0971
 1049SOL    HW214781   2.621   3.387   4.250  0.0372  0.0386  0.0767
 1050SOL     OW14782   0.094   1.370   3.472  0.7486  0.6693  0.3940
 1050SOL    HW114783   0.102   1.412   3.387 -0.3467 -0.0028 -0.0417
 1050SOL    HW214784   0.158   1.299   3.469 -1.8490 -1.6595  0.1212
 1051SOL     OW14785   1.593   0.606   0.573  0.4850 -0.1077 -0.2034
 1051SOL    HW114786   1.610   0.693   0.537  1.8433  0.0431  0.7883
 1051SOL    HW214787   1.621   0.545   0.504  0.3711  1.5889 -1.7308
 1052SOL     OW14788   0.074   0.107   7.756  0.3494  0.0757 -0.0025
 1052SOL    HW114789   0.047   0.170   7.689  2.6120  1.3233  0.2758
 1052SOL    HW214790   0.047   0.146   7.840  2.7386  0.0662  0.7608
 1053SOL     OW14791   2.865   4.570   2.965 -0.4352  0.8109  0.0538
 1053SOL    HW114792   2.833   4.495   2.916  0.4069  0.3371  0.2236
 1053SOL    HW214793   2.879   4.632   2.894  1.4363 -0.9607 -1.1224
 1054SOL     OW14794   3.575   0.776   6.551  0.5502  0.2395  0.1901
 1054SOL    HW114795   3.520   0.702   6.580  0.4549  1.1811  2.4006
 1054SOL    HW214796   3.570   0.777   6.456  1.9225  1.3778  0.1464
 1055SOL     OW14797   0.767   3.220   7.775  0.1823  0.4451  0.4813
 1055SOL    HW114798   0.845   3.175   7.742 -1.7153 -0.3649 -2.8894
 1055SOL    HW214799   0.702   3.151   7.760  0.2399  0.8519 -1.6521
 1056SOL     OW14800   0.422   0.113  15.764 -0.0667 -0.6227 -0.0059
 1056SOL    HW114801   0.380   0.121  15.678  1.7644  1.3172 -0.6946
 1056SOL    HW214802   0.394   0.200  15.793 -0.7470 -0.3677 -1.4171
 1057SOL     OW14803   3.695   1.999   9.491  0.5735  0.0783 -0.2610
 1057SOL    HW114804   3.739   2.077   9.527 -0.0630  0.8412 -1.1255
 1057SOL    HW214805   3.606   2.009   9.525  0.5052 -0.1736 -0.3706
 1058SOL     OW14806   4.524   1.664   8.877 -0.3459 -0.7843  0.3925
 1058SOL    HW114807   4.514   1.751   8.916  1.3657 -0.2442 -0.3753
 1058SOL    HW214808   4.602   1.672   8.823 -0.3275 -0.6463  0.4410
 1059SOL     OW14809   1.491   0.656  12.067 -0.4881  0.2495 -0.0491
 1059SOL    HW114810   1.558   0.608  12.018 -2.1386 -2.5215  0.3832
 1059SOL    HW214811   1.481   0.596  12.141  1.1285 -1.1008 -0.9170
 1060SOL     OW14812   2.657   3.600   9.229  0.6365  0.1556 -0.1531
 1060SOL    HW114813   2.610   3.626   9.309  1.6179  0.5845  0.2783
 1060SOL    HW214814   2.613   3.515   9.222 -0.1951  0.5695  0.0462
 1061SOL     OW14815   0.720   4.052   4.673 -0.0777  0.0621  0.2819
 1061SOL    HW114816   0.681   3.976   4.717 -0.5851 -0.4148 -0.9813
 1061SOL    HW214817   0.739   4.008   4.590 -1.4133 -0.9168  0.4954
 1062SOL     OW14818   0.596   4.438  14.870  0.4455  0.0855  0.1034
 1062SOL    HW114819   0.558   4.495  14.937 -1.0418  0.7463 -1.2946
 1062SOL    HW214820   0.640   4.370  14.921 -3.7305 -0.7627  2.5835
 1063SOL     OW14821   1.241   2.475  12.607  0.2414  0.2716 -0.9137
 1063SOL    HW114822   1.208   2.406  12.665  0.0548 -0.4604 -1.8840
 1063SOL    HW214823   1.160   2.510  12.572 -1.1960  1.0482  3.1533
 1064SOL     OW14824   2.719   2.286   8.570 -0.1792  0.2754 -0.2381
 1064SOL    HW114825   2.726   2.285   8.475 -0.1885  1.0458 -0.2437
 1064SOL    HW214826   2.780   2.215   8.590 -0.5523  0.2575  0.8354
 1065SOL     OW14827   3.321   0.553   7.737  0.0208 -0.3339  1.2078
 1065SOL    HW114828   3.367   0.487   7.685 -0.6607 -1.1152  1.6117
 1065SOL    HW214829   3.289   0.498   7.808 -0.7686 -1.1031  0.2598
 1066SOL     OW14830   0.415   4.509   5.720  0.0200  0.1143 -0.4054
 1066SOL    HW114831   0.466   4.569   5.775 -2.3452  0.2119  1.6682
 1066SOL    HW214832   0.470   4.431   5.726  2.0676  1.4308 -2.0261
 1067SOL     OW14833   1.671   3.741  13.407 -0.4034  0.0851 -0.0068
 1067SOL    HW114834   1.634   3.680  13.343  1.3812  0.1397 -1.0705
 1067SOL    HW214835   1.719   3.686  13.469  1.7618  0.8201 -1.0448
 1068SOL     OW14836   0.207   2.053   6.887 -0.0789  0.0841  0.0870
 1068SOL    HW114837   0.196   1.999   6.809  0.0859 -1.9585  1.4708
 1068SOL    HW214838   0.144   1.999   6.934 -0.4845  1.6405  1.3420
 1069SOL     OW14839   0.135   2.439   7.131 -0.2418 -0.4335 -0.3922
 1069SOL    HW114840   0.161   2.368   7.189  1.2262  0.6784  0.3188
 1069SOL    HW214841   0.170   2.409   7.047  1.7753  0.7417  0.0272
 1070SOL     OW14842   2.754   4.393  11.950  0.0005  0.3886 -0.6036
 1070SOL    HW114843   2.807   4.374  12.027  1.3495  0.5288 -1.4868
 1070SOL    HW214844   2.671   4.350  11.969 -0.0228  1.7780  2.4279
 1071SOL     OW14845   3.329   3.529   5.858 -0.1050  0.1552 -0.6901
 1071SOL    HW114846   3.323   3.619   5.825  0.0823  0.8762  1.2442
 1071SOL    HW214847   3.391   3.504   5.790 -1.2903 -0.5194 -1.5312
 1072SOL     OW14848   4.179   1.332   2.120  0.2613  0.3408 -0.0977
 1072SOL    HW114849   4.197   1.300   2.209  1.6053  3.3996  0.7271
 1072SOL    HW214850   4.266   1.330   2.081  1.0198 -0.1125  1.5945
 1073SOL     OW14851   4.671   4.371  13.811  0.1816  0.3245 -0.3597
 1073SOL    HW114852   4.582   4.344  13.787  0.7495 -0.5395 -1.5045
 1073SOL    HW214853   4.723   4.291  13.813 -0.0844  0.0669 -3.1043
 1074SOL     OW14854   4.074   0.154   5.986  0.1561 -0.0764  0.1007
 1074SOL    HW114855   4.063   0.085   6.052 -2.7900 -0.6810 -1.0516
 1074SOL    HW214856   4.003   0.214   6.008  2.6455  2.9958 -0.1770
 1075SOL     OW14857   2.276   4.284  11.513 -0.5588  0.7330  0.3895
 1075SOL    HW114858   2.230   4.359  11.550 -0.6018  1.2635 -0.7305
 1075SOL    HW214859   2.307   4.317  11.428 -0.6623 -0.5979 -0.1820
 1076SOL     OW14860   3.478   0.568   3.803 -0.8679 -0.1903 -0.6525
 1076SOL    HW114861   3.456   0.643   3.748 -0.6668  0.1145 -0.3097
 1076SOL    HW214862   3.450   0.600   3.888  0.5768 -1.3528  0.2569
 1077SOL     OW14863   1.480   1.165   9.355  0.4558 -0.6803  0.3113
 1077SOL    HW114864   1.548   1.186   9.419 -0.9223  1.6456  1.0047
 1077SOL    HW214865   1.522   1.082   9.333 -0.2109 -0.7486 -0.7106
 1078SOL     OW14866   0.686   1.358  17.414  0.2742  0.3819  0.7534
 1078SOL    HW114867   0.669   1.388  17.503 -1.3472  1.6373  0.0092
 1078SOL    HW214868   0.633   1.278  17.414 -0.3468  0.8019 -0.5254
 1079SOL     OW14869   0.459   4.287  14.701  0.2332  0.4020 -0.1048
 1079SOL    HW114870   0.488   4.348  14.770 -0.1531 -1.2093  1.4697
 1079SOL    HW214871   0.495   4.205  14.734 -0.6455 -0.2112 -0.6862
 1080SOL     OW14872   1.284   4.074   3.412  0.0723 -0.4827  0.1525
 1080SOL    HW114873   1.349   4.089   3.481 -1.4563 -0.2251  1.5464
 1080SOL    HW214874   1.274   3.979   3.418 -0.5753 -0.3959  0.4763
 1081SOL     OW14875   1.631   0.606   2.172  0.2290  0.0267 -0.0553
 1081SOL    HW114876   1.616   0.629   2.264 -1.7184  0.3059 -0.4387
 1081SOL    HW214877   1.550   0.562   2.148  0.4580 -0.2051 -0.3961
 1082SOL     OW14878   4.297   4.125   2.724 -0.1039 -0.2177 -0.4438
 1082SOL    HW114879   4.304   4.153   2.633  0.3593  0.0981 -0.3138
 1082SOL    HW214880   4.249   4.195   2.769 -1.9286 -1.5918 -0.2821
 1083SOL     OW14881   2.527   3.050  13.057  0.0636 -0.3065 -0.1709
 1083SOL    HW114882   2.461   3.022  12.993  0.5858  0.3195 -0.9909
 1083SOL    HW214883   2.564   3.130  13.019  0.1795 -0.0533  0.4782
 1084SOL     OW14884   0.968   2.698   6.266  0.4452  0.4485  0.0481
 1084SOL    HW114885   1.032   2.768   6.264 -1.7803  2.4943 -0.0511
 1084SOL    HW214886   1.024   2.623   6.245  2.9314  1.4518  3.0632
 1085SOL     OW14887   4.452   2.396   5.096  0.3734  0.2807  0.2468
 1085SOL    HW114888   4.506   2.474   5.107  1.3716 -0.2594 -0.8130
 1085SOL    HW214889   4.399   2.402   5.175  0.9192 -0.0084  0.6310
 1086SOL     OW14890   1.405   3.875   2.931 -0.3284  0.2506 -0.1269
 1086SOL    HW114891   1.355   3.794   2.924  0.0505 -0.1490  1.9080
 1086SOL    HW214892   1.340   3.936   2.896 -2.4694 -3.9783 -3.6165
 1087SOL     OW14893   1.126   1.250   1.221  0.0569  0.0460 -0.0647
 1087SOL    HW114894   1.157   1.228   1.133  1.0535 -1.6600  0.7125
 1087SOL    HW214895   1.198   1.209   1.269 -0.5787 -0.9113  0.0739
 1088SOL     OW14896   0.871   3.819  16.921  0.3655 -0.3604 -0.7289
 1088SOL    HW114897   0.918   3.891  16.880 -0.8404  0.6037 -0.4183
 1088SOL    HW214898   0.840   3.779  16.840 -0.1198 -0.1260 -0.6594
 1089SOL     OW14899   2.319   1.290   8.211 -0.1544 -0.2754 -0.1317
 1089SOL    HW114900   2.321   1.236   8.290  1.4396 -0.7367 -0.4891
 1089SOL    HW214901   2.232   1.259   8.186 -0.0586 -1.0410  0.4685
 1090SOL     OW14902   4.669   2.310   1.442 -0.2865  0.0304  0.1385
 1090SOL    HW114903   4.738   2.309   1.508  0.7209 -0.6970 -0.9411
 1090SOL    HW214904   4.707   2.346   1.362 -2.4337  0.1720 -0.8255
 1091SOL     OW14905   3.965   1.158   8.918  0.0549 -0.5096  0.5557
 1091SOL    HW114906   4.004   1.169   8.831  0.2242  0.6424  0.7756
 1091SOL    HW214907   4.017   1.216   8.974 -0.5830 -0.0476  0.6742
 1092SOL     OW14908   2.212   1.329  11.964  0.1821  0.5099  0.2338
 1092SOL    HW114909   2.238   1.244  11.929  2.2161  1.7428 -1.1590
 1092SOL    HW214910   2.218   1.319  12.059  1.4485  1.1691  0.2181
 1093SOL     OW14911   1.278   1.732  14.915  0.5733 -0.4834  0.2386
 1093SOL    HW114912   1.255   1.687  14.833 -1.2163 -0.2539  0.6305
 1093SOL    HW214913   1.249   1.660  14.971  1.4384 -1.5074 -0.6044
 1094SOL     OW14914   2.477   3.143   8.147 -0.3107  0.2074 -0.0440
 1094SOL    HW114915   2.438   3.225   8.177  1.2447  1.1582 -0.6217
 1094SOL    HW214916   2.418   3.080   8.188  0.5995 -0.4245  0.3021
 1095SOL     OW14917   1.619   2.336  14.335 -0.0228  0.5016 -0.3017
 1095SOL    HW114918   1.598   2.262  14.279  1.2670  1.4088 -1.9956
 1095SOL    HW214919   1.627   2.407  14.271 -0.4792  0.9907  0.1786
 1096SOL     OW14920   3.025   1.801   7.016 -0.2733 -0.3166 -0.5566
 1096SOL    HW114921   3.050   1.709   7.026  0.2835 -0.2739 -1.5444
 1096SOL    HW214922   3.057   1.829   6.930 -1.7954 -1.0188 -1.3505
 1097SOL     OW14923   4.368   3.109   2.285 -0.4255  0.1553 -0.1731
 1097SOL    HW114924   4.407   3.022   2.281  1.7373  1.1234 -0.3150
 1097SOL    HW214925   4.275   3.100   2.266 -0.7111 -0.4763  1.4943
 1098SOL     OW14926   0.656   1.310  10.406 -0.0683 -0.4860 -0.1777
 1098SOL    HW114927   0.705   1.389  10.425  0.5557 -1.0944  0.7577
 1098SOL    HW214928   0.572   1.313  10.452 -0.7069  1.5526 -1.5099
 1099SOL     OW14929   3.225   3.803   3.913 -0.2588  0.2885 -0.0795
 1099SOL    HW114930   3.171   3.871   3.952  0.4258  0.1136  1.1893
 1099SOL    HW214931   3.230   3.821   3.820  3.7501 -1.6017 -0.2472
 1100SOL     OW14932   2.864   0.435  14.593  0.5740  0.4897  0.4990
 1100SOL    HW114933   2.866   0.468  14.683 -2.0736 -0.5964  0.9655
 1100SOL    HW214934   2.899   0.499  14.531 -1.7994  0.1755 -1.1798
 1101SOL     OW14935   0.739   0.655   2.102 -0.1994 -0.5364 -0.6776
 1101SOL    HW114936   0.828   0.639   2.069  1.2344  0.3544  2.6192
 1101SOL    HW214937   0.760   0.660   2.196 -0.7256  0.9186 -0.6389
 1102SOL     OW14938   1.418   4.662   5.122 -0.5139 -0.2239 -0.1327
 1102SOL    HW114939   1.484   4.621   5.066 -0.7606 -0.4376 -0.2650
 1102SOL    HW214940   1.443   4.621   5.205 -0.1134  0.7212  0.2216
 1103SOL     OW14941   0.390   2.194   5.637  0.5266  0.0560 -0.3325
 1103SOL    HW114942   0.395   2.106   5.599  0.0479 -0.3186  0.4796
 1103SOL    HW214943   0.458   2.235   5.583 -0.2413  0.9352 -0.6324
 1104SOL     OW14944   3.205   3.501   0.280 -0.1398 -0.2204  0.3161
 1104SOL    HW114945   3.156   3.421   0.258 -0.2227  0.2173 -1.1393
 1104SOL    HW214946   3.206   3.543   0.194 -1.3677  1.6438  1.2291
 1105SOL     OW14947   0.806   3.322   6.502 -0.1865 -0.1190 -0.2902
 1105SOL    HW114948   0.740   3.363   6.445 -0.8524 -0.6191  0.1105
 1105SOL    HW214949   0.775   3.233   6.484  1.7480 -0.3266 -2.5389
 1106SOL     OW14950   2.487   0.028   5.204 -0.0407 -0.1497  0.3673
 1106SOL    HW114951   2.435   0.061   5.132  0.5371  1.5044  0.7013
 1106SOL    HW214952   2.421   0.006   5.269 -2.2118 -2.6247 -2.7058
 1107SOL     OW14953   1.556   2.342  12.059 -0.5054 -0.1454  0.2032
 1107SOL    HW114954   1.525   2.425  12.096 -0.1388  0.1712 -0.1950
 1107SOL    HW214955   1.473   2.321  12.017 -0.5685  0.9558 -0.2447
 1108SOL     OW14956   0.408   0.115  17.486  0.4883 -0.1309  0.1960
 1108SOL    HW114957   0.374   0.198  17.518  2.9075  0.6748  0.5919
 1108SOL    HW214958   0.378   0.051  17.551 -0.1035 -0.0868 -0.0309
 1109SOL     OW14959   0.833   2.932   6.688 -0.2053 -0.1506 -0.0280
 1109SOL    HW114960   0.782   2.874   6.745  1.1577  0.2945  1.6170
 1109SOL    HW214961   0.878   2.860   6.643 -0.2052 -0.5405  0.5873
 1110SOL     OW14962   0.889   1.335   1.011  0.4669 -0.1429  0.3906
 1110SOL    HW114963   0.844   1.275   0.952 -0.7668  0.1899  0.9888
 1110SOL    HW214964   0.898   1.280   1.089 -0.4306 -0.1530  0.4780
 1111SOL     OW14965   3.426   0.149  14.761 -0.2170 -0.3911 -0.3973
 1111SOL    HW114966   3.366   0.074  14.761  1.6390 -1.8825  0.3144
 1111SOL    HW214967   3.480   0.128  14.838 -0.2290 -1.5411 -0.7080
 1112SOL     OW14968   2.776   0.667   8.363 -0.2672  0.3604 -0.4702
 1112SOL    HW114969   2.835   0.705   8.428 -2.4782  1.3571  0.9364
 1112SOL    HW214970   2.804   0.576   8.363 -3.0919 -0.4910 -1.5651
 1113SOL     OW14971   1.478   0.967   3.591 -0.4585 -0.4170 -0.0365
 1113SOL    HW114972   1.445   0.877   3.585 -2.5147  0.2485  1.1473
 1113SOL    HW214973   1.425   1.014   3.655  0.2732  1.7259 -1.0001
 1114SOL     OW14974   4.699   3.699   8.950 -0.1273 -0.3125  0.1136
 1114SOL    HW114975   4.734   3.711   8.862  0.8379  0.3179  0.5804
 1114SOL    HW214976   0.037   3.698   9.008  0.8041 -1.5073 -1.1211
 1115SOL     OW14977   4.512   2.380   9.033 -0.3347 -0.6477 -0.0372
 1115SOL    HW114978   4.593   2.428   9.017 -0.9337  0.3069 -0.2228
 1115SOL    HW214979   4.459   2.451   9.070 -0.6526 -1.6726  1.4271
 1116SOL     OW14980   2.811   4.077   0.192  0.4674 -0.1832 -0.2226
 1116SOL    HW114981   2.842   4.149   0.247  1.3216 -1.2241  0.6687
 1116SOL    HW214982   2.724   4.114   0.178 -0.7000 -3.2617 -0.9547
 1117SOL     OW14983   3.180   3.700   1.303 -0.0919  0.2964 -0.1599
 1117SOL    HW114984   3.254   3.714   1.244 -0.2882 -2.2976 -1.0133
 1117SOL    HW214985   3.164   3.791   1.325  0.4092  0.4804 -0.5552
 1118SOL     OW14986   4.094   4.041   8.849  0.1461 -0.0148 -0.1106
 1118SOL    HW114987   4.127   4.005   8.932 -2.9054 -2.7510 -0.0828
 1118SOL    HW214988   4.161   4.021   8.784 -1.3267 -0.2160 -1.5448
 1119SOL     OW14989   2.870   4.654   2.428  0.0252 -0.0242  0.0861
 1119SOL    HW114990   2.925   4.599   2.371 -0.0431  0.2300 -0.2254
 1119SOL    HW214991   2.785   4.625   2.394  0.2784 -0.5705 -0.0845
 1120SOL     OW14992   2.294   4.138   2.947  0.2201  0.2635  0.2833
 1120SOL    HW114993   2.348   4.215   2.964  0.7078  0.0327 -0.1890
 1120SOL    HW214994   2.278   4.139   2.852  2.2812  1.9189 -0.0505
 1121SOL     OW14995   1.836   0.610   3.203 -0.2352 -0.3579 -0.3279
 1121SOL    HW114996   1.878   0.695   3.215  0.0481 -0.3893 -1.1188
 1121SOL    HW214997   1.797   0.622   3.117  0.1335 -1.4315 -0.6389
 1122SOL     OW14998   0.909   3.080  14.037  0.1743  0.4090  0.4690
 1122SOL    HW114999   0.841   3.013  14.040  0.5690  0.0000  0.2588
 1122SOL    HW215000   0.888   3.123  13.954 -2.0081  0.8866  1.2585
 1123SOL     OW15001   2.192   4.209   6.140 -0.1217 -0.0622  0.1475
 1123SOL    HW115002   2.287   4.215   6.145 -0.2806  2.9144 -0.2921
 1123SOL    HW215003   2.170   4.227   6.232  1.4823 -1.2033  0.7520
 1124SOL     OW15004   0.524   3.360   8.480  0.5181 -0.4986  0.3907
 1124SOL    HW115005   0.459   3.387   8.545 -0.8947 -0.4807 -1.0098
 1124SOL    HW215006   0.478   3.351   8.396  0.4967  0.9922  0.2425
 1125SOL     OW15007   2.419   3.064   9.305  0.0780 -0.1820 -0.2417
 1125SOL    HW115008   2.452   3.039   9.392 -2.7360 -1.3896  0.4645
 1125SOL    HW215009   2.340   3.114   9.323 -0.8949 -1.4244 -1.1137
 1126SOL     OW15010   2.737   3.935   4.017 -0.2518  0.3670  0.2110
 1126SOL    HW115011   2.727   3.888   3.935 -1.2108 -3.0460  2.2801
 1126SOL    HW215012   2.749   3.871   4.087  0.9382 -0.1128 -0.4357
 1127SOL     OW15013   3.222   0.354   4.962  1.1284 -0.1415  0.0820
 1127SOL    HW115014   3.200   0.417   5.030  2.5917  0.5884 -0.1186
 1127SOL    HW215015   3.226   0.264   4.994 -2.4427 -0.0419  0.7990
 1128SOL     OW15016   3.558   0.378   5.626  0.3424  0.9031 -0.2754
 1128SOL    HW115017   3.553   0.283   5.638  1.1222  1.0078  0.9279
 1128SOL    HW215018   3.476   0.413   5.662 -0.1257  1.0239 -1.4862
 1129SOL     OW15019   0.201   1.082   6.863  0.0495  0.0838  0.3818
 1129SOL    HW115020   0.267   1.061   6.796  0.4983  1.0981  0.5051
 1129SOL    HW215021   0.176   1.171   6.840  1.6987  0.2418 -0.8515
 1130SOL     OW15022   4.021   2.090   6.465  0.0047  0.4739  0.3856
 1130SOL    HW115023   4.004   2.113   6.374 -3.0756 -0.9387  0.5816
 1130SOL    HW215024   3.948   2.137   6.505  0.6218 -0.2306  2.3599
 1131SOL     OW15025   2.137   2.029  14.488 -0.3898 -0.0612 -0.0132
 1131SOL    HW115026   2.179   2.003  14.570 -0.8799  1.3672  0.6999
 1131SOL    HW215027   2.170   2.118  14.474 -0.7543 -0.2156 -1.8520
 1132SOL     OW15028   1.412   2.618   8.500 -0.3571 -0.4406 -0.1779
 1132SOL    HW115029   1.351   2.650   8.566 -0.7296 -1.0473 -0.2327
 1132SOL    HW215030   1.361   2.545   8.465 -1.4030 -0.6747  1.8401
 1133SOL     OW15031   2.202   2.668   3.002  0.0495 -0.0427  0.0599
 1133SOL    HW115032   2.226   2.681   3.094  0.8607  2.2361 -0.4648
 1133SOL    HW215033   2.239   2.745   2.959  0.0138  0.1934  0.4431
 1134SOL     OW15034   3.846   0.522   4.972 -0.8369  0.5371  0.2585
 1134SOL    HW115035   3.818   0.508   4.882 -0.4525  0.4254  0.1553
 1134SOL    HW215036   3.868   0.433   4.998 -0.3441  0.5647 -0.0519
 1135SOL     OW15037   3.511   2.204   6.638  0.2749  0.3869  0.5027
 1135SOL    HW115038   3.506   2.113   6.667 -0.8227 -0.2156 -1.6105
 1135SOL    HW215039   3.423   2.215   6.604  0.0104  1.8878  1.6942
 1136SOL     OW15040   1.229   3.141   7.910  0.5610 -0.2848  0.5416
 1136SOL    HW115041   1.177   3.118   7.833  1.0647  1.5305 -0.3419
 1136SOL    HW215042   1.163   3.133   7.979  1.5837 -1.2201  1.4191
 1137SOL     OW15043   1.832   2.087   6.938 -0.3867 -0.4421  0.0543
 1137SOL    HW115044   1.737   2.077   6.927  0.3014 -2.4941 -4.0331
 1137SOL    HW215045   1.829   2.118   7.028  0.9844  2.3971 -0.8940
 1138SOL     OW15046   4.512   3.521   5.940  0.1940 -0.1786  0.2396
 1138SOL    HW115047   4.435   3.486   5.986  0.3358 -0.7937  0.0095
 1138SOL    HW215048   4.529   3.602   5.989 -2.0297  0.2137  0.3838
 1139SOL     OW15049   1.558   3.723   2.541  0.4780 -0.4032  0.1136
 1139SOL    HW115050   1.561   3.645   2.486  0.0414 -1.1790  1.1987
 1139SOL    HW215051   1.463   3.724   2.551  0.6261  0.4703  1.4956
 1140SOL     OW15052   2.104   0.217  15.490 -0.4175  0.2455 -0.1697
 1140SOL    HW115053   2.099   0.304  15.530 -0.0371 -0.3911  1.2693
 1140SOL    HW215054   2.128   0.158  15.562 -2.4888 -0.4177 -0.0081
 1141SOL     OW15055   2.232   1.939   3.349 -0.1598 -0.4375  0.0593
 1141SOL    HW115056   2.191   2.000   3.411  1.5521 -0.2444  1.0016
 1141SOL    HW215057   2.150   1.890   3.345 -0.4142 -0.0305  0.3373
 1142SOL     OW15058   0.468   2.932   0.026 -1.0425 -0.3130  0.4985
 1142SOL    HW115059   0.496   2.903  17.693  0.1582  1.6103  0.2589
 1142SOL    HW215060   0.545   2.966   0.071 -0.2269 -0.5494 -0.7152
 1143SOL     OW15061   0.593   1.819   6.674  0.4219 -0.7426  0.1208
 1143SOL    HW115062   0.573   1.902   6.718 -0.1728 -0.5792 -0.4545
 1143SOL    HW215063   0.554   1.844   6.590  0.2602  1.0766  0.7454
 1144SOL     OW15064   4.118   2.892  10.093 -0.1395 -0.2666  0.3660
 1144SOL    HW115065   4.089   2.862  10.179 -1.4784  0.4684  0.1679
 1144SOL    HW215066   4.193   2.950  10.111 -0.4440 -0.3439  1.9365
 1145SOL     OW15067   3.674   1.629   6.855  0.2634  0.0663 -0.9480
 1145SOL    HW115068   3.620   1.668   6.924 -1.1098 -0.8383 -1.5293
 1145SOL    HW215069   3.624   1.550   6.836 -0.7007  0.5817 -0.5238
 1146SOL     OW15070   3.098   3.039   2.907 -0.1183 -0.3369  0.3137
 1146SOL    HW115071   3.101   2.946   2.929 -1.6139 -0.8154 -1.4105
 1146SOL    HW215072   3.159   3.082   2.966 -0.0915  0.4608 -0.2853
 1147SOL     OW15073   1.084   3.198   7.381 -0.9548  0.4254  0.5426
 1147SOL    HW115074   1.158   3.139   7.364 -0.3228  0.8466  1.7806
 1147SOL    HW215075   1.130   3.281   7.392 -0.1015 -0.2752  2.3532
 1148SOL     OW15076   0.383   1.217   2.558  0.2611 -0.0460 -0.5469
 1148SOL    HW115077   0.326   1.267   2.500  0.0512  0.9404  0.5165
 1148SOL    HW215078   0.468   1.245   2.524  1.1401  0.1450  1.8186
 1149SOL     OW15079   3.992   2.204   6.219  0.2163 -0.5957 -0.0679
 1149SOL    HW115080   4.004   2.298   6.217 -1.6309 -0.3694 -0.7556
 1149SOL    HW215081   4.058   2.175   6.157  0.2209 -0.7535  0.0089
 1150SOL     OW15082   3.839   1.169   9.802 -0.3179  0.3926  0.1455
 1150SOL    HW115083   3.845   1.227   9.726 -0.8170  1.1094  0.6450
 1150SOL    HW215084   3.744   1.173   9.813 -0.5068 -0.9047 -1.0705
 1151SOL     OW15085   2.537   3.705   6.977 -0.2466  0.1868 -0.5443
 1151SOL    HW115086   2.605   3.761   7.015 -0.6374  1.7328 -2.0670
 1151SOL    HW215087   2.572   3.689   6.889 -0.8982 -0.1738 -0.7384
 1152SOL     OW15088   4.281   2.230  13.926 -0.1317  0.0327 -0.1464
 1152SOL    HW115089   4.255   2.181  13.847  0.5315 -1.2121  0.4060
 1152SOL    HW215090   4.363   2.265  13.893 -0.6297  0.5672 -0.8162
 1153SOL     OW15091   0.331   1.712  14.135  0.3003 -0.1174  0.8496
 1153SOL    HW115092   0.389   1.785  14.157 -2.0985  2.2057 -0.5522
 1153SOL    HW215093   0.369   1.675  14.056  0.7095  3.5506 -0.6899
 1154SOL     OW15094   1.514   2.567   4.619 -0.0694 -0.0308  0.6091
 1154SOL    HW115095   1.492   2.567   4.526 -0.4668  0.0080  0.7012
 1154SOL    HW215096   1.474   2.652   4.638  2.3810  1.0497  0.9407
 1155SOL     OW15097   0.536   4.028   7.234  0.0188 -0.3067  0.0147
 1155SOL    HW115098   0.600   4.017   7.304 -1.6728  0.6592  1.6943
 1155SOL    HW215099   0.591   3.989   7.165  2.0789  0.0435  1.4629
 1156SOL     OW15100   1.758   0.445   7.443 -0.1501 -0.0816 -0.1195
 1156SOL    HW115101   1.694   0.487   7.500 -0.5313  0.1243 -0.7039
 1156SOL    HW215102   1.746   0.500   7.366  1.9227  1.2982  0.5296
 1157SOL     OW15103   1.589   4.566   3.942  0.4221 -0.3218  1.4161
 1157SOL    HW115104   1.534   4.630   3.988 -0.2707  1.8092 -2.3488
 1157SOL    HW215105   1.567   4.586   3.851 -0.5302  1.0462  1.9525
 1158SOL     OW15106   0.637   0.325   3.783 -0.0936 -0.2676 -0.2908
 1158SOL    HW115107   0.543   0.317   3.804 -0.5945  2.4004 -1.6022
 1158SOL    HW215108   0.645   0.409   3.738  0.0239  0.2390  0.6534
 1159SOL     OW15109   4.397   3.148  12.710  0.4936 -0.6990  1.0621
 1159SOL    HW115110   4.324   3.136  12.649  1.4965  0.9180 -0.4504
 1159SOL    HW215111   4.473   3.157  12.653  0.7469  1.6271  1.7487
 1160SOL     OW15112   2.872   0.429   2.227 -0.4731 -0.1405  0.1267
 1160SOL    HW115113   2.893   0.361   2.290  0.1583 -1.2142 -1.2591
 1160SOL    HW215114   2.809   0.480   2.278  1.2385 -0.2253  2.2984
 1161SOL     OW15115   1.065   1.233   6.920 -0.5127 -0.0223  0.3867
 1161SOL    HW115116   1.080   1.282   7.001  0.7021  1.9753 -1.0363
 1161SOL    HW215117   1.131   1.267   6.860 -0.4013 -0.4604  0.2640
 1162SOL     OW15118   0.313   0.883   3.892  0.7321  0.2963  1.0433
 1162SOL    HW115119   0.220   0.870   3.875  1.6742 -2.2865 -2.1991
 1162SOL    HW215120   0.323   0.950   3.824 -1.4924  0.6113  1.0521
 1163SOL     OW15121   1.095   4.482  15.564  0.1057 -0.0142  0.2333
 1163SOL    HW115122   1.126   4.531  15.641 -0.9765 -0.7469  1.1264
 1163SOL    HW215123   1.169   4.423  15.558  0.8967  0.7328  2.6135
 1164SOL     OW15124   1.506   3.819  14.079  0.0115  0.0020 -0.0101
 1164SOL    HW115125   1.486   3.854  14.166  0.9318  1.3048 -0.3082
 1164SOL    HW215126   1.455   3.739  14.078  1.6593 -1.0724  1.5337
 1165SOL     OW15127   1.458   1.584   6.844  0.3768 -0.1357  0.0364
 1165SOL    HW115128   1.476   1.640   6.920 -1.1459 -0.5434  0.7042
 1165SOL    HW215129   1.397   1.522   6.884  0.4623  0.3746  0.9665
 1166SOL     OW15130   3.161   0.183   9.070  0.2938 -0.6997 -0.1898
 1166SOL    HW115131   3.110   0.213   8.995  1.6135 -1.6666 -1.4845
 1166SOL    HW215132   3.093   0.139   9.121 -1.2019  0.7543 -0.9095
 1167SOL     OW15133   4.004   1.438   6.689  0.4234 -0.1284  0.2674
 1167SOL    HW115134   3.941   1.499   6.727  0.3263  0.0290 -0.1478
 1167SOL    HW215135   4.048   1.402   6.766 -1.3727 -0.5389  1.0918
 1168SOL     OW15136   0.346   3.329   1.227  0.1488 -0.1649 -0.5166
 1168SOL    HW115137   0.251   3.316   1.234  0.2862 -1.4093 -1.0319
 1168SOL    HW215138   0.360   3.352   1.136 -1.2649  1.1647 -0.4061
 1169SOL     OW15139   2.024   0.134  11.925 -0.0290  0.9196 -0.1330
 1169SOL    HW115140   2.062   0.215  11.891  2.5810 -0.0173  0.5316
 1169SOL    HW215141   2.072   0.066  11.877  0.6149  0.4456  1.1803
 1170SOL     OW15142   0.109   0.917  14.839  0.4826  0.2951  0.1415
 1170SOL    HW115143   0.151   0.838  14.872 -1.3744 -0.3803  0.8851
 1170SOL    HW215144   0.064   0.963  14.910  0.2775 -0.2738  0.3799
 1171SOL     OW15145   3.090   1.804   2.901 -0.3171  0.0844  0.5793
 1171SOL    HW115146   3.070   1.898   2.896 -0.7702  0.0194  1.1712
 1171SOL    HW215147   3.004   1.765   2.887  0.2793 -1.1054  0.1950
 1172SOL     OW15148   0.033   0.480   4.861 -0.0534  0.2074 -0.2283
 1172SOL    HW115149   4.722   0.409   4.901  2.5654 -1.1412  0.6391
 1172SOL    HW215150   0.006   0.547   4.924 -2.0614  0.7325 -1.6603
 1173SOL     OW15151   1.661   3.603   9.124 -0.1443 -0.0261 -0.7615
 1173SOL    HW115152   1.714   3.561   9.191 -1.2876  0.3663  0.3831
 1173SOL    HW215153   1.575   3.608   9.165 -0.2706 -0.7623 -0.9427
 1174SOL     OW15154   3.784   3.242  15.041 -0.1647  0.4052  0.2032
 1174SOL    HW115155   3.847   3.268  14.974  0.8697 -1.0042  0.6297
 1174SOL    HW215156   3.711   3.282  14.993 -0.3006  0.5454  0.5295
 1175SOL     OW15157   0.363   0.369  15.759 -0.1844  0.7330  0.3794
 1175SOL    HW115158   0.334   0.427  15.829  0.4798  1.2180  0.2452
 1175SOL    HW215159   0.366   0.415  15.675  3.1205 -1.2085 -0.5720
 1176SOL     OW15160   1.266   0.093   4.772 -0.0164 -0.2707 -0.2636
 1176SOL    HW115161   1.253   0.153   4.698  0.6967 -0.2557 -0.3703
 1176SOL    HW215162   1.178   0.100   4.809  0.9705 -1.7246  2.4145
 1177SOL     OW15163   2.277   1.810   2.296  0.7669 -0.6532 -0.8923
 1177SOL    HW115164   2.271   1.715   2.309  1.5870 -0.2175  2.7652
 1177SOL    HW215165   2.261   1.821   2.203 -0.6956 -0.0999 -0.5608
 1178SOL     OW15166   1.453   0.337   3.133 -0.3523  0.4347  0.2715
 1178SOL    HW115167   1.365   0.362   3.160  0.3630 -0.3581  3.2997
 1178SOL    HW215168   1.508   0.412   3.157  0.4937 -0.2882  0.5764
 1179SOL     OW15169   0.677   3.678  11.943  0.4667 -0.1531  0.4086
 1179SOL    HW115170   0.722   3.689  12.027  2.8449  1.0439 -1.0178
 1179SOL    HW215171   0.593   3.638  11.964 -0.7996  2.3387  0.1508
 1180SOL     OW15172   4.151   4.030   2.329  0.0446  0.2903  0.2319
 1180SOL    HW115173   4.214   4.066   2.391  0.7100 -1.5817  0.6344
 1180SOL    HW215174   4.176   3.939   2.342 -0.0821  0.4172  1.3072
 1181SOL     OW15175   0.072   2.622   3.040 -0.7155  0.1570  0.4246
 1181SOL    HW115176   4.733   2.567   3.047  0.0432 -1.2753 -2.2249
 1181SOL    HW215177   0.046   2.708   3.074  0.6325  1.1028 -0.8903
 1182SOL     OW15178   0.274   2.719   9.684 -0.3472 -0.7929 -0.0597
 1182SOL    HW115179   0.222   2.668   9.746 -2.0931  1.7275  0.5533
 1182SOL    HW215180   0.220   2.697   9.608  0.2992 -0.2872 -0.6586
 1183SOL     OW15181   3.347   2.722   8.740  0.0730 -0.3097  0.8804
 1183SOL    HW115182   3.274   2.779   8.717 -0.8221 -1.2569  1.3297
 1183SOL    HW215183   3.412   2.782   8.776 -0.6228  1.0611 -0.1701
 1184SOL     OW15184   3.909   2.409   4.716 -0.1782  0.1802 -0.8661
 1184SOL    HW115185   4.003   2.419   4.732 -0.5790  1.1009  0.9516
 1184SOL    HW215186   3.873   2.484   4.764 -0.5028 -0.3779 -0.2512
 1185SOL     OW15187   2.512   3.369   4.683  0.8098  0.3231  0.1318
 1185SOL    HW115188   2.468   3.291   4.715 -0.2749  1.0166  0.3212
 1185SOL    HW215189   2.589   3.323   4.648  0.5761 -0.7927  1.0668
 1186SOL     OW15190   2.922   3.079   7.008  0.5643 -0.0706  0.0662
 1186SOL    HW115191   2.985   3.142   7.045  0.2232 -1.4870  3.0353
 1186SOL    HW215192   2.932   3.104   6.917 -4.6027 -1.4601 -0.8689
 1187SOL     OW15193   0.152   1.872  11.935  0.1164 -0.0177 -0.1528
 1187SOL    HW115194   0.153   1.951  11.990  2.7515  0.3515 -0.7238
 1187SOL    HW215195   0.058   1.856  11.941 -0.0142  0.6835 -0.2700
 1188SOL     OW15196   1.269   4.328   9.715 -0.5070  0.6517 -0.0421
 1188SOL    HW115197   1.234   4.272   9.646  2.0266  1.4375 -1.9395
 1188SOL    HW215198   1.285   4.263   9.783  2.5683 -1.1564 -2.5343
 1189SOL     OW15199   0.246   2.424   3.606  0.5284  0.2107 -0.5921
 1189SOL    HW115200   0.296   2.410   3.686 -1.6344 -0.3924  0.6631
 1189SOL    HW215201   0.220   2.512   3.633  0.7208  0.7254 -2.0931
 1190SOL     OW15202   3.537   0.222   5.903  0.5055 -0.7575 -0.3156
 1190SOL    HW115203   3.486   0.269   5.969  1.5873  2.4231 -1.7202
 1190SOL    HW215204   3.570   0.297   5.853  0.1335  0.3452  1.0756
 1191SOL     OW15205   2.163   0.537   5.768  0.0797 -0.0533 -0.2690
 1191SOL    HW115206   2.172   0.598   5.694 -1.5284 -0.1460 -0.5368
 1191SOL    HW215207   2.089   0.480   5.749 -0.5119  1.5835 -2.9237
 1192SOL     OW15208   2.771   2.979  16.288  0.2761  0.1540  0.9158
 1192SOL    HW115209   2.778   2.972  16.383 -1.6788 -0.7153  1.0033
 1192SOL    HW215210   2.679   3.005  16.275 -0.2859 -0.4667  3.6605
 1193SOL     OW15211   1.490   1.437  14.497  0.4075  0.3862  0.3493
 1193SOL    HW115212   1.492   1.365  14.560 -1.4378 -0.2482 -0.3103
 1193SOL    HW215213   1.559   1.495  14.530  0.4496 -1.5054  3.5769
 1194SOL     OW15214   0.475   0.092   6.897  0.0800  0.5156  0.7416
 1194SOL    HW115215   0.430   0.097   6.982 -1.2665  0.3087  0.0411
 1194SOL    HW215216   0.508   0.002   6.906 -2.0903 -0.3794 -0.0106
 1195SOL     OW15217   1.126   4.491  10.629 -0.2473 -0.1680 -0.3542
 1195SOL    HW115218   1.220   4.508  10.622 -0.0787 -1.3618 -0.9681
 1195SOL    HW215219   1.087   4.558  10.574  0.5556 -0.5170 -1.3305
 1196SOL     OW15220   0.982   4.230   8.025 -0.7196 -0.2319 -0.3926
 1196SOL    HW115221   0.930   4.170   7.972  0.6100 -1.9144  0.2212
 1196SOL    HW215222   0.991   4.168   8.097 -0.8009  0.8100  0.5107
 1197SOL     OW15223   4.627   1.554   7.102  0.6583 -0.4716 -0.2170
 1197SOL    HW115224   4.694   1.504   7.056 -0.4464 -0.7312 -1.5512
 1197SOL    HW215225   4.554   1.495   7.119  0.2493  0.0526 -0.1381
 1198SOL     OW15226   2.375   3.087  15.593 -0.0827 -0.2797  0.7414
 1198SOL    HW115227   2.388   3.173  15.633 -2.3459  0.9081 -1.0496
 1198SOL    HW215228   2.347   3.106  15.503  1.2470  1.4259  0.6936
 1199SOL     OW15229   4.672   3.526  13.109 -0.4518  0.0430 -0.6678
 1199SOL    HW115230   4.583   3.501  13.084 -1.3261  0.4483  1.9428
 1199SOL    HW215231   4.711   3.479  13.036 -0.1058 -0.1606 -0.3546
 1200SOL     OW15232   3.386   0.909  10.352  0.0401 -0.0484 -0.1973
 1200SOL    HW115233   3.388   0.824  10.309 -0.3300  0.0494 -0.4115
 1200SOL    HW215234   3.297   0.935  10.328 -0.9432 -2.2840  0.9973
 1201SOL     OW15235   0.289   4.277  17.736 -0.4749  0.5625 -0.1741
 1201SOL    HW115236   0.292   4.186  17.706 -1.8857  0.2270  0.7334
 1201SOL    HW215237   0.328   4.323  17.661 -1.7551  1.9375 -0.0076
 1202SOL     OW15238   2.510   2.627   8.459  1.0276 -0.0810  0.0047
 1202SOL    HW115239   2.563   2.706   8.453  0.3553  0.4526  1.0457
 1202SOL    HW215240   2.555   2.570   8.397 -2.8209 -2.8542 -0.2489
 1203SOL     OW15241   2.956   2.458   7.761 -0.7210 -0.3775  0.2007
 1203SOL    HW115242   3.048   2.466   7.738 -1.0708  1.6473 -0.4897
 1203SOL    HW215243   2.913   2.464   7.675 -0.7520 -0.2711  0.2248
 1204SOL     OW15244   1.227   0.180  13.860  0.2512  0.2846  0.3807
 1204SOL    HW115245   1.133   0.182  13.876 -0.3189 -1.8327 -2.6594
 1204SOL    HW215246   1.258   0.191  13.950  0.9292  2.9812 -0.1865
 1205SOL     OW15247   0.993   3.361   8.288  0.0171  0.1588  1.1470
 1205SOL    HW115248   0.925   3.418   8.324 -2.0268 -0.5234 -1.5291
 1205SOL    HW215249   1.029   3.323   8.367  0.5385  0.3810  1.0149
 1206SOL     OW15250   4.080   2.228   8.397 -0.1776  0.4645 -0.4211
 1206SOL    HW115251   3.992   2.261   8.377  0.6105  1.6800 -1.8627
 1206SOL    HW215252   4.076   2.133   8.383 -2.4000  0.3868  0.5960
 1207SOL     OW15253   1.038   2.466   4.231 -1.1495  0.3944  0.3140
 1207SOL    HW115254   1.034   2.537   4.166 -1.7784 -0.4477 -0.5773
 1207SOL    HW215255   1.107   2.501   4.286 -1.7933  0.1995  1.2366
 1208SOL     OW15256   1.496   4.406  15.542 -0.2850  0.8959 -0.1318
 1208SOL    HW115257   1.527   4.322  15.509  1.0863  1.0371  0.7731
 1208SOL    HW215258   1.483   4.436  15.452 -0.5485  0.0820 -0.3604
 1209SOL     OW15259   1.404   1.193   1.867  0.3712  0.6652  0.3635
 1209SOL    HW115260   1.385   1.252   1.941  0.8673 -1.2940  2.0318
 1209SOL    HW215261   1.326   1.137   1.870  0.7266  0.1140 -0.9090
 1210SOL     OW15262   4.713   0.542   8.296  0.6861 -0.2161 -0.1929
 1210SOL    HW115263   4.633   0.490   8.293  0.2423  0.4000  1.0743
 1210SOL    HW215264   4.680   0.620   8.339  0.5998 -0.2665 -0.1676
 1211SOL     OW15265   1.866   1.248   1.770  0.2345 -0.0116 -0.2924
 1211SOL    HW115266   1.793   1.187   1.764 -0.7752  1.3019 -1.4009
 1211SOL    HW215267   1.934   1.183   1.788  0.1791 -0.2764 -1.0093
 1212SOL     OW15268   2.849   3.568   8.019 -0.7688 -0.3112 -0.3076
 1212SOL    HW115269   2.778   3.504   8.026 -0.1205 -0.7868  1.8957
 1212SOL    HW215270   2.899   3.545   8.098 -0.4496  1.7481  0.1116
 1213SOL     OW15271   4.481   0.869   3.737  0.0931 -0.5749 -0.0596
 1213SOL    HW115272   4.396   0.893   3.701 -0.1314 -1.8007 -0.3316
 1213SOL    HW215273   4.494   0.953   3.782  1.2216 -0.9077  0.2369
 1214SOL     OW15274   1.488   2.955   5.972  0.3259 -0.0028 -0.1200
 1214SOL    HW115275   1.432   3.030   5.990  1.6760  1.4904 -2.1809
 1214SOL    HW215276   1.563   2.985   5.921 -0.4345  1.7467 -0.1927
 1215SOL     OW15277   0.358   3.804   2.059 -0.1952  0.3974  0.2454
 1215SOL    HW115278   0.279   3.851   2.034  0.3958  1.8573  1.1256
 1215SOL    HW215279   0.325   3.722   2.096  0.5667  1.0626  2.4331
 1216SOL     OW15280   1.396   2.802   7.055  0.9447  0.8064  0.2055
 1216SOL    HW115281   1.417   2.873   6.994  0.5920 -1.0999 -2.1438
 1216SOL    HW215282   1.433   2.728   7.006 -0.8107  0.0678  0.0010
 1217SOL     OW15283   3.168   3.077   3.960  0.3871 -0.3241  0.1166
 1217SOL    HW115284   3.125   3.114   3.883  1.9693 -0.1165 -0.6911
 1217SOL    HW215285   3.100   3.071   4.026  0.8293 -1.8569  0.4266
 1218SOL     OW15286   4.610   1.816  11.945  0.6950 -0.5203  0.4200
 1218SOL    HW115287   4.530   1.766  11.961  0.6405 -0.8498 -0.9157
 1218SOL    HW215288   4.572   1.899  11.917  0.5349 -1.2980 -1.6622
 1219SOL     OW15289   3.738   1.869   6.215  0.5619 -0.0810  0.5195
 1219SOL    HW115290   3.739   1.816   6.295 -0.9532  1.9490  1.9139
 1219SOL    HW215291   3.829   1.858   6.189  0.2420  1.0087 -1.0960
 1220SOL     OW15292   0.805   0.572   1.750  0.0381  0.2012  0.0908
 1220SOL    HW115293   0.852   0.508   1.803 -0.3830 -0.1004  0.1014
 1220SOL    HW215294   0.728   0.588   1.804  0.8594  0.1828  1.2634
 1221SOL     OW15295   2.915   4.480   9.256 -0.4376  0.3424  0.5823
 1221SOL    HW115296   2.865   4.453   9.179 -0.8533 -1.1843  1.3819
 1221SOL    HW215297   2.979   4.541   9.221  0.1090 -1.2510 -1.1567
 1222SOL     OW15298   2.262   0.175  14.314  0.2955 -0.7583 -0.1938
 1222SOL    HW115299   2.243   0.258  14.358  0.3761 -0.9468  0.1991
 1222SOL    HW215300   2.325   0.202  14.247  0.3623 -0.3938  0.0136
 1223SOL     OW15301   1.838   3.201   9.465 -0.1829 -0.0843  0.0716
 1223SOL    HW115302   1.755   3.161   9.438  1.7138 -2.8605 -1.6078
 1223SOL    HW215303   1.836   3.167   9.555  0.3119 -1.8055 -0.5584
 1224SOL     OW15304   1.718   4.417   4.356 -0.7916  0.7027 -0.4774
 1224SOL    HW115305   1.648   4.357   4.333  0.1952 -0.7921  0.4745
 1224SOL    HW215306   1.784   4.367   4.308 -0.4927 -0.1279  0.8093
 1225SOL     OW15307   3.349   3.911   0.536  1.0190 -0.1745 -0.2820
 1225SOL    HW115308   3.281   3.917   0.604  1.1106  0.9054 -0.2901
 1225SOL    HW215309   3.334   3.825   0.498 -2.2107 -0.3083  1.2450
 1226SOL     OW15310   4.397   1.122   6.978 -0.2165 -0.5351 -0.0310
 1226SOL    HW115311   4.352   1.093   7.057 -2.9214  1.6024 -0.8198
 1226SOL    HW215312   4.487   1.139   7.006 -0.5551  0.5800  0.3441
 1227SOL     OW15313   2.394   1.023  15.793  0.4353  0.4464 -0.0428
 1227SOL    HW115314   2.487   1.040  15.777  0.7628 -0.8965  0.4501
 1227SOL    HW215315   2.371   1.055  15.706  0.1892 -0.8029 -0.4477
 1228SOL     OW15316   4.728   2.270   7.974  0.1442  0.0035  0.1478
 1228SOL    HW115317   4.706   2.213   7.900 -0.0487 -0.6260  0.6881
 1228SOL    HW215318   4.720   2.209   8.047  0.8291  0.5048  0.6467
 1229SOL     OW15319   2.100   1.080   1.817  0.1358  0.5772  0.4884
 1229SOL    HW115320   2.163   1.022   1.773 -1.2226 -0.9886  0.6206
 1229SOL    HW215321   2.099   1.036   1.902 -1.6584 -1.0016 -0.3398
 1230SOL     OW15322   3.867   1.996   7.756  0.7012  0.5536 -0.1211
 1230SOL    HW115323   3.870   2.020   7.663 -0.2619 -1.2559 -0.6007
 1230SOL    HW215324   3.954   1.958   7.739  1.4941  1.4469  1.9687
 1231SOL     OW15325   4.317   1.001  11.289  0.0300 -0.0984 -0.2306
 1231SOL    HW115326   4.285   1.087  11.262 -1.5561 -1.1529 -1.7230
 1231SOL    HW215327   4.383   1.030  11.352 -0.8594  2.7527 -0.5862
 1232SOL     OW15328   0.632   2.555   2.564 -0.0240  0.7634  0.3436
 1232SOL    HW115329   0.618   2.461   2.579 -2.2886  1.0917  0.2651
 1232SOL    HW215330   0.638   2.585   2.655 -0.1923  0.0083  0.6063
 1233SOL     OW15331   1.388   1.186   4.568 -0.2152  0.1690  0.7626
 1233SOL    HW115332   1.354   1.126   4.501  0.0675  1.6349 -0.7099
 1233SOL    HW215333   1.359   1.135   4.643 -1.0741 -0.1257  0.2394
 1234SOL     OW15334   3.553   1.928  15.232 -0.1278  0.0366 -0.3615
 1234SOL    HW115335   3.476   1.913  15.287  1.7752  0.0172  2.3009
 1234SOL    HW215336   3.555   2.023  15.224 -0.9340  0.0005 -0.9735
 1235SOL     OW15337   0.415   4.213   2.811 -0.3473  0.1306 -0.3836
 1235SOL    HW115338   0.379   4.292   2.850  0.2823  0.3197 -0.1813
 1235SOL    HW215339   0.504   4.206   2.846 -1.2846 -0.2499  1.8984
 1236SOL     OW15340   2.517   4.346   8.004  0.0193 -0.0417 -0.3411
 1236SOL    HW115341   2.491   4.400   7.929  1.6149 -0.5532 -1.2587
 1236SOL    HW215342   2.431   4.330   8.042  0.2699 -0.0557  0.2220
 1237SOL     OW15343   2.940   1.598   4.094  0.2320 -0.5409 -0.0348
 1237SOL    HW115344   2.924   1.518   4.143  0.5293  0.5481  1.8322
 1237SOL    HW215345   3.023   1.571   4.055  1.3746  2.7727  0.0831
 1238SOL     OW15346   0.949   2.963   5.494 -0.2497 -0.2837  0.0284
 1238SOL    HW115347   0.878   2.903   5.517  0.1051 -0.7992 -0.2493
 1238SOL    HW215348   0.913   3.041   5.451  1.2607 -1.4620 -3.3232
 1239SOL     OW15349   2.476   1.666   9.710  0.2495  0.1844 -0.0023
 1239SOL    HW115350   2.525   1.731   9.660  3.6163 -3.0650 -0.9635
 1239SOL    HW215351   2.410   1.664   9.640  0.7088  1.1724 -0.4506
 1240SOL     OW15352   1.481   0.113  15.148  0.5280 -0.3621  0.0980
 1240SOL    HW115353   1.483   0.017  15.148  0.1920 -0.3701 -0.8361
 1240SOL    HW215354   1.571   0.130  15.121  0.6612 -0.0335  0.7642
 1241SOL     OW15355   3.206   0.579   7.038  0.7230 -0.4831 -0.6790
 1241SOL    HW115356   3.196   0.606   7.129  1.2737 -0.2163 -0.6972
 1241SOL    HW215357   3.121   0.535   7.030  0.7332 -0.0175 -3.3803
 1242SOL     OW15358   2.458   1.394  12.422  0.2555  0.3493 -0.0735
 1242SOL    HW115359   2.521   1.450  12.377  1.0990  0.1825  0.8931
 1242SOL    HW215360   2.483   1.414  12.513  0.2447  2.4781 -0.5185
 1243SOL     OW15361   0.063   4.062   7.725 -0.0499 -0.3041  0.1033
 1243SOL    HW115362   4.723   4.072   7.779  0.0475 -0.8887  0.3512
 1243SOL    HW215363   0.136   4.046   7.785 -0.9048  2.3700  1.8808
 1244SOL     OW15364   4.146   3.446   4.154 -0.6973  0.1755 -0.4048
 1244SOL    HW115365   4.143   3.501   4.232 -1.5007 -0.0054 -0.2999
 1244SOL    HW215366   4.155   3.503   4.078 -0.6337  1.0308  0.2449
 1245SOL     OW15367   3.106   2.506  11.763 -0.3171  0.4617 -0.0498
 1245SOL    HW115368   3.194   2.476  11.787 -0.9933 -0.9293  0.6054
 1245SOL    HW215369   3.112   2.541  11.674  0.1305 -1.3353 -0.7237
 1246SOL     OW15370   1.178   1.551   5.199 -0.2625  0.6930 -0.2824
 1246SOL    HW115371   1.168   1.500   5.118  0.8400 -0.2005  0.1418
 1246SOL    HW215372   1.109   1.617   5.195  0.2241  1.1734 -0.7453
 1247SOL     OW15373   3.884   1.147  12.465 -0.4023 -0.2133  0.5995
 1247SOL    HW115374   3.899   1.195  12.547  1.7587 -2.1406  1.3148
 1247SOL    HW215375   3.958   1.088  12.460  0.5954  1.0054  0.8349
 1248SOL     OW15376   3.338   0.772   5.643  0.1102 -0.4682  0.1184
 1248SOL    HW115377   3.424   0.744   5.610  0.7313  0.0526  1.3167
 1248SOL    HW215378   3.293   0.789   5.560 -0.2845 -0.9288  0.2369
 1249SOL     OW15379   2.589   1.030   2.425  0.2628  0.2141  0.0928
 1249SOL    HW115380   2.614   1.014   2.334  1.6618  0.3785  0.4416
 1249SOL    HW215381   2.618   0.942   2.449 -0.3965 -0.0394 -0.0437
 1250SOL     OW15382   3.123   2.025   3.963  0.5459  0.4017  0.6197
 1250SOL    HW115383   3.106   1.991   4.051 -0.8195 -0.1735  0.1226
 1250SOL    HW215384   3.218   2.037   3.969  0.7258  0.2470 -1.9917
 1251SOL     OW15385   4.495   2.563   6.089  0.2000  0.1302  0.0025
 1251SOL    HW115386   4.424   2.608   6.136 -1.1706  0.0940 -2.0628
 1251SOL    HW215387   4.577   2.596   6.127  0.1981 -1.5074  1.4482
 1252SOL     OW15388   3.020   4.540   0.878  0.0425  0.6839 -0.1444
 1252SOL    HW115389   2.942   4.511   0.831  0.1750 -1.9936  1.2946
 1252SOL    HW215390   3.095   4.497   0.837 -0.3691  0.2018 -0.3916
 1253SOL     OW15391   4.412   0.521  16.636 -0.2267 -0.0970  0.0370
 1253SOL    HW115392   4.397   0.614  16.615 -0.0690 -0.2495 -0.7571
 1253SOL    HW215393   4.431   0.530  16.729 -1.0957 -2.9241  0.4701
 1254SOL     OW15394   2.072   2.956   6.078 -0.0239  0.0631 -0.2554
 1254SOL    HW115395   2.127   2.895   6.126  0.9425 -0.2355 -1.7380
 1254SOL    HW215396   2.122   2.954   5.997 -0.0817 -1.1019 -0.2716
 1255SOL     OW15397   0.600   3.763   9.076  0.1056  0.0149 -0.4511
 1255SOL    HW115398   0.515   3.733   9.109 -0.5377 -0.5237 -2.6141
 1255SOL    HW215399   0.593   3.857   9.094 -1.2321 -0.2333  0.3024
 1256SOL     OW15400   2.880   4.043   5.677  0.9098 -0.6059  0.2477
 1256SOL    HW115401   2.928   4.103   5.734 -0.2956  0.3620  0.2156
 1256SOL    HW215402   2.954   3.995   5.640  1.1588 -2.2575  2.8647
 1257SOL     OW15403   0.056   1.261   8.541 -1.2044 -0.3057 -0.3566
 1257SOL    HW115404   0.082   1.194   8.604 -2.4341  0.3635  0.8730
 1257SOL    HW215405   0.048   1.336   8.599 -0.8123  0.2757 -1.0537
 1258SOL     OW15406   3.124   2.162   8.363 -0.2855  0.1771 -0.0152
 1258SOL    HW115407   3.050   2.198   8.315  0.5795 -0.6866 -1.9902
 1258SOL    HW215408   3.159   2.244   8.399  1.2984 -0.1840 -0.7182
 1259SOL     OW15409   1.628   3.735   8.386  0.1650 -0.4898  0.5405
 1259SOL    HW115410   1.646   3.815   8.435 -0.8273 -0.6788  1.2093
 1259SOL    HW215411   1.610   3.670   8.455  0.5073  0.1363  1.2178
 1260SOL     OW15412   4.035   1.008  11.580  0.1157  0.1132  0.0803
 1260SOL    HW115413   4.035   0.913  11.582  0.7766  0.1406  1.3955
 1260SOL    HW215414   4.122   1.026  11.616  0.3944  0.4649 -0.7500
 1261SOL     OW15415   1.201   2.327   3.701 -0.3136  0.1187  0.8299
 1261SOL    HW115416   1.296   2.318   3.698 -0.2622  0.8581 -0.1458
 1261SOL    HW215417   1.173   2.249   3.652 -1.2258  0.4606  0.7980
 1262SOL     OW15418   3.110   4.029   1.236  0.8597  0.1327 -0.0949
 1262SOL    HW115419   3.125   4.079   1.316  2.8872 -3.1776  1.5957
 1262SOL    HW215420   3.035   4.078   1.201  1.9861  2.5007  0.7930
 1263SOL     OW15421   3.727   0.572   4.152  0.4727  0.1003 -0.1986
 1263SOL    HW115422   3.698   0.650   4.104 -0.0320 -0.5171 -0.8857
 1263SOL    HW215423   3.819   0.597   4.167  0.3459  0.3423  0.1910
 1264SOL     OW15424   1.824   0.394   7.938 -0.4049 -0.0816  0.0732
 1264SOL    HW115425   1.774   0.473   7.958  0.5910  0.3054  1.0156
 1264SOL    HW215426   1.765   0.327   7.973 -0.2115 -0.1912  0.1874
 1265SOL     OW15427   2.584   1.380   8.308  0.1108 -0.1240  0.4438
 1265SOL    HW115428   2.596   1.325   8.386  1.4792  1.1678  1.1426
 1265SOL    HW215429   2.501   1.344   8.275  0.7166 -0.4880 -0.6738
 1266SOL     OW15430   3.722   1.356   2.524 -0.0571 -0.3212 -0.0984
 1266SOL    HW115431   3.759   1.314   2.602  1.8187 -0.4301 -1.0340
 1266SOL    HW215432   3.805   1.386   2.486  0.5305 -1.5299  0.2135
 1267SOL     OW15433   1.218   4.276   3.247 -0.2227  0.0967 -0.1933
 1267SOL    HW115434   1.187   4.222   3.173 -1.5534 -1.2185  1.3084
 1267SOL    HW215435   1.217   4.204   3.310  1.6087 -1.0080 -1.4181
 1268SOL     OW15436   0.416   3.065   8.674 -0.8987  0.1575  0.1188
 1268SOL    HW115437   0.462   3.043   8.755 -1.5079 -0.6111  0.2579
 1268SOL    HW215438   0.463   3.017   8.606  1.3154  1.9854  0.3505
 1269SOL     OW15439   2.926   4.227   9.341 -0.1155 -0.0921 -0.1815
 1269SOL    HW115440   2.914   4.317   9.309 -0.2362 -0.5801 -1.4998
 1269SOL    HW215441   2.981   4.240   9.418  0.4503 -2.0407 -0.2599
 1270SOL     OW15442   2.184   4.336  14.744 -0.6433  0.0451 -0.1146
 1270SOL    HW115443   2.262   4.368  14.790  0.6408 -0.9792 -1.5897
 1270SOL    HW215444   2.211   4.255  14.702 -1.2729 -0.6070  0.7380
 1271SOL     OW15445   3.932   2.081   0.758  0.3558 -0.0372  0.5779
 1271SOL    HW115446   3.862   2.126   0.806 -0.4961 -1.7083  0.8999
 1271SOL    HW215447   3.877   2.008   0.729  2.4311 -1.0925 -0.6398
 1272SOL     OW15448   1.649   2.117   7.746  0.0002 -0.0886 -0.7896
 1272SOL    HW115449   1.734   2.146   7.711  0.2775 -0.2400 -0.2506
 1272SOL    HW215450   1.587   2.175   7.703 -0.8439  0.4532  1.1860
 1273SOL     OW15451   3.101   2.936   8.699 -0.0332  0.8403  0.0576
 1273SOL    HW115452   3.173   2.992   8.726 -0.4847  1.6158 -0.3468
 1273SOL    HW215453   3.052   2.924   8.781  1.3104 -2.1518  0.4163
 1274SOL     OW15454   1.437   1.673  11.939  0.2566 -0.7918  0.3648
 1274SOL    HW115455   1.514   1.702  11.988  0.3458 -0.7054  0.1700
 1274SOL    HW215456   1.376   1.732  11.985  0.5605 -1.2145  1.3034
 1275SOL     OW15457   2.669   2.352  15.894  0.0101  0.3534 -0.1666
 1275SOL    HW115458   2.614   2.362  15.816 -1.7150 -1.8591  0.7788
 1275SOL    HW215459   2.631   2.425  15.943 -0.2527 -0.1283  0.3317
 1276SOL     OW15460   0.769   3.505   2.439 -0.1372  0.3795  0.1152
 1276SOL    HW115461   0.747   3.595   2.414  0.4404  0.3603 -0.4447
 1276SOL    HW215462   0.844   3.524   2.496  0.6085 -1.4964 -0.2343
 1277SOL     OW15463   2.180   0.674  16.161  0.4616  0.0106  0.0521
 1277SOL    HW115464   2.258   0.727  16.150  1.1720 -0.9649  0.3677
 1277SOL    HW215465   2.115   0.728  16.117 -0.9918 -0.0926  2.0242
 1278SOL     OW15466   3.693   3.723   2.458  0.1713  0.2786  0.0413
 1278SOL    HW115467   3.605   3.691   2.477  0.0720  0.0043 -0.8964
 1278SOL    HW215468   3.675   3.802   2.408  2.1986 -0.0759 -1.2167
 1279SOL     OW15469   2.962   3.307  15.324  0.4227 -0.0230  0.0031
 1279SOL    HW115470   2.915   3.265  15.396  1.2334 -0.8641  0.0346
 1279SOL    HW215471   3.011   3.233  15.288  0.4542 -0.7240  1.5000
 1280SOL     OW15472   3.132   4.647   7.149 -0.4686 -0.0341  0.1139
 1280SOL    HW115473   3.212   4.674   7.193  0.7069 -0.5288 -1.7004
 1280SOL    HW215474   3.131   4.555   7.177 -0.2674 -0.0222  0.1590
 1281SOL     OW15475   1.221   1.395   6.744  0.4674  0.3522 -0.1948
 1281SOL    HW115476   1.185   1.430   6.663  1.7460 -2.7676 -2.1191
 1281SOL    HW215477   1.308   1.362   6.720 -0.6836 -0.4818 -3.2768
 1282SOL     OW15478   3.145   3.190   6.810 -0.6333  0.1280  0.7386
 1282SOL    HW115479   3.229   3.149   6.793 -0.8429  0.1944 -0.4530
 1282SOL    HW215480   3.088   3.146   6.747 -0.6771  0.6531  0.4081
 1283SOL     OW15481   1.891   2.559  15.044  0.2221 -0.8668 -0.4212
 1283SOL    HW115482   1.926   2.507  15.116  0.5015 -1.4386 -0.9655
 1283SOL    HW215483   1.798   2.571  15.061  0.6927 -1.1629  2.3679
 1284SOL     OW15484   1.991   3.457   5.050  0.3887 -0.1924 -0.0788
 1284SOL    HW115485   2.007   3.551   5.045  0.9761 -0.3833 -1.9217
 1284SOL    HW215486   2.027   3.433   5.135  0.0245 -2.2297 -0.4944
 1285SOL     OW15487   0.406   3.402  15.623 -0.1819  0.1655  0.0144
 1285SOL    HW115488   0.429   3.494  15.613  1.4495  0.1736  3.8349
 1285SOL    HW215489   0.320   3.405  15.581 -0.0683  0.3388 -0.2074
 1286SOL     OW15490   2.641   2.447   9.079 -0.4622 -0.4884  0.1735
 1286SOL    HW115491   2.640   2.434   8.984  0.8595  0.0642  0.0736
 1286SOL    HW215492   2.643   2.543   9.082 -0.5442 -0.4916  0.3011
 1287SOL     OW15493   3.280   2.890   3.509 -0.3896  0.2906  0.1584
 1287SOL    HW115494   3.244   2.895   3.597  4.2289  0.3010  2.0388
 1287SOL    HW215495   3.366   2.920   3.538 -0.3949  0.0931  0.3771
 1288SOL     OW15496   2.423   2.433   5.134 -0.2435  0.4778  0.6361
 1288SOL    HW115497   2.327   2.428   5.129 -0.2059  0.2702  0.2005
 1288SOL    HW215498   2.442   2.340   5.131  1.5595  0.8877 -0.3928
 1289SOL     OW15499   0.416   1.655   4.418 -0.1886 -0.1769  0.6443
 1289SOL    HW115500   0.376   1.570   4.399 -2.3807  0.9989 -0.0932
 1289SOL    HW215501   0.335   1.701   4.442 -0.4814 -1.0576  1.3535
 1290SOL     OW15502   1.530   1.934  12.412 -0.0416  0.1079 -0.5962
 1290SOL    HW115503   1.572   1.995  12.352 -0.5742 -0.8885 -1.9656
 1290SOL    HW215504   1.442   1.943  12.377 -0.4700  0.3890  0.5585
 1291SOL     OW15505   4.135   3.878   2.695  0.2412 -0.3101  0.2851
 1291SOL    HW115506   4.212   3.929   2.720 -0.4388  0.9531 -0.1815
 1291SOL    HW215507   4.095   3.855   2.779 -0.5955  1.9705  0.5141
 1292SOL     OW15508   0.955   0.177   5.010  0.5802  0.1335  0.5728
 1292SOL    HW115509   1.021   0.109   5.027 -1.9299 -1.9020  2.1958
 1292SOL    HW215510   1.016   0.243   4.976  0.8386 -1.0299 -1.2603
 1293SOL     OW15511   2.755   4.463   9.047 -0.4036 -0.2121 -0.5567
 1293SOL    HW115512   2.747   4.420   8.962  1.6533  0.7560 -1.2646
 1293SOL    HW215513   2.667   4.498   9.049 -0.4118 -0.3945  2.0912
 1294SOL     OW15514   4.184   2.876  15.339  0.1263  0.2078 -0.0619
 1294SOL    HW115515   4.262   2.922  15.308  0.3035  1.6240  2.5379
 1294SOL    HW215516   4.144   2.945  15.391  1.2642  2.2242 -1.8589
 1295SOL     OW15517   1.765   1.518   0.276 -0.3898 -0.0633  0.3643
 1295SOL    HW115518   1.759   1.444   0.337 -1.7548  0.1233  0.4709
 1295SOL    HW215519   1.789   1.472   0.196  1.7740 -0.4728  1.2615
 1296SOL     OW15520   2.436   2.020   8.300 -0.1913  0.7047  0.1601
 1296SOL    HW115521   2.430   2.065   8.384  0.9573 -0.5297  0.9147
 1296SOL    HW215522   2.359   1.963   8.296  1.3939 -1.5729  1.8386
 1297SOL     OW15523   2.436   2.271  11.347  0.4016 -0.0984 -0.2713
 1297SOL    HW115524   2.386   2.225  11.415  0.7137  1.4405  1.0154
 1297SOL    HW215525   2.371   2.256  11.278 -2.4015  2.7151  1.7081
 1298SOL     OW15526   3.421   1.141   4.807 -0.7398  0.2677  0.0351
 1298SOL    HW115527   3.329   1.145   4.833 -0.6771 -2.4852  0.6578
 1298SOL    HW215528   3.405   1.115   4.716 -1.2828  1.5493 -0.2318
 1299SOL     OW15529   3.895   1.886   8.875  0.5595 -0.4197 -0.0216
 1299SOL    HW115530   3.815   1.898   8.927  1.7191  0.7931  1.4978
 1299SOL    HW215531   3.929   1.824   8.940  3.6227  1.6699  0.3555
 1300SOL     OW15532   1.751   2.936  17.102  0.3100 -0.1179 -0.0097
 1300SOL    HW115533   1.772   2.858  17.050  0.2544  0.4735 -0.9193
 1300SOL    HW215534   1.700   2.992  17.044  0.2316  0.7400  0.8830
 1301SOL     OW15535   3.199   4.672   5.344  0.3296 -0.2225  0.3034
 1301SOL    HW115536   3.152   4.699   5.423 -0.5571 -0.1424 -0.2508
 1301SOL    HW215537   3.186   0.009   5.287  0.2173 -0.6211 -0.2042
 1302SOL     OW15538   4.539   1.048   8.585  0.2832  0.0449 -0.0122
 1302SOL    HW115539   4.540   0.968   8.637  1.4893  0.2122  0.2337
 1302SOL    HW215540   4.583   1.112   8.642  0.1879 -0.7770  0.9866
 1303SOL     OW15541   4.377   2.261   4.157 -0.5000  0.1583 -0.1677
 1303SOL    HW115542   4.361   2.299   4.244 -1.9191 -0.2519 -0.2667
 1303SOL    HW215543   4.398   2.168   4.162  1.0447  0.4254 -1.6193
 1304SOL     OW15544   0.207   0.359  11.398  0.1463 -0.0903 -0.1846
 1304SOL    HW115545   0.260   0.294  11.444  0.7039  1.6613  1.5820
 1304SOL    HW215546   0.234   0.352  11.306  2.6706 -0.6148  0.6254
 1305SOL     OW15547   1.090   3.662   2.339  0.1429  0.4699  0.0572
 1305SOL    HW115548   1.076   3.693   2.428 -1.0632  0.2022 -0.0339
 1305SOL    HW215549   0.999   3.648   2.312 -0.0000 -0.5170  1.0268
 1306SOL     OW15550   3.948   1.081   2.138  0.1786  0.0757 -0.6160
 1306SOL    HW115551   3.881   1.015   2.158 -0.8115  1.4940  0.7972
 1306SOL    HW215552   3.906   1.167   2.147  0.7255  0.3573 -0.7716
 1307SOL     OW15553   3.634   1.641  15.313  0.2759  0.0387 -0.3448
 1307SOL    HW115554   3.728   1.658  15.314  0.3416 -0.2525 -1.3407
 1307SOL    HW215555   3.593   1.727  15.323 -0.4759 -0.2651 -0.7841
 1308SOL     OW15556   1.494   4.332   3.478 -0.7925 -0.2893  0.2584
 1308SOL    HW115557   1.535   4.245   3.470 -1.3247 -0.4421 -0.8499
 1308SOL    HW215558   1.420   4.299   3.529 -0.1351  1.3900  2.3097
 1309SOL     OW15559   0.694   3.794   2.433 -0.2390  0.1487  0.4079
 1309SOL    HW115560   0.683   3.886   2.409 -3.4381  0.6416  3.5899
 1309SOL    HW215561   0.604   3.774   2.459 -0.2870  0.4386  0.4605
 1310SOL     OW15562   4.150   0.996   9.472  0.3577  0.3113  0.2802
 1310SOL    HW115563   4.055   1.004   9.478  0.0617 -2.5463 -0.3683
 1310SOL    HW215564   4.174   1.086   9.495  0.6224 -0.0488  1.4082
 1311SOL     OW15565   0.917   0.646   0.998  0.0586 -0.6017 -0.2285
 1311SOL    HW115566   0.832   0.648   1.042  0.8790 -0.6108  1.3554
 1311SOL    HW215567   0.891   0.578   0.936  2.7180 -0.2272 -1.7509
 1312SOL     OW15568   0.289   2.117  15.987  0.4026  0.0579 -0.0291
 1312SOL    HW115569   0.283   2.030  16.025  2.5473 -0.7702 -1.5980
 1312SOL    HW215570   0.272   2.093  15.896  2.1417  0.1985 -0.3960
 1313SOL     OW15571   0.841   1.303   4.558 -0.2766  0.1849 -0.5480
 1313SOL    HW115572   0.807   1.349   4.481  0.2438  0.2233 -0.7554
 1313SOL    HW215573   0.836   1.370   4.626 -1.8051  0.0080 -0.4832
 1314SOL     OW15574   4.622   2.027  14.493  0.3063  0.1275 -0.1407
 1314SOL    HW115575   4.690   2.067  14.547  2.1559 -0.5079 -1.9997
 1314SOL    HW215576   4.684   1.981  14.437  0.3391 -0.4802  0.3957
 1315SOL     OW15577   3.654   0.974   1.112 -0.0197 -0.0675  0.7056
 1315SOL    HW115578   3.689   0.924   1.185  0.4725  1.1301  1.2986
 1315SOL    HW215579   3.731   1.027   1.090 -0.4441  0.3793  0.2821
 1316SOL     OW15580   3.778   1.352  10.663  0.3745  0.7581 -0.4306
 1316SOL    HW115581   3.858   1.402  10.678 -0.4135  1.9783 -0.2903
 1316SOL    HW215582   3.808   1.267  10.631  0.3197 -0.0725  1.7613
 1317SOL     OW15583   0.272   4.283  10.866 -0.2804 -0.4840 -0.2897
 1317SOL    HW115584   0.363   4.300  10.839 -0.3495 -1.7272 -1.3232
 1317SOL    HW215585   0.271   4.187  10.869 -0.9151 -0.4372  0.9158
 1318SOL     OW15586   2.981   1.381   9.055 -0.4198  0.6019 -0.0564
 1318SOL    HW115587   3.031   1.412   8.980  1.7953  2.3337  2.1208
 1318SOL    HW215588   2.910   1.338   9.007 -0.2406 -1.8412  1.8600
 1319SOL     OW15589   0.636   2.427   7.525  0.7751  0.0031  0.0569
 1319SOL    HW115590   0.605   2.363   7.589  0.7033 -0.6178 -0.5998
 1319SOL    HW215591   0.636   2.517   7.559 -1.9649  0.4963 -1.2440
 1320SOL     OW15592   3.023   1.803   2.429 -0.3116  0.4443 -0.2255
 1320SOL    HW115593   3.067   1.766   2.506  0.3938 -1.5920 -1.6090
 1320SOL    HW215594   3.061   1.891   2.420  2.6484 -0.6555  1.4814
 1321SOL     OW15595   0.838   4.177   0.439  0.1011  0.0101 -0.0934
 1321SOL    HW115596   0.847   4.252   0.498  0.4676 -0.7075  0.7575
 1321SOL    HW215597   0.815   4.100   0.491 -0.0601 -1.5031 -2.4254
 1322SOL     OW15598   2.849   4.705   0.991 -0.1033 -0.0426 -0.2317
 1322SOL    HW115599   2.930   4.659   0.968 -1.6487 -2.9077  0.0717
 1322SOL    HW215600   2.834   4.650   1.068 -0.8301  0.0759 -0.2871
 1323SOL     OW15601   0.093   0.176   8.773  0.3346  0.0991 -0.0654
 1323SOL    HW115602   0.037   0.110   8.813  0.5262 -0.9794 -1.5928
 1323SOL    HW215603   0.029   0.227   8.723  0.1175  0.8737  1.0176
 1324SOL     OW15604   2.004   1.850   5.205 -0.6374  0.2892 -0.1281
 1324SOL    HW115605   2.095   1.833   5.229 -1.1494  0.2479  1.7862
 1324SOL    HW215606   1.982   1.766   5.165 -0.1319  0.3280 -0.4837
 1325SOL     OW15607   4.364   0.161   4.665 -0.0700  0.2791  0.3794
 1325SOL    HW115608   4.292   0.177   4.604 -1.4692 -4.4357  0.8279
 1325SOL    HW215609   4.399   0.082   4.625  0.1917  0.5210  0.1297
 1326SOL     OW15610   0.843   4.329   6.498 -0.0930  0.5566 -0.2537
 1326SOL    HW115611   0.905   4.363   6.562 -0.8819  1.3010  0.1132
 1326SOL    HW215612   0.833   4.241   6.534  2.0704  0.9179  1.1690
 1327SOL     OW15613   1.413   0.730   7.257  0.0630 -0.5645  0.0883
 1327SOL    HW115614   1.444   0.798   7.196 -2.3006  1.4745  1.1878
 1327SOL    HW215615   1.386   0.668   7.189  0.5737  1.0953 -1.6497
 1328SOL     OW15616   3.890   1.056  11.337 -0.0789 -0.0116  0.1371
 1328SOL    HW115617   3.934   1.089  11.259 -1.4376  1.7648  0.1150
 1328SOL    HW215618   3.956   1.051  11.406  0.2954 -0.3312 -0.2368
 1329SOL     OW15619   3.702   2.652  15.956 -0.3434  0.4361  0.2563
 1329SOL    HW115620   3.785   2.682  15.993 -0.4503  0.3029  0.6052
 1329SOL    HW215621   3.708   2.696  15.871  0.0410 -3.0558 -1.5307
 1330SOL     OW15622   0.383   2.079  15.677  0.0948 -0.2713 -0.1111
 1330SOL    HW115623   0.435   2.026  15.617 -0.6567 -0.1663 -0.8579
 1330SOL    HW215624   0.329   2.007  15.709  0.3996  0.6022  2.2918
 1331SOL     OW15625   4.420   3.369   8.484  0.1588 -0.2258 -0.7777
 1331SOL    HW115626   4.494   3.428   8.500 -1.0532  0.6236  1.8957
 1331SOL    HW215627   4.466   3.300   8.438  0.4032 -0.9887  0.6194
 1332SOL     OW15628   0.106   4.048   4.434 -0.6191  0.1162  0.0353
 1332SOL    HW115629   0.066   3.967   4.403 -0.2641  0.2511 -0.7740
 1332SOL    HW215630   0.093   4.092   4.350  1.1497  1.2973  0.3818
 1333SOL     OW15631   2.932   1.238   0.787  0.0334  0.2194 -0.4863
 1333SOL    HW115632   2.871   1.202   0.722 -0.7974 -0.5819  0.7489
 1333SOL    HW215633   2.877   1.229   0.865  0.3303 -0.7099 -0.3903
 1334SOL     OW15634   1.049   3.284   7.112  0.4132  0.1873 -0.1312
 1334SOL    HW115635   1.032   3.258   7.203 -3.0677 -0.7547 -1.0695
 1334SOL    HW215636   1.032   3.202   7.065  0.1124  0.0682  0.1858
 1335SOL     OW15637   2.803   0.017   7.134 -0.2368 -0.5093 -0.4470
 1335SOL    HW115638   2.881   0.073   7.138  0.6408 -1.5881 -2.7924
 1335SOL    HW215639   2.836   4.679   7.088  0.5979  0.6370 -1.7843
 1336SOL     OW15640   2.913   3.795   8.609  0.1800  0.1246 -0.2559
 1336SOL    HW115641   2.887   3.806   8.518  0.6960  1.0554 -0.2934
 1336SOL    HW215642   2.824   3.784   8.643 -0.1264  0.1626 -1.0353
 1337SOL     OW15643   2.418   1.944   4.999  0.1708 -0.2580  0.1576
 1337SOL    HW115644   2.351   1.963   4.934  0.1982  0.1599  0.2473
 1337SOL    HW215645   2.382   1.996   5.071  0.6937 -0.5424  0.6199
 1338SOL     OW15646   4.730   1.693   3.575 -0.3334 -0.1124  0.1525
 1338SOL    HW115647   0.043   1.679   3.654 -0.0541  1.3561  0.2397
 1338SOL    HW215648   4.724   1.609   3.530  0.0019 -0.6942  1.1914
 1339SOL     OW15649   1.043   2.248   5.217 -0.5622  0.2638 -0.1984
 1339SOL    HW115650   0.970   2.284   5.269 -2.6658 -0.8443 -2.3726
 1339SOL    HW215651   1.119   2.282   5.263  0.4567 -1.8905 -0.2723
 1340SOL     OW15652   4.098   1.307   4.278 -0.0303 -0.5562  0.3155
 1340SOL    HW115653   4.025   1.326   4.336 -1.4764  0.1075 -1.7322
 1340SOL    HW215654   4.062   1.340   4.196 -0.7116 -0.2987  0.7247
 1341SOL     OW15655   4.221   2.634   6.889  0.2128 -0.4286  0.8665
 1341SOL    HW115656   4.262   2.547   6.882 -0.1354 -0.6708  1.7754
 1341SOL    HW215657   4.273   2.685   6.827  0.1477 -1.8658 -0.3683
 1342SOL     OW15658   0.240   0.143   1.264  0.6131 -0.3721  0.2877
 1342SOL    HW115659   0.284   0.218   1.224  0.7042 -0.9414 -0.6658
 1342SOL    HW215660   0.292   0.128   1.344  0.5294  0.1224  0.4382
 1343SOL     OW15661   3.765   0.079   5.498 -0.2375  0.3680 -0.1886
 1343SOL    HW115662   3.742   0.047   5.411 -0.5596 -0.2770  0.1305
 1343SOL    HW215663   3.675   0.072   5.531  0.3312  3.5614  2.0674
 1344SOL     OW15664   1.919   2.448   7.009 -0.1256  0.0200  0.0386
 1344SOL    HW115665   1.969   2.524   6.979 -1.0013 -0.1236 -1.7580
 1344SOL    HW215666   1.882   2.425   6.924 -0.2342 -2.6758  0.8167
 1345SOL     OW15667   4.296   0.390   5.415  0.0972  0.4387 -0.2454
 1345SOL    HW115668   4.285   0.407   5.321 -1.1122  2.3879  0.2281
 1345SOL    HW215669   4.209   0.423   5.439  0.9476  1.3436  1.5729
 1346SOL     OW15670   0.992   0.942   3.911  0.2396 -0.0244  0.2602
 1346SOL    HW115671   0.946   0.874   3.960 -1.2832  0.2062 -0.8486
 1346SOL    HW215672   0.916   0.988   3.874  1.0140  0.6118 -0.5169
 1347SOL     OW15673   1.740   3.101  11.432 -0.2504 -0.7190 -0.2524
 1347SOL    HW115674   1.795   3.176  11.409 -1.3790 -0.5512 -2.4544
 1347SOL    HW215675   1.799   3.055  11.492  0.5165 -0.5408 -0.8738
 1348SOL     OW15676   4.372   1.748   7.371  0.3129 -0.5382  0.2155
 1348SOL    HW115677   4.309   1.715   7.306  0.4764  2.1725 -1.3471
 1348SOL    HW215678   4.317   1.759   7.448 -1.1805 -0.2256 -0.8937
 1349SOL     OW15679   1.784   2.960   2.294  0.2669  0.3885 -0.3649
 1349SOL    HW115680   1.852   2.943   2.359  1.6448  1.9047 -1.4054
 1349SOL    HW215681   1.835   3.015   2.234  0.3100  0.7282 -0.0206
 1350SOL     OW15682   4.198   4.017   6.340  0.5220 -0.0794 -0.3190
 1350SOL    HW115683   4.271   3.984   6.289  0.6538 -4.1141  2.4934
 1350SOL    HW215684   4.203   4.108   6.310  0.5265 -0.7793 -2.3925
 1351SOL     OW15685   4.294   2.102   1.820  0.2919 -0.2705 -0.0888
 1351SOL    HW115686   4.342   2.061   1.748  1.5325  2.3472 -0.7363
 1351SOL    HW215687   4.236   2.029   1.842  0.4307 -0.5800 -0.7562
 1352SOL     OW15688   1.772   1.808  17.667  0.0704 -0.2958 -0.0050
 1352SOL    HW115689   1.729   1.765  17.593  1.8933  1.7010 -2.1967
 1352SOL    HW215690   1.807   1.887  17.626  1.5510 -1.6598 -1.3627
 1353SOL     OW15691   3.970   2.732   9.056  0.5479  0.1939 -0.3305
 1353SOL    HW115692   3.913   2.805   9.084 -1.4971 -1.0325 -1.2519
 1353SOL    HW215693   3.903   2.686   9.005  0.9774  0.2301 -0.9218
 1354SOL     OW15694   2.287   1.498   9.270  0.1951 -0.0919 -0.0133
 1354SOL    HW115695   2.204   1.493   9.223 -0.3010 -0.3958  0.9119
 1354SOL    HW215696   2.306   1.590   9.255  0.6546  0.0777  1.5936
 1355SOL     OW15697   2.788   4.338   2.768  0.5808  1.0263 -0.8383
 1355SOL    HW115698   2.780   4.300   2.855  2.4774  0.2990 -0.9861
 1355SOL    HW215699   2.700   4.372   2.750 -0.9835 -2.9537 -0.6290
 1356SOL     OW15700   4.065   1.713   1.240  0.4450  0.1034 -0.0910
 1356SOL    HW115701   4.091   1.797   1.202 -1.0802  0.7529  0.2986
 1356SOL    HW215702   4.019   1.679   1.163  2.3082 -1.0604 -0.6995
 1357SOL     OW15703   0.634   1.221   1.674 -0.1120 -0.1159 -0.2050
 1357SOL    HW115704   0.676   1.287   1.729  0.0337 -0.5608  0.2198
 1357SOL    HW215705   0.702   1.182   1.619 -1.8829 -1.4323 -1.4665
 1358SOL     OW15706   2.706   2.131  14.634 -0.1430 -0.1962 -0.2391
 1358SOL    HW115707   2.640   2.090  14.578 -0.4344 -1.1545  0.8139
 1358SOL    HW215708   2.768   2.058  14.639  1.7797  1.4997  0.7815
 1359SOL     OW15709   3.300   4.483   2.040 -0.1548  0.1753 -0.5708
 1359SOL    HW115710   3.329   4.549   1.977 -0.9742 -0.0408 -1.1581
 1359SOL    HW215711   3.228   4.527   2.086 -1.2642 -1.5427 -0.6704
 1360SOL     OW15712   2.928   0.892  15.091 -0.0579  0.5797 -0.1335
 1360SOL    HW115713   2.834   0.874  15.097  0.0194  0.2197  0.0035
 1360SOL    HW215714   2.952   0.906  15.183 -0.4467 -0.8307  0.1893
 1361SOL     OW15715   2.888   4.279   3.950  0.8764 -0.1414  0.5351
 1361SOL    HW115716   2.798   4.310   3.939 -0.3409 -2.9040  2.8044
 1361SOL    HW215717   2.880   4.240   4.037 -2.6966 -0.6430 -0.0426
 1362SOL     OW15718   3.848   3.271   2.600 -0.0778  0.3341  0.1009
 1362SOL    HW115719   3.836   3.176   2.605 -0.2996  0.2837 -1.4323
 1362SOL    HW215720   3.773   3.299   2.547 -1.5149 -0.5015  1.6826
 1363SOL     OW15721   0.417   2.292   9.678  0.1476 -0.3098  0.0454
 1363SOL    HW115722   0.461   2.367   9.717  0.1243 -0.0841 -0.3615
 1363SOL    HW215723   0.328   2.322   9.659  0.0918 -0.5494 -0.0727
 1364SOL     OW15724   0.531   3.566  14.558 -0.2684  0.1646  0.2743
 1364SOL    HW115725   0.468   3.520  14.503 -0.2382 -0.9485  1.1727
 1364SOL    HW215726   0.610   3.577  14.504 -0.3416  0.1239  0.1584
 1365SOL     OW15727   2.867   3.330   9.170  0.1559 -0.8915 -0.2270
 1365SOL    HW115728   2.901   3.413   9.203 -1.7171 -0.5588  0.8555
 1365SOL    HW215729   2.787   3.318   9.220  0.5782  0.6610  0.8051
 1366SOL     OW15730   4.213   0.763   7.625 -0.4066  0.2796 -0.1364
 1366SOL    HW115731   4.232   0.790   7.714  0.1116  2.2484 -0.8531
 1366SOL    HW215732   4.265   0.683   7.627  1.0410  1.1938 -1.2917
 1367SOL     OW15733   3.724   3.321   8.094  0.5215 -0.0426  0.2876
 1367SOL    HW115734   3.818   3.326   8.110  0.2559 -0.0484  1.8648
 1367SOL    HW215735   3.715   3.259   8.022  0.0905 -3.2170  3.0433
 1368SOL     OW15736   0.539   0.260   5.491 -0.1755  0.6518 -0.9993
 1368SOL    HW115737   0.493   0.329   5.538  1.2664  0.1156  1.1856
 1368SOL    HW215738   0.592   0.223   5.561 -1.2936 -0.7555 -0.8856
 1369SOL     OW15739   2.261   4.705   9.011  0.4884  0.0004 -0.4656
 1369SOL    HW115740   2.179   0.014   9.027  0.3368 -0.3776 -0.1273
 1369SOL    HW215741   2.304   4.723   9.095 -1.6646 -2.4541  1.1576
 1370SOL     OW15742   0.234   1.242   5.102 -0.0930  0.2333 -0.4136
 1370SOL    HW115743   0.151   1.196   5.103  0.4406 -0.6566  2.8666
 1370SOL    HW215744   0.273   1.212   5.019 -2.6440  0.5299 -1.7031
 1371SOL     OW15745   3.874   2.867   6.370 -1.0006  0.4818  0.0643
 1371SOL    HW115746   3.837   2.910   6.292 -0.7634  3.9730  1.8898
 1371SOL    HW215747   3.792   2.826   6.399 -1.5103  0.6079 -1.1726
 1372SOL     OW15748   2.743   3.627  16.566  0.4989 -0.4766  0.1430
 1372SOL    HW115749   2.765   3.701  16.510  1.2626 -0.7219  0.1236
 1372SOL    HW215750   2.796   3.643  16.644  0.0009  0.7765  0.2187
 1373SOL     OW15751   4.325   3.958   5.253  0.4286  0.3930 -0.0857
 1373SOL    HW115752   4.254   3.972   5.316 -0.3558  0.8022 -1.0574
 1373SOL    HW215753   4.399   3.955   5.313 -0.0609 -0.4114  0.4817
 1374SOL     OW15754   1.773   0.543  17.489  0.2589 -0.0580 -0.2346
 1374SOL    HW115755   1.837   0.477  17.464  1.5199  1.2772 -0.5196
 1374SOL    HW215756   1.772   0.518  17.581 -1.6471 -2.8236 -1.0194
 1375SOL     OW15757   4.263   0.577  13.504 -0.1594  0.5282  0.0602
 1375SOL    HW115758   4.250   0.484  13.520  2.7444 -0.0262 -0.8892
 1375SOL    HW215759   4.192   0.588  13.440  0.4369  3.3143 -0.1357
 1376SOL     OW15760   1.718   0.825  17.191 -0.4410  0.0264 -0.3599
 1376SOL    HW115761   1.740   0.866  17.107 -2.1528  2.3855  0.3480
 1376SOL    HW215762   1.627   0.800  17.175 -0.0030 -0.5965 -1.9253
 1377SOL     OW15763   4.069   1.277  10.900 -0.4407  0.0808  0.0127
 1377SOL    HW115764   4.033   1.208  10.844  1.4126 -0.6520 -0.2714
 1377SOL    HW215765   4.162   1.281  10.877 -1.2995  0.3408 -3.4778
 1378SOL     OW15766   4.629   1.006   3.945  0.7052  0.7927  0.0458
 1378SOL    HW115767   4.669   1.068   4.007  0.6307  0.7587  0.1275
 1378SOL    HW215768   4.547   0.978   3.986  0.3837 -0.5547 -1.5673
 1379SOL     OW15769   0.393   4.239   9.325  0.3495 -0.0296 -0.0764
 1379SOL    HW115770   0.300   4.246   9.303  0.4866 -0.1982 -0.7108
 1379SOL    HW215771   0.391   4.244   9.420 -0.4211  0.9357 -0.1438
 1380SOL     OW15772   4.546   0.647   7.782  0.9808  0.0631  0.4060
 1380SOL    HW115773   4.478   0.601   7.732 -0.3912  1.9186  0.6027
 1380SOL    HW215774   4.522   0.739   7.774  0.1927 -0.2277 -0.5915
 1381SOL     OW15775   1.087   4.073  12.117 -0.4351 -0.3050  0.3720
 1381SOL    HW115776   1.076   3.997  12.059  2.1597 -0.7082  0.4064
 1381SOL    HW215777   1.122   4.138  12.057 -0.6461 -1.5770 -1.1500
 1382SOL     OW15778   0.486   2.697   6.368  0.1822  0.3947  0.4428
 1382SOL    HW115779   0.575   2.723   6.342  1.0383 -0.9559  2.0575
 1382SOL    HW215780   0.505   2.623   6.425  1.6093 -0.3166 -0.9694
 1383SOL     OW15781   0.134   1.162  10.855  0.2563  0.3556  0.2740
 1383SOL    HW115782   0.078   1.240  10.850  2.1131  1.6718  0.0870
 1383SOL    HW215783   0.105   1.118  10.775  2.1181 -0.4094  0.0298
 1384SOL     OW15784   3.378   3.327   7.463  0.2234  0.3005 -0.0417
 1384SOL    HW115785   3.339   3.389   7.524 -1.0484 -2.3734  1.8817
 1384SOL    HW215786   3.334   3.246   7.490  0.5002 -0.0747 -0.7321
 1385SOL     OW15787   0.052   2.261   4.040  0.5056  0.3735  0.3457
 1385SOL    HW115788   0.145   2.241   4.030  0.4875  0.8259 -0.6936
 1385SOL    HW215789   0.044   2.214   4.123 -1.1378  1.4779  0.8170
 1386SOL     OW15790   0.987   0.689   3.349 -0.6732 -0.0843  0.5383
 1386SOL    HW115791   1.020   0.604   3.376  1.2543  0.1859 -0.9519
 1386SOL    HW215792   0.953   0.708   3.436 -1.8904  0.6448 -0.0921
 1387SOL     OW15793   3.234   1.058   9.585  0.4208  0.1856 -0.0833
 1387SOL    HW115794   3.280   1.010   9.654 -0.2580  2.0633  1.6805
 1387SOL    HW215795   3.268   1.020   9.505 -0.4476 -2.1825  0.6841
 1388SOL     OW15796   4.279   2.616  14.097  0.0875  0.6035 -0.2573
 1388SOL    HW115797   4.266   2.692  14.154  0.0690  0.3258  0.1080
 1388SOL    HW215798   4.375   2.609  14.099 -0.0904 -1.1115  1.2245
 1389SOL     OW15799   3.062   3.905   8.305  0.1708  0.0275  0.4726
 1389SOL    HW115800   3.123   3.936   8.238 -3.4046  2.5996 -1.6140
 1389SOL    HW215801   3.089   3.816   8.328 -2.6085 -0.4571  1.7938
 1390SOL     OW15802   4.560   2.546   5.455  0.3733  0.1996 -0.1167
 1390SOL    HW115803   4.646   2.529   5.493 -0.3617 -1.0379  1.0098
 1390SOL    HW215804   4.568   2.621   5.395  1.4621 -0.0208 -0.2383
 1391SOL     OW15805   0.513   2.621   1.645 -0.6143  0.0221 -0.2446
 1391SOL    HW115806   0.465   2.608   1.726 -0.5179 -0.0985 -0.2066
 1391SOL    HW215807   0.492   2.715   1.642 -1.8141 -0.2484 -0.5044
 1392SOL     OW15808   4.703   0.960   6.039  0.3542  0.1732  0.0240
 1392SOL    HW115809   4.656   1.025   5.988  0.2426  0.5428  0.6045
 1392SOL    HW215810   4.670   0.980   6.127  1.2919 -0.6270  0.5615
 1393SOL     OW15811   0.118   3.933   8.020  0.0751 -0.4413  0.5128
 1393SOL    HW115812   0.146   3.938   8.112 -0.7692 -0.0895  0.7516
 1393SOL    HW215813   0.201   3.944   7.973  0.6628  2.0605  2.1282
 1394SOL     OW15814   2.412   0.098   2.349 -0.9762  0.0401 -0.2626
 1394SOL    HW115815   2.388   0.114   2.440  0.4589  1.1284 -0.0786
 1394SOL    HW215816   2.331   0.134   2.313  0.8221  1.8105 -2.5137
 1395SOL     OW15817   1.721   2.524  13.733  0.1225 -0.4639 -0.8088
 1395SOL    HW115818   1.699   2.586  13.663 -0.7204 -0.4793 -0.5614
 1395SOL    HW215819   1.652   2.556  13.792 -0.5533 -2.5120 -0.4902
 1396SOL     OW15820   2.636   2.453  11.317 -0.0713  0.4080  0.4518
 1396SOL    HW115821   2.691   2.400  11.259  1.1912  0.0512  1.9704
 1396SOL    HW215822   2.568   2.390  11.342 -0.1532  0.6511  0.8401
 1397SOL     OW15823   1.363   0.259   6.471  0.3663  0.8161 -0.2921
 1397SOL    HW115824   1.401   0.172   6.486 -1.9918 -0.3367 -1.0706
 1397SOL    HW215825   1.269   0.249   6.485  0.2655  0.4486 -1.2574
 1398SOL     OW15826   3.806   4.591   9.236  0.4130  0.0772 -0.2884
 1398SOL    HW115827   3.823   4.657   9.302  0.4662  1.4573 -1.6798
 1398SOL    HW215828   3.808   4.514   9.292  0.6452 -0.6049 -1.2219
 1399SOL     OW15829   0.782   3.015   8.236  0.1003  0.3163 -0.1243
 1399SOL    HW115830   0.856   3.008   8.295 -0.3769 -1.9537  0.1781
 1399SOL    HW215831   0.713   3.036   8.299  1.1000  2.6438  0.2036
 1400SOL     OW15832   0.597   1.544   7.623 -0.2923 -0.6874  0.6883
 1400SOL    HW115833   0.660   1.552   7.695  0.0976  0.0311  0.2623
 1400SOL    HW215834   0.567   1.634   7.606 -1.3473 -1.2503 -0.4361
 1401SOL     OW15835   1.035   1.381   4.044 -0.4391 -0.1099  0.1271
 1401SOL    HW115836   0.971   1.394   4.114  0.2543 -0.5524  0.8341
 1401SOL    HW215837   1.101   1.331   4.091 -0.0490  0.6768  0.4212
 1402SOL     OW15838   2.074   0.987   6.902  0.6697  0.3591  0.1109
 1402SOL    HW115839   2.000   1.008   6.959  2.3439  0.7221  2.1880
 1402SOL    HW215840   2.024   0.994   6.821 -2.2351  2.4540  2.0884
 1403SOL     OW15841   2.361   2.640   9.305 -0.4023  0.4051 -0.2816
 1403SOL    HW115842   2.394   2.693   9.232 -0.9614  0.2067 -0.6799
 1403SOL    HW215843   2.443   2.641   9.355  0.4550 -1.3886 -1.6564
 1404SOL     OW15844   4.120   4.343  15.669 -0.0565 -0.4895  0.3919
 1404SOL    HW115845   4.069   4.418  15.638  1.1722  0.2309  0.1018
 1404SOL    HW215846   4.143   4.368  15.759 -0.9146  0.3356  0.3850
 1405SOL     OW15847   0.893   1.754  11.098 -0.5446 -0.1160 -0.7315
 1405SOL    HW115848   0.858   1.667  11.081  0.9816 -0.8480 -0.1349
 1405SOL    HW215849   0.879   1.809  11.021  0.0899 -0.0422 -0.7961
 1406SOL     OW15850   4.115   2.870   1.917  0.8940 -0.4835 -0.4613
 1406SOL    HW115851   4.179   2.840   1.852  1.4271 -0.8714  0.2395
 1406SOL    HW215852   4.137   2.806   1.985 -0.5718 -0.8852 -0.3593
 1407SOL     OW15853   3.882   1.333   0.691 -0.0467 -0.4372  0.5784
 1407SOL    HW115854   3.848   1.319   0.779 -0.5400 -0.6585  0.3503
 1407SOL    HW215855   3.815   1.395   0.662  2.4140  0.4488 -3.3506
 1408SOL     OW15856   1.718   0.081   8.005  0.1393  0.1566 -0.0443
 1408SOL    HW115857   1.700   0.094   7.912  1.3716  0.0414 -0.3074
 1408SOL    HW215858   1.681   4.735   8.029  0.3097  0.5736  1.7087
 1409SOL     OW15859   2.081   0.693   1.909 -0.0675 -0.2107 -0.1953
 1409SOL    HW115860   2.122   0.772   1.945 -3.3324  0.7413  1.4229
 1409SOL    HW215861   2.000   0.729   1.874  0.9482  1.4554 -0.8371
 1410SOL     OW15862   4.201   4.382   3.897 -0.1526 -0.2689 -0.1221
 1410SOL    HW115863   4.174   4.344   3.813 -0.7329 -2.2164  0.9681
 1410SOL    HW215864   4.170   4.472   3.883 -1.8990 -1.1667 -2.0236
 1411SOL     OW15865   0.335   1.995   0.187 -0.0972 -0.1635  0.3133
 1411SOL    HW115866   0.244   1.972   0.210 -0.4548 -1.4354 -2.3233
 1411SOL    HW215867   0.326   2.090   0.191  4.6963  0.2597  0.3553
 1412SOL     OW15868   4.646   2.313   3.083  0.0974 -0.4483  0.2807
 1412SOL    HW115869   4.664   2.304   2.990  2.2253 -0.8783  0.7333
 1412SOL    HW215870   4.591   2.392   3.086 -2.9425 -2.5880  1.3999
 1413SOL     OW15871   3.906   1.185   2.454 -0.6922  0.3022 -0.6169
 1413SOL    HW115872   3.904   1.198   2.359 -0.8008 -0.1155 -0.6692
 1413SOL    HW215873   3.873   1.096   2.452  1.5572 -0.4776 -3.2878
 1414SOL     OW15874   1.319   1.904   2.997  0.0475 -0.3312 -0.4517
 1414SOL    HW115875   1.245   1.865   3.043 -0.8507  0.5611 -1.1510
 1414SOL    HW215876   1.372   1.824   2.996 -0.3985 -0.6410  1.3035
 1415SOL     OW15877   4.738   0.059   7.402 -0.6043  0.2962 -0.2251
 1415SOL    HW115878   4.717   4.715   7.446  0.7303 -0.0471 -0.2231
 1415SOL    HW215879   4.675   0.062   7.331  0.5466  0.0253 -1.2526
 1416SOL     OW15880   4.665   4.673   8.112 -0.7639  0.4108 -0.2561
 1416SOL    HW115881   4.656   4.654   8.018 -1.2788 -0.9207  0.0772
 1416SOL    HW215882   4.584   4.636   8.145 -0.4128 -0.6662 -0.6051
 1417SOL     OW15883   4.293   0.579   8.563  0.6000 -0.1153 -0.2028
 1417SOL    HW115884   4.302   0.515   8.493  1.7139 -0.0681 -0.1064
 1417SOL    HW215885   4.274   0.651   8.503 -1.9335 -3.1532 -2.9827
 1418SOL     OW15886   3.399   3.443   4.277 -0.4764  0.1705 -0.5270
 1418SOL    HW115887   3.415   3.373   4.214 -1.2944 -2.3371  2.1016
 1418SOL    HW215888   3.480   3.432   4.327 -0.9799 -1.1906 -0.0065
 1419SOL     OW15889   3.413   1.661   3.140 -0.7847 -0.5759  0.1592
 1419SOL    HW115890   3.503   1.640   3.165 -0.9249  1.3034  2.2664
 1419SOL    HW215891   3.422   1.651   3.045  0.7397 -0.4902  0.2884
 1420SOL     OW15892   1.627   0.471   8.514  0.6320 -0.0752  0.2165
 1420SOL    HW115893   1.716   0.461   8.547  1.4367  0.2613 -1.8562
 1420SOL    HW215894   1.576   0.439   8.589  2.2160 -2.3116  0.3367
 1421SOL     OW15895   4.457   2.899   4.482  0.5461 -0.5372 -0.2064
 1421SOL    HW115896   4.511   2.833   4.439 -2.0673 -2.7347 -0.0941
 1421SOL    HW215897   4.408   2.927   4.405 -1.8865  0.5731  1.7365
 1422SOL     OW15898   2.835   4.364   7.641 -0.1391  0.7041 -0.0805
 1422SOL    HW115899   2.819   4.312   7.720 -0.6587  0.6577 -0.2123
 1422SOL    HW215900   2.875   4.299   7.584  0.3740  0.4405  0.5910
 1423SOL     OW15901   3.502   2.979   5.372  0.5496 -0.0015 -0.2926
 1423SOL    HW115902   3.473   3.039   5.442 -0.1407 -0.3819 -0.2643
 1423SOL    HW215903   3.431   2.916   5.366  1.4433 -0.7984 -2.2392
 1424SOL     OW15904   2.831   4.431   1.434  0.0562 -0.1923 -0.4404
 1424SOL    HW115905   2.838   4.445   1.528  0.5028 -0.9965 -0.3550
 1424SOL    HW215906   2.759   4.369   1.432  0.7319 -0.9988  0.4064
 1425SOL     OW15907   2.598   1.894   6.251  0.1236 -0.3075 -0.2796
 1425SOL    HW115908   2.558   1.872   6.335  0.3780 -2.3037 -0.6884
 1425SOL    HW215909   2.686   1.858   6.250  1.5077  3.1087 -1.9621
 1426SOL     OW15910   2.760   3.684   2.527 -0.0820 -0.1076 -0.4812
 1426SOL    HW115911   2.814   3.709   2.453 -1.4659 -0.4914 -1.6152
 1426SOL    HW215912   2.724   3.769   2.549 -1.3106 -0.5823 -0.6390
 1427SOL     OW15913   0.381   3.484   6.055  0.0438  0.9095  0.4801
 1427SOL    HW115914   0.429   3.468   5.973 -2.2626 -1.6726 -0.3650
 1427SOL    HW215915   0.369   3.398   6.094  3.7829 -0.1660 -0.7325
 1428SOL     OW15916   1.911   2.625   3.000  0.8076  0.2839 -0.9157
 1428SOL    HW115917   1.859   2.683   3.055 -0.8003 -0.9760 -1.1092
 1428SOL    HW215918   1.994   2.673   2.994  1.0725 -0.1570 -0.7721
 1429SOL     OW15919   0.486   3.517   5.571 -0.1614  0.5391  0.0377
 1429SOL    HW115920   0.407   3.496   5.621  0.1169  0.7075  0.5402
 1429SOL    HW215921   0.446   3.502   5.485 -1.4619 -1.5793  0.9954
 1430SOL     OW15922   2.643   1.775   4.291 -0.2257 -0.3720  0.6838
 1430SOL    HW115923   2.599   1.798   4.372 -1.3314  0.3396 -0.1248
 1430SOL    HW215924   2.696   1.701   4.320  1.7191  1.4803  1.7616
 1431SOL     OW15925   1.374   1.979   1.146  0.1613  0.2998 -0.7135
 1431SOL    HW115926   1.457   2.025   1.160 -0.6322  1.5059  0.0608
 1431SOL    HW215927   1.400   1.893   1.182  0.8094  0.0708 -1.7208
 1432SOL     OW15928   3.224   1.220   8.137  0.4193 -0.2346 -0.3882
 1432SOL    HW115929   3.244   1.132   8.169  0.9191  0.3037  0.7944
 1432SOL    HW215930   3.297   1.272   8.171  1.2634 -1.3312 -0.5183
 1433SOL     OW15931   3.098   1.491   6.368  0.2091 -0.2027 -0.0804
 1433SOL    HW115932   3.093   1.405   6.410  1.1409 -0.4533 -0.4803
 1433SOL    HW215933   3.007   1.520   6.372 -0.0847 -1.2635  0.9472
 1434SOL     OW15934   3.410   1.436   8.032 -0.3725  0.1946 -0.1253
 1434SOL    HW115935   3.370   1.503   7.976 -1.0284 -1.6434 -1.8404
 1434SOL    HW215936   3.459   1.395   7.961 -1.1092  0.4944 -0.8049
 1435SOL     OW15937   3.087   0.913  15.997 -0.3750  0.2334 -0.7179
 1435SOL    HW115938   3.025   0.848  16.029  0.6274 -0.6365 -0.5456
 1435SOL    HW215939   3.084   0.981  16.064  2.6021 -0.9716  0.6528
 1436SOL     OW15940   2.424   0.077   4.769  0.2366  0.4895  0.2898
 1436SOL    HW115941   2.389   0.084   4.680 -0.6587 -0.3158  0.5781
 1436SOL    HW215942   2.475   0.158   4.767  0.3044  0.4043 -1.6335
 1437SOL     OW15943   0.183   3.348   0.747 -0.5130  0.2987 -0.0339
 1437SOL    HW115944   0.182   3.370   0.654 -1.1427 -0.6783 -0.2641
 1437SOL    HW215945   0.238   3.270   0.742  0.6137  1.0142  1.2712
 1438SOL     OW15946   2.199   3.543   7.807 -0.2680  0.8956  0.1971
 1438SOL    HW115947   2.114   3.501   7.796  0.1163  0.5787 -1.6222
 1438SOL    HW215948   2.191   3.574   7.897  0.2267  0.3510  0.4263
 1439SOL     OW15949   1.088   1.399   4.467  0.0968  0.2506  0.0472
 1439SOL    HW115950   1.028   1.347   4.520 -1.8366  2.3462 -0.0628
 1439SOL    HW215951   1.028   1.463   4.430 -0.2468 -0.5803 -0.8286
 1440SOL     OW15952   1.275   0.204  14.402 -0.3683 -0.0658  0.1884
 1440SOL    HW115953   1.348   0.251  14.441  0.2293 -1.1378  0.3726
 1440SOL    HW215954   1.308   0.116  14.383  1.0930  0.0317  2.3112
 1441SOL     OW15955   1.711   4.172  13.703 -0.3843  0.5018 -0.5903
 1441SOL    HW115956   1.711   4.098  13.764 -2.8171 -0.0144 -1.2112
 1441SOL    HW215957   1.783   4.143  13.647 -0.5738  1.7623 -1.4862
 1442SOL     OW15958   0.966   2.105   0.456 -0.5277 -0.4166 -0.0339
 1442SOL    HW115959   1.049   2.111   0.408 -0.1903  0.3830  0.6387
 1442SOL    HW215960   0.922   2.186   0.430  1.0798  1.2905  2.4976
 1443SOL     OW15961   1.506   3.339   8.342 -0.5735  0.1831  0.7300
 1443SOL    HW115962   1.532   3.378   8.259  0.1265 -0.9340  0.4259
 1443SOL    HW215963   1.440   3.274   8.316 -0.8420  1.3055 -1.4033
 1444SOL     OW15964   3.186   0.480   3.243 -0.4584  0.2269 -0.1263
 1444SOL    HW115965   3.099   0.510   3.267  1.3070  4.0156  1.6290
 1444SOL    HW215966   3.162   0.399   3.288 -0.4125  0.0176 -0.4786
 1445SOL     OW15967   2.791   0.911   7.960  0.1469  0.1775  0.0730
 1445SOL    HW115968   2.723   0.924   8.026 -0.9244 -2.3008 -0.5281
 1445SOL    HW215969   2.783   0.820   7.932  2.0249  0.2368 -0.6524
 1446SOL     OW15970   4.618   2.571   0.936  0.4340 -0.2174 -0.2766
 1446SOL    HW115971   4.671   2.512   0.989 -0.9130 -0.6287  0.6258
 1446SOL    HW215972   4.614   2.539   0.846 -1.6221  1.5562 -0.8293
 1447SOL     OW15973   2.344   4.191   3.336  0.1831  0.3492 -0.0866
 1447SOL    HW115974   2.375   4.281   3.324  0.7049  0.2153  0.2825
 1447SOL    HW215975   2.252   4.195   3.311 -0.2860  0.0560  1.6217
 1448SOL     OW15976   2.543   2.488  12.495 -0.1163  0.2139 -0.1038
 1448SOL    HW115977   2.631   2.493  12.456 -1.6911  0.9152 -3.6160
 1448SOL    HW215978   2.492   2.509  12.416 -2.2705  1.1531  1.5342
 1449SOL     OW15979   4.150   4.391   9.471 -0.0114 -0.0901 -0.2143
 1449SOL    HW115980   4.177   4.387   9.380 -0.4112  0.7918 -0.3665
 1449SOL    HW215981   4.145   4.486   9.483 -1.5613 -0.1289 -0.5943
 1450SOL     OW15982   1.976   1.938   0.832  0.1409 -0.5296 -0.9764
 1450SOL    HW115983   2.025   2.006   0.878 -0.3677  0.3886 -1.8013
 1450SOL    HW215984   1.916   1.991   0.780  1.4669  0.6199 -1.3355
 1451SOL     OW15985   2.422   3.423   3.560 -0.3051 -0.3168 -0.5851
 1451SOL    HW115986   2.514   3.445   3.569 -0.5991  0.6129  0.1612
 1451SOL    HW215987   2.421   3.354   3.627  0.7889  0.2838  0.0626
 1452SOL     OW15988   3.410   2.865   4.088  0.0856 -0.5789  0.0736
 1452SOL    HW115989   3.378   2.775   4.079 -0.2895 -0.3370 -1.0463
 1452SOL    HW215990   3.344   2.919   4.132  1.8206  1.9897 -0.4920
 1453SOL     OW15991   3.284   2.627   4.004 -0.6303  0.0001  0.0976
 1453SOL    HW115992   3.277   2.595   4.094 -0.1395 -1.8328 -0.5136
 1453SOL    HW215993   3.325   2.550   3.965  0.4707  0.9514 -0.6280
 1454SOL     OW15994   0.141   2.598  17.232  0.6941 -0.1831  0.4244
 1454SOL    HW115995   0.098   2.650  17.164  0.5407  0.5908  1.1225
 1454SOL    HW215996   0.230   2.601  17.194  0.3211  0.8443 -0.3759
 1455SOL     OW15997   1.316   0.611   3.002  0.2578 -0.5026 -0.1621
 1455SOL    HW115998   1.272   0.532   3.035 -2.2142  0.6565 -0.6517
 1455SOL    HW215999   1.388   0.597   3.063  0.2225  0.2054  0.0349
 1456SOL     OW16000   2.162   0.950   8.166 -0.5652 -0.4192  0.3583
 1456SOL    HW116001   2.183   0.882   8.230  0.5295 -0.1363  0.3052
 1456SOL    HW216002   2.242   0.948   8.113 -1.8520  0.7008 -1.6228
 1457SOL     OW16003   4.592   1.462  11.157  0.2414  0.4881 -0.5398
 1457SOL    HW116004   4.613   1.396  11.090 -2.4709 -2.1198  1.1633
 1457SOL    HW216005   4.668   1.519  11.162  0.7052 -0.0858 -1.0621
 1458SOL     OW16006   0.369   3.496   2.982 -0.2126  0.5225 -0.1043
 1458SOL    HW116007   0.298   3.513   3.044 -0.9355 -1.8548 -0.2624
 1458SOL    HW216008   0.329   3.536   2.904 -1.9074 -0.7187  0.1164
 1459SOL     OW16009   4.245   1.332  14.500  0.0885  0.1399  0.1249
 1459SOL    HW116010   4.161   1.349  14.542 -0.1256 -0.6895  0.0275
 1459SOL    HW216011   4.229   1.325  14.406 -0.9983 -0.7999  0.3802
 1460SOL     OW16012   4.209   1.263   6.374  0.7486 -0.2952 -0.0304
 1460SOL    HW116013   4.169   1.348   6.392  2.5640  0.3836  0.7987
 1460SOL    HW216014   4.256   1.287   6.294  0.4962  4.3369  1.2015
 1461SOL     OW16015   2.047   2.836   3.557 -0.6834  0.1761  0.4473
 1461SOL    HW116016   2.083   2.773   3.620  0.6147  0.4000 -0.0719
 1461SOL    HW216017   1.965   2.792   3.535 -0.8262 -0.7606  2.7921
 1462SOL     OW16018   0.710   0.839   7.239 -0.0275  0.1124  0.4374
 1462SOL    HW116019   0.759   0.848   7.157 -0.1491  0.3367  0.3868
 1462SOL    HW216020   0.717   0.744   7.241 -0.0838  0.1493  2.4490
 1463SOL     OW16021   1.980   2.103   5.246  0.7603  0.3670 -0.0861
 1463SOL    HW116022   1.995   2.010   5.233  0.8126  0.4105 -0.3388
 1463SOL    HW216023   1.995   2.135   5.157 -0.1058 -1.9049 -1.0282
 1464SOL     OW16024   1.017   4.312   5.112 -0.4136 -0.9802  0.0580
 1464SOL    HW116025   0.977   4.357   5.037  1.9031  0.7965 -0.0934
 1464SOL    HW216026   1.108   4.341   5.111 -0.3810 -0.9746  2.0290
 1465SOL     OW16027   0.707   1.403   5.766 -0.3078 -0.2312  0.1035
 1465SOL    HW116028   0.681   1.396   5.675 -1.2382 -0.2350  0.3640
 1465SOL    HW216029   0.639   1.461   5.801  1.6269  1.2092  1.5047
 1466SOL     OW16030   1.076   3.280   3.003 -0.3166 -0.2114 -0.2746
 1466SOL    HW116031   0.998   3.234   3.033 -0.3880  1.1674  1.6179
 1466SOL    HW216032   1.048   3.308   2.915  0.6969 -1.3312 -0.9541
 1467SOL     OW16033   0.813   0.998   0.672 -0.4094  0.4678 -0.2816
 1467SOL    HW116034   0.867   1.043   0.607 -2.0553  0.6059 -1.5542
 1467SOL    HW216035   0.729   1.017   0.631 -0.0630  1.1815 -0.6569
 1468SOL     OW16036   1.846   3.495  10.425 -0.1110 -0.1453  0.3738
 1468SOL    HW116037   1.914   3.561  10.437  0.5461 -0.9976  1.2955
 1468SOL    HW216038   1.804   3.517  10.509 -1.1661 -4.4779  0.9458
 1469SOL     OW16039   0.899   3.608  12.147 -0.1004 -0.6936 -0.5572
 1469SOL    HW116040   0.957   3.660  12.203 -0.7592 -1.2901  0.6784
 1469SOL    HW216041   0.945   3.605  12.063  2.2501  0.6936  0.6630
 1470SOL     OW16042   3.468   1.395   4.991 -0.0934 -0.2427 -0.2436
 1470SOL    HW116043   3.454   1.307   5.026 -0.4923  0.1856  0.6738
 1470SOL    HW216044   3.412   1.400   4.913 -0.5194 -1.8664 -0.0382
 1471SOL     OW16045   3.187   1.716   7.310  0.1944 -0.2927  0.5305
 1471SOL    HW116046   3.178   1.809   7.330  0.9355 -0.0498 -0.3094
 1471SOL    HW216047   3.096   1.691   7.292 -0.4634 -0.2166  3.7128
 1472SOL     OW16048   3.402   3.063   6.845 -0.6414  0.1362 -0.1653
 1472SOL    HW116049   3.460   2.993   6.877  0.0107  0.8053  0.1236
 1472SOL    HW216050   3.430   3.069   6.754  0.6356  1.8326  0.3347
 1473SOL     OW16051   2.757   1.455   2.739 -0.1777  0.2133 -0.5011
 1473SOL    HW116052   2.841   1.496   2.761  1.0755 -2.7701  0.1848
 1473SOL    HW216053   2.695   1.516   2.780  0.4423  1.1588 -0.9547
 1474SOL     OW16054   3.972   1.540   2.495 -0.0697 -0.4540  0.2902
 1474SOL    HW116055   4.065   1.518   2.493  0.2175  0.4343  3.5957
 1474SOL    HW216056   3.957   1.556   2.588  1.7266 -2.0802  0.8690
 1475SOL     OW16057   1.033   1.164   8.116  0.4232 -0.1422  0.1825
 1475SOL    HW116058   0.969   1.120   8.172  0.3740 -0.8445 -0.4250
 1475SOL    HW216059   0.985   1.169   8.032  0.1652  0.6832  0.3758
 1476SOL     OW16060   3.654   1.541   3.809  0.1898 -0.0438  0.2422
 1476SOL    HW116061   3.685   1.545   3.719 -1.0107 -0.1697 -0.1790
 1476SOL    HW216062   3.684   1.457   3.842 -0.9213 -1.7720 -3.1824
 1477SOL     OW16063   3.156   0.178   5.236  0.1612 -0.3869  0.1779
 1477SOL    HW116064   3.106   0.181   5.155 -1.6982 -0.4888  1.3340
 1477SOL    HW216065   3.084   0.218   5.284  0.0683 -0.3793  0.0306
 1478SOL     OW16066   1.906   4.125   5.650 -0.3974 -0.5561 -0.5777
 1478SOL    HW116067   1.887   4.198   5.591 -1.5548 -2.1929 -2.2479
 1478SOL    HW216068   1.985   4.163   5.688 -1.4204  1.0665 -0.0539
 1479SOL     OW16069   4.635   3.813   2.382  0.3523  0.0307  0.1488
 1479SOL    HW116070   4.672   3.865   2.311 -1.6327 -1.2875 -1.8602
 1479SOL    HW216071   4.615   3.881   2.447  1.1355  1.3847 -1.0504
 1480SOL     OW16072   4.699   4.361  16.852  0.1998 -0.5869  0.5503
 1480SOL    HW116073   4.684   4.314  16.934  1.1441  0.6083  1.3970
 1480SOL    HW216074   4.684   4.453  16.874  2.9778 -0.3580  1.4621
 1481SOL     OW16075   3.900   1.672   4.858 -0.2829  0.2034  0.6061
 1481SOL    HW116076   3.810   1.644   4.873 -0.2745  0.0014  0.2867
 1481SOL    HW216077   3.879   1.741   4.796  1.9446  0.4162  0.0877
 1482SOL     OW16078   3.440   1.355   7.433 -0.2835  0.0389 -0.0133
 1482SOL    HW116079   3.421   1.313   7.517  2.2172  0.3249  0.6922
 1482SOL    HW216080   3.364   1.402   7.397 -0.0673  0.7422  0.4573
 1483SOL     OW16081   4.227   4.450   2.388  0.4497  0.9007 -0.3337
 1483SOL    HW116082   4.155   4.492   2.435  0.4160 -0.5024  0.8527
 1483SOL    HW216083   4.224   4.356   2.400  0.7448  0.8389 -0.7369
 1484SOL     OW16084   1.515   1.542   6.118 -0.3296  0.0195  0.0926
 1484SOL    HW116085   1.542   1.634   6.108  1.2593 -0.3024  1.4459
 1484SOL    HW216086   1.505   1.518   6.026 -1.0353  0.3199  0.0902
 1485SOL     OW16087   3.795   3.446  15.780 -0.5312  0.4320  0.1393
 1485SOL    HW116088   3.829   3.530  15.814 -1.1620  0.8788 -0.3304
 1485SOL    HW216089   3.770   3.470  15.691 -0.0054 -1.8067 -0.5858
 1486SOL     OW16090   0.612   2.025   2.554 -0.0496 -0.1444  0.1090
 1486SOL    HW116091   0.619   1.934   2.583  0.9488  0.0045  0.3127
 1486SOL    HW216092   0.533   2.015   2.500 -1.0572  1.2390  1.3280
 1487SOL     OW16093   3.980   2.495   6.162 -0.0039  0.4106 -0.3654
 1487SOL    HW116094   3.965   2.589   6.168 -3.9339 -0.2145 -0.0242
 1487SOL    HW216095   4.057   2.489   6.106  0.1260 -1.4912  0.0087
 1488SOL     OW16096   3.555   2.661   3.745  0.2332  0.5142 -0.3078
 1488SOL    HW116097   3.587   2.722   3.812 -0.6533 -1.2945  1.7983
 1488SOL    HW216098   3.512   2.724   3.689  1.3271  0.5422 -1.1096
 1489SOL     OW16099   0.374   3.771   8.293 -0.3422  0.7006  0.5294
 1489SOL    HW116100   0.445   3.788   8.231 -0.5338  0.2323  0.1870
 1489SOL    HW216101   0.325   3.717   8.232 -0.5671  0.9317  0.5070
 1490SOL     OW16102   4.192   2.098   2.079 -0.1092 -0.2280  0.1509
 1490SOL    HW116103   4.238   2.104   1.995  1.1794  1.2375  0.9725
 1490SOL    HW216104   4.180   2.003   2.071  1.6214 -0.3693 -0.9093
 1491SOL     OW16105   1.541   4.248   4.843  0.1453  0.0124  0.0281
 1491SOL    HW116106   1.516   4.168   4.890  0.0930  0.5768  0.9580
 1491SOL    HW216107   1.636   4.250   4.855 -0.0938  1.5070  1.7176
 1492SOL     OW16108   1.204   1.123   2.263 -0.1244  0.0867 -0.0447
 1492SOL    HW116109   1.259   1.047   2.281 -0.6192 -0.4719 -0.8762
 1492SOL    HW216110   1.263   1.157   2.195  0.2301  0.9067  0.6796
 1493SOL     OW16111   3.526   3.905  16.794 -0.0770 -0.5887  0.2829
 1493SOL    HW116112   3.459   3.971  16.810  1.5707  1.5802 -1.6740
 1493SOL    HW216113   3.466   3.832  16.784  1.7545 -2.2343  1.5005
 1494SOL     OW16114   0.714   2.791   2.437 -0.0614 -0.5885  0.1633
 1494SOL    HW116115   0.790   2.756   2.391  1.6557  0.8622  1.8554
 1494SOL    HW216116   0.682   2.711   2.479 -0.2325  0.4816  2.1096
 1495SOL     OW16117   1.497   0.003   9.112 -0.2018 -0.1651 -0.4872
 1495SOL    HW116118   1.476   0.012   9.205 -0.1431  0.3000 -0.5189
 1495SOL    HW216119   1.414   0.004   9.065 -0.1241 -2.6091 -0.6798
 1496SOL     OW16120   1.999   3.463  15.730  0.0405  0.0203 -0.1908
 1496SOL    HW116121   1.947   3.415  15.795  0.0031 -0.5530 -0.6408
 1496SOL    HW216122   2.077   3.482  15.782 -1.6003  3.1469  1.1358
 1497SOL     OW16123   0.582   3.346  15.297 -0.3785  0.4217  0.0268
 1497SOL    HW116124   0.544   3.410  15.237 -3.6156 -0.3464  1.2386
 1497SOL    HW216125   0.582   3.270  15.239 -0.0726 -0.1053  0.7147
 1498SOL     OW16126   1.734   1.021   0.640 -0.0430 -0.0007 -0.2276
 1498SOL    HW116127   1.671   1.072   0.589 -1.5647 -0.3548  1.3036
 1498SOL    HW216128   1.810   1.037   0.584  0.4731 -0.9758  0.1933
 1499SOL     OW16129   1.959   3.708   9.652 -0.4702  0.2166 -0.0728
 1499SOL    HW116130   1.901   3.760   9.708 -0.4767 -0.2075  0.3184
 1499SOL    HW216131   2.046   3.724   9.687 -0.1441 -2.1063  0.1735
 1500SOL     OW16132   0.739   3.251   9.486 -0.2065 -0.6333  0.4056
 1500SOL    HW116133   0.776   3.284   9.568  0.7292 -2.4856  0.7352
 1500SOL    HW216134   0.821   3.232   9.441 -0.8373 -1.9978 -0.1642
 1501SOL     OW16135   4.485   0.570   9.862 -0.2028 -0.5200  0.3135
 1501SOL    HW116136   4.561   0.626   9.847 -0.5654 -0.5147 -1.5225
 1501SOL    HW216137   4.486   0.561   9.957 -0.0004 -1.4971  0.2164
 1502SOL     OW16138   0.279   4.271   6.442  0.2959  0.2541 -0.1867
 1502SOL    HW116139   0.287   4.183   6.406 -1.3411  1.0653 -2.5522
 1502SOL    HW216140   0.232   4.314   6.370  1.6308  0.0905 -1.1647
 1503SOL     OW16141   2.154   1.343   9.681  0.6818  0.6870 -0.5424
 1503SOL    HW116142   2.153   1.367   9.774 -0.4183 -0.4621 -0.2641
 1503SOL    HW216143   2.097   1.412   9.645  3.5654  3.5424  0.3147
 1504SOL     OW16144   0.025   2.344   2.137  0.1484  0.4443 -0.2024
 1504SOL    HW116145   0.008   2.287   2.212 -0.4615 -2.1756 -2.3155
 1504SOL    HW216146   0.121   2.340   2.132  0.0206 -1.4551 -1.3241
 1505SOL     OW16147   4.082   0.094  14.618 -0.2485 -0.3381  0.4542
 1505SOL    HW116148   3.988   0.110  14.607 -0.2594  0.1976  1.2866
 1505SOL    HW216149   4.109   0.185  14.633 -1.2856 -0.1494  1.1897
 1506SOL     OW16150   3.977   2.769   0.600  0.4810 -0.0657  0.0656
 1506SOL    HW116151   3.957   2.723   0.519 -1.5503  1.8346 -0.5090
 1506SOL    HW216152   4.050   2.827   0.579  0.3535  0.5414  1.2691
 1507SOL     OW16153   4.369   3.801   5.029 -0.2172 -0.1673  0.6338
 1507SOL    HW116154   4.340   3.878   4.980  2.4203 -1.0669 -2.3209
 1507SOL    HW216155   4.362   3.837   5.117 -0.2958  0.4742  0.3660
 1508SOL     OW16156   2.900   0.564   2.855  0.1098 -0.3006  0.2259
 1508SOL    HW116157   2.979   0.595   2.900  0.3326 -1.5542  0.6874
 1508SOL    HW216158   2.904   0.607   2.769  0.8764 -1.0278 -0.1048
 1509SOL     OW16159   0.631   2.293   6.251  0.3739 -0.4671 -0.0793
 1509SOL    HW116160   0.720   2.260   6.240  0.8992  1.1599 -0.7384
 1509SOL    HW216161   0.639   2.314   6.344  1.7734 -1.5231  0.0524
 1510SOL     OW16162   4.133   4.310   8.963  0.1669  0.1102  0.3466
 1510SOL    HW116163   4.115   4.229   8.916 -1.1193 -0.0669  1.1529
 1510SOL    HW216164   4.050   4.357   8.974  0.3181  0.6482 -0.7976
 1511SOL     OW16165   0.205   4.085   2.695  0.3032 -0.0335  0.0845
 1511SOL    HW116166   0.291   4.113   2.726  0.1994  1.2882 -0.8127
 1511SOL    HW216167   0.151   4.148   2.742  1.2946 -1.0909  2.6237
 1512SOL     OW16168   3.017   4.613   9.735 -0.7965 -0.0587  0.1770
 1512SOL    HW116169   3.048   4.550   9.799  0.7443 -0.8010 -1.3030
 1512SOL    HW216170   3.048   4.693   9.778 -2.2968 -0.8200  2.6728
 1513SOL     OW16171   2.711   1.832   6.705  0.1152 -0.3344  0.8060
 1513SOL    HW116172   2.703   1.747   6.748 -1.7283  0.0241  1.1751
 1513SOL    HW216173   2.697   1.794   6.619  1.0867  0.9090  0.0999
 1514SOL     OW16174   1.060   0.992  12.428 -0.0544  0.4117  0.9743
 1514SOL    HW116175   1.041   0.987  12.522  1.3344  2.7383  1.3660
 1514SOL    HW216176   1.069   1.085  12.410  0.9038  0.1773  0.2740
 1515SOL     OW16177   3.347   3.487  17.255  0.9107  0.3457  0.6066
 1515SOL    HW116178   3.354   3.490  17.160 -0.0042  0.1281  0.5326
 1515SOL    HW216179   3.338   3.581  17.274  1.7849  0.4311  0.5767
 1516SOL     OW16180   4.406   2.859   7.634  0.1631 -0.7183 -0.8045
 1516SOL    HW116181   4.370   2.907   7.708 -0.5777 -1.5519 -0.6158
 1516SOL    HW216182   4.381   2.914   7.560  1.1041  0.4903 -0.2186
 1517SOL     OW16183   3.838   2.683   1.900  0.2665  0.3112  0.2125
 1517SOL    HW116184   3.895   2.760   1.893 -0.6346  0.8007 -1.8734
 1517SOL    HW216185   3.907   2.617   1.907 -0.3169 -0.1687  1.5283
 1518SOL     OW16186   1.603   1.166   6.378 -0.3651 -0.0423  0.1736
 1518SOL    HW116187   1.545   1.241   6.360 -0.6150 -0.0102  1.1428
 1518SOL    HW216188   1.558   1.094   6.334 -0.0055  0.9585 -1.8679
 1519SOL     OW16189   4.665   3.097  11.128  0.7290  0.3293  0.0899
 1519SOL    HW116190   4.580   3.055  11.143  1.2536 -0.9394 -0.5352
 1519SOL    HW216191   4.692   3.118  11.217  1.2705  0.3767 -0.0841
 1520SOL     OW16192   4.413   1.388  16.732  0.1588 -0.5341  0.4635
 1520SOL    HW116193   4.457   1.472  16.714  0.5154 -0.6510  0.7912
 1520SOL    HW216194   4.466   1.351  16.801  1.4728  1.4292  0.5303
 1521SOL     OW16195   4.251   0.526   5.189  0.3234 -0.7934  0.6618
 1521SOL    HW116196   4.279   0.526   5.098 -1.8422 -0.9939 -0.0176
 1521SOL    HW216197   4.168   0.570   5.209  0.1344 -0.4800 -0.7653
 1522SOL     OW16198   3.844   3.641   8.502 -0.0219 -0.1257  0.2775
 1522SOL    HW116199   3.842   3.735   8.482  1.5651  0.2154  1.6623
 1522SOL    HW216200   3.866   3.644   8.595  1.3344 -0.1275 -0.0435
 1523SOL     OW16201   0.022   2.278   2.821  0.4297 -0.3549 -0.0338
 1523SOL    HW116202   0.082   2.234   2.761  0.9916 -0.4898  0.6335
 1523SOL    HW216203   0.046   2.371   2.820 -1.3452  0.0964 -2.8604
 1524SOL     OW16204   4.082   2.996  14.427 -0.1321 -0.2484  0.0232
 1524SOL    HW116205   3.999   2.950  14.413 -0.9707  1.3311 -0.2361
 1524SOL    HW216206   4.072   3.070  14.368  3.1756  1.0961  1.1704
 1525SOL     OW16207   4.409   3.176   9.752  0.4734  0.4135 -0.4310
 1525SOL    HW116208   4.408   3.263   9.791 -1.3596  0.7273 -1.2224
 1525SOL    HW216209   4.403   3.206   9.662 -1.2993 -1.6346 -0.9956
 1526SOL     OW16210   1.223   3.388   6.648  0.2147 -0.2358 -0.0355
 1526SOL    HW116211   1.198   3.429   6.731 -0.3933 -2.2605  0.7849
 1526SOL    HW216212   1.255   3.304   6.680 -0.0409  0.9627  3.4043
 1527SOL     OW16213   2.453   2.338   4.599  0.0259 -0.4107 -0.4124
 1527SOL    HW116214   2.527   2.379   4.555 -0.9209 -0.3344 -1.9169
 1527SOL    HW216215   2.375   2.350   4.546  0.8217 -1.5662 -1.8356
 1528SOL     OW16216   4.207   2.865   7.844  0.4576 -0.4849  0.0775
 1528SOL    HW116217   4.255   2.938   7.883 -1.3725  0.9679 -0.3737
 1528SOL    HW216218   4.209   2.801   7.915  1.8056 -0.8062 -0.2484
 1529SOL     OW16219   4.305   3.785   4.491 -0.6683  0.6527  0.3060
 1529SOL    HW116220   4.242   3.756   4.426  1.1886 -0.6701 -0.8849
 1529SOL    HW216221   4.344   3.707   4.529 -1.6736 -0.9332 -1.9584
 1530SOL     OW16222   1.855   2.046  10.026  0.1868 -0.1775  0.0700
 1530SOL    HW116223   1.902   2.108  10.081  0.3392 -1.9662  1.9764
 1530SOL    HW216224   1.773   2.090  10.005  0.1162 -0.0181  0.6731
 1531SOL     OW16225   4.101   3.684  15.631 -0.4898 -0.4902 -0.2402
 1531SOL    HW116226   4.127   3.743  15.702 -1.5106  0.0231 -0.2938
 1531SOL    HW216227   4.151   3.607  15.657  1.2000  1.3152  1.9060
 1532SOL     OW16228   0.839   4.137   1.316  0.4343  0.2667 -0.5397
 1532SOL    HW116229   0.838   4.167   1.407 -0.0979 -0.5841 -0.2736
 1532SOL    HW216230   0.920   4.176   1.282 -0.0457  0.6076 -1.3010
 1533SOL     OW16231   3.616   0.940  10.513 -0.0512  0.2759  0.7361
 1533SOL    HW116232   3.540   0.945  10.455  0.8385 -0.2546 -0.4668
 1533SOL    HW216233   3.680   0.953  10.443  1.0509 -1.8539  1.3642
 1534SOL     OW16234   1.740   1.015   2.668 -0.1070 -0.6608  0.4118
 1534SOL    HW116235   1.764   1.049   2.755  0.7177 -1.7923  0.6189
 1534SOL    HW216236   1.654   1.054   2.655  0.5538  0.7415  0.2500
 1535SOL     OW16237   2.970   4.235  10.697  0.5223 -0.5380 -0.1200
 1535SOL    HW116238   3.020   4.295  10.641 -0.8847  1.0780  0.3651
 1535SOL    HW216239   2.892   4.240  10.642 -0.5438 -0.4941  1.3974
 1536SOL     OW16240   1.686   1.303  10.672  0.1036  0.2201  0.0050
 1536SOL    HW116241   1.681   1.393  10.705 -0.4014 -0.2221  1.1319
 1536SOL    HW216242   1.695   1.315  10.577  1.8071  0.9096  0.2458
 1537SOL     OW16243   0.110   3.130   3.639 -0.3277  0.0632 -0.0358
 1537SOL    HW116244   0.030   3.166   3.676 -0.4148  0.7376 -0.8658
 1537SOL    HW216245   0.143   3.072   3.707 -1.4093  0.4524  0.8225
 1538SOL     OW16246   1.568   3.465   2.409 -0.0957 -0.7027  1.1846
 1538SOL    HW116247   1.627   3.391   2.398  0.9851  0.2659  0.5338
 1538SOL    HW216248   1.480   3.428   2.399 -0.0448 -0.1322 -1.3171
 1539SOL     OW16249   1.662   3.493   8.859  0.2146  0.2121  0.2825
 1539SOL    HW116250   1.628   3.540   8.935 -0.3995 -1.8780  1.2920
 1539SOL    HW216251   1.658   3.573   8.806  1.0560  0.9107  1.2750
 1540SOL     OW16252   4.683   4.214   5.239  0.5500 -0.3411 -0.4495
 1540SOL    HW116253   4.708   4.129   5.277 -1.2795 -1.3266 -1.4354
 1540SOL    HW216254   4.730   4.203   5.156  1.4452  1.8120 -0.2094
 1541SOL     OW16255   0.587   0.400   1.177  0.1485  0.3896 -0.1482
 1541SOL    HW116256   0.658   0.461   1.194 -0.2358  0.0833  2.6238
 1541SOL    HW216257   0.514   0.434   1.228  0.6084  1.1022  0.0378
 1542SOL     OW16258   3.059   2.206   4.232 -0.4863 -0.7481  0.2017
 1542SOL    HW116259   2.985   2.185   4.288 -2.0247  1.9675 -0.7874
 1542SOL    HW216260   3.134   2.181   4.287  0.2228  3.5933  1.2359
 1543SOL     OW16261   1.946   2.357   4.389  0.0599  0.4393 -0.3292
 1543SOL    HW116262   1.958   2.450   4.404  0.5919  0.8311 -3.0926
 1543SOL    HW216263   1.855   2.358   4.361  0.7580  0.9740 -2.5568
 1544SOL     OW16264   3.966   3.620   2.452  0.5049  0.3077 -0.0578
 1544SOL    HW116265   3.995   3.594   2.539 -1.6797 -3.4689 -0.4735
 1544SOL    HW216266   3.876   3.643   2.475  0.2264 -1.7866  0.9026
 1545SOL     OW16267   1.684   2.963   4.281  0.7055 -0.2381 -0.5255
 1545SOL    HW116268   1.775   2.988   4.300  0.2818  0.4333  0.6607
 1545SOL    HW216269   1.701   2.914   4.200  1.3098 -0.7811 -0.0779
 1546SOL     OW16270   2.126   0.647   7.897 -0.0207  0.8485  0.4965
 1546SOL    HW116271   2.084   0.733   7.900  2.9895  2.3155  0.5960
 1546SOL    HW216272   2.084   0.609   7.974  0.2152 -0.8241 -0.1905
 1547SOL     OW16273   4.667   2.977   7.037 -0.0678  0.2653  0.0701
 1547SOL    HW116274   4.737   3.016   7.089  0.2697  0.6932 -0.7029
 1547SOL    HW216275   4.603   2.953   7.104  0.3694  0.9889  0.7473
 1548SOL     OW16276   1.395   2.480   1.689 -0.4649 -0.3756 -0.2058
 1548SOL    HW116277   1.377   2.557   1.635 -1.3273  0.2056  0.8930
 1548SOL    HW216278   1.405   2.411   1.624 -1.7799  0.2484 -1.0672
 1549SOL     OW16279   3.371   1.105   5.324  0.0136  0.0203 -0.2380
 1549SOL    HW116280   3.304   1.112   5.393 -0.0099 -1.6222 -0.0832
 1549SOL    HW216281   3.446   1.111   5.383  1.4252  0.1356 -2.0652
 1550SOL     OW16282   2.559   2.294  12.219 -0.6099 -0.2636  0.8850
 1550SOL    HW116283   2.525   2.382  12.228  3.4332  1.5765 -1.8136
 1550SOL    HW216284   2.623   2.297  12.148 -3.1517 -0.9672 -1.4378
 1551SOL     OW16285   2.568   0.037   9.846 -0.1244  0.3167  0.1397
 1551SOL    HW116286   2.551   0.043   9.940  0.3171 -1.6636  0.3450
 1551SOL    HW216287   2.636   0.104   9.843  0.0762  0.0581 -1.1731
 1552SOL     OW16288   0.128   1.107   4.727 -0.2075  0.3828 -0.2449
 1552SOL    HW116289   0.087   1.021   4.741 -1.7894  1.3659  1.1977
 1552SOL    HW216290   0.048   1.159   4.739 -0.3273 -0.1515  1.3045
 1553SOL     OW16291   3.811   1.974   8.355 -0.4127 -0.1423  0.1517
 1553SOL    HW116292   3.835   1.922   8.278  2.8203  0.5197  0.7105
 1553SOL    HW216293   3.721   1.943   8.362 -0.2481 -0.8244 -0.7158
 1554SOL     OW16294   1.264   4.432   4.133 -0.0907 -0.0454 -0.2997
 1554SOL    HW116295   1.316   4.446   4.212  0.9004 -2.0691 -0.6133
 1554SOL    HW216296   1.311   4.369   4.079  0.5496 -1.0499  1.4493
 1555SOL     OW16297   2.759   0.067   2.176 -0.4996 -0.0169 -0.1231
 1555SOL    HW116298   2.826   0.098   2.237  0.0064 -0.7695 -0.3006
 1555SOL    HW216299   2.703   0.144   2.168  1.3797  1.3460 -0.3288
 1556SOL     OW16300   2.623   1.831   9.555 -0.3951  0.1564 -0.2901
 1556SOL    HW116301   2.655   1.790   9.475 -0.0549 -0.9492  0.4202
 1556SOL    HW216302   2.683   1.904   9.569 -0.3471  0.7315 -3.3921
 1557SOL     OW16303   2.104   3.295   8.624  0.6478  0.6170  0.7608
 1557SOL    HW116304   2.036   3.363   8.627  0.5246  0.5262 -0.0183
 1557SOL    HW216305   2.088   3.253   8.709 -0.8983 -1.4164 -0.5131
 1558SOL     OW16306   2.277   2.361   1.019  0.3345  0.1151  0.1271
 1558SOL    HW116307   2.360   2.335   0.981  0.9043  1.1441  0.6854
 1558SOL    HW216308   2.302   2.360   1.112  1.6692 -0.2756 -0.2455
 1559SOL     OW16309   2.892   2.492   9.234  0.2436  0.3949  0.2835
 1559SOL    HW116310   2.819   2.495   9.172  2.5338 -0.6993 -2.4741
 1559SOL    HW216311   2.932   2.577   9.218 -0.1511  0.9405  2.2747
 1560SOL     OW16312   1.170   1.320  15.834  0.1238  0.2835  0.3418
 1560SOL    HW116313   1.253   1.277  15.856  1.2067  1.7075 -1.0008
 1560SOL    HW216314   1.179   1.399  15.887  4.0914  1.5385 -2.1766
 1561SOL     OW16315   1.407   1.209  15.843 -0.2881  1.2444  0.2273
 1561SOL    HW116316   1.483   1.262  15.867  2.3248 -2.8474  0.9455
 1561SOL    HW216317   1.442   1.149  15.777 -1.1453  2.8797 -1.6815
 1562SOL     OW16318   0.925   2.891   3.468  0.5013 -0.1932  0.4516
 1562SOL    HW116319   0.986   2.825   3.434 -1.4992 -0.8856 -1.7304
 1562SOL    HW216320   0.950   2.966   3.414 -1.3049 -1.1167 -1.6568
 1563SOL     OW16321   4.400   4.146  15.625  0.3329 -0.1444 -0.1193
 1563SOL    HW116322   4.353   4.172  15.546  0.1301 -0.9514 -0.2588
 1563SOL    HW216323   4.420   4.228  15.671 -1.3887  0.9656 -1.3494
 1564SOL     OW16324   1.477   1.209  16.259 -0.4890  0.0584  0.3004
 1564SOL    HW116325   1.446   1.206  16.168  0.8323 -0.6500 -0.1249
 1564SOL    HW216326   1.402   1.164  16.298 -1.2287  0.2811 -0.8610
 1565SOL     OW16327   2.943   0.925   4.448  0.0506  0.4387  0.1515
 1565SOL    HW116328   3.010   0.886   4.392  0.8360  1.6373  0.2583
 1565SOL    HW216329   2.888   0.960   4.378  0.8228 -0.9821 -1.1592
 1566SOL     OW16330   4.672   0.784   4.300 -0.2367 -0.0507  0.2161
 1566SOL    HW116331   4.600   0.720   4.303 -0.0594 -0.2912 -0.8489
 1566SOL    HW216332   4.628   0.869   4.300  0.1068  0.1302  1.1083
 1567SOL     OW16333   2.577   4.537   3.139 -0.5269  0.0466  0.1081
 1567SOL    HW116334   2.604   4.628   3.151 -0.3212  0.1450 -1.2098
 1567SOL    HW216335   2.647   4.492   3.186 -1.5153  0.8941  2.4022
 1568SOL     OW16336   2.888   0.706   5.789  0.6077  0.2200 -0.0843
 1568SOL    HW116337   2.810   0.762   5.786  3.4090  4.3626  2.6774
 1568SOL    HW216338   2.848   0.621   5.801  1.2179 -0.0101  0.3803
 1569SOL     OW16339   2.451   0.738   0.235  0.1838  0.1006  0.6117
 1569SOL    HW116340   2.517   0.673   0.215 -0.4841 -0.1331 -0.8086
 1569SOL    HW216341   2.379   0.707   0.180 -0.0844 -0.2107  1.1373
 1570SOL     OW16342   1.950   0.991   7.304  0.4248  0.1679  0.2101
 1570SOL    HW116343   1.989   0.911   7.268  0.4260 -0.3695  1.4007
 1570SOL    HW216344   1.877   0.948   7.348 -0.3574  2.8629  1.5428
 1571SOL     OW16345   1.299   0.557  14.980  0.4094 -0.1287 -0.1519
 1571SOL    HW116346   1.206   0.574  14.998  0.5063  0.1184  0.1110
 1571SOL    HW216347   1.287   0.547  14.885  1.1398 -0.3488 -0.2169
 1572SOL     OW16348   1.284   3.406   7.826  0.7966 -0.1166 -0.0872
 1572SOL    HW116349   1.282   3.324   7.875  4.2136 -0.4044 -0.4327
 1572SOL    HW216350   1.215   3.391   7.761 -0.1909  0.5654  0.8112
 1573SOL     OW16351   1.970   2.866  12.903  0.2620  0.0973 -0.0947
 1573SOL    HW116352   2.000   2.833  12.988 -0.9732  1.6822  0.9716
 1573SOL    HW216353   2.012   2.952  12.898  0.0363  0.1393 -1.1946
 1574SOL     OW16354   4.636   1.844   9.701 -0.0001  0.0492 -0.3485
 1574SOL    HW116355   4.684   1.797   9.768  1.0901 -0.1472 -1.2644
 1574SOL    HW216356   4.576   1.777   9.668  1.3494 -0.3956 -1.9024
 1575SOL     OW16357   4.206   2.558   0.865  0.0888  0.1906  0.1024
 1575SOL    HW116358   4.117   2.531   0.889 -0.6429  1.5051 -1.0701
 1575SOL    HW216359   4.223   2.624   0.932  1.4348  2.6362 -2.6127
 1576SOL     OW16360   2.293   3.451  10.184 -0.5440  0.4951  0.1501
 1576SOL    HW116361   2.225   3.449  10.251 -0.6283 -1.0128  0.0075
 1576SOL    HW216362   2.332   3.368  10.211 -3.1470 -0.7372  0.1087
 1577SOL     OW16363   2.525   4.461  15.513 -0.2386 -0.0069 -0.4382
 1577SOL    HW116364   2.481   4.545  15.525  0.1890  0.0742  0.5395
 1577SOL    HW216365   2.446   4.422  15.474 -2.2350  0.4438  3.1927
 1578SOL     OW16366   3.092   1.775   7.878  0.0144 -0.0980  0.8689
 1578SOL    HW116367   3.126   1.863   7.893  0.8942 -0.2779 -0.0886
 1578SOL    HW216368   3.001   1.788   7.907 -0.2899  1.8136 -0.9591
 1579SOL     OW16369   3.633   4.363   2.157  0.1579  0.0411  0.2534
 1579SOL    HW116370   3.551   4.406   2.181  0.4726  0.5992  0.3434
 1579SOL    HW216371   3.695   4.436   2.168 -0.1318  0.3103  0.1113
 1580SOL     OW16372   2.388   3.265  11.734  0.2431  0.4478  0.1255
 1580SOL    HW116373   2.479   3.237  11.744  0.2360 -0.5010 -2.4611
 1580SOL    HW216374   2.352   3.275  11.822  2.0725  0.3753  0.8767
 1581SOL     OW16375   4.200   0.409   5.894  0.8865 -0.6563 -0.3167
 1581SOL    HW116376   4.194   0.464   5.972 -1.3040 -2.5504  0.8578
 1581SOL    HW216377   4.189   0.322   5.933  2.0067 -0.8723 -0.4874
 1582SOL     OW16378   3.177   4.358   8.995 -0.9868 -0.1956 -0.2291
 1582SOL    HW116379   3.215   4.407   8.922  1.7016 -2.6970 -0.5223
 1582SOL    HW216380   3.083   4.369   8.982 -1.3056 -2.3668  0.1727
 1583SOL     OW16381   1.882   4.617   9.161 -0.3743  0.4115  0.0304
 1583SOL    HW116382   1.944   4.574   9.220  0.6779 -0.0416 -1.4125
 1583SOL    HW216383   1.929   4.625   9.078  2.1822  2.3813  1.6681
 1584SOL     OW16384   2.241   0.717  12.984 -0.2978  0.3143  0.2004
 1584SOL    HW116385   2.334   0.701  12.964 -0.1852 -0.7467  1.5322
 1584SOL    HW216386   2.236   0.812  12.982 -2.3877  0.2169  1.3737
 1585SOL     OW16387   1.955   1.484   4.309  0.3816 -0.2134 -0.0475
 1585SOL    HW116388   1.860   1.470   4.299  0.2973  0.2859  0.0410
 1585SOL    HW216389   1.987   1.521   4.227 -1.3631 -0.0716 -0.6796
 1586SOL     OW16390   3.423   2.329   8.246 -0.4052  0.0575 -0.2197
 1586SOL    HW116391   3.487   2.313   8.316  1.7163 -0.1921 -2.2121
 1586SOL    HW216392   3.357   2.384   8.289  1.7200  1.4986  1.2504
 1587SOL     OW16393   3.382   1.172  17.610 -0.5230 -0.6803 -0.5455
 1587SOL    HW116394   3.444   1.129  17.550 -0.2034 -0.1790 -0.5749
 1587SOL    HW216395   3.388   1.259  17.571  2.2265 -0.8888 -0.5602
 1588SOL     OW16396   1.992   3.394   3.218  0.3397  0.0770 -0.8566
 1588SOL    HW116397   2.028   3.332   3.153 -0.9080 -1.6704  0.1142
 1588SOL    HW216398   2.011   3.481   3.184 -2.7866  1.7422  1.6501
 1589SOL     OW16399   3.603   1.895   8.105 -0.0643 -0.6094  0.5196
 1589SOL    HW116400   3.554   1.880   8.024  0.3731  1.1151 -0.0708
 1589SOL    HW216401   3.616   1.806   8.137  0.6501  0.3553  2.9648
 1590SOL     OW16402   4.390   0.528   7.227 -0.0242  0.2951 -0.1466
 1590SOL    HW116403   4.331   0.604   7.224  0.7067  0.8317 -0.9104
 1590SOL    HW216404   4.334   0.451   7.214  0.6146  0.0704 -1.5516
 1591SOL     OW16405   2.082   4.573  17.052 -0.0339  0.5814 -0.0759
 1591SOL    HW116406   2.002   4.625  17.050 -0.2307  0.2720 -0.2790
 1591SOL    HW216407   2.147   4.632  17.014 -0.4734  0.7537 -0.5684
 1592SOL     OW16408   4.000   2.389   3.718  0.0693  0.1740  0.4651
 1592SOL    HW116409   3.985   2.383   3.623 -0.6885 -2.1871  0.7172
 1592SOL    HW216410   3.907   2.382   3.738  0.0805 -1.1840  0.0889
 1593SOL     OW16411   3.424   0.763   8.292  0.4798 -0.7440  0.0623
 1593SOL    HW116412   3.433   0.737   8.200  1.2986  1.7800 -0.5660
 1593SOL    HW216413   3.363   0.692   8.315 -1.2660  1.1770  1.3069
 1594SOL     OW16414   2.674   0.827  11.764  0.1372 -0.1098  0.5220
 1594SOL    HW116415   2.699   0.840  11.672  0.7989  0.5057  0.7866
 1594SOL    HW216416   2.620   0.751  11.744  1.3518 -0.8567  0.0810
 1595SOL     OW16417   4.212   3.454  16.077  0.8833  0.1380  0.2199
 1595SOL    HW116418   4.191   3.492  16.162 -0.1415 -0.6835  0.3328
 1595SOL    HW216419   4.307   3.454  16.087  1.0384  0.4927 -1.2349
 1596SOL     OW16420   2.799   0.351   3.826 -0.1241  0.3354 -0.3270
 1596SOL    HW116421   2.761   0.388   3.746  0.8518  0.9693 -0.4986
 1596SOL    HW216422   2.747   0.408   3.883 -1.5207 -0.8056 -0.4403
 1597SOL     OW16423   4.689   0.152   0.337 -0.1226 -0.3929 -0.0814
 1597SOL    HW116424   0.034   0.114   0.312 -0.8987 -0.8222 -2.0106
 1597SOL    HW216425   4.640   0.157   0.255 -1.2155  2.1149  0.7317
 1598SOL     OW16426   2.157   1.223  11.311 -0.0287 -0.5828  0.4846
 1598SOL    HW116427   2.188   1.151  11.365  0.6300  1.4523  2.8485
 1598SOL    HW216428   2.066   1.194  11.303 -0.3114  0.3269  0.3339
 1599SOL     OW16429   3.272   2.661  10.695 -0.2272  0.4793 -0.1982
 1599SOL    HW116430   3.232   2.712  10.624  3.2152  2.6836 -0.5627
 1599SOL    HW216431   3.194   2.659  10.751  0.9257 -1.8204  1.2942
 1600SOL     OW16432   0.173   2.964   8.932  0.0222  0.2234  0.3135
 1600SOL    HW116433   0.233   3.025   8.888 -1.8676  1.2245 -0.8733
 1600SOL    HW216434   0.166   2.999   9.021 -0.8587 -1.0484  0.7505
 1601SOL     OW16435   2.743   1.209   7.879 -0.0913  0.0845  0.2418
 1601SOL    HW116436   2.773   1.119   7.868 -2.5974 -0.4955 -1.7982
 1601SOL    HW216437   2.652   1.197   7.850  0.7366 -0.0844 -2.2752
 1602SOL     OW16438   4.143   1.295  16.434 -0.1949 -0.6280 -0.2762
 1602SOL    HW116439   4.164   1.379  16.475 -1.3287 -1.7492  2.6485
 1602SOL    HW216440   4.183   1.299  16.347 -1.0282 -0.4255 -0.6468
 1603SOL     OW16441   3.612   3.353  14.884 -0.1270 -0.6291 -0.2788
 1603SOL    HW116442   3.629   3.442  14.855  1.0900 -0.4086  1.1212
 1603SOL    HW216443   3.611   3.316  14.796 -2.4977 -0.9137 -0.1386
 1604SOL     OW16444   1.575   1.516   1.819 -0.1616 -0.1795 -0.1783
 1604SOL    HW116445   1.481   1.505   1.806 -0.8262  2.0029  2.7199
 1604SOL    HW216446   1.595   1.607   1.798 -0.5427  0.0506  0.4477
 1605SOL     OW16447   2.496   3.960  16.817 -0.1888  0.0372 -0.1257
 1605SOL    HW116448   2.432   4.025  16.845 -1.4051 -1.9403  1.7025
 1605SOL    HW216449   2.456   3.947  16.731  0.5339 -1.6643 -0.2031
 1606SOL     OW16450   1.004   0.761   6.368 -0.2884 -0.1322 -0.0441
 1606SOL    HW116451   1.000   0.759   6.272 -0.1351  2.3990 -0.0929
 1606SOL    HW216452   0.920   0.802   6.390 -0.2457 -0.2894  0.4107
 1607SOL     OW16453   3.613   4.530   5.124  0.2984  0.1430 -0.1917
 1607SOL    HW116454   3.531   4.578   5.114 -0.9298 -1.3527  2.7851
 1607SOL    HW216455   3.587   4.497   5.210 -1.3371  2.7182  0.3045
 1608SOL     OW16456   3.396   0.958   9.779 -0.1524  0.7693  0.1497
 1608SOL    HW116457   3.454   0.886   9.756 -0.1632  1.1015 -0.9356
 1608SOL    HW216458   3.393   0.964   9.875  1.1809 -0.3645  0.2479
 1609SOL     OW16459   3.339   2.965   8.117 -0.0296  0.0868  0.0663
 1609SOL    HW116460   3.420   2.936   8.076 -2.9297 -1.6197 -4.4926
 1609SOL    HW216461   3.350   2.934   8.207  0.1908  1.0023  0.3591
 1610SOL     OW16462   4.230   3.294   7.961  0.0932  0.3717 -0.0833
 1610SOL    HW116463   4.225   3.294   7.866  0.5308  1.4950 -0.1129
 1610SOL    HW216464   4.299   3.229   7.971 -0.9433 -0.6114  0.6423
 1611SOL     OW16465   0.941   0.346   7.804 -0.0351 -0.1530 -0.6549
 1611SOL    HW116466   1.015   0.298   7.767  1.9812  2.9070 -0.5654
 1611SOL    HW216467   0.975   0.435   7.804 -0.5585  0.0521 -2.5411
 1612SOL     OW16468   1.260   1.326  14.802 -0.1303 -0.2102  0.3540
 1612SOL    HW116469   1.336   1.383  14.790  0.5861 -0.8830  1.6272
 1612SOL    HW216470   1.302   1.240  14.803  1.9896  0.8252  0.4053
 1613SOL     OW16471   3.710   3.683   2.027  0.3154  0.1619  0.2146
 1613SOL    HW116472   3.727   3.691   1.933  1.5920 -0.4830  0.3964
 1613SOL    HW216473   3.780   3.740   2.060  1.3089 -0.5543 -0.6739
 1614SOL     OW16474   3.894   1.745   5.601  0.6533 -0.4468  0.2877
 1614SOL    HW116475   3.982   1.709   5.609  0.4649 -1.2447 -1.2316
 1614SOL    HW216476   3.871   1.736   5.694 -0.7960  1.4851  0.1273
 1615SOL     OW16477   4.628   3.572   2.247 -0.2998 -0.0516 -0.5835
 1615SOL    HW116478   4.609   3.642   2.309 -1.3609 -1.2319  0.4247
 1615SOL    HW216479   4.541   3.561   2.209 -0.8292 -0.5553  0.7836
 1616SOL     OW16480   4.382   2.214   8.465 -0.1718 -0.1676  0.4852
 1616SOL    HW116481   4.291   2.234   8.484 -0.1154  0.1779  0.3803
 1616SOL    HW216482   4.404   2.278   8.398  1.1507  1.4905  2.5035
 1617SOL     OW16483   0.433   3.796   2.847 -0.4078 -0.1842  0.3087
 1617SOL    HW116484   0.344   3.816   2.818  0.3289 -1.7773 -3.0444
 1617SOL    HW216485   0.449   3.723   2.787 -0.5610 -1.5969  1.9961
 1618SOL     OW16486   4.709   2.081   8.157 -0.1608 -0.1985  0.0408
 1618SOL    HW116487   4.633   2.076   8.215 -0.3084  1.9763  0.0211
 1618SOL    HW216488   4.722   1.987   8.140  1.6102 -0.2167  1.5408
 1619SOL     OW16489   0.843   2.657   5.722  0.0501 -0.0674  0.7332
 1619SOL    HW116490   0.920   2.682   5.773  0.0844  1.7323 -0.1971
 1619SOL    HW216491   0.882   2.639   5.636 -1.3863  2.2914 -0.3854
 1620SOL     OW16492   4.501   4.622   6.752 -0.0118  0.0908 -0.0350
 1620SOL    HW116493   4.445   4.688   6.793 -1.0423 -0.7366 -0.1051
 1620SOL    HW216494   4.459   4.541   6.779  1.1116 -0.1259  1.0236
 1621SOL     OW16495   0.533   0.618   7.420 -0.3918  0.0435  0.3629
 1621SOL    HW116496   0.600   0.683   7.444  1.1867 -1.3289 -0.2932
 1621SOL    HW216497   0.458   0.669   7.389  0.6630  2.7411  2.2574
 1622SOL     OW16498   1.109   2.605   3.641  1.0324  0.2694  0.3940
 1622SOL    HW116499   1.128   2.512   3.634  3.9087  0.9835 -1.1631
 1622SOL    HW216500   1.190   2.647   3.614  1.5564 -0.8114  0.2888
 1623SOL     OW16501   0.245   2.949   7.132 -0.0791  0.1157 -0.5706
 1623SOL    HW116502   0.219   2.935   7.223  1.5362 -0.5606 -0.2127
 1623SOL    HW216503   0.205   2.871   7.095  0.6804 -0.6739  0.2789
 1624SOL     OW16504   0.177   2.719   6.431  0.0840 -0.1138 -0.1210
 1624SOL    HW116505   0.269   2.695   6.419  0.0221 -1.6295  2.3796
 1624SOL    HW216506   0.182   2.799   6.483  0.5338 -0.0341 -0.2930
 1625SOL     OW16507   0.100   1.574   8.254  0.2019 -0.4080  0.3601
 1625SOL    HW116508   0.148   1.575   8.171 -0.1686  1.9329  0.1554
 1625SOL    HW216509   0.133   1.493   8.292 -0.3068 -0.1910  1.2855
 1626SOL     OW16510   0.669   0.959   6.605  0.3254  0.5519  0.2884
 1626SOL    HW116511   0.720   0.941   6.525 -0.3992 -0.1437 -0.0212
 1626SOL    HW216512   0.732   0.942   6.675 -1.2572 -2.3282  1.0085
 1627SOL     OW16513   2.459   1.698   2.610 -0.2128  0.0919  0.1247
 1627SOL    HW116514   2.430   1.655   2.529  1.8877 -1.3191  0.1328
 1627SOL    HW216515   2.398   1.772   2.614 -0.1811  0.1021  0.3962
 1628SOL     OW16516   0.921   1.085   1.260  0.7908  0.5460  0.0435
 1628SOL    HW116517   0.978   1.013   1.233 -2.8813 -1.7253 -1.7381
 1628SOL    HW216518   0.987   1.152   1.280 -0.4747  1.6661  0.4868
 1629SOL     OW16519   0.646   2.637   2.850  0.4000  0.3479 -0.8613
 1629SOL    HW116520   0.701   2.588   2.910 -2.6657 -1.3319  0.6102
 1629SOL    HW216521   0.582   2.672   2.913  0.6411 -0.4114 -0.2005
 1630SOL     OW16522   4.466   4.452   6.143 -0.0486  0.0564 -0.7940
 1630SOL    HW116523   4.546   4.473   6.095 -0.0767 -0.4939 -1.0786
 1630SOL    HW216524   4.410   4.523   6.109 -0.0452 -1.4095 -3.8688
 1631SOL     OW16525   0.302   4.461   3.695 -0.0576 -1.0008  0.4133
 1631SOL    HW116526   0.354   4.537   3.721 -0.8561 -0.1383 -0.5107
 1631SOL    HW216527   0.368   4.400   3.662  1.7702  0.4701  1.4210
 1632SOL     OW16528   3.842   0.780   3.602 -0.1356 -0.1641  0.4421
 1632SOL    HW116529   3.782   0.852   3.620 -1.0887 -0.5971 -1.0045
 1632SOL    HW216530   3.847   0.782   3.506 -0.4173  1.4707  0.4679
 1633SOL     OW16531   2.599   0.293   4.155 -0.4490  0.4132  0.0070
 1633SOL    HW116532   2.512   0.272   4.123  0.1599  1.2000 -2.2165
 1633SOL    HW216533   2.645   0.215   4.123 -2.0270  0.7215 -3.0090
 1634SOL     OW16534   0.696   4.016   6.839 -0.0167  0.1103  0.1825
 1634SOL    HW116535   0.651   3.975   6.913  0.2955  1.3290  1.0380
 1634SOL    HW216536   0.755   3.943   6.818 -1.7776 -0.4843 -2.7358
 1635SOL     OW16537   4.170   1.312   0.443  0.3432  0.4333  0.4860
 1635SOL    HW116538   4.178   1.322   0.348  0.7679  0.0271  0.4793
 1635SOL    HW216539   4.111   1.236   0.443  1.2872 -0.3187 -1.3005
 1636SOL     OW16540   0.752   1.719   1.280 -0.0132  0.5813 -0.5583
 1636SOL    HW116541   0.658   1.725   1.267 -0.1245  0.4347  0.1902
 1636SOL    HW216542   0.760   1.632   1.317  2.4780  1.4664  0.9759
 1637SOL     OW16543   3.474   1.035  17.388  1.1993  0.6709  0.2621
 1637SOL    HW116544   3.399   0.985  17.421  1.7618  0.3029  0.9933
 1637SOL    HW216545   3.444   1.078  17.308 -1.5993  0.0411  0.9634
 1638SOL     OW16546   1.864   1.560   7.189  0.2356  0.0136 -0.0786
 1638SOL    HW116547   1.894   1.505   7.117  0.2599  1.1557 -0.9404
 1638SOL    HW216548   1.944   1.597   7.226  0.1867 -0.2961  0.3420
 1639SOL     OW16549   2.182   0.397  16.177 -0.0991 -0.6259 -0.1615
 1639SOL    HW116550   2.139   0.481  16.193  1.4025  0.3895 -1.5607
 1639SOL    HW216551   2.269   0.433  16.189 -0.1072 -1.2760  1.9194
 1640SOL     OW16552   2.417   3.819   4.537 -0.5560 -0.2494  0.0519
 1640SOL    HW116553   2.392   3.738   4.582 -0.8743  0.6511  1.5024
 1640SOL    HW216554   2.505   3.797   4.506 -0.8150 -1.3577  0.1120
 1641SOL     OW16555   3.801   0.777   4.500 -0.0500  0.0740 -0.0704
 1641SOL    HW116556   3.893   0.766   4.523  0.0930  1.1689 -0.0859
 1641SOL    HW216557   3.762   0.777   4.587 -1.4771  0.3828 -0.6965
 1642SOL     OW16558   0.386   4.605   1.603 -0.5201 -0.1637 -0.5793
 1642SOL    HW116559   0.464   4.649   1.567  0.4345 -0.4114  1.2015
 1642SOL    HW216560   0.430   4.574   1.682 -0.4484 -2.1389 -1.4038
 1643SOL     OW16561   2.102   2.386   5.790  0.6043  0.0083 -0.1889
 1643SOL    HW116562   2.108   2.292   5.810 -1.9552 -0.7599 -3.0062
 1643SOL    HW216563   2.019   2.396   5.743  1.1057 -0.4711 -1.1831
 1644SOL     OW16564   1.512   2.161   5.059  0.0257  0.0794  0.3285
 1644SOL    HW116565   1.429   2.129   5.023  1.0020 -0.8245 -1.0879
 1644SOL    HW216566   1.467   2.187   5.140  0.8135 -0.0066  0.7875
 1645SOL     OW16567   2.848   1.883   7.900 -0.0679  0.0212  0.4952
 1645SOL    HW116568   2.858   1.975   7.925 -2.3436  0.7632 -1.3365
 1645SOL    HW216569   2.758   1.862   7.925 -0.3893 -1.2287 -1.6633
 1646SOL     OW16570   1.147   3.991   5.833 -0.5018  0.1637 -1.0019
 1646SOL    HW116571   1.147   4.084   5.854 -0.6082  0.2080 -1.1945
 1646SOL    HW216572   1.134   3.994   5.738  0.1072  0.5820 -1.0712
 1647SOL     OW16573   3.086   1.363  17.647  0.3430  0.3684 -0.3253
 1647SOL    HW116574   3.139   1.422  17.594  1.3010 -1.6949 -1.6651
 1647SOL    HW216575   3.001   1.406  17.653  0.7302  1.0882  0.0240
 1648SOL     OW16576   3.456   4.217   1.938  0.3133  0.2404  0.2022
 1648SOL    HW116577   3.442   4.308   1.963 -1.5533 -0.2308  0.8957
 1648SOL    HW216578   3.468   4.186   2.028  4.1699  0.8616 -0.1399
 1649SOL     OW16579   0.649   0.988   8.451 -0.0827 -0.2226  0.2890
 1649SOL    HW116580   0.698   0.946   8.522  0.6966  1.0006  0.4707
 1649SOL    HW216581   0.559   0.955   8.459 -0.1184  0.0066  0.8415
 1650SOL     OW16582   2.695   0.470  16.357 -0.0143 -0.0603  0.0790
 1650SOL    HW116583   2.710   0.561  16.384 -1.5400  0.1024  0.3987
 1650SOL    HW216584   2.781   0.429  16.368 -0.7612 -0.9905  2.6029
 1651SOL     OW16585   1.972   1.255   3.947  0.4247  0.4984  0.3476
 1651SOL    HW116586   2.018   1.265   3.863  0.9236 -0.1718  0.5325
 1651SOL    HW216587   1.988   1.336   3.996  1.7124 -1.2076  2.7611
 1652SOL     OW16588   2.681   3.918  16.438 -0.3968  0.0837  0.2298
 1652SOL    HW116589   2.613   3.907  16.372  1.9821 -1.9306 -1.9195
 1652SOL    HW216590   2.748   3.970  16.392  1.4903 -1.1415  1.5693
 1653SOL     OW16591   4.622   2.474   4.042 -0.1822  0.6101  0.4123
 1653SOL    HW116592   4.673   2.393   4.041 -1.2964 -0.0678 -3.5893
 1653SOL    HW216593   4.550   2.452   3.983  2.0252 -0.7018 -1.8130
 1654SOL     OW16594   2.282   1.872  17.556  0.4151 -0.0339 -0.4505
 1654SOL    HW116595   2.246   1.950  17.514 -0.6718  0.1344  0.7854
 1654SOL    HW216596   2.208   1.840  17.609  1.8011  1.3078  2.2523
 1655SOL     OW16597   0.495   3.592   7.067  0.1552 -0.5543  0.3289
 1655SOL    HW116598   0.461   3.575   6.979  1.9956  1.9012 -0.8813
 1655SOL    HW216599   0.420   3.580   7.125 -0.7611 -1.5136 -1.0491
 1656SOL     OW16600   0.246   1.370   8.389 -0.1466 -0.4752  0.3436
 1656SOL    HW116601   0.263   1.319   8.310 -2.8737  1.9826 -1.8730
 1656SOL    HW216602   0.183   1.318   8.440 -2.2925  0.3666 -1.4176
 1657SOL     OW16603   4.662   2.275  10.929  0.5644 -0.2193 -0.1626
 1657SOL    HW116604   4.616   2.220  10.992  0.1268  1.2989  0.8258
 1657SOL    HW216605   4.677   2.212  10.858  1.5139  0.8019 -0.8831
 1658SOL     OW16606   2.466   2.867   9.103 -0.3459 -0.2528  0.7122
 1658SOL    HW116607   2.407   2.889   9.031  0.6952  2.6312  0.7351
 1658SOL    HW216608   2.424   2.904   9.181 -3.7565 -0.5686 -0.9773
 1659SOL     OW16609   0.400   0.746   6.325  0.0183  0.1898 -0.1511
 1659SOL    HW116610   0.413   0.818   6.264  1.0888 -0.4815 -0.7114
 1659SOL    HW216611   0.369   0.678   6.265 -0.5319 -0.2994  0.6781
 1660SOL     OW16612   4.536   4.607   7.044  0.7860 -0.1679 -0.3167
 1660SOL    HW116613   4.501   4.534   6.993  0.7188 -0.9613  0.8672
 1660SOL    HW216614   4.478   4.601   7.120  0.4348  1.1143 -0.4739
 1661SOL     OW16615   1.343   3.496  13.893 -0.1082 -0.2386 -0.1559
 1661SOL    HW116616   1.345   3.575  13.839 -0.6866 -0.4151 -0.4334
 1661SOL    HW216617   1.276   3.517  13.958 -0.2049  1.5275 -0.8384
 1662SOL     OW16618   2.988   2.960   3.195 -0.2328 -0.5414 -0.2804
 1662SOL    HW116619   3.055   3.027   3.183 -1.2912  0.0527 -2.8134
 1662SOL    HW216620   2.906   3.005   3.176  0.1184 -0.3500 -1.3459
 1663SOL     OW16621   0.382   4.678   3.029  0.0458 -0.0451 -0.0085
 1663SOL    HW116622   0.469   4.710   3.004  0.2184  0.7062  1.5690
 1663SOL    HW216623   0.397   4.585   3.042 -1.7836 -0.2756  0.4094
 1664SOL     OW16624   2.888   0.213   2.413  0.4769  0.2416 -0.0555
 1664SOL    HW116625   2.879   0.266   2.492 -0.5368 -0.2470  0.1571
 1664SOL    HW216626   2.909   0.124   2.440 -2.9607 -1.0556 -1.6395
 1665SOL     OW16627   1.797   4.045   2.701 -1.0420 -0.2610 -0.5698
 1665SOL    HW116628   1.795   3.956   2.735 -1.7161  0.2710  0.8313
 1665SOL    HW216629   1.717   4.042   2.650 -1.9895  3.5896  0.6251
 1666SOL     OW16630   3.250   3.829   8.855  0.9690  0.2981 -0.0070
 1666SOL    HW116631   3.211   3.823   8.768  1.5435 -1.0241 -0.1832
 1666SOL    HW216632   3.222   3.915   8.886 -1.3676 -0.2458 -0.5802
 1667SOL     OW16633   3.055   3.285   8.488 -0.1772  0.3939  0.1116
 1667SOL    HW116634   3.122   3.310   8.425 -2.2051  2.1720 -1.3592
 1667SOL    HW216635   3.103   3.295   8.570 -1.3643 -1.0445  0.9745
 1668SOL     OW16636   0.848   1.229   6.302  0.1641 -0.6103 -0.0699
 1668SOL    HW116637   0.787   1.240   6.375  2.0575  1.5837  1.1764
 1668SOL    HW216638   0.802   1.283   6.237 -0.3428 -0.1616  0.6595
 1669SOL     OW16639   4.164   3.834   5.693 -0.3916 -0.1734 -0.0246
 1669SOL    HW116640   4.209   3.853   5.775 -1.6299 -0.9460  0.8342
 1669SOL    HW216641   4.177   3.907   5.633  1.3749  0.6343  1.3450
 1670SOL     OW16642   2.409   2.132   4.396 -0.3599 -0.0644 -0.6137
 1670SOL    HW116643   2.446   2.207   4.349 -0.8491  2.2150  2.5582
 1670SOL    HW216644   2.347   2.102   4.330 -0.7237  1.5940 -1.0290
 1671SOL     OW16645   1.573   0.636   9.223 -0.2891 -0.0992 -0.0816
 1671SOL    HW116646   1.551   0.549   9.257 -0.1067  1.1839  3.3120
 1671SOL    HW216647   1.625   0.615   9.145  0.4749  0.2596  0.3311
 1672SOL     OW16648   1.356   4.564   1.910 -0.2207 -0.0949 -0.1355
 1672SOL    HW116649   1.310   4.533   1.988 -0.4238 -1.3843 -0.7658
 1672SOL    HW216650   1.357   4.657   1.931 -1.6621  0.2452 -1.5914
 1673SOL     OW16651   1.184   3.927   9.100 -0.7009  0.0706  0.2576
 1673SOL    HW116652   1.089   3.922   9.109 -0.7921  1.0008 -0.2291
 1673SOL    HW216653   1.200   4.016   9.130  3.2209  0.0725 -1.8448
 1674SOL     OW16654   1.976   1.609  14.464  0.4841 -0.1450  0.2793
 1674SOL    HW116655   1.961   1.572  14.551 -0.0183 -1.1391 -0.2274
 1674SOL    HW216656   1.898   1.587  14.412 -1.6912  0.1410  3.4113
 1675SOL     OW16657   1.314   0.385   4.717 -0.3713  0.3527  0.0297
 1675SOL    HW116658   1.352   0.469   4.694 -0.0395  0.0706 -0.4716
 1675SOL    HW216659   1.397   0.338   4.729 -0.9427 -0.7908 -0.4163
 1676SOL     OW16660   1.760   0.547   9.063  0.3424  0.2792 -0.1619
 1676SOL    HW116661   1.822   0.484   9.026 -0.2637 -1.4506  1.7926
 1676SOL    HW216662   1.819   0.606   9.110 -0.8231  0.0385  1.6203
 1677SOL     OW16663   3.532   2.227  14.140 -0.3787  0.0179 -0.1384
 1677SOL    HW116664   3.588   2.157  14.106  0.2801  0.6504 -0.3799
 1677SOL    HW216665   3.524   2.284  14.063 -1.0115 -1.4344 -1.1262
 1678SOL     OW16666   0.129   0.328  14.743  0.6497 -0.0181 -0.5030
 1678SOL    HW116667   0.134   0.252  14.802  0.3052  0.9333  0.7273
 1678SOL    HW216668   0.057   0.299  14.686  1.4260 -0.8557 -1.0674
 1679SOL     OW16669   3.785   1.398   2.989  0.1422 -0.1328  0.0479
 1679SOL    HW116670   3.728   1.321   2.990  1.1488 -0.9134 -1.8497
 1679SOL    HW216671   3.865   1.346   2.990 -0.1166 -0.6338 -2.8043
 1680SOL     OW16672   0.931   3.324   4.766  0.4902 -0.1094  1.0433
 1680SOL    HW116673   1.019   3.286   4.769 -0.4543 -2.3648  0.0551
 1680SOL    HW216674   0.908   3.324   4.859 -1.8353 -0.7788  0.4739
 1681SOL     OW16675   0.763   4.561  13.306 -0.2992 -0.3802 -0.1783
 1681SOL    HW116676   0.801   4.615  13.236 -1.8749  0.8700 -0.0710
 1681SOL    HW216677   0.839   4.506  13.321 -0.8673 -0.7407  1.3573
 1682SOL     OW16678   0.556   4.215   8.718 -0.2668  0.5456  0.0429
 1682SOL    HW116679   0.526   4.247   8.803  0.6441  1.0805  0.1644
 1682SOL    HW216680   0.634   4.171   8.752 -0.0596  1.4572  0.7368
 1683SOL     OW16681   0.196   3.511   3.195  0.4609  0.2909 -0.5086
 1683SOL    HW116682   0.156   3.597   3.188 -2.8302 -1.0838  1.4375
 1683SOL    HW216683   0.275   3.546   3.236  0.8844  0.3034 -1.3227
 1684SOL     OW16684   3.746   3.839  16.649 -0.3386  0.1537  0.2601
 1684SOL    HW116685   3.726   3.857  16.558 -1.3001 -1.1669  0.2127
 1684SOL    HW216686   3.663   3.864  16.688  0.0186  1.2092  0.3324
 1685SOL     OW16687   0.501   1.425   8.493 -0.5660  0.3635 -0.6093
 1685SOL    HW116688   0.406   1.429   8.478 -0.8607 -0.4381  1.0080
 1685SOL    HW216689   0.516   1.515   8.464 -1.2693  0.8802  0.6409
 1686SOL     OW16690   3.294   4.144   6.085 -0.4327 -0.1393  0.0234
 1686SOL    HW116691   3.276   4.236   6.068 -0.8584 -0.5135 -1.6122
 1686SOL    HW216692   3.389   4.146   6.095 -0.3007  0.8492 -1.4386
 1687SOL     OW16693   2.394   3.080   7.423 -0.9313 -0.5519 -0.6319
 1687SOL    HW116694   2.447   3.158   7.410 -0.6941 -0.5712  0.1751
 1687SOL    HW216695   2.311   3.104   7.464 -0.0790 -0.2410  0.9467
 1688SOL     OW16696   3.685   0.452   3.193  0.0050  0.3483 -0.2103
 1688SOL    HW116697   3.646   0.534   3.162 -0.5562  0.1651  0.0214
 1688SOL    HW216698   3.610   0.402   3.224 -0.2074 -0.1481 -1.5218
 1689SOL     OW16699   4.711   0.697   3.580  0.2669 -0.2771  0.3724
 1689SOL    HW116700   0.011   0.692   3.493  2.0498  0.9218  1.1056
 1689SOL    HW216701   4.628   0.742   3.568 -0.5355 -2.2276 -1.3670
 1690SOL     OW16702   4.535   2.250  17.677 -0.1973  0.2542  0.2196
 1690SOL    HW116703   4.511   2.280   0.011  0.7719  1.8826 -0.0655
 1690SOL    HW216704   4.520   2.156  17.681 -2.2042  0.5797  0.5392
 1691SOL     OW16705   0.972   2.426   8.799 -0.1438  0.4389  0.3250
 1691SOL    HW116706   0.944   2.396   8.712 -1.1292 -0.2160  0.8783
 1691SOL    HW216707   0.952   2.347   8.848 -0.6719 -0.0736 -0.7108
 1692SOL     OW16708   1.998   1.335   5.280 -1.0766  0.2657 -0.3424
 1692SOL    HW116709   2.057   1.398   5.321 -1.5554 -0.5129  1.5586
 1692SOL    HW216710   1.948   1.287   5.346  1.1560 -2.4751 -0.6666
 1693SOL     OW16711   2.475   3.599  16.550 -0.6314  0.2050 -0.3442
 1693SOL    HW116712   2.570   3.598  16.558 -0.7090 -1.5569  0.3169
 1693SOL    HW216713   2.447   3.683  16.585 -0.1964  0.1723  0.0699
 1694SOL     OW16714   2.777   3.154   9.422  0.0001  0.1404  0.3739
 1694SOL    HW116715   2.783   3.232   9.477 -0.2397  0.4132  0.0129
 1694SOL    HW216716   2.687   3.159   9.391 -0.3916  1.0911  1.6985
 1695SOL     OW16717   3.756   2.945   4.926  0.6916 -0.7555 -0.0541
 1695SOL    HW116718   3.690   2.975   4.988  0.2804 -0.2349 -0.7435
 1695SOL    HW216719   3.702   2.919   4.850 -0.5739  0.6857  0.3534
 1696SOL     OW16720   0.053   4.355   2.593 -0.5393 -0.5073  0.6418
 1696SOL    HW116721   4.697   4.351   2.583 -0.5398  0.8851  0.0744
 1696SOL    HW216722   0.086   4.363   2.504  0.3115  2.2774  1.2122
 1697SOL     OW16723   4.270   3.509   1.341 -0.5137 -0.1728 -0.0389
 1697SOL    HW116724   4.252   3.415   1.331 -0.1183 -0.3646  1.1221
 1697SOL    HW216725   4.365   3.505   1.335 -0.5624 -0.4021 -0.6995
 1698SOL     OW16726   3.408   2.943   9.706  0.3883  0.4067  0.1106
 1698SOL    HW116727   3.408   2.883   9.631  0.0361  0.5803 -0.0260
 1698SOL    HW216728   3.318   2.931   9.734  0.0834 -0.5076 -1.3007
 1699SOL     OW16729   4.182   1.084   3.441 -0.3676 -0.0843 -0.0265
 1699SOL    HW116730   4.201   1.171   3.407  1.4882 -1.3183 -2.1364
 1699SOL    HW216731   4.136   1.049   3.365  0.4112  0.9196 -0.9485
 1700SOL     OW16732   1.148   4.394   9.055  0.0248  0.2289  0.1998
 1700SOL    HW116733   1.107   4.418   8.972 -3.2477  1.6642  2.2435
 1700SOL    HW216734   1.238   4.424   9.042  0.5042 -0.1398  2.6017
 1701SOL     OW16735   1.698   4.627   3.121  0.0396  0.1934  0.3154
 1701SOL    HW116736   1.720   4.538   3.150  3.1299 -0.0270 -2.6968
 1701SOL    HW216737   1.615   4.603   3.080 -1.0524  0.7092  2.2275
 1702SOL     OW16738   4.668   3.856  16.746  0.8490  0.1663  0.4118
 1702SOL    HW116739   4.620   3.903  16.814 -0.2644 -0.2316 -0.0888
 1702SOL    HW216740   4.728   3.810  16.805  1.1029  1.5095  1.1898
 1703SOL     OW16741   0.700   3.589  14.343  0.5849 -0.3183  0.0682
 1703SOL    HW116742   0.667   3.657  14.285  0.1593  0.7860  1.5797
 1703SOL    HW216743   0.773   3.556  14.291  0.9738  0.4336  0.1298
 1704SOL     OW16744   4.731   2.029   6.455  0.5895  0.4447 -0.0027
 1704SOL    HW116745   4.656   2.024   6.514  0.0084  0.8433 -0.7080
 1704SOL    HW216746   4.680   2.070   6.385  1.7608  0.2659 -0.9667
 1705SOL     OW16747   2.639   3.561   8.551  0.5001 -0.3809  0.2705
 1705SOL    HW116748   2.649   3.575   8.457 -1.1722  1.0379  0.2959
 1705SOL    HW216749   2.703   3.490   8.560  0.4401 -0.8717 -2.9669
 1706SOL     OW16750   4.323   1.581  10.779 -0.1126 -0.9411  0.0646
 1706SOL    HW116751   4.306   1.554  10.869 -1.5470 -0.4912 -0.0764
 1706SOL    HW216752   4.413   1.554  10.763  0.6346  0.2607  2.1626
 1707SOL     OW16753   1.553   3.770   6.973  0.1095 -0.2742 -0.2433
 1707SOL    HW116754   1.591   3.688   7.006  2.3746  1.0771  0.4830
 1707SOL    HW216755   1.618   3.828   7.012  2.4740 -1.6187 -2.1735
 1708SOL     OW16756   0.418   0.968   2.669  0.4004 -0.1441  0.0459
 1708SOL    HW116757   0.391   1.054   2.637  0.2327 -0.2693 -0.1478
 1708SOL    HW216758   0.512   0.949   2.661  0.5453  0.5772  0.0109
 1709SOL     OW16759   2.253   3.340   6.785 -0.0976  0.8705 -0.1401
 1709SOL    HW116760   2.252   3.249   6.753 -3.9869  0.8731  0.0480
 1709SOL    HW216761   2.342   3.368   6.762  0.4030  0.0094  0.7289
 1710SOL     OW16762   0.281   1.649   7.363 -0.0995 -0.1028  0.5591
 1710SOL    HW116763   0.242   1.729   7.329 -1.4581 -1.7898 -1.7870
 1710SOL    HW216764   0.240   1.648   7.450 -0.7358 -0.1664  0.2598
 1711SOL     OW16765   4.247   1.664   7.595  0.0698 -0.7324 -0.1125
 1711SOL    HW116766   4.259   1.603   7.668  0.6264 -0.0941  0.3321
 1711SOL    HW216767   4.165   1.629   7.560 -0.1066 -1.3046  0.8763
 1712SOL     OW16768   4.206   2.591   4.177  0.2871 -0.3164 -0.1274
 1712SOL    HW116769   4.128   2.595   4.232  0.1897  2.4196 -0.4357
 1712SOL    HW216770   4.170   2.589   4.088  0.9362  0.2187 -0.4079
 1713SOL     OW16771   0.053   1.301   6.061  0.2403 -0.1784 -0.3376
 1713SOL    HW116772   0.121   1.238   6.040  1.3436  0.0992  2.3809
 1713SOL    HW216773   4.736   1.256   6.124  0.5928 -1.4458 -0.9416
 1714SOL     OW16774   1.688   4.179  11.653  0.0079  0.0848 -0.0644
 1714SOL    HW116775   1.783   4.170  11.651 -0.1874 -1.7744 -1.0571
 1714SOL    HW216776   1.664   4.086  11.663 -0.6511  0.3143  0.5541
 1715SOL     OW16777   0.554   0.145  10.365 -0.0835  0.0920  0.0727
 1715SOL    HW116778   0.459   0.156  10.362 -0.1611 -0.4694  0.4935
 1715SOL    HW216779   0.558   0.147  10.461 -1.7671 -2.8833  0.2018
 1716SOL     OW16780   3.790   3.434   5.789  0.0395 -0.0481  0.3235
 1716SOL    HW116781   3.817   3.526   5.797 -0.0738 -0.1540  1.7739
 1716SOL    HW216782   3.760   3.419   5.878 -0.3522  0.1089  0.2217
 1717SOL     OW16783   4.478   4.456   4.890  0.4517  0.2833 -0.5479
 1717SOL    HW116784   4.471   4.433   4.982  2.4317 -1.1808 -0.7684
 1717SOL    HW216785   4.477   4.552   4.893 -0.3625  0.2444  0.3224
 1718SOL     OW16786   1.244   0.620   2.728 -0.2186 -0.1023 -0.5396
 1718SOL    HW116787   1.279   0.609   2.816 -1.9380  0.1212  0.1781
 1718SOL    HW216788   1.273   0.709   2.712  1.4002 -0.2703  1.3430
 1719SOL     OW16789   1.338   3.537   3.927 -0.1993 -0.5336  0.7300
 1719SOL    HW116790   1.357   3.444   3.936  1.7643 -0.4601 -3.0404
 1719SOL    HW216791   1.327   3.549   3.833 -1.4744 -0.0389  0.9257
 1720SOL     OW16792   3.133   4.324   0.289 -0.3804 -0.2775 -0.2228
 1720SOL    HW116793   3.096   4.255   0.343  1.5756 -1.7070 -0.7201
 1720SOL    HW216794   3.110   4.399   0.344 -0.7700 -0.9968  0.5810
 1721SOL     OW16795   0.639   1.410  16.955  0.3731 -0.6253 -0.0289
 1721SOL    HW116796   0.568   1.347  16.963  2.2012 -2.8480 -1.1316
 1721SOL    HW216797   0.694   1.364  16.891  1.1846 -1.3465  1.1862
 1722SOL     OW16798   4.005   0.326   6.520  0.1140  0.3993 -0.0777
 1722SOL    HW116799   3.975   0.264   6.453 -0.9821 -0.6345  1.3710
 1722SOL    HW216800   3.966   0.404   6.480  0.1351 -1.0783 -3.0111
 1723SOL     OW16801   4.716   3.981   6.451 -0.5195  0.8291 -0.1898
 1723SOL    HW116802   0.048   4.031   6.411 -0.6630 -0.0045 -1.4718
 1723SOL    HW216803   0.014   3.958   6.537 -1.5373  2.0758  0.5759
 1724SOL     OW16804   2.613   1.616  12.357  0.2699  0.0493  0.0522
 1724SOL    HW116805   2.572   1.699  12.334 -1.6431 -1.0232 -0.4450
 1724SOL    HW216806   2.699   1.632  12.319  0.5026 -1.9551 -0.2655
 1725SOL     OW16807   4.033   4.039  16.963 -0.0792  0.2763  0.5357
 1725SOL    HW116808   4.034   4.080  17.049 -1.1774  0.8296  0.2707
 1725SOL    HW216809   3.943   4.009  16.952  0.2315 -0.1072 -0.9607
 1726SOL     OW16810   4.198   1.955   5.479  0.5570 -0.0452  0.4051
 1726SOL    HW116811   4.156   2.033   5.516  1.3132 -0.9711  3.2303
 1726SOL    HW216812   4.172   1.967   5.388 -0.6000  1.6121  0.9531
 1727SOL     OW16813   4.441   3.439   3.235  0.3295 -0.7496  0.3026
 1727SOL    HW116814   4.470   3.473   3.320  0.1087 -0.3491  0.2205
 1727SOL    HW216815   4.400   3.519   3.201  0.7068 -0.0629  1.4758
 1728SOL     OW16816   2.381   4.018   4.997  0.0223  0.0724  0.3275
 1728SOL    HW116817   2.431   4.086   4.954 -1.8674  0.2316 -1.6416
 1728SOL    HW216818   2.437   3.941   4.996  0.3819  0.3023  2.2948
 1729SOL     OW16819   2.439   0.690   1.950  0.5584  0.2918  0.2380
 1729SOL    HW116820   2.469   0.770   1.906  2.3342 -0.8203 -0.5616
 1729SOL    HW216821   2.427   0.631   1.875  1.8061  0.8133 -0.3745
 1730SOL     OW16822   1.349   1.437   3.112  0.4576  0.4889 -0.0841
 1730SOL    HW116823   1.307   1.446   3.027  0.0879 -2.9394 -0.2890
 1730SOL    HW216824   1.417   1.372   3.090 -1.1345 -2.2034  2.9371
 1731SOL     OW16825   3.288   1.458   4.679  0.2450 -0.2405 -0.8594
 1731SOL    HW116826   3.263   1.433   4.768  0.4694 -0.3230 -0.8184
 1731SOL    HW216827   3.222   1.409   4.631  1.2898 -1.4782 -1.0391
 1732SOL     OW16828   1.830   1.646   3.574  0.0153 -0.0378  0.2563
 1732SOL    HW116829   1.873   1.587   3.513 -0.8417 -0.6997  0.2893
 1732SOL    HW216830   1.740   1.615   3.560 -0.8529  1.7936  1.7632
 1733SOL     OW16831   4.399   3.006  15.207 -0.3672  0.2211  0.9548
 1733SOL    HW116832   4.460   3.015  15.281  2.0719  0.5572 -1.0641
 1733SOL    HW216833   4.455   2.993  15.130 -0.6628  0.9758  0.6052
 1734SOL     OW16834   1.740   1.168  10.981  0.2548 -0.1406  0.2267
 1734SOL    HW116835   1.717   1.098  10.920 -1.7696 -0.4370  1.3358
 1734SOL    HW216836   1.685   1.239  10.947  1.2324  0.0167 -1.0098
 1735SOL     OW16837   2.582   0.645  11.441  0.2419 -0.0363 -0.1116
 1735SOL    HW116838   2.490   0.627  11.423  0.9485 -2.0017 -1.7826
 1735SOL    HW216839   2.607   0.577  11.504 -0.1449  0.0282  0.1118
 1736SOL     OW16840   1.257   0.464   5.554 -0.0770  0.0279  0.1080
 1736SOL    HW116841   1.212   0.403   5.496  1.6694 -0.7029 -0.4726
 1736SOL    HW216842   1.303   0.415   5.622 -1.3705 -1.3511 -0.0194
 1737SOL     OW16843   4.420   1.811   8.067  0.0148  0.5406 -0.4210
 1737SOL    HW116844   4.410   1.888   8.123  0.2134  0.5137 -0.3472
 1737SOL    HW216845   4.344   1.804   8.011 -0.6273  2.0993  0.2403
 1738SOL     OW16846   4.306   1.704  15.397  0.6300 -1.0457 -0.6236
 1738SOL    HW116847   4.314   1.763  15.322 -0.5192 -0.5510 -0.3733
 1738SOL    HW216848   4.397   1.700  15.424  0.7634  3.9237 -0.3475
 1739SOL     OW16849   2.142   0.362  11.806  0.3148 -0.4335  0.3095
 1739SOL    HW116850   2.189   0.372  11.723 -0.0122  0.7344  0.2566
 1739SOL    HW216851   2.213   0.385  11.867  1.2450 -1.2448 -0.4739
 1740SOL     OW16852   2.282   1.336  14.752  0.2860  0.3559 -0.1867
 1740SOL    HW116853   2.284   1.328  14.657  0.4326 -0.0691 -0.1503
 1740SOL    HW216854   2.226   1.412  14.767 -0.3717 -0.5700  2.1220
 1741SOL     OW16855   1.444   4.702  11.563  0.3022  0.1085  0.7618
 1741SOL    HW116856   1.406   0.037  11.611 -1.0368 -1.2502  1.7673
 1741SOL    HW216857   1.494   4.652  11.628 -1.6421 -1.0406  1.3433
 1742SOL     OW16858   1.350   1.222  17.726  0.7609  0.0340  0.4076
 1742SOL    HW116859   1.363   1.300   0.026  3.9642 -0.2970  0.0790
 1742SOL    HW216860   1.441   1.217  17.697  0.6110 -3.0826  0.4596
 1743SOL     OW16861   3.035   1.567   3.420 -0.4923  0.3383 -0.4132
 1743SOL    HW116862   2.953   1.541   3.378 -0.7481  1.8940 -0.8595
 1743SOL    HW216863   3.025   1.662   3.416 -1.7045  0.2552  0.5934
 1744SOL     OW16864   0.276   3.122  10.761  0.2563 -0.3336 -0.0689
 1744SOL    HW116865   0.238   3.104  10.847  0.5639 -0.6259  0.0051
 1744SOL    HW216866   0.266   3.034  10.725  0.5069  0.1906 -1.4276
 1745SOL     OW16867   0.616   4.394   3.888  0.4458 -0.0599 -0.5134
 1745SOL    HW116868   0.686   4.358   3.942 -1.9472 -2.8622  0.7575
 1745SOL    HW216869   0.654   4.469   3.844  1.5403 -0.9382 -1.0783
 1746SOL     OW16870   1.129   3.956   2.238  0.0915  0.5817 -0.1370
 1746SOL    HW116871   1.212   3.948   2.191  0.5281 -0.4516  0.8410
 1746SOL    HW216872   1.130   3.872   2.283 -0.4073 -0.2343 -1.6339
 1747SOL     OW16873   4.393   4.199   4.765 -0.5160 -0.2195  0.5688
 1747SOL    HW116874   4.486   4.205   4.744 -0.7321 -0.3915 -0.4596
 1747SOL    HW216875   4.384   4.281   4.813  0.6637  0.4647 -0.3885
 1748SOL     OW16876   0.169   1.093   9.276  0.5825 -0.4492 -0.6504
 1748SOL    HW116877   0.232   1.044   9.224 -0.8041 -3.4154  0.4790
 1748SOL    HW216878   0.215   1.087   9.360  0.3260 -1.6718 -0.6082
 1749SOL     OW16879   1.245   0.490   8.423 -0.1909 -0.1576 -0.7465
 1749SOL    HW116880   1.325   0.456   8.383  1.1021  1.8148  0.1617
 1749SOL    HW216881   1.275   0.570   8.465 -1.4964 -0.9834  1.7273
 1750SOL     OW16882   4.279   1.108   7.227  0.2316 -0.3548 -0.3570
 1750SOL    HW116883   4.264   1.075   7.316  0.5582 -0.2612 -0.2640
 1750SOL    HW216884   4.188   1.120   7.199  0.2519 -2.1527 -1.1818
 1751SOL     OW16885   3.502   3.286   2.785 -0.2680 -0.4149  0.0777
 1751SOL    HW116886   3.549   3.204   2.798 -0.1855 -0.1001  1.7578
 1751SOL    HW216887   3.408   3.265   2.785 -0.2022 -0.6978 -1.0210
 1752SOL     OW16888   1.529   0.860   6.000  0.1979  0.5437 -0.0401
 1752SOL    HW116889   1.621   0.889   6.002  0.4871 -0.3090 -1.5145
 1752SOL    HW216890   1.493   0.875   5.913 -2.7129  2.0967  1.4226
 1753SOL     OW16891   0.318   0.891  13.790  0.3101 -0.8430  0.0954
 1753SOL    HW116892   0.246   0.829  13.801 -1.1749  1.1581  1.8940
 1753SOL    HW216893   0.296   0.953  13.860  2.1661 -0.2012  0.1129
 1754SOL     OW16894   0.439   4.389  17.112 -0.3861  0.6357  0.1570
 1754SOL    HW116895   0.467   4.406  17.202  2.7923  0.5626 -0.8391
 1754SOL    HW216896   0.469   4.299  17.100 -1.5282  0.2030  0.5079
 1755SOL     OW16897   0.287   2.789  12.143  0.4894 -0.7216 -0.1542
 1755SOL    HW116898   0.380   2.782  12.164  0.4894  0.6364  0.2858
 1755SOL    HW216899   0.238   2.766  12.221 -0.4621  1.2092 -0.1798
 1756SOL     OW16900   4.174   2.918   5.852  0.0286  0.6151 -0.4707
 1756SOL    HW116901   4.147   2.966   5.773  1.7433  0.8723 -0.9000
 1756SOL    HW216902   4.203   2.838   5.809  0.3650  1.1592 -1.2732
 1757SOL     OW16903   1.069   1.515   1.287  0.3163  0.2455 -0.0336
 1757SOL    HW116904   1.040   1.556   1.205 -0.1438  0.3942  0.2030
 1757SOL    HW216905   1.103   1.429   1.263  0.1268 -0.0479  0.7474
 1758SOL     OW16906   4.505   1.281   9.092 -0.0546 -0.0301 -0.1314
 1758SOL    HW116907   4.544   1.225   9.160  0.4023  2.0343  1.2991
 1758SOL    HW216908   4.589   1.287   9.046  0.0106  1.6787  0.2305
 1759SOL     OW16909   4.115   2.063   3.560 -0.2209 -0.0059 -0.2747
 1759SOL    HW116910   4.024   2.035   3.573 -0.0283 -0.0968  0.9476
 1759SOL    HW216911   4.106   2.113   3.480  2.1742  0.1305 -0.4456
 1760SOL     OW16912   0.261   3.360   8.945 -0.0495 -0.2523 -0.0927
 1760SOL    HW116913   0.226   3.367   9.033 -0.2007 -1.0231 -0.0937
 1760SOL    HW216914   0.351   3.332   8.963  0.8210  1.6803 -1.4670
 1761SOL     OW16915   1.981   1.859   3.378  0.2083  0.5532  0.6091
 1761SOL    HW116916   1.945   1.864   3.289  1.8489  1.7332 -0.0011
 1761SOL    HW216917   1.976   1.769   3.411 -0.8416  0.4792  0.2664
 1762SOL     OW16918   0.104   0.512   8.884  0.0283  0.0889 -0.5245
 1762SOL    HW116919   0.078   0.421   8.877  0.5521 -0.2812  2.4362
 1762SOL    HW216920   0.177   0.516   8.823 -0.0811 -2.3484 -0.8065
 1763SOL     OW16921   4.730   4.715  17.746 -0.2318  0.0377  0.3382
 1763SOL    HW116922   0.066   4.724   0.051 -0.1108 -0.2305  0.2246
 1763SOL    HW216923   4.673   0.053  17.751  0.6667  0.7182  0.0556
 1764SOL     OW16924   4.185   4.150   3.603 -0.4431  0.4760  0.1533
 1764SOL    HW116925   4.187   4.104   3.519  1.3610  2.4824 -0.8820
 1764SOL    HW216926   4.264   4.203   3.610 -1.3344  1.9747 -1.1494
 1765SOL     OW16927   4.235   0.830  12.536 -0.1044  0.3071  0.2664
 1765SOL    HW116928   4.253   0.913  12.491 -1.0552 -0.1391 -0.9228
 1765SOL    HW216929   4.142   0.846  12.555 -0.4319 -2.3917  0.8327
 1766SOL     OW16930   3.851   3.259   6.894  0.2197  0.5938  0.1584
 1766SOL    HW116931   3.851   3.165   6.875 -0.5922  0.3847  1.1982
 1766SOL    HW216932   3.822   3.289   6.807  2.5666  0.5695 -0.6331
 1767SOL     OW16933   3.109   3.160   6.384  0.0888 -0.2378  0.1179
 1767SOL    HW116934   3.050   3.216   6.434 -0.4135 -0.0618 -0.6640
 1767SOL    HW216935   3.143   3.220   6.317  0.9777 -0.7917  0.0651
 1768SOL     OW16936   3.640   0.414  14.069 -0.1677  0.2240  0.0023
 1768SOL    HW116937   3.726   0.433  14.031  0.1423 -1.0548  0.0721
 1768SOL    HW216938   3.616   0.502  14.099  1.7185  0.8498 -0.3071
 1769SOL     OW16939   2.061   2.508   1.141  0.0766  0.5732 -0.5777
 1769SOL    HW116940   2.102   2.454   1.073 -2.1083 -2.5438  0.5873
 1769SOL    HW216941   2.065   2.452   1.218 -0.9000  2.9002  1.1608
 1770SOL     OW16942   0.234   3.120   8.322 -0.2049  0.0783  0.6908
 1770SOL    HW116943   0.237   3.177   8.399  1.4120 -1.2605  1.6182
 1770SOL    HW216944   0.196   3.040   8.358  3.6051 -0.5931  3.2436
 1771SOL     OW16945   0.352   3.194   4.933  0.1310  0.8263 -0.2206
 1771SOL    HW116946   0.257   3.189   4.918  0.2305  3.4590 -1.7612
 1771SOL    HW216947   0.387   3.129   4.872 -0.0139 -0.0979  0.6724
 1772SOL     OW16948   0.811   2.943  11.620  0.4632  0.6550 -0.3406
 1772SOL    HW116949   0.738   2.892  11.653  0.9799  0.6496  0.7933
 1772SOL    HW216950   0.886   2.890  11.646 -0.7434 -1.7239 -1.7020
 1773SOL     OW16951   4.620   1.237   0.881 -0.0997 -0.4726  0.0922
 1773SOL    HW116952   4.530   1.265   0.864 -0.2415 -1.6580 -1.1051
 1773SOL    HW216953   4.651   1.246   0.791  2.6073 -0.8805  0.9829
 1774SOL     OW16954   2.812   1.826   2.878 -0.3209  0.1894 -0.1914
 1774SOL    HW116955   2.816   1.786   2.964  0.2672  1.7090  0.4839
 1774SOL    HW216956   2.729   1.795   2.843  0.4473 -0.2323 -1.6683
 1775SOL     OW16957   0.846   0.728   7.975 -0.2362  0.3271  0.0246
 1775SOL    HW116958   0.790   0.651   7.988  1.1292 -0.3084  2.0415
 1775SOL    HW216959   0.882   0.743   8.062 -1.8267 -1.6112  1.0116
 1776SOL     OW16960   2.377   2.211   7.583 -0.8996 -0.2232  0.5983
 1776SOL    HW116961   2.439   2.148   7.618 -2.0160 -0.9484  1.2661
 1776SOL    HW216962   2.395   2.200   7.490 -1.5272 -1.3154  0.6158
 1777SOL     OW16963   0.402   4.111   6.811  0.2087 -0.2795 -0.0826
 1777SOL    HW116964   0.403   4.112   6.907  3.0407  0.6561 -0.1183
 1777SOL    HW216965   0.464   4.182   6.795 -0.9082  0.8257  0.4291
 1778SOL     OW16966   0.895   1.723   2.630 -0.0787  0.1127  0.1948
 1778SOL    HW116967   0.815   1.750   2.585  0.0329 -0.2028 -0.1937
 1778SOL    HW216968   0.968   1.741   2.571 -0.1364 -1.6507 -0.4246
 1779SOL     OW16969   4.074   0.358  14.418  0.3452  0.3148 -0.2369
 1779SOL    HW116970   4.048   0.360  14.326 -1.7839 -2.1728  0.3011
 1779SOL    HW216971   4.162   0.395  14.416 -0.1680  1.4019 -3.2269
 1780SOL     OW16972   0.893   1.832   3.953 -0.7052  0.2611 -0.0151
 1780SOL    HW116973   0.932   1.758   3.908  0.0837  0.5591  0.1669
 1780SOL    HW216974   0.815   1.836   3.898 -0.0252 -0.0886 -1.0123
 1781SOL     OW16975   4.503   4.366   6.906  0.4560 -0.1862 -0.3000
 1781SOL    HW116976   4.569   4.305   6.939 -0.4210 -1.0097 -0.0817
 1781SOL    HW216977   4.457   4.318   6.837  2.6238 -1.1034 -1.1107
 1782SOL     OW16978   0.568   4.586  13.473 -0.1564 -0.3499 -0.1415
 1782SOL    HW116979   0.620   4.567  13.552 -1.9457  1.3190  1.4228
 1782SOL    HW216980   0.633   4.588  13.403  1.2427 -4.2142  1.0201
 1783SOL     OW16981   0.765   2.828   7.595 -0.5869 -0.4603 -0.5706
 1783SOL    HW116982   0.685   2.799   7.552 -1.5975  1.7479 -0.1411
 1783SOL    HW216983   0.741   2.914   7.628 -2.3923 -0.8087 -1.0085
 1784SOL     OW16984   1.651   3.443   4.157  0.5615 -0.2456  0.1400
 1784SOL    HW116985   1.560   3.414   4.149 -0.3095  2.7439 -0.8509
 1784SOL    HW216986   1.700   3.362   4.142  0.8292  0.8249 -4.7664
 1785SOL     OW16987   3.167   3.895  10.654 -0.5314  0.1865 -0.0736
 1785SOL    HW116988   3.186   3.864  10.565  0.3602 -0.0223  0.1923
 1785SOL    HW216989   3.150   3.814  10.702 -1.9223  2.0633  2.5610
 1786SOL     OW16990   4.325   3.151   3.925  0.4272 -0.5502  0.2728
 1786SOL    HW116991   4.234   3.135   3.951  0.3933  0.3188  0.7005
 1786SOL    HW216992   4.366   3.064   3.928 -2.5060 -1.8647  1.8033
 1787SOL     OW16993   0.557   2.502   4.726 -0.1638 -0.0678  0.4097
 1787SOL    HW116994   0.603   2.419   4.718  1.6169  1.0632 -1.0348
 1787SOL    HW216995   0.621   2.540   4.786  0.7940  2.0931 -2.0071
 1788SOL     OW16996   1.244   1.436   3.682 -0.4835 -0.6330 -0.1001
 1788SOL    HW116997   1.236   1.496   3.756  1.2559  0.0753 -0.4833
 1788SOL    HW216998   1.328   1.398   3.711  0.6155 -0.3269 -2.9332
 1789SOL     OW16999   3.190   2.754  10.284  0.0074 -0.4203  0.6705
 1789SOL    HW117000   3.251   2.736  10.212  0.5609  2.1502  0.4972
 1789SOL    HW217001   3.111   2.710  10.254 -0.1195  1.3946 -1.6712
 1790SOL     OW17002   2.638   0.188  16.938  0.5424 -0.8192 -0.0799
 1790SOL    HW117003   2.592   0.190  16.854 -1.3025  1.0735  0.9699
 1790SOL    HW217004   2.633   0.094  16.952  0.7707 -0.6399  1.2213
 1791SOL     OW17005   0.897   2.687   8.866  0.2980 -0.2802  0.0253
 1791SOL    HW117006   0.912   2.595   8.845  2.4473  0.0242  0.2696
 1791SOL    HW217007   0.929   2.734   8.789  1.5505  0.2546  0.8811
 1792SOL     OW17008   2.045   0.929  14.679  0.2729  0.2661  0.2495
 1792SOL    HW117009   2.044   1.024  14.685 -0.0238  0.3321 -0.8669
 1792SOL    HW217010   1.986   0.917  14.604 -0.6825  0.4009  0.9758
 1793SOL     OW17011   0.873   0.596   5.158  0.1696  0.1226 -0.5502
 1793SOL    HW117012   0.794   0.647   5.176 -0.9480 -2.0812  0.7926
 1793SOL    HW217013   0.852   0.576   5.067 -0.4477  0.1964 -0.4245
 1794SOL     OW17014   3.919   3.172   4.626  0.3237  0.5764  0.2676
 1794SOL    HW117015   3.837   3.155   4.672  0.8181  0.7990  1.2381
 1794SOL    HW217016   3.928   3.261   4.659  1.2673 -0.6542  3.2844
 1795SOL     OW17017   3.905   0.234  10.562  0.3465 -0.0082  0.1127
 1795SOL    HW117018   3.991   0.209  10.527  0.7126 -0.0028  1.0193
 1795SOL    HW217019   3.887   0.309  10.506  0.5601  0.0200  0.0803
 1796SOL     OW17020   0.049   2.491   8.296  0.1602  0.2965 -0.3224
 1796SOL    HW117021   0.137   2.520   8.272 -0.9188  1.2069 -3.2411
 1796SOL    HW217022   4.733   2.546   8.240 -2.0703 -0.2344  1.3525
 1797SOL     OW17023   3.382   0.789   1.602 -0.2475 -0.2021  0.3215
 1797SOL    HW117024   3.417   0.795   1.513  1.3002  0.3875  0.9672
 1797SOL    HW217025   3.292   0.816   1.584 -0.2079  1.1132  2.1511
 1798SOL     OW17026   3.454   3.805   9.528  0.0543 -0.5688  0.3470
 1798SOL    HW117027   3.361   3.826   9.545  0.2200 -0.3499  1.0027
 1798SOL    HW217028   3.466   3.816   9.434 -0.8646  1.9357  0.5079
 1799SOL     OW17029   0.238   4.434   5.460  0.0933  0.1022 -0.4403
 1799SOL    HW117030   0.245   4.516   5.510  0.4234  0.1878 -0.6236
 1799SOL    HW217031   0.282   4.464   5.381  0.3167 -1.4128 -0.8684
 1800SOL     OW17032   2.262   1.555   2.436 -0.1277 -0.1517  0.4739
 1800SOL    HW117033   2.185   1.539   2.490 -1.5141 -0.3022 -1.5222
 1800SOL    HW217034   2.318   1.478   2.446 -1.8057 -1.0571  2.7097
 1801SOL     OW17035   1.894   2.908   8.818  0.8501 -0.3588  0.5213
 1801SOL    HW117036   1.870   2.887   8.908 -0.1522  0.4670  0.4427
 1801SOL    HW217037   1.866   2.823   8.784  0.3984  0.3714 -0.9182
 1802SOL     OW17038   2.671   2.130  15.402  0.1312  0.0664 -0.2974
 1802SOL    HW117039   2.652   2.167  15.315  0.1907 -3.7574 -1.9753
 1802SOL    HW217040   2.756   2.090  15.385  0.4565 -0.3172  2.3723
 1803SOL     OW17041   2.676   2.647   0.013 -0.0214  0.2552  0.4871
 1803SOL    HW117042   2.704   2.705   0.083  1.5065  0.8951 -0.6491
 1803SOL    HW217043   2.654   2.716  17.705  1.5966  1.1070  0.8587
 1804SOL     OW17044   0.921   0.952   7.443 -0.0954 -0.0465  0.0078
 1804SOL    HW117045   0.943   0.925   7.354 -1.1432 -2.8958  0.5970
 1804SOL    HW217046   0.972   1.033   7.450  0.1415 -0.2255  0.3870
 1805SOL     OW17047   2.138   4.710   9.883 -0.4290 -0.1142 -0.7311
 1805SOL    HW117048   2.142   4.696   9.789 -0.7216  0.3993 -0.8170
 1805SOL    HW217049   2.082   0.049   9.880  2.1342  1.7891  0.6611
 1806SOL     OW17050   3.009   2.818  14.500  0.0693 -0.0559 -0.1246
 1806SOL    HW117051   3.060   2.790  14.424  0.7225 -0.2443  0.3828
 1806SOL    HW217052   2.933   2.761  14.489  2.8367 -3.7823  0.2668
 1807SOL     OW17053   0.087   3.365   1.244  0.2235 -0.0325 -0.0631
 1807SOL    HW117054   0.033   3.366   1.323  1.0824  1.2243  0.5148
 1807SOL    HW217055   0.022   3.357   1.174 -1.0606 -1.4528  1.3100
 1808SOL     OW17056   0.308   0.070  12.906 -0.0121 -0.0510  0.6897
 1808SOL    HW117057   0.371   0.041  12.972  2.3703  0.0196 -1.5637
 1808SOL    HW217058   0.356   0.138  12.860 -3.3138  2.1336  0.4607
 1809SOL     OW17059   2.021   2.950   5.160 -0.1632 -0.8223  0.2144
 1809SOL    HW117060   1.933   2.983   5.144  0.3705  0.6250  0.2498
 1809SOL    HW217061   2.052   3.018   5.220  0.3721 -0.3151 -0.6523
 1810SOL     OW17062   4.658   1.128   7.904  0.2642  0.1310 -0.2713
 1810SOL    HW117063   4.588   1.187   7.875  1.1801  0.2158 -2.3359
 1810SOL    HW217064   4.682   1.182   7.979 -1.0778 -0.0994  0.3199
 1811SOL     OW17065   0.865   3.116   3.130  0.1136  0.0681 -0.3786
 1811SOL    HW117066   0.893   3.027   3.112 -0.9595 -0.2440 -0.5536
 1811SOL    HW217067   0.772   3.095   3.145 -0.2789  0.9374 -1.5581
 1812SOL     OW17068   0.247   4.594  11.012  0.8411  0.3244 -0.3770
 1812SOL    HW117069   0.165   4.639  11.034 -0.0716 -1.2437 -0.5989
 1812SOL    HW217070   0.310   4.633  11.072  1.1158 -0.4803 -0.1522
 1813SOL     OW17071   3.898   3.894  15.803 -0.3994  0.2147 -0.0302
 1813SOL    HW117072   3.967   3.954  15.775 -1.4986  0.4698 -2.2195
 1813SOL    HW217073   3.874   3.859  15.718  2.4294  0.5845 -0.9815
 1814SOL     OW17074   1.696   1.785  10.834 -0.2445  0.1650 -0.1977
 1814SOL    HW117075   1.663   1.867  10.796  0.0429 -0.3934 -1.6318
 1814SOL    HW217076   1.704   1.812  10.926 -1.2478  1.2413 -0.4273
 1815SOL     OW17077   1.902   3.238  10.452  0.0612  0.0417 -0.5156
 1815SOL    HW117078   1.810   3.211  10.454 -0.2197  1.0502  0.1896
 1815SOL    HW217079   1.887   3.324  10.414  1.8078 -0.1649 -1.6824
 1816SOL     OW17080   4.505   4.204   2.900  0.0756 -0.4492  0.3948
 1816SOL    HW117081   4.431   4.154   2.864  0.4892 -0.5320 -0.3431
 1816SOL    HW217082   4.472   4.289   2.872 -0.9309 -0.0855  2.6913
 1817SOL     OW17083   1.733   4.420  11.560  0.3132  0.4753  0.4244
 1817SOL    HW117084   1.714   4.333  11.597 -0.1779  0.2782 -0.3036
 1817SOL    HW217085   1.737   4.412  11.465  0.8088  0.5635  0.4367
 1818SOL     OW17086   3.674   4.265  12.525  0.1836 -1.4599 -0.2602
 1818SOL    HW117087   3.695   4.358  12.515 -3.9259 -0.3517  1.3343
 1818SOL    HW217088   3.752   4.218  12.495  0.9297 -0.6218  0.3777
 1819SOL     OW17089   2.395   3.957   1.214 -0.2947 -0.1834 -0.6193
 1819SOL    HW117090   2.430   3.985   1.298 -1.0721  1.7329 -0.9204
 1819SOL    HW217091   2.355   3.873   1.234 -1.6540  0.1934 -1.6700
 1820SOL     OW17092   1.317   0.910  13.588  0.3661 -0.5102 -0.4650
 1820SOL    HW117093   1.307   0.851  13.662 -0.0490 -0.8952 -0.8342
 1820SOL    HW217094   1.338   0.996  13.625 -2.1270  0.2667 -0.8746
 1821SOL     OW17095   3.387   4.090  17.021  0.3442 -0.4264 -0.1112
 1821SOL    HW117096   3.386   3.997  17.042  3.7921 -0.0042  1.9481
 1821SOL    HW217097   3.295   4.114  17.035  0.8824  0.7101  1.5046
 1822SOL     OW17098   0.950   1.759  14.734 -0.0987  0.1442 -0.8414
 1822SOL    HW117099   0.996   1.675  14.737 -0.6748 -0.2404 -2.5994
 1822SOL    HW217100   0.859   1.729  14.732 -0.6318  1.6122  1.1228
 1823SOL     OW17101   4.101   4.021   3.816 -0.7191 -0.1300 -0.2989
 1823SOL    HW117102   4.128   4.043   3.727  1.3949  0.7379  0.5662
 1823SOL    HW217103   4.090   3.928   3.795  0.9987  0.2515 -2.8950
 1824SOL     OW17104   3.623   2.525   2.691 -0.3607 -0.3060  0.0739
 1824SOL    HW117105   3.610   2.502   2.783 -1.0163 -2.1106 -0.4633
 1824SOL    HW217106   3.646   2.439   2.656 -1.1841 -0.1799 -0.7696
 1825SOL     OW17107   0.502   3.397   2.502 -0.0790  0.6608 -0.1856
 1825SOL    HW117108   0.594   3.407   2.476  0.0454  1.7823  0.6987
 1825SOL    HW217109   0.461   3.458   2.440  3.0457  1.6431 -1.2881
 1826SOL     OW17110   3.578   2.652   8.432  0.1717 -0.3808 -0.2751
 1826SOL    HW117111   3.568   2.630   8.339 -2.1842  0.5076 -0.2251
 1826SOL    HW217112   3.493   2.696   8.437  0.6344  0.2739  1.8493
 1827SOL     OW17113   1.373   0.888   3.033 -0.0611  0.4617  0.7101
 1827SOL    HW117114   1.316   0.932   3.096 -0.0752 -1.4682  2.0095
 1827SOL    HW217115   1.318   0.820   2.994 -0.8127  0.6008  1.5158
 1828SOL     OW17116   2.115   3.559   6.902 -0.1694 -0.3615  0.3003
 1828SOL    HW117117   2.147   3.624   6.839 -3.7261  0.5685 -0.5560
 1828SOL    HW217118   2.166   3.480   6.882 -2.2909 -1.9722  1.2269
 1829SOL     OW17119   1.060   2.768   5.009  0.2350  0.3508  0.5226
 1829SOL    HW117120   1.062   2.682   4.968  2.1630  1.2096 -1.1904
 1829SOL    HW217121   1.095   2.828   4.944  1.3193 -2.1528 -1.1829
 1830SOL     OW17122   3.770   0.306   4.433 -0.0296 -0.0471  0.9465
 1830SOL    HW117123   3.824   0.257   4.370  0.9753  0.8259  1.1280
 1830SOL    HW217124   3.846   0.346   4.475  0.2726 -0.1205  0.4773
 1831SOL     OW17125   4.520   2.059   2.779  0.4282  0.0468  0.6259
 1831SOL    HW117126   4.614   2.076   2.781  0.6230 -1.1313  1.1790
 1831SOL    HW217127   4.497   2.139   2.732  2.2256 -0.6120 -1.3504
 1832SOL     OW17128   3.178   0.744   5.016 -0.1839 -0.1298 -0.2520
 1832SOL    HW117129   3.165   0.761   4.923  1.3015 -0.2558 -0.4710
 1832SOL    HW217130   3.220   0.822   5.053 -1.4183 -0.2490  1.4264
 1833SOL     OW17131   3.324   1.556  15.639 -0.1758 -0.0701 -0.2998
 1833SOL    HW117132   3.286   1.471  15.661 -1.7357  0.5750 -0.5053
 1833SOL    HW217133   3.377   1.522  15.567  1.4591  1.0142  0.3810
 1834SOL     OW17134   2.258   4.605   3.375 -0.2986 -0.4676  0.0715
 1834SOL    HW117135   2.220   4.551   3.445 -0.1475  0.0610  0.5601
 1834SOL    HW217136   2.308   4.540   3.327  0.4476  0.3280 -0.2224
 1835SOL     OW17137   2.928   1.086   6.686 -0.0819 -0.2235 -0.6354
 1835SOL    HW117138   2.916   1.054   6.775 -0.7287 -0.0505 -0.6578
 1835SOL    HW217139   2.834   1.094   6.670 -0.4451 -1.2420  1.0181
 1836SOL     OW17140   2.929   3.389   3.155 -0.4620 -0.2865  0.2464
 1836SOL    HW117141   2.989   3.426   3.220 -1.2691 -2.5396  2.2661
 1836SOL    HW217142   2.854   3.369   3.211  0.0874  0.0909  1.1122
 1837SOL     OW17143   3.281   4.464  12.769 -0.9180  0.6452  0.2655
 1837SOL    HW117144   3.234   4.468  12.685  1.5573  1.2594 -1.1052
 1837SOL    HW217145   3.298   4.557  12.784 -0.2904  0.8762 -1.8337
 1838SOL     OW17146   0.589   1.105   0.535 -0.3655  0.4332 -0.3777
 1838SOL    HW117147   0.514   1.138   0.584  0.5945 -0.0267  1.3899
 1838SOL    HW217148   0.578   1.142   0.447 -2.0560  0.2414 -0.2501
 1839SOL     OW17149   2.193   4.397   3.536 -0.4113  0.3504  0.6550
 1839SOL    HW117150   2.143   4.324   3.499 -0.3654  0.5574  0.1871
 1839SOL    HW217151   2.122   4.435   3.588 -0.7627 -0.2902  0.6443
 1840SOL     OW17152   4.546   3.316   5.103  0.3413  0.3073 -0.1656
 1840SOL    HW117153   4.472   3.260   5.079  0.6537 -0.6381  1.1178
 1840SOL    HW217154   4.505   3.401   5.118 -1.9398 -0.5987 -1.2418
 1841SOL     OW17155   0.079   2.076   2.045  0.5504 -0.3561  0.6559
 1841SOL    HW117156   4.732   2.118   2.049  0.7320  0.0123  0.6844
 1841SOL    HW217157   0.153   2.136   2.038 -0.0737  0.3967  0.5240
 1842SOL     OW17158   0.898   0.254   2.824 -0.1406 -0.1793 -0.1083
 1842SOL    HW117159   0.958   0.201   2.771 -1.0139 -1.0028 -0.2666
 1842SOL    HW217160   0.816   0.254   2.774  0.1163 -0.8879 -0.5248
 1843SOL     OW17161   2.596   4.472   7.585 -0.4253 -0.1318 -0.3575
 1843SOL    HW117162   2.655   4.399   7.605 -2.0509 -1.4818 -0.4699
 1843SOL    HW217163   2.648   4.526   7.525  1.4026 -1.6737 -0.1798
 1844SOL     OW17164   3.568   0.172   6.359 -0.6594 -0.3731  0.0279
 1844SOL    HW117165   3.490   0.135   6.401 -0.6294  0.9002  1.2301
 1844SOL    HW217166   3.644   0.128   6.396 -0.5383 -1.4665 -1.5157
 1845SOL     OW17167   2.247   1.319   1.722 -0.1286 -1.0182 -0.4261
 1845SOL    HW117168   2.190   1.269   1.780  0.9054 -1.9271 -0.1857
 1845SOL    HW217169   2.225   1.405   1.755 -0.8862 -1.6457  0.7028
 1846SOL     OW17170   4.127   3.468  15.817  0.1561 -0.3257  0.2883
 1846SOL    HW117171   4.151   3.456  15.909  0.3783  1.5826  0.4902
 1846SOL    HW217172   4.042   3.511  15.830 -1.3718 -2.3580 -2.9650
 1847SOL     OW17173   3.860   3.972  13.398  0.2977  0.4653 -0.7555
 1847SOL    HW117174   3.841   4.031  13.471 -0.8897 -3.4252  2.0507
 1847SOL    HW217175   3.779   3.924  13.386  2.6383 -2.9745 -2.7168
 1848SOL     OW17176   3.316   2.789   8.358  0.1099 -0.2477  0.2634
 1848SOL    HW117177   3.291   2.726   8.291  1.9265  1.3184 -1.8767
 1848SOL    HW217178   3.234   2.820   8.396 -0.2928 -1.5281  0.4458
 1849SOL     OW17179   2.172   2.543   8.883  1.0583  0.3033  0.0478
 1849SOL    HW117180   2.116   2.614   8.850  0.0085 -1.2693 -1.5402
 1849SOL    HW217181   2.253   2.564   8.837  0.6592 -0.4759 -0.9949
 1850SOL     OW17182   4.339   2.613   7.544 -0.5443 -0.3715 -0.2819
 1850SOL    HW117183   4.364   2.702   7.568 -0.4694 -0.8405  1.3749
 1850SOL    HW217184   4.261   2.605   7.599 -0.5940  1.6473 -0.0482
 1851SOL     OW17185   4.547   0.658   4.779 -0.1463  0.5799 -0.2444
 1851SOL    HW117186   4.598   0.736   4.802  0.8491 -0.1480  0.0297
 1851SOL    HW217187   4.600   0.618   4.710  2.6710  3.0285  0.4657
 1852SOL     OW17188   0.132   2.045  12.180 -0.3311  0.1772  0.3095
 1852SOL    HW117189   0.150   2.069  12.271  3.2027 -0.8138 -0.1411
 1852SOL    HW217190   0.063   1.982  12.202  0.7819 -1.2870 -0.4169
 1853SOL     OW17191   1.308   4.719   2.365 -0.6723  0.2191  0.1202
 1853SOL    HW117192   1.349   0.064   2.346 -1.8507  0.9170  0.6443
 1853SOL    HW217193   1.357   4.685   2.440  0.0500 -2.8314 -1.7682
 1854SOL     OW17194   4.500   4.073   7.540 -0.2169 -0.4769 -0.0226
 1854SOL    HW117195   4.544   3.992   7.514  1.6054  1.1200 -1.9256
 1854SOL    HW217196   4.498   4.077   7.635  1.4419 -0.1018 -0.0027
 1855SOL     OW17197   1.625   3.914  11.620  0.1700  0.2777  0.4264
 1855SOL    HW117198   1.590   3.829  11.648  1.9656 -0.3155  0.8585
 1855SOL    HW217199   1.568   3.920  11.543  0.1936  0.6449  0.4416
 1856SOL     OW17200   3.695   4.148   5.058  0.2122 -0.3205 -0.1306
 1856SOL    HW117201   3.696   4.095   4.979  0.9168  0.3267 -0.5699
 1856SOL    HW217202   3.760   4.101   5.110  0.1693 -0.0356  0.1840
 1857SOL     OW17203   4.705   1.559   1.656 -0.5174  0.1908 -0.1174
 1857SOL    HW117204   4.632   1.538   1.597 -0.0282 -0.7181 -0.3956
 1857SOL    HW217205   4.689   1.493   1.723  1.0651 -0.4421 -0.3594
 1858SOL     OW17206   2.651   0.271   7.285  0.2540 -0.6375 -0.2905
 1858SOL    HW117207   2.720   0.215   7.250 -0.4373 -1.0897 -0.9147
 1858SOL    HW217208   2.702   0.343   7.323 -1.9963  0.8813 -0.1835
 1859SOL     OW17209   2.416   1.680   8.763  0.1599  0.7280 -0.9743
 1859SOL    HW117210   2.393   1.749   8.700 -2.4841  0.0113 -0.7913
 1859SOL    HW217211   2.454   1.726   8.838 -0.7185  3.2823 -2.0866
 1860SOL     OW17212   3.416   3.096   4.937  0.1664  0.4435 -0.3071
 1860SOL    HW117213   3.451   3.099   5.026 -0.9431  2.1113  0.0645
 1860SOL    HW217214   3.390   3.186   4.920  2.0610  1.1987  0.8345
 1861SOL     OW17215   3.461   1.488  15.429  0.0809 -0.0021 -0.4245
 1861SOL    HW117216   3.528   1.542  15.387  0.4359 -1.2136 -1.4063
 1861SOL    HW217217   3.464   1.417  15.365  0.8334 -0.1248 -0.2464
 1862SOL     OW17218   2.419   4.712   8.248 -0.6439 -0.4316  0.0577
 1862SOL    HW117219   2.377   4.709   8.334  0.2362 -0.1095  0.5017
 1862SOL    HW217220   2.372   0.034   8.192  0.5983  1.6884  1.3147
 1863SOL     OW17221   3.437   3.138  15.024  0.3260  0.2319 -0.4019
 1863SOL    HW117222   3.472   3.224  15.000  1.2860  0.3552  1.4442
 1863SOL    HW217223   3.370   3.135  14.955  0.7561  1.2532 -0.8710
 1864SOL     OW17224   4.442   0.497   4.054  0.1676 -0.2126  0.0678
 1864SOL    HW117225   4.505   0.566   4.032  0.3758 -1.2689 -2.7524
 1864SOL    HW217226   4.467   0.417   4.007  0.1160 -0.4040  0.3689
 1865SOL     OW17227   3.628   3.658   5.083 -0.2166  1.0596 -0.2211
 1865SOL    HW117228   3.638   3.702   4.998 -0.5096  1.3871 -0.0855
 1865SOL    HW217229   3.569   3.724   5.119  0.4155  1.0181  0.9076
 1866SOL     OW17230   3.056   3.300   9.686  0.8952  0.1137  0.4723
 1866SOL    HW117231   3.151   3.304   9.699  1.1112 -1.0017 -0.7155
 1866SOL    HW217232   3.055   3.276   9.593 -0.0078 -0.6526  0.6862
 1867SOL     OW17233   3.342   3.606   8.551  0.0949  0.2993  0.0208
 1867SOL    HW117234   3.294   3.689   8.550  2.2909  1.5743  0.7528
 1867SOL    HW217235   3.344   3.581   8.458  1.3662 -2.2356  0.7325
 1868SOL     OW17236   1.633   1.712   7.521 -0.3446  0.5838  0.1541
 1868SOL    HW117237   1.625   1.644   7.588 -1.5885  1.0413  0.4751
 1868SOL    HW217238   1.617   1.785   7.582  2.1299 -2.3241  4.3304
 1869SOL     OW17239   2.060   2.429   3.640  0.3141  0.8922  0.2995
 1869SOL    HW117240   2.088   2.518   3.663  0.2176  0.3270  2.5502
 1869SOL    HW217241   2.141   2.387   3.610 -0.2694  0.1986 -0.2983
 1870SOL     OW17242   0.518   1.684   8.379  0.0408 -0.2481 -0.3201
 1870SOL    HW117243   0.463   1.650   8.309 -0.4160 -0.8675  0.3383
 1870SOL    HW217244   0.490   1.776   8.381 -1.0780 -0.5533 -1.9975
 1871SOL     OW17245   3.480   2.821   1.236 -0.4021  0.0702  0.6727
 1871SOL    HW117246   3.554   2.868   1.197 -0.1761 -0.3585  0.5777
 1871SOL    HW217247   3.487   2.730   1.207  1.5662  0.7400 -0.9655
 1872SOL     OW17248   2.352   3.689  17.166  0.0828  0.4092  0.6503
 1872SOL    HW117249   2.380   3.780  17.161  0.6329  0.1321 -1.4721
 1872SOL    HW217250   2.337   3.686  17.260  0.6562 -1.8594  0.6725
 1873SOL     OW17251   3.718   2.433   3.697  0.0486  0.3290 -0.3901
 1873SOL    HW117252   3.678   2.398   3.617  0.3992  1.6505 -1.1383
 1873SOL    HW217253   3.673   2.516   3.712 -1.0720 -0.3251 -0.0815
 1874SOL     OW17254   1.552   1.663   1.449  0.0258  0.4418 -0.0053
 1874SOL    HW117255   1.469   1.710   1.454  0.1760  0.5529  1.5953
 1874SOL    HW217256   1.552   1.649   1.355  1.9321 -0.7523  0.1577
 1875SOL     OW17257   1.688   3.642  11.685 -0.4106  0.4707  0.1028
 1875SOL    HW117258   1.618   3.578  11.700 -0.8002  0.6418 -0.9845
 1875SOL    HW217259   1.752   3.591  11.637  0.1441  1.0559  0.2272
 1876SOL     OW17260   3.910   1.628   3.140 -0.0533 -0.2248  0.4404
 1876SOL    HW117261   3.863   1.561   3.090 -1.4846 -0.6978  2.4363
 1876SOL    HW217262   3.984   1.581   3.179 -0.3832 -0.1892  1.1038
 1877SOL     OW17263   0.451   1.084   6.707 -0.2703 -0.2131  0.0819
 1877SOL    HW117264   0.502   1.029   6.648 -0.1645  0.0668 -0.0857
 1877SOL    HW217265   0.505   1.057   6.782 -0.4915 -2.1585 -0.4415
 1878SOL     OW17266   0.303   4.044   3.573  0.4608 -0.0319 -0.0198
 1878SOL    HW117267   0.211   4.069   3.585  0.8370  1.2654  0.2088
 1878SOL    HW217268   0.346   4.118   3.617  1.9163  0.0120 -1.4861
 1879SOL     OW17269   1.857   1.682   8.773 -0.4725  0.8560 -0.1954
 1879SOL    HW117270   1.818   1.632   8.844  3.3511 -0.6585  0.7750
 1879SOL    HW217271   1.945   1.684   8.808 -0.9988 -2.6834  1.3168
 1880SOL     OW17272   1.280   2.356   5.297 -0.3338  0.0919 -0.6080
 1880SOL    HW117273   1.332   2.418   5.247  1.4543 -0.8082  0.1392
 1880SOL    HW217274   1.353   2.307   5.334 -1.1635 -1.7148 -1.3821
 1881SOL     OW17275   3.693   2.188   0.913 -0.4272 -0.1783  0.1402
 1881SOL    HW117276   3.699   2.279   0.942 -1.8665  0.0499 -0.3027
 1881SOL    HW217277   3.604   2.183   0.880 -0.1669 -0.7617 -0.4730
 1882SOL     OW17278   3.024   0.917   8.332  0.0603  0.2363  0.6541
 1882SOL    HW117279   3.010   0.854   8.262 -0.2847  2.0355 -0.8816
 1882SOL    HW217280   3.011   0.859   8.407  0.3272  2.8853  2.7247
 1883SOL     OW17281   2.282   1.692   4.523 -0.0188 -0.2353 -0.0430
 1883SOL    HW117282   2.301   1.719   4.433  1.5006 -0.3574  0.2462
 1883SOL    HW217283   2.204   1.638   4.508  0.4806 -0.6846 -1.0491
 1884SOL     OW17284   3.567   1.879  11.891  0.5183  0.0991 -0.0231
 1884SOL    HW117285   3.575   1.964  11.847  0.1084  0.2883  0.2805
 1884SOL    HW217286   3.528   1.819  11.828 -0.2427  1.3901 -0.7828
 1885SOL     OW17287   0.885   2.409   8.366 -0.3843  0.1435  0.1702
 1885SOL    HW117288   0.845   2.354   8.433 -0.7027  0.3734  0.1687
 1885SOL    HW217289   0.937   2.342   8.321 -2.2783 -1.2070 -0.0508
 1886SOL     OW17290   2.603   2.548   3.845 -0.0809  0.1472  0.6827
 1886SOL    HW117291   2.659   2.485   3.891 -0.1659 -0.2537  0.2306
 1886SOL    HW217292   2.578   2.500   3.766 -1.8277  1.1249  0.6558
 1887SOL     OW17293   1.493   4.125   7.229 -0.3273  0.2518 -0.1057
 1887SOL    HW117294   1.516   4.187   7.159 -0.2602 -0.0614 -0.3605
 1887SOL    HW217295   1.408   4.098   7.194 -0.8116  1.4948  0.0952
 1888SOL     OW17296   3.005   4.160   7.375  0.2558  1.5045 -0.4532
 1888SOL    HW117297   2.964   4.109   7.305  1.5699 -0.1098 -0.0528
 1888SOL    HW217298   2.999   4.113   7.458  0.3195  0.1685 -1.1973
 1889SOL     OW17299   3.486   4.513   6.204 -0.4248  0.7368 -0.1947
 1889SOL    HW117300   3.532   4.593   6.175 -0.0118  0.4964 -0.2056
 1889SOL    HW217301   3.398   4.537   6.176  0.3784  3.0260 -0.8111
 1890SOL     OW17302   3.670   0.188   1.895  0.1511  0.1634  0.0619
 1890SOL    HW117303   3.653   0.243   1.819 -0.4665 -0.3609 -0.1814
 1890SOL    HW217304   3.745   0.230   1.937  0.1170 -0.1507  0.4426
 1891SOL     OW17305   1.684   3.511   3.063  0.1287  0.2000 -0.3406
 1891SOL    HW117306   1.665   3.435   3.118 -0.5410  0.2538 -0.4919
 1891SOL    HW217307   1.595   3.543   3.081 -0.1118  0.0274 -1.2368
 1892SOL     OW17308   0.977   2.422  16.425  0.4428  0.1465 -0.8477
 1892SOL    HW117309   1.072   2.408  16.431 -0.0228 -1.2545  2.9176
 1892SOL    HW217310   0.977   2.449  16.333 -2.0157  0.9296 -0.6058
 1893SOL     OW17311   2.051   2.872   0.444  0.1646 -0.0447 -0.4191
 1893SOL    HW117312   2.012   2.959   0.439 -1.8432 -0.8686  0.6130
 1893SOL    HW217313   2.002   2.830   0.515  0.4069 -1.4062 -1.0412
 1894SOL     OW17314   4.146   4.527   5.939 -0.3202 -0.2287 -0.0373
 1894SOL    HW117315   4.146   4.603   5.880 -0.1188 -0.1674  0.0418
 1894SOL    HW217316   4.158   4.577   6.019  2.0515 -1.2191  0.2273
 1895SOL     OW17317   3.978   3.115   5.369 -0.1509 -0.3565 -0.2680
 1895SOL    HW117318   4.023   3.185   5.417 -1.1199  0.2273 -0.2065
 1895SOL    HW217319   3.895   3.160   5.352 -0.9403 -1.7165 -0.0448
 1896SOL     OW17320   2.941   1.199   6.101 -0.3509 -0.4723  0.5335
 1896SOL    HW117321   2.933   1.150   6.019 -1.2513  1.8962 -0.7874
 1896SOL    HW217322   2.999   1.140   6.149  2.9163  2.6851  0.4972
 1897SOL     OW17323   4.682   2.597  15.992 -0.8341  0.0270  0.6287
 1897SOL    HW117324   4.698   2.522  15.935  0.6252  0.1910  0.8359
 1897SOL    HW217325   4.697   2.570  16.082 -1.8959 -1.8087  0.2646
 1898SOL     OW17326   3.853   0.942   4.288 -0.1953 -0.0503 -0.1037
 1898SOL    HW117327   3.908   0.884   4.236  1.5488  0.9172  0.6761
 1898SOL    HW217328   3.826   0.881   4.357 -2.4224  1.5331  0.4208
 1899SOL     OW17329   1.266   4.290   7.964 -1.1727 -0.3954  0.2976
 1899SOL    HW117330   1.322   4.221   7.928 -0.4110 -0.2745  1.2398
 1899SOL    HW217331   1.180   4.252   7.947 -1.3015 -0.2827  0.6972
 1900SOL     OW17332   1.437   3.235   5.472 -0.4186 -0.1587  0.5680
 1900SOL    HW117333   1.498   3.296   5.431 -1.5371  0.1532 -0.6318
 1900SOL    HW217334   1.433   3.162   5.409 -2.4249 -0.3570  0.9321
 1901SOL     OW17335   2.293   3.725   2.854  0.1701 -0.5280  0.0626
 1901SOL    HW117336   2.320   3.813   2.880 -1.4752 -0.8387  2.7601
 1901SOL    HW217337   2.379   3.697   2.822  0.0550  0.2384 -0.9139
 1902SOL     OW17338   1.998   0.210   9.888 -0.0293 -0.6064 -0.0695
 1902SOL    HW117339   2.067   0.275   9.897 -1.8304  1.0213  1.7876
 1902SOL    HW217340   1.919   0.263   9.878  1.8433  1.9348 -1.3673
 1903SOL     OW17341   0.311   3.335  10.436  0.5869 -0.0879  0.2853
 1903SOL    HW117342   0.387   3.307  10.488  0.5528 -0.6760  0.0212
 1903SOL    HW217343   0.277   3.254  10.399 -0.6235 -0.2362  1.7075
 1904SOL     OW17344   3.946   0.037   1.367 -0.2445  0.7124  0.4229
 1904SOL    HW117345   3.967   0.083   1.449 -0.2878 -0.7518  1.2511
 1904SOL    HW217346   4.026   0.047   1.316  0.3230  1.1921  1.3919
 1905SOL     OW17347   3.650   0.215   7.544 -0.5163 -0.8632  0.2621
 1905SOL    HW117348   3.692   0.149   7.599 -0.7865  0.8664  2.5367
 1905SOL    HW217349   3.720   0.277   7.524 -1.7464  0.4279 -0.0388
 1906SOL     OW17350   3.822   0.652   8.553 -0.0782 -0.0893  0.3162
 1906SOL    HW117351   3.825   0.656   8.649 -3.6064  0.8812  0.4048
 1906SOL    HW217352   3.744   0.703   8.531  0.9498  0.8936 -0.9882
 1907SOL     OW17353   0.676   3.705   5.638  0.2992  0.0773  0.5376
 1907SOL    HW117354   0.670   3.685   5.544  0.4508 -0.4501  0.6405
 1907SOL    HW217355   0.663   3.619   5.679  2.2241 -1.4292 -1.9553
 1908SOL     OW17356   2.525   2.676   6.351  0.1970 -0.3287  0.3543
 1908SOL    HW117357   2.477   2.648   6.430 -1.0124  1.4892  0.2677
 1908SOL    HW217358   2.464   2.655   6.280 -0.7112  0.2465  0.9668
 1909SOL     OW17359   0.606   2.934   7.161  0.3699 -1.2937  0.0547
 1909SOL    HW117360   0.573   2.858   7.112 -3.7053 -0.4187  1.4101
 1909SOL    HW217361   0.561   3.003   7.113 -2.1370 -0.7636  3.1381
 1910SOL     OW17362   2.360   3.654   8.171  0.0575  0.2800  0.0767
 1910SOL    HW117363   2.379   3.727   8.112 -3.0493 -1.0608 -2.5358
 1910SOL    HW217364   2.274   3.625   8.142  0.8302  0.1197 -2.0619
 1911SOL     OW17365   3.731   3.384   7.350  0.1175  0.0658  0.1947
 1911SOL    HW117366   3.786   3.370   7.427 -2.7612 -0.5423  2.1407
 1911SOL    HW217367   3.781   3.331   7.288 -0.3115  0.2705 -0.3291
 1912SOL     OW17368   3.912   3.311  12.248 -0.1236 -0.2413  0.4084
 1912SOL    HW117369   3.951   3.291  12.163  2.2582  1.3998  1.0961
 1912SOL    HW217370   3.971   3.258  12.301  1.1366 -0.7655 -1.5150
 1913SOL     OW17371   2.168   0.886   7.522 -0.3719 -0.7691  0.2642
 1913SOL    HW117372   2.240   0.922   7.470 -2.0123  0.9162 -0.8729
 1913SOL    HW217373   2.202   0.797   7.526  2.0578  0.1706  0.2506
 1914SOL     OW17374   3.221   4.672   5.747 -0.3809 -0.9156 -0.8830
 1914SOL    HW117375   3.184   0.018   5.722  0.5564 -0.9015 -2.2363
 1914SOL    HW217376   3.187   4.669   5.836 -1.4268 -0.9739 -1.2879
 1915SOL     OW17377   2.771   2.365   5.738  0.5084  0.3206 -0.4680
 1915SOL    HW117378   2.849   2.389   5.788 -0.3419  0.8264  0.6208
 1915SOL    HW217379   2.744   2.453   5.713  1.0805  0.0767 -1.9263
 1916SOL     OW17380   4.079   4.619   7.564 -0.0337 -0.2881  0.2909
 1916SOL    HW117381   4.013   4.608   7.633  0.6830  0.3209  1.0836
 1916SOL    HW217382   4.065   4.558   7.492 -2.0879  0.9507 -0.3472
 1917SOL     OW17383   3.545   0.429   6.604  0.0306  0.3715 -0.3415
 1917SOL    HW117384   3.583   0.342   6.614  0.8663  0.5166 -2.2839
 1917SOL    HW217385   3.502   0.440   6.689  2.8346  2.7479  0.7873
 1918SOL     OW17386   2.404   3.151   8.748  0.0372 -0.6024 -0.4360
 1918SOL    HW117387   2.482   3.150   8.804  1.1077  2.6157 -1.9097
 1918SOL    HW217388   2.366   3.239   8.755  0.6555 -0.2551 -1.4166
 1919SOL     OW17389   4.333   0.098   6.814  0.5193 -0.2334  0.4482
 1919SOL    HW117390   4.255   0.149   6.790  0.6192  0.0230  0.6703
 1919SOL    HW217391   4.396   0.149   6.763  1.0127 -2.1623 -0.8680
 1920SOL     OW17392   1.369   1.431   3.999 -0.0869 -0.6201  0.5361
 1920SOL    HW117393   1.443   1.394   3.951  0.2429  1.4421 -0.5223
 1920SOL    HW217394   1.361   1.370   4.072 -2.3724 -2.5555 -1.3195
 1921SOL     OW17395   1.690   0.495  11.916 -0.1782 -0.2721  0.1026
 1921SOL    HW117396   1.738   0.486  11.834 -0.3357  0.0195 -0.0210
 1921SOL    HW217397   1.670   0.405  11.942 -3.6306  0.7095  0.7432
 1922SOL     OW17398   2.488   4.221   6.201 -0.3892  0.0244  0.2613
 1922SOL    HW117399   2.560   4.207   6.139 -0.5650  0.6778 -0.0931
 1922SOL    HW217400   2.521   4.158   6.265 -0.2340  1.3852  1.5138
 1923SOL     OW17401   3.461   0.959   8.641 -0.3641  0.7776 -0.3466
 1923SOL    HW117402   3.443   1.052   8.626  0.5697  1.0001 -0.0671
 1923SOL    HW217403   3.374   0.941   8.675  2.0631 -1.8809  4.4287
 1924SOL     OW17404   4.272   2.489   8.863 -0.6775 -0.0931  0.4899
 1924SOL    HW117405   4.194   2.447   8.826  0.2019 -1.4856  0.2402
 1924SOL    HW217406   4.270   2.477   8.958 -1.6097  1.8301  0.7164
 1925SOL     OW17407   4.380   1.960   6.836  0.1808  0.0731 -0.0208
 1925SOL    HW117408   4.415   1.873   6.851 -0.3111 -0.0133  0.6052
 1925SOL    HW217409   4.366   1.993   6.925 -2.2796  1.9288 -1.0663
 1926SOL     OW17410   0.545   2.865  10.519 -0.2263 -0.1632 -0.0153
 1926SOL    HW117411   0.459   2.854  10.560  0.2577 -1.2487  0.6835
 1926SOL    HW217412   0.528   2.803  10.448  0.1779 -0.2554 -0.0291
 1927SOL     OW17413   4.190   1.879   4.697 -0.0698 -0.7146  0.7671
 1927SOL    HW117414   4.172   1.957   4.749 -1.5063 -0.7314  0.2933
 1927SOL    HW217415   4.283   1.890   4.678 -0.3468  2.2952  1.1007
 1928SOL     OW17416   2.698   3.854   9.131  0.0397 -0.7726 -0.3345
 1928SOL    HW117417   2.719   3.768   9.168  0.5395 -0.5112 -0.0150
 1928SOL    HW217418   2.615   3.835   9.088 -0.3502  0.2403 -0.0361
 1929SOL     OW17419   2.863   3.966   2.964  0.4408  0.1257 -0.0483
 1929SOL    HW117420   2.770   3.952   2.948  0.2711 -2.3341  3.0430
 1929SOL    HW217421   2.914   4.012   2.898 -0.2098  0.0720 -0.5808
 1930SOL     OW17422   3.097   2.724   3.378  0.0227  0.2433 -0.5140
 1930SOL    HW117423   3.048   2.794   3.335 -1.9300 -0.2673  0.8748
 1930SOL    HW217424   3.153   2.781   3.432  0.7421 -1.9780  1.0791
 1931SOL     OW17425   2.807   3.355   4.216  0.5643  0.1682 -0.1481
 1931SOL    HW117426   2.902   3.358   4.209  0.3758  0.1751 -2.6061
 1931SOL    HW217427   2.791   3.272   4.173  1.5718 -0.4845  0.7236
 1932SOL     OW17428   4.034   4.618   3.839  0.2001  0.1326 -0.5958
 1932SOL    HW117429   4.096   4.690   3.853 -2.0774  2.2126 -1.2444
 1932SOL    HW217430   3.955   4.653   3.798  1.1035  0.8587 -1.6895
 1933SOL     OW17431   2.695   0.101   7.544 -0.1286  0.2132 -0.3392
 1933SOL    HW117432   2.660   0.084   7.632 -0.4111 -0.4881 -0.5938
 1933SOL    HW217433   2.787   0.108   7.570 -0.3370  0.5909  0.3136
 1934SOL     OW17434   2.762   1.501   4.813  0.2963 -0.1230 -0.3822
 1934SOL    HW117435   2.784   1.576   4.759 -0.4683  0.4765  0.1282
 1934SOL    HW217436   2.669   1.522   4.820  0.1571 -0.6546 -0.5883
 1935SOL     OW17437   0.907   4.687   3.379  0.1530  0.0338 -0.0040
 1935SOL    HW117438   0.993   4.649   3.359  1.2338  2.5160 -0.0379
 1935SOL    HW217439   0.848   4.629   3.330 -0.9794  1.3733 -0.2118
 1936SOL     OW17440   2.526   4.595   8.960 -0.0334 -0.4144  0.1309
 1936SOL    HW117441   2.553   4.628   8.875  0.9303 -1.7976 -0.0973
 1936SOL    HW217442   2.434   4.622   8.959  0.4469  1.1754 -0.7768
 1937SOL     OW17443   1.135   0.937  15.462  0.1335 -0.3390 -0.5999
 1937SOL    HW117444   1.068   1.004  15.474  1.5085  0.9295 -0.0824
 1937SOL    HW217445   1.081   0.863  15.434 -0.5260 -0.1746  0.2283
 1938SOL     OW17446   0.251   2.918   3.757 -0.2589 -0.3143 -0.6997
 1938SOL    HW117447   0.285   2.839   3.714  2.2240  0.4308 -0.1120
 1938SOL    HW217448   0.171   2.877   3.790 -0.5691  1.1639  0.3806
 1939SOL     OW17449   2.594   3.364   8.880 -0.8481 -0.0221 -0.6547
 1939SOL    HW117450   2.544   3.381   8.959 -1.3896  0.9264 -1.1904
 1939SOL    HW217451   2.581   3.438   8.820  0.1376  1.5042  1.0264
 1940SOL     OW17452   0.128   1.717   6.039 -0.0975 -0.2629  0.0324
 1940SOL    HW117453   0.088   1.801   6.014 -0.0391  0.3833  2.1313
 1940SOL    HW217454   0.070   1.677   6.103  0.0036 -2.2433 -1.1194
 1941SOL     OW17455   1.456   0.627   4.673  0.6523  0.2006  0.6433
 1941SOL    HW117456   1.457   0.722   4.664 -0.3930  0.1725  0.1300
 1941SOL    HW217457   1.534   0.596   4.627 -0.1452  0.9225 -1.1985
 1942SOL     OW17458   0.485   4.707  11.675 -0.2808  0.4841  0.3409
 1942SOL    HW117459   0.396   4.722  11.709 -0.8481  0.5132 -1.1802
 1942SOL    HW217460   0.519   4.660  11.751  3.6391 -1.7271 -2.7962
 1943SOL     OW17461   1.381   4.606   4.663  0.4844  0.5423  0.2206
 1943SOL    HW117462   1.382   4.567   4.750 -1.9839 -1.1340 -0.4925
 1943SOL    HW217463   1.323   4.678   4.687 -0.7542 -0.8818  1.5245
 1944SOL     OW17464   2.601   4.499  11.621  0.0361  0.5547 -0.3508
 1944SOL    HW117465   2.670   4.562  11.644  2.1864 -1.6209 -0.7661
 1944SOL    HW217466   2.585   4.517  11.528  2.7913 -0.6576 -1.0644
 1945SOL     OW17467   2.029   3.864   8.316  0.0171  0.2160  0.1672
 1945SOL    HW117468   1.958   3.866   8.381 -0.6267 -3.4229 -0.4372
 1945SOL    HW217469   1.974   3.829   8.245  0.8303  0.2369 -0.4721
 1946SOL     OW17470   1.707   2.422   2.434  0.1325  0.2209  0.0338
 1946SOL    HW117471   1.662   2.441   2.352 -0.2075  1.3744  0.4879
 1946SOL    HW217472   1.693   2.328   2.442  0.7905  0.1112 -0.0886
 1947SOL     OW17473   3.884   2.335   1.694 -0.0713  0.0680 -0.5940
 1947SOL    HW117474   3.810   2.351   1.636 -0.1467  0.1873 -0.4617
 1947SOL    HW217475   3.934   2.263   1.653 -0.7861  1.0114 -3.1429
 1948SOL     OW17476   2.348   2.120   1.387 -0.0268 -0.3591  0.9144
 1948SOL    HW117477   2.335   2.035   1.428 -2.7207 -0.3687 -0.0053
 1948SOL    HW217478   2.444   2.117   1.386 -0.0355 -0.1936 -0.4949
 1949SOL     OW17479   2.371   3.294  15.784  0.2866 -0.0136  0.3270
 1949SOL    HW117480   2.455   3.269  15.825 -0.0199 -1.2249  0.2187
 1949SOL    HW217481   2.369   3.387  15.806 -0.3553 -0.0377  0.3569
 1950SOL     OW17482   1.608   1.822   6.028 -0.6213  0.1023 -0.1552
 1950SOL    HW117483   1.541   1.883   6.058 -0.3600 -0.1966  1.0686
 1950SOL    HW217484   1.638   1.860   5.946  0.4972 -0.7326 -0.1402
 1951SOL     OW17485   3.481   4.125   6.481 -0.1057 -0.1144  0.4290
 1951SOL    HW117486   3.516   4.203   6.437 -1.3515 -0.5271 -1.2606
 1951SOL    HW217487   3.547   4.126   6.551 -0.9958  1.7425  1.2476
 1952SOL     OW17488   4.516   1.079   2.311 -0.1151 -0.1039 -0.0048
 1952SOL    HW117489   4.570   1.147   2.272  0.8255 -0.0367  1.4094
 1952SOL    HW217490   4.559   0.996   2.289 -1.7890 -1.0774  0.4207
 1953SOL     OW17491   3.961   4.628   5.583  0.1826  0.0251  0.0224
 1953SOL    HW117492   3.892   4.689   5.558  0.6942  0.8322  0.5621
 1953SOL    HW217493   4.038   4.665   5.540 -0.7884  1.0596 -0.8240
 1954SOL     OW17494   0.650   4.289   7.713 -0.3562 -0.0029 -0.2785
 1954SOL    HW117495   0.556   4.284   7.700 -0.4287 -2.1051  1.0460
 1954SOL    HW217496   0.681   4.345   7.642  2.3312  1.0958  1.7561
 1955SOL     OW17497   3.682   3.166   3.900 -0.2341  0.1472  0.1972
 1955SOL    HW117498   3.643   3.248   3.871 -1.6772 -0.4367  0.4660
 1955SOL    HW217499   3.773   3.188   3.879 -0.6288  1.9483  0.4650
 1956SOL     OW17500   1.940   3.567   7.445  0.1751 -0.0461 -0.3025
 1956SOL    HW117501   2.018   3.514   7.458  2.9520  3.4690 -2.7577
 1956SOL    HW217502   1.962   3.626   7.372  0.3339  1.3388  0.8483
 1957SOL     OW17503   0.625   3.245   2.889  0.1881  0.6347 -0.3015
 1957SOL    HW117504   0.616   3.153   2.913  1.4005  0.9976  1.5478
 1957SOL    HW217505   0.596   3.231   2.799  0.8817  1.6810 -0.6815
 1958SOL     OW17506   1.299   1.200   9.130 -0.4245 -1.1007  0.2124
 1958SOL    HW117507   1.324   1.211   9.222 -0.7628  0.2734  0.1454
 1958SOL    HW217508   1.383   1.177   9.089  0.8745  0.2170  2.1319
 1959SOL     OW17509   3.767   0.034  15.760  0.2496 -0.0478  0.2048
 1959SOL    HW117510   3.733   0.017  15.672 -1.6153  1.4401  0.6279
 1959SOL    HW217511   3.722   0.117  15.774  0.2668 -0.0724  0.4082
 1960SOL     OW17512   4.231   3.191  12.033 -0.0027 -0.2833 -0.0764
 1960SOL    HW117513   4.264   3.205  11.944  0.6286 -0.7591  0.0787
 1960SOL    HW217514   4.152   3.244  12.022  1.7545  2.8083  1.9472
 1961SOL     OW17515   1.759   3.903   6.092  0.1044 -0.6083  0.4728
 1961SOL    HW117516   1.770   3.910   5.997  0.0647 -0.2344  0.4943
 1961SOL    HW217517   1.847   3.917   6.127  0.3192  1.8361 -1.0625
 1962SOL     OW17518   1.546   1.487   5.838  0.3421 -0.0729  0.1280
 1962SOL    HW117519   1.491   1.474   5.760  0.5999 -0.3867 -0.0006
 1962SOL    HW217520   1.632   1.509   5.804  0.0519  1.0701  0.1217
 1963SOL     OW17521   4.291   2.929  12.993  0.2412 -0.2689 -0.6723
 1963SOL    HW117522   4.233   2.919  13.069 -0.0272  1.5739 -0.6451
 1963SOL    HW217523   4.289   3.025  12.992  0.2472 -0.2382  1.2095
 1964SOL     OW17524   0.765   0.567   2.492 -0.1665  0.0525 -0.5543
 1964SOL    HW117525   0.739   0.482   2.455 -0.4875  1.5785 -3.7909
 1964SOL    HW217526   0.847   0.542   2.536  0.0100 -1.0533 -1.5118
 1965SOL     OW17527   2.506   2.751   7.666 -0.2631 -0.6000 -0.4548
 1965SOL    HW117528   2.444   2.679   7.679 -0.2267 -0.9725 -2.3439
 1965SOL    HW217529   2.486   2.797   7.584 -0.2870  0.2122  0.0071
 1966SOL     OW17530   0.606   1.853   4.729  0.0822 -0.1091 -0.0494
 1966SOL    HW117531   0.577   1.905   4.654 -0.0619 -1.3506 -0.8666
 1966SOL    HW217532   0.697   1.831   4.707  0.6801  0.5212  1.8064
 1967SOL     OW17533   1.459   3.750   5.795 -0.1180 -0.4133  0.3578
 1967SOL    HW117534   1.411   3.792   5.866  1.7562  1.1449  0.7016
 1967SOL    HW217535   1.547   3.787   5.800 -0.3425 -0.0269  1.5143
 1968SOL     OW17536   4.089   2.825   3.813 -0.1591 -1.1255 -0.0326
 1968SOL    HW117537   4.061   2.912   3.783 -0.6728 -0.7946  1.3994
 1968SOL    HW217538   4.006   2.786   3.839  0.9492 -3.5126 -0.0511
 1969SOL     OW17539   0.424   3.386  10.163 -0.1379  0.5932 -0.0213
 1969SOL    HW117540   0.424   3.358  10.255 -1.7764 -1.5075 -0.6535
 1969SOL    HW217541   0.444   3.479  10.177 -0.3520  0.7451 -0.6936
 1970SOL     OW17542   2.015   0.609   7.519  0.4020  0.3838  0.0334
 1970SOL    HW117543   1.990   0.653   7.601  0.0745  0.4040 -0.0774
 1970SOL    HW217544   1.937   0.557   7.503  0.8253  0.1144 -1.1023
 1971SOL     OW17545   4.569   3.253   7.407 -0.5075  0.6259 -0.1769
 1971SOL    HW117546   4.576   3.333   7.356  0.9623  0.3909 -0.3532
 1971SOL    HW217547   4.528   3.287   7.487  1.3016  1.7690  0.2586
 1972SOL     OW17548   3.163   4.156   8.572  0.3111  0.3507 -0.2097
 1972SOL    HW117549   3.135   4.201   8.493  0.1877 -1.5220 -1.2432
 1972SOL    HW217550   3.252   4.190   8.581  0.7443 -0.9571  0.5196
 1973SOL     OW17551   1.836   0.927  10.545  0.3607 -0.6945  0.0795
 1973SOL    HW117552   1.812   0.838  10.519  0.7640 -0.9585  0.5917
 1973SOL    HW217553   1.919   0.928  10.499 -0.5638  0.5425 -1.5315
 1974SOL     OW17554   3.837   4.135   3.660  0.2156 -0.2536  0.2810
 1974SOL    HW117555   3.866   4.158   3.748 -1.0343  2.3337  0.0053
 1974SOL    HW217556   3.894   4.194   3.611  1.8802 -1.4263  0.7975
 1975SOL     OW17557   0.041   0.723   7.571  0.3733  0.0291  0.0077
 1975SOL    HW117558   0.076   0.729   7.660 -0.2490  1.6120  0.1437
 1975SOL    HW217559   4.699   0.774   7.574  0.1005 -0.4191  0.2681
 1976SOL     OW17560   4.554   2.810   2.859 -0.1032 -0.3926  0.0465
 1976SOL    HW117561   4.616   2.807   2.932  1.6534 -1.7295 -1.4979
 1976SOL    HW217562   4.609   2.848   2.790 -1.0301  1.8562  0.5332
 1977SOL     OW17563   0.765   3.764   5.312  0.1629  0.6452  0.0788
 1977SOL    HW117564   0.776   3.676   5.347  1.2028  0.2824 -1.1901
 1977SOL    HW217565   0.707   3.753   5.237  0.0983  1.5410 -0.0080
 1978SOL     OW17566   2.134   2.201  13.619  0.2596  0.1537 -0.3258
 1978SOL    HW117567   2.114   2.122  13.669 -0.8568 -0.7575 -2.1837
 1978SOL    HW217568   2.044   2.235  13.618  0.2532  0.1379 -0.2823
 1979SOL     OW17569   0.018   1.926   1.266 -0.2085  0.0087  0.1857
 1979SOL    HW117570   0.080   1.854   1.258  0.4564  0.2520  3.4954
 1979SOL    HW217571   0.025   1.964   1.178 -2.2176 -0.5573 -0.2303
 1980SOL     OW17572   4.494   0.815   2.842  0.3800  0.2428  0.0189
 1980SOL    HW117573   4.541   0.846   2.920  1.0889 -1.1147  0.1285
 1980SOL    HW217574   4.535   0.851   2.763 -1.1527 -1.7153 -1.6587
 1981SOL     OW17575   1.080   0.608   2.321 -0.2974 -1.0981 -0.7254
 1981SOL    HW117576   1.086   0.526   2.369 -1.6617 -1.9843 -2.0661
 1981SOL    HW217577   1.054   0.669   2.390  0.0225 -0.1607 -1.4369
 1982SOL     OW17578   4.731   4.265   9.636  0.6774 -0.0671 -0.0672
 1982SOL    HW117579   0.025   4.330   9.575 -0.9928  1.1055  0.2831
 1982SOL    HW217580   0.052   4.281   9.709 -0.5240  2.4269  0.3684
 1983SOL     OW17581   2.358   0.336   3.100  0.0977  0.0639  0.1469
 1983SOL    HW117582   2.388   0.245   3.106  0.4812  0.0648 -1.9090
 1983SOL    HW217583   2.268   0.334   3.133 -0.0199 -2.6902 -0.3061
 1984SOL     OW17584   3.906   1.990  13.583 -0.0461 -0.0102 -0.2911
 1984SOL    HW117585   3.907   2.021  13.492  0.1420 -1.0026 -0.6252
 1984SOL    HW217586   3.970   1.919  13.581  1.0201  1.0233 -2.3782
 1985SOL     OW17587   1.584   2.154  12.254 -0.4080  1.1993  0.2507
 1985SOL    HW117588   1.563   2.167  12.161  0.2660  0.6655  0.0263
 1985SOL    HW217589   1.577   2.238  12.299  0.3062  1.0732  0.5945
 1986SOL     OW17590   3.524   3.708   8.212  0.2217  0.0806 -0.3561
 1986SOL    HW117591   3.541   3.694   8.119  2.0832  1.5169 -0.2415
 1986SOL    HW217592   3.543   3.618   8.239 -3.9517 -1.0519 -1.1763
 1987SOL     OW17593   1.479   2.724   7.468 -0.0550  0.1796 -0.0781
 1987SOL    HW117594   1.569   2.754   7.479  0.2034 -0.6833  0.2043
 1987SOL    HW217595   1.434   2.808   7.468 -0.5094 -0.0563  2.2847
 1988SOL     OW17596   3.983   3.100   8.030  0.1965 -0.0973  1.3274
 1988SOL    HW117597   4.066   3.144   8.048  0.6677  0.4823 -2.1778
 1988SOL    HW217598   3.967   3.053   8.112  0.0818 -0.4397  1.1113
 1989SOL     OW17599   1.018   3.892   1.247  0.6517 -0.6506 -0.4406
 1989SOL    HW117600   0.977   3.978   1.256  1.9126  0.0088 -1.0483
 1989SOL    HW217601   0.970   3.841   1.313 -1.7342  1.5728 -0.4529
 1990SOL     OW17602   4.479   0.741  13.379  0.3670 -0.0676 -0.5280
 1990SOL    HW117603   4.450   0.760  13.290  2.5559  0.0968 -1.2161
 1990SOL    HW217604   4.399   0.697  13.407 -0.7179  0.8797 -2.1516
 1991SOL     OW17605   3.340   3.991  12.788  0.6486  0.3998  0.5533
 1991SOL    HW117606   3.319   3.934  12.713 -0.3003  1.0591  0.3257
 1991SOL    HW217607   3.342   4.078  12.748  0.7687 -0.2638 -0.8965
 1992SOL     OW17608   0.971   1.691   6.184 -0.2124  0.2718 -0.4669
 1992SOL    HW117609   1.054   1.699   6.137 -0.6903 -1.7440 -1.6266
 1992SOL    HW217610   0.916   1.635   6.130  0.3596 -0.8431  0.1078
 1993SOL     OW17611   0.386   4.564  12.207  0.6249  0.5941  0.3106
 1993SOL    HW117612   0.298   4.553  12.243  0.3812  0.5265 -0.3199
 1993SOL    HW217613   0.427   4.625  12.269 -0.2824  0.4910  1.0180
 1994SOL     OW17614   2.007   0.189   0.157  0.4594  0.1899 -0.1661
 1994SOL    HW117615   1.932   0.205   0.215  0.0470 -0.1288 -0.6143
 1994SOL    HW217616   2.021   0.097   0.179 -0.9785 -0.6173 -2.5936
 1995SOL     OW17617   1.153   3.493   8.131  0.3813 -0.3284 -0.0213
 1995SOL    HW117618   1.089   3.430   8.163 -0.8017  1.0559  0.3540
 1995SOL    HW217619   1.185   3.518   8.218 -0.5635 -1.8936  0.7754
 1996SOL     OW17620   0.958   1.969   6.046  0.0347 -0.2727 -1.3159
 1996SOL    HW117621   0.927   1.934   6.130  1.0271  1.5851 -0.1603
 1996SOL    HW217622   0.894   1.927   5.989 -2.2180  0.0580  0.9381
 1997SOL     OW17623   2.975   4.579   6.376  0.1320  0.6581  0.0462
 1997SOL    HW117624   2.916   4.551   6.446  0.7706 -1.0729 -0.1236
 1997SOL    HW217625   3.055   4.601   6.424  0.4761  0.9367 -0.6506
 1998SOL     OW17626   2.089   3.476   5.325  0.6585 -0.1423  0.3685
 1998SOL    HW117627   2.159   3.527   5.283  2.3592 -1.2221  1.8723
 1998SOL    HW217628   2.091   3.517   5.411 -0.2197 -0.3755  0.4996
 1999SOL     OW17629   0.516   2.542  13.675  0.4243  0.8110 -0.1383
 1999SOL    HW117630   0.521   2.554  13.770  1.3720  1.1058 -0.2275
 1999SOL    HW217631   0.431   2.585  13.668 -1.4766 -3.1922 -1.5038
 2000SOL     OW17632   1.923   2.241  14.312  0.4695 -0.0303 -0.0576
 2000SOL    HW117633   1.887   2.192  14.386  0.0828 -1.8623 -1.4568
 2000SOL    HW217634   1.991   2.293  14.354 -0.2180 -0.8424  2.0454
 2001SOL     OW17635   3.370   0.398  14.934 -0.2939  0.4527  0.1600
 2001SOL    HW117636   3.361   0.457  14.860 -1.0891 -1.6892 -1.4783
 2001SOL    HW217637   3.322   0.322  14.900 -0.6731  0.8466 -0.1912
 2002SOL     OW17638   3.786   4.683   2.049  0.0856 -0.0992 -0.0201
 2002SOL    HW117639   3.881   4.687   2.034  0.2239  3.5757  1.8757
 2002SOL    HW217640   3.745   4.726   1.973  0.1185  1.5579  0.8977
 2003SOL     OW17641   3.954   4.413   6.565  0.2400 -0.8328 -0.0505
 2003SOL    HW117642   4.003   4.339   6.602  2.9923  2.4244  2.8575
 2003SOL    HW217643   4.032   4.458   6.532 -0.6324  1.3278  0.8045
 2004SOL     OW17644   0.767   1.530   0.435 -0.8159  0.0867  0.4329
 2004SOL    HW117645   0.861   1.510   0.433 -0.8992 -0.1696 -1.1999
 2004SOL    HW217646   0.741   1.478   0.359 -1.3420  3.2343 -1.5382
 2005SOL     OW17647   4.566   2.905  12.769 -0.3030  0.2428 -0.2062
 2005SOL    HW117648   4.532   2.994  12.774  0.7371  0.6526 -0.3164
 2005SOL    HW217649   4.490   2.850  12.751 -1.3894  1.4683  0.6608
 2006SOL     OW17650   4.387   3.274   4.168  0.1147  0.4878 -0.4795
 2006SOL    HW117651   4.400   3.244   4.078  0.8569  1.0833 -0.5751
 2006SOL    HW217652   4.316   3.337   4.157  0.6373  0.7187 -2.6825
 2007SOL     OW17653   2.117   4.732   4.250  0.3495 -0.5096  0.0205
 2007SOL    HW117654   2.061   4.699   4.320  0.8701 -0.0381  0.6632
 2007SOL    HW217655   2.079   0.080   4.239 -0.9782 -0.8025  2.3790
 2008SOL     OW17656   4.541   0.286   4.295  0.2524 -0.2513 -0.7523
 2008SOL    HW117657   4.461   0.232   4.298  0.4036 -0.5207 -1.6170
 2008SOL    HW217658   4.511   0.359   4.348 -0.6765 -1.5137  0.4859
 2009SOL     OW17659   2.790   1.850   5.896  0.4869  0.3515 -0.5307
 2009SOL    HW117660   2.863   1.809   5.943 -0.5103 -1.5086 -0.5889
 2009SOL    HW217661   2.837   1.921   5.852  0.7759 -0.4086 -1.4436
 2010SOL     OW17662   1.394   3.050   3.870 -0.0783 -0.0424 -0.2313
 2010SOL    HW117663   1.301   3.038   3.849 -0.6848  2.0395  1.2652
 2010SOL    HW217664   1.416   3.097   3.789 -1.0175 -0.8783 -0.9900
 2011SOL     OW17665   3.520   4.466   8.771  0.4279  0.0991  0.5013
 2011SOL    HW117666   3.443   4.494   8.819  0.0300 -0.0237 -0.0677
 2011SOL    HW217667   3.589   4.475   8.837 -0.9907 -1.0654  2.1268
 2012SOL     OW17668   1.622   0.893   3.336  0.2382  0.8492  0.1166
 2012SOL    HW117669   1.588   0.853   3.416 -0.1866 -2.2230 -1.5948
 2012SOL    HW217670   1.552   0.956   3.316  1.4198  1.7661 -1.1266
 2013SOL     OW17671   3.634   3.408   3.249  0.0414 -0.0075  0.3103
 2013SOL    HW117672   3.615   3.500   3.230 -3.4115 -0.4839  1.4120
 2013SOL    HW217673   3.730   3.403   3.248 -0.0226 -1.2032  0.1134
 2014SOL     OW17674   3.395   1.211  14.160  0.6473 -0.7414  0.1280
 2014SOL    HW117675   3.381   1.274  14.231  1.7277 -0.0330 -0.2799
 2014SOL    HW217676   3.336   1.242  14.091 -1.0930 -0.6890  1.6330
 2015SOL     OW17677   3.216   4.513  16.882 -0.4810 -0.3277 -0.5626
 2015SOL    HW117678   3.219   4.600  16.843 -1.0421 -0.4797 -0.9498
 2015SOL    HW217679   3.136   4.515  16.935 -0.8750 -2.0092 -1.0765
 2016SOL     OW17680   0.012   4.717  12.296 -1.1226  0.1459  0.2266
 2016SOL    HW117681   4.677   4.657  12.291  0.9836 -2.0711 -3.7122
 2016SOL    HW217682   0.008   4.738  12.390  0.8761  0.1166  0.3198
 2017SOL     OW17683   0.682   1.990   0.267 -0.0862  0.3855 -0.0766
 2017SOL    HW117684   0.682   1.918   0.204  0.9573  2.4572 -2.4072
 2017SOL    HW217685   0.653   2.055   0.204 -2.6928 -0.9287 -0.2143
 2018SOL     OW17686   1.969   0.004  11.601 -0.0788 -0.2322 -0.2548
 2018SOL    HW117687   1.888   4.717  11.647  0.1162  0.6213  0.5915
 2018SOL    HW217688   1.942   0.083  11.555  1.5358  0.5078  0.0892
 2019SOL     OW17689   4.337   2.947   4.235  0.3713  0.5081 -0.3739
 2019SOL    HW117690   4.288   2.865   4.237  0.3278  0.5069 -1.4885
 2019SOL    HW217691   4.274   3.019   4.238 -1.6463 -1.2480 -0.3377
 2020SOL     OW17692   0.736   1.754   0.110 -0.1520  0.1326  0.1562
 2020SOL    HW117693   0.722   1.661   0.128  1.0900 -0.2089 -0.7238
 2020SOL    HW217694   0.742   1.741   0.016 -3.2189  2.0501 -0.3081
 2021SOL     OW17695   0.703   2.708   6.133  0.4104  0.0513 -0.6401
 2021SOL    HW117696   0.785   2.735   6.174  0.1894  0.0745 -0.2163
 2021SOL    HW217697   0.688   2.780   6.072  2.6138  0.9425 -0.1440
 2022SOL     OW17698   0.244   1.055  14.007  0.1603 -0.6953  0.1631
 2022SOL    HW117699   0.249   1.056  14.102 -0.7314 -0.1029  0.2003
 2022SOL    HW217700   0.265   1.144  13.980  0.3430 -1.0735 -0.9676
 2023SOL     OW17701   2.824   0.751   2.464  0.0373  0.1472 -0.3394
 2023SOL    HW117702   2.905   0.717   2.503 -0.4255  0.0443  0.5346
 2023SOL    HW217703   2.774   0.779   2.540  1.6698 -3.6027  2.1480
 2024SOL     OW17704   1.816   3.900   7.079  0.2648  0.5712 -0.3707
 2024SOL    HW117705   1.902   3.937   7.100  0.0730 -0.6320  2.5361
 2024SOL    HW217706   1.821   3.861   6.991 -1.1133 -3.7756  1.4779
 2025SOL     OW17707   0.426   2.490  14.898  0.6024  0.5859  0.1758
 2025SOL    HW117708   0.477   2.449  14.828  1.8416 -1.5747  2.3686
 2025SOL    HW217709   0.335   2.486  14.868  0.5440 -1.7268  0.7019
 2026SOL     OW17710   2.978   1.775  15.251 -0.3526 -0.2695 -0.4824
 2026SOL    HW117711   3.052   1.726  15.216 -0.5785 -0.7092 -0.3531
 2026SOL    HW217712   2.925   1.699  15.278  0.5792 -0.4107  0.9551
 2027SOL     OW17713   0.898   1.364  15.947 -0.0372  0.1579 -0.3207
 2027SOL    HW117714   0.884   1.456  15.923 -1.1609  0.5361  1.7385
 2027SOL    HW217715   0.976   1.346  15.894  0.4476  1.4965 -0.0682
 2028SOL     OW17716   3.470   2.287   9.558  0.1692 -0.5893  0.3168
 2028SOL    HW117717   3.532   2.351   9.593 -1.4096  2.0400 -1.7332
 2028SOL    HW217718   3.425   2.268   9.641 -0.3758  1.7719  0.5519
 2029SOL     OW17719   2.359   3.475   9.638 -0.3235  0.1116 -0.6342
 2029SOL    HW117720   2.284   3.426   9.602 -0.5717  0.9238 -1.2206
 2029SOL    HW217721   2.336   3.487   9.730 -0.4412 -2.7569 -0.2949
 2030SOL     OW17722   4.400   4.482   8.464 -0.4357  0.1418  0.3273
 2030SOL    HW117723   4.488   4.509   8.491  0.2932 -1.0417 -0.8733
 2030SOL    HW217724   4.347   4.551   8.504 -0.3966  0.1458  0.3728
 2031SOL     OW17725   2.430   4.499   6.283 -0.0548  0.3142  0.4021
 2031SOL    HW117726   2.461   4.419   6.240 -0.1816  0.6304 -0.2842
 2031SOL    HW217727   2.499   4.560   6.257  0.4217 -0.1947  0.4831
 2032SOL     OW17728   2.878   2.512   8.886 -0.3390  0.0108 -0.0247
 2032SOL    HW117729   2.911   2.427   8.857  1.5134  1.1667 -1.2977
 2032SOL    HW217730   2.948   2.538   8.946  0.7161 -0.7808 -0.9222
 2033SOL     OW17731   2.139   3.354  10.393  0.6943 -0.2737 -0.2915
 2033SOL    HW117732   2.113   3.263  10.383  1.7065 -0.6416  0.3775
 2033SOL    HW217733   2.059   3.391  10.429 -1.0697 -1.2847 -3.1689
 2034SOL     OW17734   2.284   4.342   5.557  0.1272  0.3419  0.5211
 2034SOL    HW117735   2.301   4.256   5.518 -0.4863  0.3768  0.1651
 2034SOL    HW217736   2.269   4.405   5.486  1.5000  0.1873  0.0898
 2035SOL     OW17737   0.018   0.706  11.736 -0.1784 -0.1647  0.3324
 2035SOL    HW117738   0.099   0.717  11.686 -0.2737  0.7647  0.3825
 2035SOL    HW217739   4.728   0.615  11.728  1.1957 -0.4756 -1.0330
 2036SOL     OW17740   2.930   0.117   6.602 -0.4886  0.1047 -0.2803
 2036SOL    HW117741   2.975   0.201   6.596  0.4462 -0.4733 -1.3867
 2036SOL    HW217742   2.968   0.078   6.681 -0.8342 -1.5158 -0.9119
 2037SOL     OW17743   4.033   0.505   5.424  0.9024 -0.3816  0.1020
 2037SOL    HW117744   3.979   0.456   5.486  3.0692  0.8855  3.0148
 2037SOL    HW217745   4.024   0.593   5.462  0.9742 -1.9913  3.8985
 2038SOL     OW17746   2.588   3.456   7.783  0.8041  0.5457  0.2392
 2038SOL    HW117747   2.622   3.376   7.823  2.3294  0.4825 -1.1520
 2038SOL    HW217748   2.501   3.465   7.821 -0.4248 -1.7946 -1.9926
 2039SOL     OW17749   3.000   1.251   6.480 -0.0956 -0.6537  0.2258
 2039SOL    HW117750   3.030   1.180   6.423  3.4545  1.2524 -0.2623
 2039SOL    HW217751   2.976   1.195   6.554  0.7700 -1.1536  0.1264
 2040SOL     OW17752   3.449   4.403   5.758  0.0284 -0.0244  0.0594
 2040SOL    HW117753   3.510   4.475   5.743 -0.5713  0.3398 -0.6137
 2040SOL    HW217754   3.464   4.380   5.850 -2.0147 -1.2264  0.0889
 2041SOL     OW17755   2.721   2.788   3.931  0.0317  0.2500  0.2164
 2041SOL    HW117756   2.676   2.717   3.886  0.7793 -1.1257  1.6254
 2041SOL    HW217757   2.650   2.813   3.990 -0.4205 -0.8083  0.1312
 2042SOL     OW17758   3.695   0.022   2.674  0.0561  0.3784 -0.0388
 2042SOL    HW117759   3.616   4.709   2.665  0.7766 -0.4080 -1.8100
 2042SOL    HW217760   3.755   4.696   2.712 -0.3484 -1.8396 -3.2233
 2043SOL     OW17761   0.012   4.467   5.073 -0.2942  0.1008  0.3646
 2043SOL    HW117762   4.662   4.462   5.039 -0.2346  1.5536  0.0069
 2043SOL    HW217763   0.017   4.419   5.156  0.3810  0.8506  0.7530
 2044SOL     OW17764   4.725   4.354   5.778 -0.1600 -0.1003 -0.1457
 2044SOL    HW117765   4.692   4.279   5.828 -0.3820  0.4170  0.4826
 2044SOL    HW217766   4.711   4.319   5.690 -4.1680  1.7115 -0.2710
 2045SOL     OW17767   3.106   3.112   8.172 -0.6792 -1.0931  1.0748
 2045SOL    HW117768   3.124   3.104   8.266 -1.4318 -1.0359  1.2250
 2045SOL    HW217769   3.184   3.068   8.137 -1.3726 -1.4964  0.0482
 2046SOL     OW17770   2.977   1.827   9.557 -0.0829  0.1932  0.2787
 2046SOL    HW117771   2.978   1.869   9.643 -1.0147 -1.9775  1.3531
 2046SOL    HW217772   3.060   1.853   9.516 -0.7412  1.3350 -0.3029
 2047SOL     OW17773   3.251   4.410   0.046  0.3011  0.8566  1.0226
 2047SOL    HW117774   3.326   4.447   0.092  0.8165  0.4387  0.5082
 2047SOL    HW217775   3.211   4.374   0.126  1.9217 -2.0553  0.5309
 2048SOL     OW17776   2.704   2.239   9.739  0.7614  0.1632  0.7041
 2048SOL    HW117777   2.616   2.229   9.705  0.9563  1.9700 -0.3446
 2048SOL    HW217778   2.758   2.180   9.686  1.1033 -0.2162  1.4754
 2049SOL     OW17779   4.093   0.374   3.243 -0.0643  0.8905  0.0880
 2049SOL    HW117780   4.055   0.286   3.239 -0.9227  1.1110  3.3908
 2049SOL    HW217781   4.187   0.354   3.241 -0.0137  0.9436  1.5974
 2050SOL     OW17782   1.308   0.028   7.781  0.3640 -0.0940  0.3927
 2050SOL    HW117783   1.320   4.694   7.842  4.2916  0.2145 -0.0208
 2050SOL    HW217784   1.286   4.724   7.698  1.6356 -0.0917  0.0595
 2051SOL     OW17785   0.811   0.730   1.538  0.2939 -0.5599 -0.5880
 2051SOL    HW117786   0.788   0.693   1.623 -2.3726 -1.0517 -1.5216
 2051SOL    HW217787   0.906   0.735   1.549  0.1601 -1.9587  1.2408
 2052SOL     OW17788   2.026   0.035   3.734 -0.2375  0.0523 -0.6061
 2052SOL    HW117789   2.114   0.056   3.702  0.3503 -1.3140  0.0844
 2052SOL    HW217790   2.047   4.713   3.805  0.5964 -0.3402 -1.1867
 2053SOL     OW17791   4.468   1.982   5.485  0.1557  0.4055  0.2623
 2053SOL    HW117792   4.377   1.960   5.508 -0.3883  0.8937 -1.3897
 2053SOL    HW217793   4.477   2.041   5.560 -2.5169  1.7269 -0.4327
 2054SOL     OW17794   3.735   1.820   5.409 -0.1007  0.0818 -0.0181
 2054SOL    HW117795   3.784   1.768   5.344  1.5988 -1.1845  2.2538
 2054SOL    HW217796   3.792   1.800   5.483  0.1717 -1.3154 -0.5905
 2055SOL     OW17797   4.617   4.624   8.481 -0.6352  0.0981  0.0263
 2055SOL    HW117798   4.614   4.718   8.466 -2.7916  0.6311  3.9447
 2055SOL    HW217799   4.707   4.608   8.452 -0.3836  3.6121 -1.0850
 2056SOL     OW17800   3.787   3.813   7.378 -0.1154  0.4100  0.1272
 2056SOL    HW117801   3.822   3.846   7.460 -2.2440 -0.2097  1.3069
 2056SOL    HW217802   3.705   3.770   7.403 -0.3381  1.3416  0.9637
 2057SOL     OW17803   4.480   3.586   1.579  0.2143 -0.3242  0.2977
 2057SOL    HW117804   4.462   3.674   1.545  0.5449 -0.0731  0.7717
 2057SOL    HW217805   4.530   3.548   1.507  0.1674 -1.3372  0.8014
 2058SOL     OW17806   3.323   3.230   9.684  0.3008 -0.2465 -0.1447
 2058SOL    HW117807   3.407   3.250   9.726 -0.0908 -0.3658  0.7083
 2058SOL    HW217808   3.337   3.136   9.682 -0.1380 -0.3576  1.8481
 2059SOL     OW17809   2.160   4.474   6.295 -0.7078 -0.4488 -0.3110
 2059SOL    HW117810   2.138   4.401   6.353  2.8756 -2.2107 -1.1827
 2059SOL    HW217811   2.255   4.478   6.308 -0.8119  1.0940 -0.0343
 2060SOL     OW17812   1.829   0.852  14.836  0.1803  0.8568  0.1554
 2060SOL    HW117813   1.852   0.764  14.865 -1.6601  0.5871  0.7728
 2060SOL    HW217814   1.907   0.873  14.784  0.5222 -0.3425  0.1884
 2061SOL     OW17815   0.345   3.491  10.715 -0.3875 -0.1680  0.4663
 2061SOL    HW117816   0.398   3.413  10.699 -0.6690 -0.1407 -0.6171
 2061SOL    HW217817   0.326   3.503  10.808 -1.0310 -0.9091  0.4373
 2062SOL     OW17818   0.762   3.704   8.212  0.2057  0.1070 -0.0317
 2062SOL    HW117819   0.730   3.645   8.143  0.3767 -1.5759  1.3521
 2062SOL    HW217820   0.772   3.636   8.278  1.1483  0.6533  0.3725
 2063SOL     OW17821   3.501   2.773  11.535  0.3179  0.0349 -0.1567
 2063SOL    HW117822   3.502   2.839  11.465 -3.7433 -0.9872 -1.1609
 2063SOL    HW217823   3.407   2.776  11.549  0.5448  2.2638  0.9353
 2064SOL     OW17824   0.104   2.963  17.651  0.3080 -0.3477 -0.0952
 2064SOL    HW117825   0.014   2.983  17.676  0.8284  1.3151  0.4379
 2064SOL    HW217826   0.090   2.869  17.639 -1.4970 -0.2761  1.4485
 2065SOL     OW17827   0.346   2.203   6.498  0.0872  0.2958  1.1851
 2065SOL    HW117828   0.328   2.189   6.405 -1.3064  0.8875  1.3834
 2065SOL    HW217829   0.442   2.210   6.504  0.1093  0.1029  1.0882
 2066SOL     OW17830   0.848   1.518   4.393 -0.9241 -0.7062  0.5320
 2066SOL    HW117831   0.803   1.472   4.322 -0.7831  1.7392 -1.1452
 2066SOL    HW217832   0.795   1.593   4.421 -2.2111 -0.6125 -2.1487
 2067SOL     OW17833   2.687   1.937   4.080 -0.0355 -0.2980  0.2334
 2067SOL    HW117834   2.731   2.005   4.131  0.7226  1.2435 -2.4741
 2067SOL    HW217835   2.698   1.871   4.149  0.7123  0.1778  0.5650
 2068SOL     OW17836   4.733   0.875   8.027 -0.0594 -0.0530 -0.2934
 2068SOL    HW117837   4.733   0.965   7.995 -0.2335  0.6012  1.5919
 2068SOL    HW217838   0.028   0.891   8.115  0.7721 -0.8745 -0.4655
 2069SOL     OW17839   1.386   3.313   9.504 -0.0161 -0.5295  0.3945
 2069SOL    HW117840   1.402   3.297   9.411  1.7421  2.8271  0.1271
 2069SOL    HW217841   1.466   3.275   9.539  0.3435  0.1938  0.3484
 2070SOL     OW17842   3.242   4.365   5.171  0.6338 -0.5161 -0.0436
 2070SOL    HW117843   3.255   4.441   5.227 -0.1384 -0.4370  0.0241
 2070SOL    HW217844   3.208   4.411   5.095  1.4808 -1.0562 -0.7491
 2071SOL     OW17845   4.302   1.043   2.553 -0.0160 -0.2649 -0.1664
 2071SOL    HW117846   4.264   0.957   2.534  1.5835 -0.8275 -0.8780
 2071SOL    HW217847   4.388   1.020   2.588 -0.3091 -1.3218 -0.1535
 2072SOL     OW17848   0.508   1.037   6.374 -0.4846 -0.6811  0.2067
 2072SOL    HW117849   0.530   0.996   6.457  0.0618 -0.7784  0.0151
 2072SOL    HW217850   0.498   1.130   6.394  0.7704 -0.7329  1.1077
 2073SOL     OW17851   0.459   2.021  17.556  0.3335  0.1435  0.3017
 2073SOL    HW117852   0.419   2.064  17.481 -0.4972 -2.0409 -0.5203
 2073SOL    HW217853   0.411   2.058  17.631 -1.5323  0.3511 -0.9845
 2074SOL     OW17854   1.684   1.984   5.353 -0.0597 -0.1745 -0.0736
 2074SOL    HW117855   1.771   2.022   5.363 -0.5590  0.7650  0.7175
 2074SOL    HW217856   1.666   1.952   5.441  2.4922 -1.3660 -0.0049
 2075SOL     OW17857   4.324   0.916   6.630  0.4411  0.0677 -0.4219
 2075SOL    HW117858   4.367   0.976   6.690  0.2145  0.0113 -0.2046
 2075SOL    HW217859   4.292   0.844   6.683  0.0126 -0.7748 -1.8076
 2076SOL     OW17860   3.402   0.045   6.908  0.3672 -0.4267  0.1080
 2076SOL    HW117861   3.365   4.695   6.905 -0.7750  0.0518 -0.0287
 2076SOL    HW217862   3.407   0.063   7.002  0.3581 -0.5043  0.1237
 2077SOL     OW17863   1.793   0.611   1.916 -0.3754  0.4553 -0.7009
 2077SOL    HW117864   1.727   0.574   1.974  0.5272 -0.2000 -0.0984
 2077SOL    HW217865   1.819   0.688   1.966 -1.7721  1.2726 -1.2149
 2078SOL     OW17866   2.667   1.673   7.473  0.3086  0.0613 -0.1311
 2078SOL    HW117867   2.613   1.752   7.467  1.9764  1.3110  1.1935
 2078SOL    HW217868   2.607   1.608   7.512 -0.3387 -1.0159 -2.9430
 2079SOL     OW17869   1.971   0.626   5.101 -0.1221 -0.1553 -0.1750
 2079SOL    HW117870   2.032   0.680   5.050  0.1370 -1.7478 -1.5460
 2079SOL    HW217871   2.035   0.594   5.165 -2.1501  1.4140  2.6618
 2080SOL     OW17872   0.276   2.224   2.583 -0.7024  0.1556 -0.1459
 2080SOL    HW117873   0.292   2.189   2.671  0.6745  0.7985 -0.1388
 2080SOL    HW217874   0.312   2.308   2.611 -0.7190  0.2015 -0.2615
 2081SOL     OW17875   0.998   1.160  10.580  0.5928 -0.6009  0.5197
 2081SOL    HW117876   0.945   1.157  10.501 -0.6684  1.0946  1.3077
 2081SOL    HW217877   1.079   1.204  10.552  0.3462 -0.2870  0.3060
 2082SOL     OW17878   4.731   1.146   7.302  0.1922 -0.1797  0.3780
 2082SOL    HW117879   0.018   1.111   7.387 -0.8365 -0.5462  0.5455
 2082SOL    HW217880   0.078   1.169   7.266 -0.2502  0.6460 -0.1539
 2083SOL     OW17881   2.845   1.049  13.645  0.2664 -0.4546 -0.5865
 2083SOL    HW117882   2.814   0.959  13.634 -2.5294  0.3982  0.0556
 2083SOL    HW217883   2.798   1.098  13.577  0.3826  0.0231 -0.3214
 2084SOL     OW17884   0.762   0.056   6.247 -0.1543 -0.0348 -0.2274
 2084SOL    HW117885   0.793   4.730   6.184 -2.6235 -0.2820 -1.1996
 2084SOL    HW217886   0.694   0.105   6.201 -0.8292  0.1331  0.9552
 2085SOL     OW17887   4.551   2.606  14.099 -0.7784 -0.2670 -0.5019
 2085SOL    HW117888   4.612   2.558  14.044  0.9202 -0.0611  1.2140
 2085SOL    HW217889   4.587   2.695  14.098  3.6141 -2.0803 -1.7972
 2086SOL     OW17890   3.122   1.538  15.405 -0.1830 -0.1664 -0.3579
 2086SOL    HW117891   3.133   1.572  15.316  0.4570  1.2436  0.2583
 2086SOL    HW217892   3.214   1.518  15.420 -1.0236 -1.9058  2.3522
 2087SOL     OW17893   1.230   0.878  15.820  0.2974 -0.2484  0.3041
 2087SOL    HW117894   1.258   0.787  15.806  1.4535  0.0222  0.8631
 2087SOL    HW217895   1.159   0.889  15.756  0.1652 -0.5028  0.4033
 2088SOL     OW17896   3.636   3.333   1.640  0.3798  0.2966 -0.1507
 2088SOL    HW117897   3.672   3.249   1.666  1.9269  0.7275 -0.8958
 2088SOL    HW217898   3.717   3.385   1.631  0.8737 -0.5793 -0.7326
 2089SOL     OW17899   3.777   1.268   4.665 -0.3159  0.6670  0.9325
 2089SOL    HW117900   3.709   1.334   4.652  0.1844  0.9392 -0.3704
 2089SOL    HW217901   3.846   1.287   4.601 -0.3857 -0.8677  0.3963
 2090SOL     OW17902   3.403   1.553   3.729  0.1395  0.3634  0.3645
 2090SOL    HW117903   3.414   1.647   3.715  0.1873  0.3849  0.5458
 2090SOL    HW217904   3.486   1.542   3.776 -0.0220 -0.2645  0.4953
 2091SOL     OW17905   0.571   0.250   3.055 -0.1697  0.3299 -0.2028
 2091SOL    HW117906   0.616   0.283   3.133 -1.3996 -1.7365  1.3694
 2091SOL    HW217907   0.485   0.264   3.093 -0.6759  0.1416 -1.2720
 2092SOL     OW17908   0.903   2.261   2.340 -0.5227 -1.0216  0.5915
 2092SOL    HW117909   0.809   2.277   2.337 -0.3133  0.6575  3.0509
 2092SOL    HW217910   0.939   2.343   2.374 -0.0905 -0.9915  0.0615
 2093SOL     OW17911   4.385   0.807   8.397  0.0008 -0.8908 -0.6121
 2093SOL    HW117912   4.394   0.884   8.341  1.1567 -0.3178  0.3379
 2093SOL    HW217913   4.457   0.752   8.367 -0.8548 -2.4933  0.2934
 2094SOL     OW17914   4.074   4.469   2.071  0.5360  0.1754  0.2923
 2094SOL    HW117915   4.049   4.381   2.100  0.7374  0.3340  0.9500
 2094SOL    HW217916   4.144   4.440   2.012 -0.1802 -0.9027 -0.0420
 2095SOL     OW17917   3.248   0.636   0.700  0.4210 -0.7471  0.7156
 2095SOL    HW117918   3.203   0.576   0.759  0.0051 -0.7879  0.3571
 2095SOL    HW217919   3.282   0.568   0.641 -0.3908 -0.2118 -0.3691
 2096SOL     OW17920   3.642   2.172   7.654 -0.4205  0.5484  0.3493
 2096SOL    HW117921   3.672   2.210   7.571 -1.2704  1.4883  0.4691
 2096SOL    HW217922   3.723   2.130   7.683 -0.6084 -0.3093 -0.3538
 2097SOL     OW17923   3.585   2.282   8.475  0.0476 -0.1355  0.2705
 2097SOL    HW117924   3.556   2.210   8.531  0.4451 -2.0226 -1.9689
 2097SOL    HW217925   3.605   2.344   8.546 -0.9011 -0.5946  0.9342
 2098SOL     OW17926   2.521   3.804   4.922 -0.7448  0.1376  0.4530
 2098SOL    HW117927   2.428   3.786   4.909 -0.4223 -0.5256 -0.9587
 2098SOL    HW217928   2.555   3.714   4.914 -1.6928  0.1129 -3.0104
 2099SOL     OW17929   1.235   1.484  16.096 -0.2869  0.5380  0.0575
 2099SOL    HW117930   1.331   1.480  16.093 -0.2942  0.0296  0.4880
 2099SOL    HW217931   1.232   1.579  16.108 -1.2518  0.1514  2.8817
 2100SOL     OW17932   0.067   0.367   2.175 -0.0668  0.6002  0.2098
 2100SOL    HW117933   0.123   0.293   2.200  1.2311  1.1116 -1.2062
 2100SOL    HW217934   0.077   0.387   2.082  0.4189 -1.5961 -0.2147
 2101SOL     OW17935   0.140   3.390  10.078 -0.4300 -0.3447  0.0070
 2101SOL    HW117936   0.234   3.374  10.089  0.7388  4.0163 -3.3280
 2101SOL    HW217937   0.103   3.346  10.154  0.3424  0.1183  0.6469
 2102SOL     OW17938   1.963   4.070   3.627  0.8463  0.4277 -0.1405
 2102SOL    HW117939   2.004   3.993   3.587  0.3424 -0.5938  1.3204
 2102SOL    HW217940   1.959   4.130   3.553 -1.5254 -1.4876 -1.5503
 2103SOL     OW17941   2.795   1.146   0.590  0.0654  0.3013 -0.0482
 2103SOL    HW117942   2.781   1.056   0.561  0.9808 -0.5864  2.3386
 2103SOL    HW217943   2.778   1.187   0.505 -2.1505  0.7361  0.6072
 2104SOL     OW17944   2.951   0.794   7.470  0.1716 -0.4179 -0.0981
 2104SOL    HW117945   2.887   0.866   7.473  0.2946 -0.3774  2.1148
 2104SOL    HW217946   3.018   0.838   7.522 -1.1935  3.4448 -1.5773
 2105SOL     OW17947   1.525   3.995  15.795  0.2943  0.7611  0.5433
 2105SOL    HW117948   1.562   4.065  15.849  0.9857  0.1539  0.8650
 2105SOL    HW217949   1.593   3.928  15.799 -0.6798 -0.3014 -0.5618
 2106SOL     OW17950   3.885   0.279  12.622  0.2293 -0.2781  0.8172
 2106SOL    HW117951   3.975   0.287  12.653  0.6302 -2.2471  0.1099
 2106SOL    HW217952   3.877   0.185  12.612 -1.2323 -0.2074  1.3316
 2107SOL     OW17953   3.091   2.870  16.793 -0.1213  0.3259  0.1054
 2107SOL    HW117954   3.177   2.909  16.774 -0.0609  0.3025  0.3394
 2107SOL    HW217955   3.061   2.897  16.879  1.9940 -2.1276  1.6367
 2108SOL     OW17956   3.662   3.249   6.314 -0.1697  0.3208  1.0397
 2108SOL    HW117957   3.679   3.168   6.265 -1.0621  2.2568 -2.4040
 2108SOL    HW217958   3.747   3.260   6.357 -1.2728 -0.5857  3.5093
 2109SOL     OW17959   0.168   4.237   4.630  0.0949  0.3021 -0.1851
 2109SOL    HW117960   0.263   4.246   4.623 -0.1092  2.4634  0.0761
 2109SOL    HW217961   0.160   4.170   4.562 -0.5068  3.1904 -2.9161
 2110SOL     OW17962   2.004   4.574   8.854  0.3168  0.9068 -0.0269
 2110SOL    HW117963   2.058   4.509   8.898 -2.3034 -0.4026  1.2346
 2110SOL    HW217964   1.920   4.528   8.855  0.3352  0.8502 -1.5883
 2111SOL     OW17965   2.188   0.556   6.306  0.1232 -0.4711  0.0563
 2111SOL    HW117966   2.103   0.534   6.270  0.9217 -0.1549 -2.0621
 2111SOL    HW217967   2.207   0.636   6.256  0.1722 -0.3414  0.2844
 2112SOL     OW17968   2.438   4.654  16.271  0.3352 -0.1620  0.2511
 2112SOL    HW117969   2.361   4.691  16.227 -0.8028 -1.4423  1.1712
 2112SOL    HW217970   2.494   4.636  16.196 -2.1981  0.1110 -1.7017
 2113SOL     OW17971   1.795   0.240   6.657  0.3696 -0.0122 -0.0280
 2113SOL    HW117972   1.877   0.250   6.608  0.0337 -0.2463 -0.6377
 2113SOL    HW217973   1.832   0.172   6.714 -0.9039 -0.8639 -0.2200
 2114SOL     OW17974   3.603   1.965   2.919  0.1626 -0.4591  0.1413
 2114SOL    HW117975   3.639   1.894   2.865 -2.2430 -1.3007 -0.3485
 2114SOL    HW217976   3.523   1.927   2.955  0.2053 -0.8547 -0.1896
 2115SOL     OW17977   3.273   0.394   5.589  0.1487 -0.1966  0.3569
 2115SOL    HW117978   3.237   0.477   5.619  1.5217 -0.2652  2.1764
 2115SOL    HW217979   3.312   0.420   5.506 -1.1529  1.7020  0.3479
 2116SOL     OW17980   0.411   0.625  10.046  0.0000  0.1703  0.0078
 2116SOL    HW117981   0.389   0.715  10.021  1.7590  1.4744  3.2712
 2116SOL    HW217982   0.332   0.600  10.095  0.2485 -0.0801  0.2773
 2117SOL     OW17983   0.152   3.525  15.829  0.5674 -0.3562  1.0434
 2117SOL    HW117984   0.133   3.523  15.735  0.4978 -0.4838  1.0600
 2117SOL    HW217985   0.238   3.484  15.834  0.1593 -1.5761 -1.7145
 2118SOL     OW17986   0.891   4.503   1.157 -0.3119 -1.4136  0.1727
 2118SOL    HW117987   0.940   4.426   1.183  1.3075  0.1008  1.5936
 2118SOL    HW217988   0.825   4.501   1.227 -0.1876  0.1130  0.3355
 2119SOL     OW17989   3.261   2.493  13.891  0.3158 -0.0320  0.4806
 2119SOL    HW117990   3.179   2.540  13.882  1.0745  1.0421 -0.9070
 2119SOL    HW217991   3.248   2.410  13.845  0.8151  0.6302 -0.8524
 2120SOL     OW17992   1.197   1.659   4.254  0.0670  0.0889 -0.3548
 2120SOL    HW117993   1.103   1.669   4.243 -0.7350 -3.2377  3.5752
 2120SOL    HW217994   1.201   1.564   4.243  1.1408  0.0552  0.2178
 2121SOL     OW17995   2.190   0.547   5.252 -0.2638 -0.0683 -0.4624
 2121SOL    HW117996   2.281   0.574   5.263  0.5030 -3.1631  0.9571
 2121SOL    HW217997   2.194   0.503   5.168  0.8802  0.2689 -0.5899
 2122SOL     OW17998   3.027   1.167  15.008 -0.1751 -0.0723  0.2007
 2122SOL    HW117999   3.111   1.122  15.011  1.1426  2.1598 -3.6515
 2122SOL    HW218000   2.968   1.095  15.032 -1.0295 -0.1465 -2.1255
 2123SOL     OW18001   1.515   1.714   2.949 -0.5980 -0.7790  0.7063
 2123SOL    HW118002   1.555   1.648   3.006 -0.1081 -1.5341 -0.5313
 2123SOL    HW218003   1.572   1.710   2.872 -0.3609 -2.5734  0.9634
 2124SOL     OW18004   3.907   2.088   4.998 -0.5686 -0.2013  0.6194
 2124SOL    HW118005   3.911   2.129   5.084  1.3819 -0.4207  0.6444
 2124SOL    HW218006   3.921   1.998   5.028  0.7211  0.1083  0.9733
 2125SOL     OW18007   4.198   2.488   4.903 -0.4402 -0.1992  0.3384
 2125SOL    HW118008   4.209   2.547   4.978 -0.1002 -0.2707  0.3450
 2125SOL    HW218009   4.252   2.530   4.837 -0.3384 -0.1044  0.4827
 2126SOL     OW18010   3.210   2.185   9.485  0.0860  0.3050  0.4543
 2126SOL    HW118011   3.156   2.195   9.563 -1.4679 -0.0626 -0.5453
 2126SOL    HW218012   3.253   2.269   9.474  0.3571  0.0270 -0.6335
 2127SOL     OW18013   2.186   3.119   9.479  0.2124 -0.2666 -0.4528
 2127SOL    HW118014   2.209   3.041   9.529 -0.7654  0.0533  0.5225
 2127SOL    HW218015   2.164   3.178   9.551 -2.4944 -1.7845 -0.0460
 2128SOL     OW18016   1.127   2.378   2.702 -0.1111  0.0431  0.0006
 2128SOL    HW118017   1.060   2.414   2.759  0.7690  1.6196  0.0378
 2128SOL    HW218018   1.096   2.401   2.614 -4.4983  1.9798  2.0694
 2129SOL     OW18019   2.266   2.903   8.903  0.7748 -0.1812 -0.1596
 2129SOL    HW118020   2.272   2.966   8.830  1.6673 -1.3978 -1.1439
 2129SOL    HW218021   2.272   2.817   8.861  0.3237  0.5985 -1.8417
 2130SOL     OW18022   4.444   4.683   4.530  0.5546 -0.4754 -0.5180
 2130SOL    HW118023   4.497   4.616   4.574  0.0656 -0.5259 -0.0060
 2130SOL    HW218024   4.486   4.677   4.444 -0.5026  0.6377 -1.0995
 2131SOL     OW18025   4.263   2.007   6.384  0.6778 -0.3264  0.4307
 2131SOL    HW118026   4.333   2.069   6.405  0.8372 -0.2288 -0.3815
 2131SOL    HW218027   4.190   2.034   6.441  0.1734 -1.7853  0.4830
 2132SOL     OW18028   0.688   0.076  12.764  0.2640  0.4119  0.0699
 2132SOL    HW118029   0.688   0.128  12.843  0.6080 -0.6990  0.8025
 2132SOL    HW218030   0.645   4.735  12.796  0.5062  0.3904  0.3353
 2133SOL     OW18031   1.879   2.416   5.643  0.0767 -0.0998 -0.0352
 2133SOL    HW118032   1.842   2.375   5.564  1.3936 -1.2508 -0.0463
 2133SOL    HW218033   1.945   2.471   5.602  0.4668 -0.9194 -0.5142
 2134SOL     OW18034   2.057   3.188   8.349 -0.0938 -0.5418  0.3693
 2134SOL    HW118035   1.965   3.197   8.327  0.4347  1.1740 -1.1954
 2134SOL    HW218036   2.050   3.221   8.438 -0.0181 -1.7966  0.8355
 2135SOL     OW18037   3.912   4.114   1.219  0.0498 -0.3420 -0.1606
 2135SOL    HW118038   3.878   4.066   1.294  0.3431 -0.6794 -0.2439
 2135SOL    HW218039   3.831   4.120   1.168 -1.0367 -0.8445  1.4985
 2136SOL     OW18040   3.317   1.758   4.043  0.0325 -0.1772 -0.2235
 2136SOL    HW118041   3.327   1.851   4.025 -1.4906  0.3530  1.6098
 2136SOL    HW218042   3.238   1.724   4.001  0.3835 -2.0485  0.6268
 2137SOL     OW18043   1.494   2.600   6.892 -0.4058  0.0854 -0.1852
 2137SOL    HW118044   1.434   2.532   6.862  1.2499 -1.2842 -0.3726
 2137SOL    HW218045   1.541   2.630   6.814  0.2810  0.3075  0.3195
 2138SOL     OW18046   3.262   3.588   4.493 -0.1163  0.2643  0.3960
 2138SOL    HW118047   3.323   3.544   4.434 -0.9036 -1.1343  0.6220
 2138SOL    HW218048   3.263   3.679   4.466 -0.0231 -0.3235 -1.5629
 2139SOL     OW18049   0.680   2.405  16.090 -0.2544  0.1982  0.5361
 2139SOL    HW118050   0.602   2.375  16.043  1.2656  0.1458 -1.9829
 2139SOL    HW218051   0.646   2.443  16.170 -2.1420 -1.1700  0.3744
 2140SOL     OW18052   1.385   3.298   0.428 -0.0446 -0.1889 -0.0121
 2140SOL    HW118053   1.291   3.288   0.437 -0.0128 -1.2864 -0.8298
 2140SOL    HW218054   1.415   3.318   0.517  1.1689  0.6100 -0.5963
 2141SOL     OW18055   2.092   1.730   2.767  0.3698  0.8145  0.4592
 2141SOL    HW118056   2.137   1.650   2.739 -1.2362  0.7451 -1.9651
 2141SOL    HW218057   2.142   1.790   2.713  0.4005 -1.0216 -1.5746
 2142SOL     OW18058   4.666   3.169  11.918  0.2980  0.5323 -0.1107
 2142SOL    HW118059   4.725   3.094  11.923 -0.7042 -0.3472 -1.2579
 2142SOL    HW218060   4.596   3.124  11.965  1.3206 -1.5882 -0.6379
 2143SOL     OW18061   1.611   3.083   9.455  0.1840  0.5793  0.7460
 2143SOL    HW118062   1.522   3.074   9.491 -0.5587 -0.2027 -1.2905
 2143SOL    HW218063   1.612   3.013   9.390 -0.6576  3.4163 -2.3433
 2144SOL     OW18064   1.142   1.735  13.141 -0.4955  0.4507  0.7756
 2144SOL    HW118065   1.181   1.767  13.059  1.6163  1.5453  2.2050
 2144SOL    HW218066   1.053   1.771  13.137  0.0635  1.6699 -0.8714
 2145SOL     OW18067   0.607   1.867  12.244  0.1148 -0.4327 -0.0155
 2145SOL    HW118068   0.562   1.784  12.228  1.4323 -0.5761 -2.9926
 2145SOL    HW218069   0.558   1.939  12.206  0.5426 -0.2967 -0.3027
 2146SOL     OW18070   3.438   4.562   6.647 -0.1528 -0.5009 -0.0016
 2146SOL    HW118071   3.423   4.582   6.740 -1.5654 -0.4429 -0.2429
 2146SOL    HW218072   3.522   4.518   6.651  2.1474  3.9729  0.8140
 2147SOL     OW18073   4.295   1.218   2.360  0.2802  0.0868 -0.2607
 2147SOL    HW118074   4.290   1.158   2.434 -0.8802  0.9371  0.3610
 2147SOL    HW218075   4.372   1.176   2.323  0.3139  0.0521 -0.1494
 2148SOL     OW18076   2.771   4.637   3.901 -0.3076 -0.2815  0.3782
 2148SOL    HW118077   2.681   4.611   3.920 -0.7170 -0.3456 -1.6004
 2148SOL    HW218078   2.770   4.708   3.966  0.2538 -0.9246  1.0829
 2149SOL     OW18079   3.326   4.368   9.502 -0.1542 -0.0283  0.0860
 2149SOL    HW118080   3.408   4.411   9.527  0.1125  0.5467 -1.7950
 2149SOL    HW218081   3.344   4.339   9.413  1.2864  2.2483 -0.3566
 2150SOL     OW18082   3.880   2.684   3.537 -0.7825 -0.1493 -1.1451
 2150SOL    HW118083   3.945   2.721   3.477 -0.0139 -0.1099 -0.3029
 2150SOL    HW218084   3.924   2.613   3.584 -1.6677 -0.9024 -1.4753
 2151SOL     OW18085   2.768   0.965  10.159  0.0399  0.1101 -0.0464
 2151SOL    HW118086   2.784   1.054  10.189 -0.6565  0.9414 -2.1110
 2151SOL    HW218087   2.713   0.928  10.229 -1.1998 -0.6754 -1.4207
 2152SOL     OW18088   4.365   1.514   0.440 -0.4092 -0.0522 -0.0526
 2152SOL    HW118089   4.335   1.586   0.384  1.8297  2.1742  1.5800
 2152SOL    HW218090   4.285   1.464   0.454 -0.1920 -0.1409  0.8667
 2153SOL     OW18091   3.387   3.138   5.547 -0.0704  0.1434 -0.4396
 2153SOL    HW118092   3.388   3.171   5.637  0.1318  0.5184 -0.5788
 2153SOL    HW218093   3.294   3.142   5.528  0.1042  1.4733 -0.9952
 2154SOL     OW18094   0.942   2.979   6.991  0.2851  0.0614  0.1930
 2154SOL    HW118095   0.864   2.929   6.966 -0.0318 -1.0545  3.4773
 2154SOL    HW218096   0.932   3.011   7.081  0.4607 -1.3341  0.7049
 2155SOL     OW18097   2.330   1.896   8.626  0.5844  0.9220  0.5996
 2155SOL    HW118098   2.236   1.911   8.633 -0.1797 -2.7430 -2.0419
 2155SOL    HW218099   2.374   1.978   8.601  1.8666 -0.0111 -0.2094
 2156SOL     OW18100   1.407   3.012   9.599 -0.5064 -0.1540 -0.0678
 2156SOL    HW118101   1.318   3.044   9.610  0.5452  2.5650  0.6135
 2156SOL    HW218102   1.394   2.927   9.641  2.3030 -0.9045 -0.7151
 2157SOL     OW18103   0.679   0.426   4.075 -0.0099  0.3847 -0.3689
 2157SOL    HW118104   0.588   0.400   4.093  0.5667 -1.3093  0.1428
 2157SOL    HW218105   0.696   0.376   3.995 -0.8545 -1.0640  0.3426
 2158SOL     OW18106   4.481   2.198   0.680  0.5202  0.2096 -0.6994
 2158SOL    HW118107   4.468   2.103   0.681 -0.7260  0.3598 -1.4800
 2158SOL    HW218108   4.427   2.232   0.751 -0.5464  0.1110 -1.4531
 2159SOL     OW18109   0.563   1.978   4.213  0.2385 -0.2147  0.1900
 2159SOL    HW118110   0.595   2.027   4.137 -0.2560 -0.7245 -0.3494
 2159SOL    HW218111   0.516   1.903   4.175 -1.4334  0.7952  0.2793
 2160SOL     OW18112   2.174   0.057  15.691 -0.2575  0.0308  0.7993
 2160SOL    HW118113   2.198   4.703  15.697 -0.6198 -0.1324 -0.3377
 2160SOL    HW218114   2.232   0.094  15.758  0.3818 -0.3241  0.4455
 2161SOL     OW18115   3.678   3.568   9.118  0.5018  0.3920  0.0577
 2161SOL    HW118116   3.629   3.501   9.166 -1.0201  0.4010 -1.4693
 2161SOL    HW218117   3.603   3.614   9.080 -0.8004  0.8549  3.1583
 2162SOL     OW18118   2.327   1.925   9.613  0.2533 -0.0578  0.5215
 2162SOL    HW118119   2.421   1.941   9.619  0.6826 -1.6258 -1.8862
 2162SOL    HW218120   2.302   2.009   9.575 -1.3886 -1.2830 -1.1419
 2163SOL     OW18121   0.548   0.307  11.822 -0.3475 -0.3567  0.4978
 2163SOL    HW118122   0.474   0.275  11.873 -0.9300  0.5660  0.2199
 2163SOL    HW218123   0.601   0.353  11.887  0.3702 -1.9498  1.0484
 2164SOL     OW18124   3.745   4.674   7.144 -0.0822 -0.0248  0.0541
 2164SOL    HW118125   3.747   4.584   7.176 -0.5795 -0.0557 -0.0080
 2164SOL    HW218126   3.741   4.713   7.231  0.2412  1.9918 -0.8257
 2165SOL     OW18127   0.043   1.758   8.749 -0.1562 -0.2889 -0.2761
 2165SOL    HW118128   0.093   1.758   8.831 -1.0007 -0.8731  0.2289
 2165SOL    HW218129   0.115   1.769   8.686  0.4982  1.5877  0.7798
 2166SOL     OW18130   1.688   3.804   9.803  0.3689  0.0968 -0.1226
 2166SOL    HW118131   1.726   3.753   9.873 -1.6936  0.0760  0.9877
 2166SOL    HW218132   1.595   3.790   9.818  0.2064 -1.0622 -2.1830
 2167SOL     OW18133   0.309   0.895  11.283  0.2340 -0.4551  0.0261
 2167SOL    HW118134   0.295   0.978  11.238 -2.0754 -0.3305  0.9556
 2167SOL    HW218135   0.402   0.884  11.263  0.7125 -0.9787  2.5636
 2168SOL     OW18136   0.758   1.222  16.160  0.4715 -0.1989  0.4501
 2168SOL    HW118137   0.695   1.150  16.152  0.5215 -0.1544 -0.2648
 2168SOL    HW218138   0.790   1.241  16.072  0.5117 -1.4258  0.2092
 2169SOL     OW18139   4.234   2.102   4.946  0.0796  0.6411  0.1327
 2169SOL    HW118140   4.325   2.090   4.920  0.0070 -1.2895  0.7666
 2169SOL    HW218141   4.197   2.163   4.882  2.0473  1.0825 -0.5961
 2170SOL     OW18142   3.454   3.659   8.970 -0.0741  0.2440  0.2376
 2170SOL    HW118143   3.494   3.697   8.891 -2.8996  0.4511 -1.0756
 2170SOL    HW218144   3.390   3.728   8.980 -0.2070  0.3182 -1.0946
 2171SOL     OW18145   0.861   4.121  11.524  0.5587 -0.2513 -0.0467
 2171SOL    HW118146   0.862   4.196  11.583  3.7539  0.5082 -1.0711
 2171SOL    HW218147   0.804   4.165  11.461  1.9694  1.6554  0.0013
 2172SOL     OW18148   1.315   4.580  14.081  0.5842 -0.3864  0.0308
 2172SOL    HW118149   1.405   4.584  14.048  0.6683 -0.1832  0.2818
 2172SOL    HW218150   1.275   4.581  13.994  0.3096 -1.0055  0.1459
 2173SOL     OW18151   3.126   0.751   6.831 -0.3528 -0.4682  0.1445
 2173SOL    HW118152   3.052   0.695   6.811  2.1851 -3.4021 -1.1262
 2173SOL    HW218153   3.156   0.725   6.919  1.1238 -0.2999 -0.2999
 2174SOL     OW18154   3.183   0.801   7.632 -0.2469  0.0455 -0.0205
 2174SOL    HW118155   3.250   0.743   7.668 -0.2863  1.0811  1.7170
 2174SOL    HW218156   3.134   0.824   7.711  0.4298  0.0919  0.3816
 2175SOL     OW18157   0.096   0.796   1.716 -0.1538 -0.3227  0.0139
 2175SOL    HW118158   0.097   0.879   1.765  1.2849 -0.0855 -0.4190
 2175SOL    HW218159   0.067   0.727   1.775  2.8883 -1.3748  0.2665
 2176SOL     OW18160   1.710   2.324   5.124 -0.1065 -0.6404 -0.2301
 2176SOL    HW118161   1.649   2.268   5.076 -1.1140 -0.7038  1.1399
 2176SOL    HW218162   1.760   2.354   5.047 -0.6920 -1.8125 -1.0697
 2177SOL     OW18163   1.437   1.170   3.079 -0.2413  0.1568  0.2433
 2177SOL    HW118164   1.427   1.113   3.002  2.3894 -1.7728  1.3224
 2177SOL    HW218165   1.390   1.120   3.146 -3.2469  1.3186 -0.9909
 2178SOL     OW18166   3.962   2.559   4.300 -0.7946  0.2914 -0.1615
 2178SOL    HW118167   3.885   2.580   4.352 -0.6511  1.7673 -0.5298
 2178SOL    HW218168   3.926   2.560   4.211 -2.7427  0.1660  0.6300
 2179SOL     OW18169   1.602   2.553  17.462  0.0581  0.1144 -0.2673
 2179SOL    HW118170   1.587   2.479  17.403 -2.3979  1.1449 -0.9091
 2179SOL    HW218171   1.661   2.608  17.410  1.4610 -0.6105  0.5447
 2180SOL     OW18172   4.560   3.216   2.457 -0.2645  0.0631  0.2668
 2180SOL    HW118173   4.631   3.164   2.419  0.2893  0.5231  0.6791
 2180SOL    HW218174   4.477   3.196   2.413 -0.1073 -0.2020  0.0924
 2181SOL     OW18175   3.519   1.383  10.715 -0.3152  0.2096 -0.1253
 2181SOL    HW118176   3.598   1.373  10.662 -0.8100  1.2212 -1.0500
 2181SOL    HW218177   3.540   1.466  10.759 -0.2624  0.2589 -0.2446
 2182SOL     OW18178   1.741   2.693   6.442  0.6053 -0.5251 -0.0209
 2182SOL    HW118179   1.791   2.746   6.380 -0.8025  0.0637 -0.6646
 2182SOL    HW218180   1.738   2.613   6.390  0.2495 -0.8571  0.5106
 2183SOL     OW18181   4.711   3.293   8.010  0.4507  0.5963  0.0792
 2183SOL    HW118182   4.646   3.235   8.050  0.8255 -0.4320 -0.8278
 2183SOL    HW218183   4.722   3.356   8.082  2.4227  0.9340 -0.5323
 2184SOL     OW18184   3.036   3.844   7.138  0.0454  0.4191  0.1410
 2184SOL    HW118185   3.110   3.803   7.092  1.3713  2.4656  0.4857
 2184SOL    HW218186   3.019   3.784   7.211 -3.4982 -1.1378 -1.9939
 2185SOL     OW18187   3.790   1.992   0.423  0.2466  0.0379  0.7462
 2185SOL    HW118188   3.754   2.073   0.460  0.0221  0.8276 -1.2405
 2185SOL    HW218189   3.718   1.934   0.448 -0.4036  0.2583 -0.6239
 2186SOL     OW18190   2.801   3.623   2.848 -0.1471  0.2487 -0.0839
 2186SOL    HW118191   2.843   3.682   2.786 -0.1673  0.5902  0.2287
 2186SOL    HW218192   2.863   3.550   2.850 -1.3618 -0.7855 -0.4721
 2187SOL     OW18193   2.920   2.280   7.463 -0.3775 -0.5232  0.4111
 2187SOL    HW118194   2.848   2.219   7.475 -0.8329  0.1770  1.2269
 2187SOL    HW218195   2.992   2.223   7.492 -1.4994 -1.1699  1.9126
 2188SOL     OW18196   4.557   4.559   2.938 -0.3544  0.0888 -0.8432
 2188SOL    HW118197   4.541   4.606   2.856  0.3805  2.0810  0.1686
 2188SOL    HW218198   4.504   4.607   3.002 -2.1487  1.6094 -3.4212
 2189SOL     OW18199   2.360   4.457   9.554  0.6447 -0.4961  0.1541
 2189SOL    HW118200   2.358   4.436   9.647 -0.9973  0.8075  0.4024
 2189SOL    HW218201   2.430   4.521   9.558  2.3041 -2.3427  0.5452
 2190SOL     OW18202   2.462   0.659   5.197  0.0424 -0.4714 -0.6762
 2190SOL    HW118203   2.450   0.638   5.104 -2.7207  0.6278 -0.5645
 2190SOL    HW218204   2.495   0.577   5.236  2.1311  1.4585  1.6223
 2191SOL     OW18205   1.438   2.203   7.426 -0.2851 -0.4055  0.2353
 2191SOL    HW118206   1.466   2.257   7.500  1.3116  0.7834 -1.2203
 2191SOL    HW218207   1.343   2.213   7.436 -0.0066  2.7475 -0.1680
 2192SOL     OW18208   4.461   3.364   9.169 -0.0494  0.2174 -0.1381
 2192SOL    HW118209   4.517   3.437   9.197 -1.2818  1.4141 -0.7900
 2192SOL    HW218210   4.383   3.408   9.137 -0.9421 -0.3627  1.2310
 2193SOL     OW18211   0.791   4.255   2.465  0.6471  0.2804  0.0344
 2193SOL    HW118212   0.698   4.234   2.475  0.8082 -1.0125 -1.2410
 2193SOL    HW218213   0.812   4.276   2.556 -1.6949  2.7493 -0.0116
 2194SOL     OW18214   0.196   2.365   5.359  0.4174  0.4137 -0.2130
 2194SOL    HW118215   0.189   2.440   5.419 -1.4169 -0.7779  1.0368
 2194SOL    HW218216   0.161   2.399   5.277  1.1432 -0.5331 -0.9117
 2195SOL     OW18217   3.665   3.078   8.959 -0.1701 -0.2481 -0.6133
 2195SOL    HW118218   3.619   3.119   8.885  1.9025  0.3087 -1.6066
 2195SOL    HW218219   3.757   3.087   8.933 -0.3457  0.0983 -1.1227
 2196SOL     OW18220   4.120   2.845   1.454 -0.1740  0.6093 -0.5108
 2196SOL    HW118221   4.067   2.782   1.406 -1.2676  1.6474 -0.6414
 2196SOL    HW218222   4.069   2.925   1.461  0.6474  1.0485  0.4916
 2197SOL     OW18223   2.433   1.193   1.113  0.3456  0.5903 -0.1096
 2197SOL    HW118224   2.443   1.099   1.099  0.9093  1.0663 -2.9395
 2197SOL    HW218225   2.448   1.237   1.029 -1.9467  1.2232 -0.2062
 2198SOL     OW18226   3.610   3.052  11.466  0.3833  0.0618  0.3362
 2198SOL    HW118227   3.573   3.103  11.538  0.4575 -0.0278  0.4381
 2198SOL    HW218228   3.542   3.038  11.400  0.8179  0.0607 -0.1166
 2199SOL     OW18229   0.898   2.833   3.135 -0.3375  0.1086 -0.0948
 2199SOL    HW118230   0.819   2.783   3.156 -0.3266  0.7323  1.4589
 2199SOL    HW218231   0.967   2.774   3.165 -0.1577  0.9246  1.1102
 2200SOL     OW18232   1.872   0.448  11.724 -0.2246  0.4271 -0.1666
 2200SOL    HW118233   1.955   0.400  11.726 -0.2312  0.3342 -1.9262
 2200SOL    HW218234   1.883   0.520  11.662  0.9622  1.3881  1.1483
 2201SOL     OW18235   0.114   3.038   5.729  0.4302 -0.6209 -0.3078
 2201SOL    HW118236   0.124   3.061   5.821 -1.1940  0.2787 -0.3568
 2201SOL    HW218237   0.018   3.036   5.722  0.4072 -0.4775 -0.0421
 2202SOL     OW18238   3.063   3.155   9.444  0.4520 -0.3024 -0.1843
 2202SOL    HW118239   3.112   3.132   9.365  1.1146 -0.5151  0.2814
 2202SOL    HW218240   2.973   3.136   9.420  0.0593  0.5301  0.6376
 2203SOL     OW18241   2.144   0.801  13.480 -0.5005 -0.2920  0.4593
 2203SOL    HW118242   2.161   0.875  13.538 -2.1371 -0.0848  0.6947
 2203SOL    HW218243   2.232   0.784  13.448 -1.1132  1.1935 -2.0039
 2204SOL     OW18244   1.272   2.213   6.437 -0.1138  0.4629 -0.0530
 2204SOL    HW118245   1.329   2.211   6.360 -0.6835 -1.7257 -0.4143
 2204SOL    HW218246   1.265   2.119   6.454 -1.5635  0.2111 -2.0721
 2205SOL     OW18247   3.772   2.175   4.765 -0.2826 -0.5292 -0.8019
 2205SOL    HW118248   3.755   2.162   4.858  3.2860 -0.4185 -0.1272
 2205SOL    HW218249   3.818   2.259   4.760 -0.7448 -0.2605 -0.4856
 2206SOL     OW18250   4.149   3.105   5.160 -0.2020 -0.2525 -0.0422
 2206SOL    HW118251   4.098   3.051   5.098 -0.3730 -0.4472  0.2673
 2206SOL    HW218252   4.084   3.121   5.229  1.6215 -0.3610  1.6906
 2207SOL     OW18253   0.295   3.620   5.208  0.2710 -0.2105  0.6762
 2207SOL    HW118254   0.353   3.690   5.177 -1.0228  0.5825  0.0834
 2207SOL    HW218255   0.347   3.539   5.213  0.4616 -0.0704  1.0118
 2208SOL     OW18256   3.554   2.784   6.532 -0.3927  0.3381 -0.3030
 2208SOL    HW118257   3.540   2.793   6.438 -1.3930 -3.2695 -0.4890
 2208SOL    HW218258   3.471   2.765   6.575  0.0039 -2.5098 -0.8060
 2209SOL     OW18259   3.694   4.714   6.566  0.5977  0.1348  0.8066
 2209SOL    HW118260   3.677   0.052   6.620 -3.4518 -0.1562 -0.0354
 2209SOL    HW218261   3.660   4.636   6.611  0.6171 -0.3030  0.0618
 2210SOL     OW18262   2.571   4.204   2.575 -0.3817  0.3610  0.7142
 2210SOL    HW118263   2.588   4.293   2.604 -1.1356  0.3190  1.2778
 2210SOL    HW218264   2.488   4.183   2.617 -0.5641  0.8330  0.5753
 2211SOL     OW18265   1.171   0.294   5.367 -0.1274  0.6508 -0.1040
 2211SOL    HW118266   1.234   0.302   5.295 -0.2781  0.3582 -0.2700
 2211SOL    HW218267   1.131   0.207   5.358  0.1961  0.7052 -2.1115
 2212SOL     OW18268   0.279   0.380   6.924 -0.2588 -0.2481 -0.4183
 2212SOL    HW118269   0.329   0.368   7.005  1.3756  0.1657 -1.3678
 2212SOL    HW218270   0.236   0.464   6.940 -2.6238 -1.8068  1.4928
 2213SOL     OW18271   1.194   1.421   8.363 -0.5184  0.7623 -0.0170
 2213SOL    HW118272   1.219   1.345   8.415  1.3346  2.2044  1.1592
 2213SOL    HW218273   1.098   1.414   8.365 -0.5063  0.0750 -1.8121
 2214SOL     OW18274   1.183   2.813   7.859 -0.1377 -0.2574 -0.0153
 2214SOL    HW118275   1.270   2.826   7.897 -0.0985 -1.9974  0.5391
 2214SOL    HW218276   1.199   2.762   7.780 -0.0258 -0.1926 -0.0348
 2215SOL     OW18277   1.982   1.783   4.653  0.0218  0.1607 -0.4835
 2215SOL    HW118278   1.900   1.795   4.701  0.2088  1.9288 -0.6281
 2215SOL    HW218279   2.039   1.778   4.729 -0.9433  0.8053  0.2777
 2216SOL     OW18280   4.141   4.005   4.092  0.4923  0.4565  0.3347
 2216SOL    HW118281   4.166   4.010   3.999  1.5072 -1.2476  0.5197
 2216SOL    HW218282   4.079   3.933   4.081  1.3697 -0.5927  2.2612
 2217SOL     OW18283   1.980   0.225   2.768 -0.1704  0.7735  0.1450
 2217SOL    HW118284   1.891   0.198   2.789  0.8241 -0.2870  2.9893
 2217SOL    HW218285   1.982   0.308   2.815  0.8529  0.5307  0.5481
 2218SOL     OW18286   2.508   2.088  17.693  0.2792 -1.1217  0.0653
 2218SOL    HW118287   2.495   2.033   0.016 -1.4060  1.1958  1.4528
 2218SOL    HW218288   2.417   2.113  17.675  0.6410  1.2606  1.6889
 2219SOL     OW18289   3.878   4.557   2.738  0.7897  0.3363 -0.2751
 2219SOL    HW118290   3.913   4.607   2.812 -1.2782  1.8111 -0.3076
 2219SOL    HW218291   3.885   4.468   2.774 -2.0504  0.0990 -0.3612
 2220SOL     OW18292   0.360   2.210   5.949 -0.2335 -0.4259 -0.3089
 2220SOL    HW118293   0.422   2.232   5.879  2.6762  1.2243  2.7633
 2220SOL    HW218294   0.275   2.234   5.912  0.8820  1.0436 -1.9161
 2221SOL     OW18295   4.056   2.566   9.807 -0.0760  0.2854 -0.1194
 2221SOL    HW118296   3.985   2.628   9.792 -1.0513 -0.8803 -0.2481
 2221SOL    HW218297   4.136   2.619   9.804 -0.5586  1.0998  1.5089
 2222SOL     OW18298   1.447   0.124   2.920 -0.0139 -0.2968  0.5687
 2222SOL    HW118299   1.383   0.053   2.909 -1.3166  1.0876 -0.7522
 2222SOL    HW218300   1.409   0.181   2.986 -0.0025 -0.8699  1.0726
 2223SOL     OW18301   0.280   4.593  17.185 -0.7550  0.2523  0.0940
 2223SOL    HW118302   0.192   4.570  17.155 -0.3149 -0.5986 -0.5515
 2223SOL    HW218303   0.318   4.511  17.152 -1.7898  0.1317 -0.8245
 2224SOL     OW18304   0.141   2.679   4.806  0.1882 -0.7018 -0.7205
 2224SOL    HW118305   0.174   2.589   4.798  0.3040 -0.7457  0.3059
 2224SOL    HW218306   0.124   2.704   4.715 -1.2333  1.7208  0.2208
 2225SOL     OW18307   1.072   4.433   5.653 -0.2660  0.0913  0.4386
 2225SOL    HW118308   0.979   4.413   5.642 -0.2673  0.1838  0.2791
 2225SOL    HW218309   1.103   4.370   5.718 -1.1419  0.0345  0.8161
 2226SOL     OW18310   0.302   3.488   7.287  0.3883  0.1526  0.3194
 2226SOL    HW118311   0.356   3.518   7.361 -0.2268  1.2572  0.3189
 2226SOL    HW218312   0.296   3.398   7.319  0.3034  0.3771  0.9445
 2227SOL     OW18313   3.911   3.640  15.896 -0.5465  0.7971 -0.5064
 2227SOL    HW118314   3.919   3.658  15.990 -0.9601  3.9206 -1.0740
 2227SOL    HW218315   3.939   3.724  15.859  1.3872  1.6357  2.8595
 2228SOL     OW18316   0.799   0.469   6.571  0.2936  0.3814  0.3471
 2228SOL    HW118317   0.789   0.524   6.494 -1.5589 -2.2595 -1.2902
 2228SOL    HW218318   0.806   0.380   6.537 -1.4123 -0.3271  1.8305
 2229SOL     OW18319   2.202   1.019   9.265  0.6277  0.4001 -0.5787
 2229SOL    HW118320   2.132   0.992   9.324 -0.4548  1.4573 -1.3719
 2229SOL    HW218321   2.222   1.100   9.312  1.1213 -1.6049  2.6511
 2230SOL     OW18322   2.679   1.066   4.557  0.3164  0.3009 -0.5815
 2230SOL    HW118323   2.731   1.023   4.490 -0.0525  1.7252 -1.7883
 2230SOL    HW218324   2.592   1.048   4.522 -0.2544 -0.4962  1.2831
 2231SOL     OW18325   4.038   0.781   8.837  0.4793 -0.2275 -0.5652
 2231SOL    HW118326   4.047   0.807   8.929 -1.3565  0.3873 -0.5665
 2231SOL    HW218327   3.988   0.855   8.803  0.4936 -0.7749 -1.7847
 2232SOL     OW18328   3.352   1.008   7.525  0.2055 -0.2361 -0.2073
 2232SOL    HW118329   3.285   1.023   7.458 -1.1513 -2.5660  0.6234
 2232SOL    HW218330   3.312   0.928   7.558  1.2003 -0.8280 -0.4526
 2233SOL     OW18331   4.111   1.190   5.365 -1.0137 -0.1307 -0.1385
 2233SOL    HW118332   4.183   1.146   5.321 -1.2613  0.2499 -0.9312
 2233SOL    HW218333   4.118   1.166   5.457 -0.3269 -0.7150 -0.3462
 2234SOL     OW18334   1.067   2.430   0.971  0.0379 -0.0655  0.2547
 2234SOL    HW118335   1.112   2.442   1.054 -1.1723  2.1336  0.5970
 2234SOL    HW218336   1.120   2.368   0.920  2.4368  0.7630  1.7424
 2235SOL     OW18337   0.270   3.949   5.816 -0.7487 -0.0044  0.2259
 2235SOL    HW118338   0.273   3.878   5.880  0.9987 -0.5072 -0.4130
 2235SOL    HW218339   0.317   3.909   5.744 -1.0738  0.7953 -0.4315
 2236SOL     OW18340   0.354   4.420   9.954 -0.6074  0.7001 -0.4674
 2236SOL    HW118341   0.445   4.447   9.954 -0.4484  0.1340 -1.4054
 2236SOL    HW218342   0.319   4.492  10.006  0.0560  0.4985  0.2595
 2237SOL     OW18343   1.466   1.806   1.771 -0.1430  1.0687 -0.1791
 2237SOL    HW118344   1.417   1.787   1.690 -0.3280 -0.5133  0.3057
 2237SOL    HW218345   1.515   1.874   1.726 -0.6324  0.0461 -2.2803
 2238SOL     OW18346   1.922   0.966   6.686 -0.0598 -0.6824 -0.1560
 2238SOL    HW118347   1.858   0.983   6.616 -2.4229  0.3947  2.2996
 2238SOL    HW218348   2.002   0.949   6.637  0.6453 -0.6971  1.0267
 2239SOL     OW18349   2.735   0.530  11.174  0.3068  0.3992 -0.4313
 2239SOL    HW118350   2.825   0.548  11.203  0.4259 -1.7934  0.5592
 2239SOL    HW218351   2.696   0.537  11.261  1.6498  0.6737  0.1583
 2240SOL     OW18352   4.346   3.180   4.996 -0.1161 -0.4448 -0.0321
 2240SOL    HW118353   4.290   3.156   5.070 -3.5167 -0.4224 -2.5884
 2240SOL    HW218354   4.290   3.167   4.919 -0.8924 -0.1898  0.4859
 2241SOL     OW18355   3.056   4.010   0.951  0.0193 -0.3871 -0.1028
 2241SOL    HW118356   3.120   3.956   0.999 -0.1470  0.3683  0.9646
 2241SOL    HW218357   2.989   4.010   1.020 -0.4226  2.2012 -0.5410
 2242SOL     OW18358   0.599   4.016   9.142  0.0275  0.4515 -0.4624
 2242SOL    HW118359   0.515   4.018   9.187  0.1777  0.1001 -0.1659
 2242SOL    HW218360   0.649   4.092   9.172  1.9255  0.0626 -2.6773
 2243SOL     OW18361   3.564   1.999   3.347 -0.2389  1.0055 -0.5434
 2243SOL    HW118362   3.506   1.925   3.365  0.4746  0.6777  0.4493
 2243SOL    HW218363   3.506   2.069   3.376  0.4538  0.3754  2.3310
 2244SOL     OW18364   1.593   2.086   8.790  0.1076 -0.4004  0.1735
 2244SOL    HW118365   1.560   2.176   8.793  1.5307  0.0373  3.0932
 2244SOL    HW218366   1.668   2.088   8.849  0.8573  0.0522 -0.8034
 2245SOL     OW18367   1.786   1.048   2.962 -0.0260  0.2116  0.0737
 2245SOL    HW118368   1.738   1.113   3.014  2.5162  1.6162  0.6338
 2245SOL    HW218369   1.868   1.042   3.010  0.0187  0.9115  0.0895
 2246SOL     OW18370   4.405   1.446  15.637 -0.6748 -0.6298 -0.0713
 2246SOL    HW118371   4.459   1.505  15.689  0.9098  0.1490 -2.5677
 2246SOL    HW218372   4.460   1.375  15.603 -0.7688 -0.3407 -0.8248
 2247SOL     OW18373   0.784   3.577   3.202 -0.6081  0.3651  0.2751
 2247SOL    HW118374   0.725   3.538   3.137 -1.0791 -2.4442  2.4033
 2247SOL    HW218375   0.746   3.666   3.207  0.2319  0.7764 -0.6994
 2248SOL     OW18376   3.668   3.477   8.730 -0.5021 -0.4671 -0.2166
 2248SOL    HW118377   3.666   3.532   8.651 -0.6047 -0.0616  0.0669
 2248SOL    HW218378   3.740   3.513   8.781 -0.9202 -1.5085  1.0974
 2249SOL     OW18379   4.352   1.675  16.963  0.0380  0.0843  0.0438
 2249SOL    HW118380   4.286   1.607  16.949  0.2374 -0.1285  0.1339
 2249SOL    HW218381   4.293   1.744  16.990 -0.7650  0.8927 -3.7872
 2250SOL     OW18382   2.877   0.169   5.945 -0.5104  0.2051  0.0184
 2250SOL    HW118383   2.880   0.113   6.023 -1.8180 -1.8210 -1.4006
 2250SOL    HW218384   2.952   0.227   5.956  1.4793 -2.5279  0.9300
 2251SOL     OW18385   4.367   0.783  16.545  0.3201 -0.2061  0.1027
 2251SOL    HW118386   4.367   0.742  16.458 -1.8715 -0.7635  0.3670
 2251SOL    HW218387   4.290   0.840  16.539 -0.6578 -1.6945 -1.5827
 2252SOL     OW18388   3.472   3.665   3.944  0.0936  0.5001  0.5310
 2252SOL    HW118389   3.540   3.720   3.905 -0.1074  1.3776  1.4348
 2252SOL    HW218390   3.394   3.718   3.930 -0.4977 -0.6990 -0.6907
 2253SOL     OW18391   1.772   1.925   8.649  0.2330  0.2379 -0.1494
 2253SOL    HW118392   1.687   1.936   8.693  0.5367 -1.7695  0.9198
 2253SOL    HW218393   1.798   1.837   8.674 -1.2549  0.4967  2.4174
 2254SOL     OW18394   1.968   2.999  15.856 -0.0631  0.2404  0.4927
 2254SOL    HW118395   1.986   3.087  15.889 -1.5012  0.5607  0.4162
 2254SOL    HW218396   1.882   3.018  15.820 -1.1507 -0.2374  2.8006
 2255SOL     OW18397   0.522   1.307  15.049  0.2999  0.0872  0.4519
 2255SOL    HW118398   0.435   1.291  15.013  0.4225  3.2052 -1.1967
 2255SOL    HW218399   0.578   1.294  14.973 -0.4906 -1.1499  0.0893
 2256SOL     OW18400   4.392   2.695   1.012  0.1530  0.0540 -0.0907
 2256SOL    HW118401   4.403   2.651   1.096 -2.6049  1.2021  0.8830
 2256SOL    HW218402   4.467   2.660   0.963  1.1652 -0.0605  1.5660
 2257SOL     OW18403   2.194   3.014  11.810 -0.6301  0.2540 -0.0515
 2257SOL    HW118404   2.255   3.065  11.863 -2.0185  3.2123 -1.2970
 2257SOL    HW218405   2.138   2.973  11.876 -3.3713  2.5547 -0.9261
 2258SOL     OW18406   1.695   0.408  11.455 -0.0610 -0.1727 -0.4004
 2258SOL    HW118407   1.614   0.459  11.460  0.1305  0.1243 -0.3257
 2258SOL    HW218408   1.675   0.345  11.386 -1.0724  1.0012 -1.1752
 2259SOL     OW18409   1.624   0.181   9.649  0.3840  0.0100 -0.1348
 2259SOL    HW118410   1.582   0.208   9.568 -4.5029 -0.1093  2.3098
 2259SOL    HW218411   1.664   0.096   9.631 -0.5162 -0.1539 -1.3391
 2260SOL     OW18412   3.020   1.220  13.813 -0.1623  0.4531  0.5540
 2260SOL    HW118413   2.978   1.293  13.769 -2.3633 -1.0628  0.1490
 2260SOL    HW218414   2.998   1.161  13.741 -0.1564 -1.5448  2.1971
 2261SOL     OW18415   2.511   0.193  16.704  1.3425  0.0186 -0.1665
 2261SOL    HW118416   2.488   0.234  16.621 -0.6241  0.7319  0.7138
 2261SOL    HW218417   2.421   0.190  16.737  1.0144  0.1538 -1.0516
 2262SOL     OW18418   0.366   2.464   2.644  0.1224 -0.1905  0.2029
 2262SOL    HW118419   0.317   2.523   2.702 -2.3924 -1.5226 -0.5832
 2262SOL    HW218420   0.417   2.528   2.595  0.9037 -1.9909 -1.2865
 2263SOL     OW18421   2.410   0.788   7.796  0.2222  0.5043 -0.7258
 2263SOL    HW118422   2.463   0.787   7.716  1.3075  2.2706 -0.0192
 2263SOL    HW218423   2.329   0.752   7.759  0.3682  1.0057 -1.5232
 2264SOL     OW18424   0.090   2.267   6.197  0.2161  0.2571 -0.3783
 2264SOL    HW118425   0.097   2.258   6.102  0.0533  2.1807 -0.5687
 2264SOL    HW218426   0.182   2.266   6.224  0.5458  1.9840 -1.4248
 2265SOL     OW18427   2.634   3.419   2.536 -0.1820  0.3075 -0.1736
 2265SOL    HW118428   2.680   3.499   2.508  0.7804 -0.4363 -0.7064
 2265SOL    HW218429   2.698   3.350   2.551  0.1671  0.0400 -2.9270
 2266SOL     OW18430   0.526   2.626   3.650 -0.0327 -0.3745  0.2300
 2266SOL    HW118431   0.481   2.632   3.734 -1.8077 -2.4225 -0.5854
 2266SOL    HW218432   0.568   2.712   3.647  0.9234 -0.8269  0.5514
 2267SOL     OW18433   1.025   1.780   7.666  0.2391  0.8708 -0.0995
 2267SOL    HW118434   0.959   1.750   7.604 -0.5858  3.0038 -0.2796
 2267SOL    HW218435   1.062   1.701   7.705  1.9433  1.0291 -1.3862
 2268SOL     OW18436   1.517   2.610  17.710  0.3328  0.2544 -0.1452
 2268SOL    HW118437   1.462   2.688  17.704  1.5681  1.0360 -1.4155
 2268SOL    HW218438   1.550   2.604  17.620 -1.7215 -2.0749 -0.7392
 2269SOL     OW18439   2.570   2.063   7.685  0.5895  0.2719  0.1170
 2269SOL    HW118440   2.566   2.009   7.764 -0.0167  1.5127  0.9445
 2269SOL    HW218441   2.628   2.009   7.631  2.1913 -0.3637  2.4817
 2270SOL     OW18442   0.966   1.177   3.192  0.3613  0.7873 -0.1738
 2270SOL    HW118443   0.947   1.268   3.170 -0.0558  0.1604 -2.4410
 2270SOL    HW218444   0.962   1.143   3.102 -1.6867  0.9767 -0.1509
 2271SOL     OW18445   4.180   2.490   5.985 -0.3659 -0.1842 -0.1358
 2271SOL    HW118446   4.164   2.399   5.960 -0.8548 -0.6692  1.9376
 2271SOL    HW218447   4.264   2.514   5.947 -2.8797  4.5915 -2.6263
 2272SOL     OW18448   0.781   3.633  17.222 -0.6805  0.1179  0.5252
 2272SOL    HW118449   0.846   3.660  17.157 -0.1550 -0.1338  0.9458
 2272SOL    HW218450   0.826   3.570  17.278  0.0559  0.3913  0.2344
 2273SOL     OW18451   2.243   3.218   6.134 -0.3889 -0.1106  0.6150
 2273SOL    HW118452   2.206   3.134   6.109  0.1710 -0.3845  0.7104
 2273SOL    HW218453   2.202   3.273   6.067  0.3397 -1.2075 -0.7316
 2274SOL     OW18454   3.155   1.973   7.366  0.3734  0.2554 -0.3782
 2274SOL    HW118455   3.207   2.053   7.362  2.6586 -1.2577 -1.1427
 2274SOL    HW218456   3.086   2.007   7.423 -0.7339 -1.2403 -0.7971
 2275SOL     OW18457   1.420   1.925   2.678  0.1130  0.1947 -0.5364
 2275SOL    HW118458   1.464   1.849   2.641 -1.0464 -0.2522 -0.9770
 2275SOL    HW218459   1.425   1.987   2.605 -1.0675  0.2662 -0.5590
 2276SOL     OW18460   3.267   1.313   5.663  0.0639 -0.3294  0.1416
 2276SOL    HW118461   3.229   1.361   5.589 -0.7152 -2.8276 -1.0912
 2276SOL    HW218462   3.191   1.257   5.676 -0.3558 -0.0349 -0.9655
 2277SOL     OW18463   1.139   1.328   4.983  0.0494  0.5767 -0.0469
 2277SOL    HW118464   1.106   1.357   4.898 -0.8741  0.5454  0.2944
 2277SOL    HW218465   1.217   1.276   4.966 -1.4576 -1.4544 -0.7260
 2278SOL     OW18466   2.563   4.197   9.385 -0.0339 -0.3878 -0.0644
 2278SOL    HW118467   2.637   4.137   9.399  0.4488  0.3029  0.3533
 2278SOL    HW218468   2.509   4.133   9.338  1.5417 -2.0236  0.3426
 2279SOL     OW18469   0.209   1.534   4.773  0.5538 -0.1848 -0.0169
 2279SOL    HW118470   0.287   1.480   4.765  1.1761  0.4279  1.8846
 2279SOL    HW218471   0.204   1.539   4.869 -0.8466 -0.5649 -0.0629
 2280SOL     OW18472   0.015   3.727   9.979  0.0040  0.3718  0.0629
 2280SOL    HW118473   4.714   3.770   9.903  0.2084  0.8044  0.2009
 2280SOL    HW218474   0.012   3.797  10.044  1.9490  1.0293 -0.5541
 2281SOL     OW18475   0.052   2.269  17.704  0.4342  0.1097  0.3666
 2281SOL    HW118476   0.088   2.254  17.616 -0.9606  1.3475 -0.4000
 2281SOL    HW218477   4.696   2.265  17.694  0.2582  1.0965  1.6334
 2282SOL     OW18478   0.968   0.274  14.983 -0.4885 -1.2504  0.4127
 2282SOL    HW118479   1.053   0.252  15.021  0.1247  0.7718  0.1638
 2282SOL    HW218480   0.918   0.192  14.986 -0.7255 -1.1542 -0.9033
 2283SOL     OW18481   1.578   2.893  11.764 -0.1583  0.2599 -0.2607
 2283SOL    HW118482   1.574   2.797  11.758  0.3839  0.1757  0.7783
 2283SOL    HW218483   1.562   2.908  11.857  2.1668  1.8697 -0.1217
 2284SOL     OW18484   3.346   3.885   2.767  0.1299 -0.4278  0.2538
 2284SOL    HW118485   3.288   3.819   2.729  1.5046 -1.6233  0.2425
 2284SOL    HW218486   3.413   3.828   2.805  0.4722  0.8616  1.6122
 2285SOL     OW18487   0.044   4.266   2.847  0.3504  0.0523  0.3675
 2285SOL    HW118488   0.040   4.302   2.758 -0.2258 -0.0924  0.3346
 2285SOL    HW218489   4.691   4.243   2.857  0.2760  0.6982  1.1253
 2286SOL     OW18490   4.569   2.840   4.084 -0.5070 -0.0609  0.2343
 2286SOL    HW118491   4.547   2.767   4.142 -2.2568 -1.6179 -2.4314
 2286SOL    HW218492   4.487   2.837   4.035  1.0552 -1.1835 -2.3282
 2287SOL     OW18493   3.821   2.107   5.882 -0.1278  0.5179 -0.6272
 2287SOL    HW118494   3.768   2.154   5.818 -1.0650  0.8053  0.3498
 2287SOL    HW218495   3.755   2.103   5.951 -1.4772 -1.2344 -2.0189
 2288SOL     OW18496   2.922   2.125   3.341 -0.7004 -0.0378  0.0278
 2288SOL    HW118497   2.869   2.116   3.262 -0.0539  0.5515 -0.4602
 2288SOL    HW218498   2.871   2.184   3.397  0.4661  0.0271  1.0319
 2289SOL     OW18499   0.299   3.385   9.247  0.5141  0.1613 -0.3584
 2289SOL    HW118500   0.288   3.433   9.329 -2.3391 -0.7010 -0.2487
 2289SOL    HW218501   0.387   3.347   9.247 -0.1988 -1.4793 -1.4436
 2290SOL     OW18502   1.397   0.932   8.208 -0.0243  0.0993  0.2210
 2290SOL    HW118503   1.440   0.908   8.290 -2.2240  1.4539  1.7763
 2290SOL    HW218504   1.334   0.862   8.193 -0.0294 -0.1399  1.3300
 2291SOL     OW18505   4.163   0.567   8.960 -0.0853 -0.0510  0.4053
 2291SOL    HW118506   4.189   0.614   9.039  1.4739  0.4007 -0.3988
 2291SOL    HW218507   4.130   0.641   8.910 -2.0001 -1.6992 -0.7772
 2292SOL     OW18508   4.413   4.090   9.207  0.4257  0.5936 -0.0448
 2292SOL    HW118509   4.494   4.056   9.246  0.6681 -0.9072 -1.8465
 2292SOL    HW218510   4.367   4.127   9.282 -1.8590  3.3616 -2.8414
 2293SOL     OW18511   4.596   0.979   1.054 -0.0789 -0.3644 -0.5587
 2293SOL    HW118512   4.666   1.022   1.004  2.6059 -1.8199  1.9844
 2293SOL    HW218513   4.517   1.004   1.005 -1.7821 -1.0529  1.8462
 2294SOL     OW18514   0.550   1.025   6.111  0.0735  0.2511  0.6017
 2294SOL    HW118515   0.542   1.004   6.204  1.2141 -1.9098  0.2206
 2294SOL    HW218516   0.529   1.118   6.111 -3.7972 -0.6298 -2.7700
 2295SOL     OW18517   0.335   3.448   0.954  0.6107 -0.3059 -0.1455
 2295SOL    HW118518   0.274   3.418   0.886  1.5125 -1.1688 -0.5754
 2295SOL    HW218519   0.394   3.373   0.943  0.3162 -0.4214 -0.9042
 2296SOL     OW18520   3.754   4.224   8.621  0.6089  0.7574 -0.1118
 2296SOL    HW118521   3.773   4.192   8.709  1.2008  0.9799 -0.1599
 2296SOL    HW218522   3.660   4.206   8.615  0.8245 -0.2994 -0.3429
 2297SOL     OW18523   3.268   0.044   8.639 -0.0478  0.0781 -0.2605
 2297SOL    HW118524   3.192   0.020   8.586 -1.4535 -0.3239  1.9092
 2297SOL    HW218525   3.333   0.069   8.573 -0.8710  5.1940  0.8401
 2298SOL     OW18526   3.656   0.826   0.405  0.0983  0.5530  0.9443
 2298SOL    HW118527   3.563   0.836   0.427 -0.1051  0.3951  0.1648
 2298SOL    HW218528   3.657   0.789   0.317  0.5640  0.7692  0.8620
 2299SOL     OW18529   4.682   4.599   3.283  0.1086 -0.3581  0.8434
 2299SOL    HW118530   0.025   4.595   3.331  0.6494  2.8641  0.1789
 2299SOL    HW218531   4.628   4.538   3.332  0.2752 -1.2144 -0.0513
 2300SOL     OW18532   3.621   3.293  12.004  0.0736 -0.3064  0.2584
 2300SOL    HW118533   3.684   3.221  11.999  1.9854  1.2895  1.2861
 2300SOL    HW218534   3.619   3.317  11.912 -0.5705 -0.2158  0.2989
 2301SOL     OW18535   2.562   3.254   8.479  0.2140 -0.6066  0.2305
 2301SOL    HW118536   2.520   3.338   8.500 -1.2853 -1.0130 -1.0706
 2301SOL    HW218537   2.653   3.279   8.492  0.1483 -0.1705 -0.1321
 2302SOL     OW18538   0.870   3.890  10.202  0.2383  0.3851  0.3625
 2302SOL    HW118539   0.861   3.910  10.295  1.6323  1.2239  0.3201
 2302SOL    HW218540   0.842   3.799  10.200  2.2802 -0.2416  0.7234
 2303SOL     OW18541   3.108   2.587   5.602  0.7271  0.3626  0.2184
 2303SOL    HW118542   3.114   2.537   5.521 -2.3789 -1.8904  1.3750
 2303SOL    HW218543   3.020   2.567   5.632  1.3769 -1.4445  0.8640
 2304SOL     OW18544   1.087   3.248   0.426  0.1218  0.2222  0.1414
 2304SOL    HW118545   1.037   3.285   0.354  0.3862 -0.8868 -0.6110
 2304SOL    HW218546   1.034   3.285   0.497 -1.7177  0.4065 -1.3439
 2305SOL     OW18547   3.731   0.717  12.259 -0.0498 -0.0509 -0.3009
 2305SOL    HW118548   3.696   0.805  12.269 -2.4001 -1.3820  3.1107
 2305SOL    HW218549   3.683   0.670  12.327  0.1117  0.1394 -0.0543
 2306SOL     OW18550   4.213   3.423   3.543  0.1070  0.1685 -0.4989
 2306SOL    HW118551   4.267   3.382   3.475 -0.0226 -0.8723  0.0222
 2306SOL    HW218552   4.264   3.399   3.620 -0.0448  1.8259  0.1099
 2307SOL     OW18553   2.239   0.350   7.323 -0.4136  0.1975  0.5425
 2307SOL    HW118554   2.302   0.322   7.390 -0.8799  0.0256  0.9069
 2307SOL    HW218555   2.189   0.269   7.311 -0.6354  0.6478 -1.4712
 2308SOL     OW18556   0.478   0.268   7.432  0.3378  0.5254 -0.1844
 2308SOL    HW118557   0.559   0.254   7.382 -0.4366  1.0523 -1.5826
 2308SOL    HW218558   0.444   0.179   7.437 -0.0429  0.7580  1.3679
 2309SOL     OW18559   3.485   4.199   8.003  0.3386 -0.9756 -0.3783
 2309SOL    HW118560   3.459   4.191   8.095  1.8200  1.8569  0.2781
 2309SOL    HW218561   3.434   4.278   7.986 -0.5725 -0.9340  2.4723
 2310SOL     OW18562   3.368   0.991   0.203  0.2929  0.5870 -0.3090
 2310SOL    HW118563   3.438   1.033   0.153  1.3829  0.0890  0.8008
 2310SOL    HW218564   3.304   1.062   0.211 -0.2129  0.0741  0.2030
 2311SOL     OW18565   2.421   2.566   3.478  0.1790 -0.1071  0.3234
 2311SOL    HW118566   2.479   2.597   3.407  0.4400 -1.0849  0.1066
 2311SOL    HW218567   2.369   2.644   3.498 -0.0261 -0.4010  0.9120
 2312SOL     OW18568   2.427   2.142   8.546  0.4389  0.7964  0.0431
 2312SOL    HW118569   2.348   2.195   8.557  0.5602  0.9524  0.1654
 2312SOL    HW218570   2.495   2.206   8.524 -0.7806  1.1593 -2.6927
 2313SOL     OW18571   1.044   1.822   1.215  0.2275 -0.0578  0.2339
 2313SOL    HW118572   0.953   1.808   1.239 -1.3460  1.8056 -4.5303
 2313SOL    HW218573   1.056   1.780   1.130 -1.2889 -2.2269  1.1015
 2314SOL     OW18574   2.689   3.977  17.683  0.0406  0.2659  0.2931
 2314SOL    HW118575   2.691   3.886  17.712 -0.5764  0.4462  0.9034
 2314SOL    HW218576   2.759   4.016  17.736 -0.9300  0.7375  1.2143
 2315SOL     OW18577   3.963   1.636   0.998 -0.1869  0.5349  0.1586
 2315SOL    HW118578   4.001   1.657   0.912  0.4845  3.4144  1.1447
 2315SOL    HW218579   3.996   1.546   1.003 -2.4525 -0.2324  1.3829
 2316SOL     OW18580   1.409   2.896   6.658 -0.8500  0.0024  0.0641
 2316SOL    HW118581   1.442   2.908   6.569 -2.9630 -2.7933 -1.0941
 2316SOL    HW218582   1.464   2.831   6.703  2.1478  1.3757 -1.6708
 2317SOL     OW18583   2.315   2.492   6.458  0.1452 -0.5535  0.4637
 2317SOL    HW118584   2.389   2.436   6.436 -0.2887 -0.8772 -0.1508
 2317SOL    HW218585   2.247   2.446   6.409 -0.0894  1.3575 -0.9954
 2318SOL     OW18586   2.746   2.363   6.709 -0.5719 -0.0356  0.6356
 2318SOL    HW118587   2.684   2.436   6.700  0.0368  0.5791  1.3571
 2318SOL    HW218588   2.826   2.408   6.737 -0.7874  1.2080 -0.7448
 2319SOL     OW18589   3.239   3.945   2.410  0.4374  0.6523  0.3851
 2319SOL    HW118590   3.224   4.004   2.484 -0.2054  0.5638  0.3278
 2319SOL    HW218591   3.266   4.011   2.347  0.9174 -0.0011 -0.0917
 2320SOL     OW18592   0.480   0.282   8.039  0.0475 -0.1908  0.0385
 2320SOL    HW118593   0.477   0.195   8.077 -2.1216 -0.6512 -1.1481
 2320SOL    HW218594   0.564   0.275   7.994  0.1661  1.6075 -0.0123
 2321SOL     OW18595   0.464   1.843   1.716 -0.2376  0.5869  0.0726
 2321SOL    HW118596   0.507   1.870   1.798 -1.7053 -0.6667  1.2608
 2321SOL    HW218597   0.507   1.900   1.653  2.1368  0.3246  1.4317
 2322SOL     OW18598   2.358   3.456   2.470  0.5502  0.3147  0.1246
 2322SOL    HW118599   2.450   3.458   2.496  0.6066  1.0564 -0.1182
 2322SOL    HW218600   2.348   3.390   2.402  0.1602  0.0653  0.4265
 2323SOL     OW18601   0.801   1.800  12.414  0.0185  0.0619 -0.3471
 2323SOL    HW118602   0.766   1.719  12.452  1.8284 -1.0318 -1.0299
 2323SOL    HW218603   0.722   1.822  12.366 -1.1813 -3.2993  0.1298
 2324SOL     OW18604   1.125   4.018   8.574  0.0608 -0.4003 -0.1769
 2324SOL    HW118605   1.174   3.958   8.518 -1.0305 -1.4685  0.0278
 2324SOL    HW218606   1.197   4.069   8.611  0.0759 -0.0433 -0.6968
 2325SOL     OW18607   1.169   0.439   0.483  0.0905  0.4362 -0.5068
 2325SOL    HW118608   1.094   0.487   0.448 -1.0505 -0.4740  0.7159
 2325SOL    HW218609   1.146   0.347   0.481 -1.0803  0.6593  1.9936
 2326SOL     OW18610   4.039   1.124  15.677 -0.8439  0.2277 -0.1919
 2326SOL    HW118611   3.974   1.156  15.615 -0.8921  2.1963  0.8930
 2326SOL    HW218612   4.010   1.171  15.756  1.5620  1.0769  0.1708
 2327SOL     OW18613   3.206   2.412  16.047  0.2270 -0.2422  0.7311
 2327SOL    HW118614   3.236   2.442  16.133 -2.4337  1.2014  1.1590
 2327SOL    HW218615   3.145   2.485  16.040 -0.2271 -0.3928  2.8686
 2328SOL     OW18616   1.972   4.605   7.697  0.3225 -0.2941  0.5554
 2328SOL    HW118617   1.893   4.553   7.685 -1.1213  1.6080  1.6855
 2328SOL    HW218618   1.973   4.667   7.625 -0.1868  0.0026  0.7992
 2329SOL     OW18619   3.736   0.021   7.966 -0.1464 -0.6563 -0.1906
 2329SOL    HW118620   3.666   0.037   8.030  0.0790 -0.7735  0.0849
 2329SOL    HW218621   3.806   0.080   7.994 -0.7344 -0.2244  0.3793
 2330SOL     OW18622   4.084   4.480   3.314 -0.2626  0.0217  0.2629
 2330SOL    HW118623   4.019   4.424   3.356 -1.1904 -1.2481 -2.8708
 2330SOL    HW218624   4.083   4.549   3.380 -1.0969 -0.0215  0.2925
 2331SOL     OW18625   0.559   2.812  16.852 -0.2907 -0.1805 -0.1866
 2331SOL    HW118626   0.586   2.721  16.842 -0.4325  0.0644 -2.7482
 2331SOL    HW218627   0.466   2.809  16.877 -0.5785 -3.8817 -1.7453
 2332SOL     OW18628   0.713   1.774   8.600 -0.3687  0.3383  0.6983
 2332SOL    HW118629   0.737   1.729   8.682  0.4747 -1.1017 -0.3472
 2332SOL    HW218630   0.640   1.723   8.567 -1.4017  1.7334  0.8373
 2333SOL     OW18631   2.434   2.816   7.390 -0.3351  0.6959  0.0475
 2333SOL    HW118632   2.408   2.908   7.394 -1.3391  0.3991  0.3549
 2333SOL    HW218633   2.352   2.775   7.363 -0.2223  0.5113 -0.0169
 2334SOL     OW18634   2.258   3.787  13.719 -0.6613  0.3187  0.9943
 2334SOL    HW118635   2.166   3.794  13.694  0.2736  2.2768 -1.8719
 2334SOL    HW218636   2.287   3.750  13.636 -1.2780 -0.8135  1.2868
 2335SOL     OW18637   1.134   1.975   5.837  0.8263 -0.2373 -0.0985
 2335SOL    HW118638   1.075   1.948   5.908  1.3225 -0.6911  0.1378
 2335SOL    HW218639   1.070   2.011   5.775  2.6935 -0.9485 -2.4139
 2336SOL     OW18640   1.270   3.919   7.488  0.6790  0.1920 -0.1241
 2336SOL    HW118641   1.312   3.907   7.573  1.4052  1.3889 -0.3094
 2336SOL    HW218642   1.178   3.901   7.507  1.0301  0.2408  1.6078
 2337SOL     OW18643   0.841   4.476   7.079 -0.0927  0.4115  0.5790
 2337SOL    HW118644   0.807   4.430   7.156  1.4643  1.0242  1.6227
 2337SOL    HW218645   0.804   4.420   7.010 -1.1298  2.3236 -0.3974
 2338SOL     OW18646   3.643   0.635   7.618  0.0028 -0.0488  0.0570
 2338SOL    HW118647   3.714   0.682   7.574 -0.2610  0.6053  0.3298
 2338SOL    HW218648   3.588   0.619   7.541 -3.2025  1.9693  1.9503
 2339SOL     OW18649   2.336   0.771   2.285 -0.8432  0.4682 -0.7675
 2339SOL    HW118650   2.424   0.748   2.316 -0.6767  1.1151 -0.7447
 2339SOL    HW218651   2.299   0.700   2.233  2.8060 -0.6848 -1.8151
 2340SOL     OW18652   3.681   1.260   3.583  0.0176  0.1538  0.2219
 2340SOL    HW118653   3.586   1.256   3.569  0.3671 -1.8351 -1.5167
 2340SOL    HW218654   3.719   1.185   3.537  0.0232 -0.5066  1.3031
 2341SOL     OW18655   0.579   1.004  11.671 -0.2448  0.6497 -0.1607
 2341SOL    HW118656   0.649   1.001  11.737 -0.1579 -0.3244 -0.2946
 2341SOL    HW218657   0.525   0.929  11.696 -0.2198  1.0910  1.1985
 2342SOL     OW18658   2.230   3.886   5.590  0.1101  0.1769 -0.4055
 2342SOL    HW118659   2.268   3.966   5.628 -0.4231  0.4331 -0.4092
 2342SOL    HW218660   2.309   3.833   5.576 -1.6696 -2.7057  0.6564
 2343SOL     OW18661   2.534   0.041   9.451 -0.2780 -0.4399  0.0465
 2343SOL    HW118662   2.541   0.124   9.499 -2.0546 -0.4003  0.2401
 2343SOL    HW218663   2.566   4.717   9.515  2.1638 -1.0720 -1.8219
 2344SOL     OW18664   3.563   4.410  12.784  0.0309  0.2453 -0.5672
 2344SOL    HW118665   3.471   4.386  12.797  0.1692 -0.9200 -1.8684
 2344SOL    HW218666   3.611   4.347  12.838  0.5890  0.6150 -0.6389
 2345SOL     OW18667   4.150   4.229   6.171 -0.3283 -0.4942 -0.2693
 2345SOL    HW118668   4.081   4.288   6.201 -1.6795 -1.4710 -1.4997
 2345SOL    HW218669   4.112   4.209   6.086  1.0794  1.1650 -1.2803
 2346SOL     OW18670   4.432   0.064  16.351 -0.0016 -0.1211 -0.3123
 2346SOL    HW118671   4.519   0.036  16.321  1.2398  1.7790  1.5053
 2346SOL    HW218672   4.464   0.144  16.393 -2.0597  1.0915 -1.0620
 2347SOL     OW18673   3.866   2.921  15.423 -0.6241 -0.5163 -0.7049
 2347SOL    HW118674   3.916   3.002  15.427  0.7644 -1.4508  0.8158
 2347SOL    HW218675   3.802   2.926  15.493 -0.6382  0.7475 -0.8052
 2348SOL     OW18676   0.080   2.150   5.606  0.4128  0.2369 -0.0136
 2348SOL    HW118677   0.088   2.202   5.525  1.1804  1.3437  0.7707
 2348SOL    HW218678   0.122   2.069   5.578  3.1606  1.3126  1.1031
 2349SOL     OW18679   0.237   1.499   5.178 -0.2755  0.9665 -0.1340
 2349SOL    HW118680   0.261   1.482   5.269  4.5953  1.7285 -1.2696
 2349SOL    HW218681   0.262   1.417   5.136 -0.6625  0.9653 -0.3690
 2350SOL     OW18682   3.495   2.536   6.344  0.2078 -0.0868 -0.0465
 2350SOL    HW118683   3.473   2.629   6.337  0.4024  0.2142  3.0531
 2350SOL    HW218684   3.562   2.532   6.275 -0.7697  0.0750 -1.0012
 2351SOL     OW18685   1.293   1.677   4.538 -0.2798  0.4745 -0.5919
 2351SOL    HW118686   1.365   1.717   4.490 -1.9125  2.1126 -1.7006
 2351SOL    HW218687   1.252   1.619   4.475 -1.8959 -0.1950  1.0535
 2352SOL     OW18688   1.626   0.203  13.840 -0.5256  0.3900  0.3925
 2352SOL    HW118689   1.625   0.141  13.767 -0.5876  1.5762 -0.6021
 2352SOL    HW218690   1.720   0.219  13.840 -0.4788  0.1109 -2.1657
 2353SOL     OW18691   0.062   0.709   7.246  0.2393  0.6669 -0.4538
 2353SOL    HW118692   4.717   0.744   7.275  0.2860 -0.3228  0.8367
 2353SOL    HW218693   0.078   0.771   7.174  1.2460  1.1789  0.2181
 2354SOL     OW18694   1.068   0.390  14.403 -0.6292 -0.2906  0.5121
 2354SOL    HW118695   1.152   0.346  14.394 -1.1171 -0.6406 -2.2900
 2354SOL    HW218696   1.018   0.326  14.453  0.5525 -1.8278 -0.2373
 2355SOL     OW18697   0.217   1.207   4.412 -0.5358  0.6343  0.8106
 2355SOL    HW118698   0.226   1.302   4.416 -1.9294  0.7864 -0.0071
 2355SOL    HW218699   0.179   1.188   4.498 -3.0037  2.1871  0.0572
 2356SOL     OW18700   2.297   4.354  15.382 -0.0513  0.0162 -0.0810
 2356SOL    HW118701   2.368   4.292  15.398 -1.1317 -0.7983  1.4997
 2356SOL    HW218702   2.253   4.322  15.303  0.5386  2.7813 -1.5151
 2357SOL     OW18703   1.680   2.529   6.032 -0.3479  0.1162 -0.0913
 2357SOL    HW118704   1.737   2.575   5.969  1.6662 -1.0309  0.8901
 2357SOL    HW218705   1.601   2.521   5.979  1.0053  0.0366 -2.0863
 2358SOL     OW18706   1.476   1.675   5.561 -0.3866  0.6679 -0.2021
 2358SOL    HW118707   1.432   1.592   5.578  0.3698  0.1471 -0.7802
 2358SOL    HW218708   1.481   1.668   5.466 -0.8242 -0.9193 -0.0958
 2359SOL     OW18709   3.874   4.402   8.469  0.3313  0.3922 -0.1241
 2359SOL    HW118710   3.841   4.320   8.505  0.1765  0.4364 -0.1612
 2359SOL    HW218711   3.851   4.400   8.376 -2.2389 -0.2745  0.5192
 2360SOL     OW18712   4.693   4.415   7.273 -0.7243 -0.2172  0.0030
 2360SOL    HW118713   4.672   4.462   7.192  1.2512  1.8398  0.6947
 2360SOL    HW218714   4.733   4.482   7.328 -0.8154  0.8721 -1.2389
 2361SOL     OW18715   0.397   2.187   1.717 -0.2689  0.6125 -0.7401
 2361SOL    HW118716   0.487   2.180   1.748 -0.3660 -2.0202 -1.0753
 2361SOL    HW218717   0.409   2.227   1.631  0.0544  1.1105 -0.4646
 2362SOL     OW18718   0.152   2.502   1.908 -0.2713  0.1646  0.8798
 2362SOL    HW118719   0.170   2.425   1.962  0.0704 -0.1380  0.3346
 2362SOL    HW218720   0.241   2.537   1.906  0.2025 -1.1571 -1.1228
 2363SOL     OW18721   3.523   4.539  15.612  0.2955  0.0652  0.2054
 2363SOL    HW118722   3.543   4.537  15.706  2.5934  1.1549 -0.2476
 2363SOL    HW218723   3.431   4.517  15.624  0.2002 -0.8263 -2.2125
 2364SOL     OW18724   1.640   4.064   8.540  0.7348  0.4238 -0.0397
 2364SOL    HW118725   1.576   4.095   8.605 -0.0682 -2.7580  0.6615
 2364SOL    HW218726   1.598   4.097   8.460 -1.3757 -2.0068  0.0617
 2365SOL     OW18727   4.031   1.207  12.718 -0.5098  0.0989  0.2048
 2365SOL    HW118728   4.010   1.297  12.745 -0.0612 -0.1791  1.4633
 2365SOL    HW218729   4.127   1.212  12.720 -0.4326 -0.7511 -1.2767
 2366SOL     OW18730   1.799   3.634   6.187 -0.0640 -0.2993 -0.4338
 2366SOL    HW118731   1.723   3.649   6.131  1.8879 -2.8627 -3.7479
 2366SOL    HW218732   1.753   3.580   6.251 -0.3936 -0.6259 -0.9477
 2367SOL     OW18733   2.341   4.238   8.189  0.0306  0.2686 -0.6469
 2367SOL    HW118734   2.368   4.292   8.264  1.7751 -1.2647 -0.1735
 2367SOL    HW218735   2.403   4.167   8.205 -0.8959 -0.0752  1.4482
 2368SOL     OW18736   3.946   0.248   9.202  0.5802  0.5167  0.1069
 2368SOL    HW118737   3.973   0.340   9.206  1.2281  0.3123  0.5498
 2368SOL    HW218738   3.949   0.237   9.107 -1.0122 -0.2778  0.1488
 2369SOL     OW18739   1.568   0.154   6.869 -0.2516 -0.0632 -0.4494
 2369SOL    HW118740   1.507   0.180   6.938 -1.6833 -0.0781 -1.6995
 2369SOL    HW218741   1.589   0.238   6.827  0.3539  0.8672  1.7449
 2370SOL     OW18742   1.530   0.512   3.789  0.0555 -0.6463  0.0069
 2370SOL    HW118743   1.475   0.435   3.776  0.7431 -1.2460  0.6180
 2370SOL    HW218744   1.488   0.560   3.860  0.3275 -1.7936  0.9448
 2371SOL     OW18745   0.677   0.277  10.156 -0.2468 -0.6584  0.1405
 2371SOL    HW118746   0.661   0.224  10.235  0.6699 -0.8247  0.2230
 2371SOL    HW218747   0.587   0.297  10.132  0.2582  0.7870 -0.5106
 2372SOL     OW18748   1.425   2.920   4.356  0.3057 -0.2299 -0.1763
 2372SOL    HW118749   1.380   2.942   4.274 -1.7744 -0.7568  0.8183
 2372SOL    HW218750   1.513   2.955   4.345  0.7063 -1.0531  0.4625
 2373SOL     OW18751   2.947   3.247   9.963  0.2943  0.5083 -0.4252
 2373SOL    HW118752   3.001   3.172   9.940  2.5450  2.1900 -0.7262
 2373SOL    HW218753   2.961   3.307   9.890 -1.5257  0.7380 -0.5632
 2374SOL     OW18754   2.241   3.336  16.170  0.4052 -0.3034 -0.3770
 2374SOL    HW118755   2.306   3.340  16.240 -1.7376  0.8400  1.5145
 2374SOL    HW218756   2.169   3.394  16.194  0.6285  0.1139 -0.7100
 2375SOL     OW18757   0.967   4.355   7.690 -0.6637 -0.0309 -0.4867
 2375SOL    HW118758   1.009   4.411   7.755 -1.4388 -0.5855  0.5015
 2375SOL    HW218759   0.886   4.405   7.676 -0.8931 -1.1687 -3.1942
 2376SOL     OW18760   1.029   1.304   0.381  0.7212  0.2312  0.3474
 2376SOL    HW118761   1.010   1.234   0.319  0.9117 -0.8601  1.5123
 2376SOL    HW218762   0.988   1.275   0.463  2.0654  2.1370  1.7124
 2377SOL     OW18763   3.602   1.438   7.736 -0.4597  0.6664 -0.1092
 2377SOL    HW118764   3.620   1.479   7.652  0.4305 -0.7742 -0.6142
 2377SOL    HW218765   3.606   1.342   7.734  0.7066  0.7228 -0.4206
 2378SOL     OW18766   0.935   1.764   4.228 -0.3352 -0.8726 -1.1635
 2378SOL    HW118767   0.890   1.807   4.155 -0.3398  1.8993  0.5112
 2378SOL    HW218768   0.859   1.722   4.269 -0.8913  1.9851  0.7132
 2379SOL     OW18769   1.682   1.528  17.605 -0.0382 -0.0911  0.3510
 2379SOL    HW118770   1.777   1.544  17.610  0.1107 -0.3950 -1.3048
 2379SOL    HW218771   1.648   1.583  17.675 -0.8728  0.0241 -0.1418
 2380SOL     OW18772   3.304   1.928  15.377 -0.3126 -0.5415 -0.2805
 2380SOL    HW118773   3.255   1.885  15.447  0.3310  0.3275  0.7082
 2380SOL    HW218774   3.247   2.003  15.366 -0.5304 -0.5011  1.1800
 2381SOL     OW18775   4.445   2.399   3.509 -0.1931  0.0064  0.4216
 2381SOL    HW118776   4.425   2.359   3.424 -0.4781  0.9298  0.0626
 2381SOL    HW218777   4.394   2.479   3.501  0.9686  0.8254  1.2626
 2382SOL     OW18778   1.994   2.950  12.045  0.1503 -0.1320  0.3902
 2382SOL    HW118779   1.992   2.862  12.084 -2.4985 -0.9039 -1.5051
 2382SOL    HW218780   1.901   2.971  12.052 -0.0611 -0.7592 -0.5586
 2383SOL     OW18781   4.125   1.891   1.880  0.3450 -0.4890 -0.2285
 2383SOL    HW118782   4.094   1.807   1.846 -1.0355  0.0469 -0.3010
 2383SOL    HW218783   4.049   1.946   1.863  0.4625 -0.8192 -1.7500
 2384SOL     OW18784   0.319   2.861  10.666  0.3908  0.2042  0.2559
 2384SOL    HW118785   0.380   2.861  10.739  1.6083  1.1750 -0.7467
 2384SOL    HW218786   0.269   2.786  10.698  0.3520  0.5075  0.9154
 2385SOL     OW18787   0.171   0.999   3.021 -0.4910  0.3085  1.1285
 2385SOL    HW118788   0.227   1.038   3.087 -2.4075  0.2141  2.8292
 2385SOL    HW218789   0.139   0.924   3.071 -0.1870  0.3948  1.4438
 2386SOL     OW18790   4.202   1.664   2.095  0.2270 -0.3169  0.9458
 2386SOL    HW118791   4.172   1.578   2.065 -1.3616  0.4723  0.2388
 2386SOL    HW218792   4.267   1.671   2.026 -0.5897 -2.9919 -0.1189
 2387SOL     OW18793   0.857   4.644  13.588  0.4404 -0.2784  0.2411
 2387SOL    HW118794   0.870   4.738  13.575  3.1133 -0.4286  1.9523
 2387SOL    HW218795   0.945   4.627  13.555  0.5609 -0.3263  0.5981
 2388SOL     OW18796   4.248   3.393   1.689 -0.3788  0.7285  0.3691
 2388SOL    HW118797   4.154   3.380   1.692 -0.4884  1.9474  1.6478
 2388SOL    HW218798   4.264   3.487   1.687  0.6968  0.5192 -2.1324
 2389SOL     OW18799   3.711   2.123   3.122  0.2031 -0.5217  0.6169
 2389SOL    HW118800   3.709   2.057   3.052  0.4476  0.4311 -0.2744
 2389SOL    HW218801   3.667   2.074   3.192 -2.7554  0.8869 -0.2469
 2390SOL     OW18802   1.626   0.919   4.047 -0.1546  0.4927 -0.1182
 2390SOL    HW118803   1.675   0.838   4.062 -1.3065 -0.1424  0.2053
 2390SOL    HW218804   1.707   0.968   4.033 -0.1388 -0.0059 -1.8023
 2391SOL     OW18805   0.706   0.649   6.756  0.3315 -0.0352  0.1357
 2391SOL    HW118806   0.730   0.591   6.683 -2.3354  0.3721 -1.0639
 2391SOL    HW218807   0.610   0.653   6.749  0.0219 -0.0336  4.3628
 2392SOL     OW18808   3.900   4.430   3.541 -0.0811  0.3315 -0.1890
 2392SOL    HW118809   3.918   4.522   3.561  0.0600  0.2369  0.1215
 2392SOL    HW218810   3.849   4.400   3.616 -1.3493  0.6365 -0.9341
 2393SOL     OW18811   3.606   3.015   1.462  0.4761 -0.1021 -0.1954
 2393SOL    HW118812   3.608   3.072   1.539  0.3250 -1.8949  1.1298
 2393SOL    HW218813   3.542   3.059   1.405 -0.1446  0.1897  0.7272
 2394SOL     OW18814   1.246   4.710   3.037 -0.3634  0.3946 -0.1639
 2394SOL    HW118815   1.160   0.010   3.051 -0.9521 -0.8287 -0.4256
 2394SOL    HW218816   1.260   4.696   3.131  0.1316  0.8913 -0.1653
 2395SOL     OW18817   1.631   1.943   6.843 -0.5059 -0.3482  0.3713
 2395SOL    HW118818   1.575   1.892   6.902  0.1190 -2.3007 -0.6904
 2395SOL    HW218819   1.671   1.871   6.794 -0.8983  0.3665 -1.0140
 2396SOL     OW18820   3.197   1.929  13.427  0.7433  0.3692  0.0789
 2396SOL    HW118821   3.160   1.983  13.357 -0.9968 -0.6960  0.1777
 2396SOL    HW218822   3.260   1.869  13.386 -1.1809  0.0312 -2.4390
 2397SOL     OW18823   2.147   3.179   1.971 -0.3061 -0.4409  0.2723
 2397SOL    HW118824   2.187   3.255   2.012 -1.1380  0.1967 -0.1081
 2397SOL    HW218825   2.169   3.107   2.030 -3.0523 -2.3388 -1.0046
 2398SOL     OW18826   2.562   1.883   1.167 -0.6468  0.1531  0.2804
 2398SOL    HW118827   2.597   1.872   1.256  1.7245  0.7530 -0.5876
 2398SOL    HW218828   2.612   1.821   1.114 -0.6655 -0.6300  1.1588
 2399SOL     OW18829   1.966   4.448   5.206  0.0109  0.4144 -0.1626
 2399SOL    HW118830   1.919   4.435   5.123  0.3215 -1.1678 -0.0845
 2399SOL    HW218831   2.050   4.487   5.181 -0.5880  0.9514 -1.3514
 2400SOL     OW18832   3.954   1.043  16.913  0.0045 -0.0968 -0.1097
 2400SOL    HW118833   3.874   1.010  16.872 -1.1329 -0.4225  2.3432
 2400SOL    HW218834   3.959   0.975  16.981 -1.0871  0.3247  0.3835
 2401SOL     OW18835   0.226   1.181   0.064  0.4077  0.7977  0.1441
 2401SOL    HW118836   0.197   1.180   0.155 -0.1050 -1.9535 -0.0528
 2401SOL    HW218837   0.147   1.223   0.031 -0.7619 -0.3142  1.5073
 2402SOL     OW18838   0.611   4.511   1.793 -0.1039 -0.0480  0.5765
 2402SOL    HW118839   0.631   4.557   1.874 -1.3148 -0.9919  1.4183
 2402SOL    HW218840   0.699   4.508   1.756 -0.4891  2.0146 -0.4723
 2403SOL     OW18841   1.703   1.912   3.317  0.0252 -0.0438  0.3374
 2403SOL    HW118842   1.610   1.890   3.310  0.1693 -1.2236  2.2899
 2403SOL    HW218843   1.738   1.889   3.231 -0.2623  0.1808  0.1589
 2404SOL     OW18844   1.861   2.176   7.407 -0.3402 -0.3019 -0.0949
 2404SOL    HW118845   1.855   2.081   7.419 -2.3151 -0.3254 -1.2185
 2404SOL    HW218846   1.862   2.204   7.499  0.6455  2.8815 -1.0799
 2405SOL     OW18847   3.403   1.215  15.068 -0.2655 -0.1317 -0.1358
 2405SOL    HW118848   3.371   1.285  15.010 -0.1565  1.1363  1.3270
 2405SOL    HW218849   3.496   1.239  15.070  0.0466 -1.4680  1.3698
 2406SOL     OW18850   3.063   1.873   3.725  0.0656  0.2832  0.5583
 2406SOL    HW118851   3.147   1.837   3.697 -0.4389  0.4597 -1.1774
 2406SOL    HW218852   3.076   1.919   3.807  2.5088 -0.4518  0.5731
 2407SOL     OW18853   0.688   0.894  17.680 -0.0702  0.1172 -0.2332
 2407SOL    HW118854   0.733   0.978  17.680  1.2997 -0.6102  1.1331
 2407SOL    HW218855   0.734   0.852  17.607 -1.4124 -1.9306  0.0882
 2408SOL     OW18856   3.355   3.090   8.706 -0.0531  0.2133  0.3967
 2408SOL    HW118857   3.351   3.185   8.719 -0.7357 -0.1067  2.4440
 2408SOL    HW218858   3.447   3.077   8.730 -0.3604  0.5125  1.7166
 2409SOL     OW18859   4.721   3.477   9.850 -0.0512 -0.5218  0.1079
 2409SOL    HW118860   4.715   3.557   9.902 -1.1898 -0.2565 -0.4262
 2409SOL    HW218861   0.026   3.426   9.917  1.3014 -0.0406 -0.4136
 2410SOL     OW18862   4.006   3.755  16.105 -0.4335  0.0672  0.0755
 2410SOL    HW118863   4.027   3.692  16.174  1.1201  0.8201  0.3059
 2410SOL    HW218864   3.984   3.822  16.170 -0.1057 -0.8580  1.1145
 2411SOL     OW18865   2.663   3.187   4.051  0.7396 -0.3030  0.1920
 2411SOL    HW118866   2.637   3.106   4.095 -0.7802  0.8210  1.3902
 2411SOL    HW218867   2.601   3.184   3.978 -0.5959 -0.8073  1.3345
 2412SOL     OW18868   3.822   3.799   5.514  0.2454 -0.6998  0.4545
 2412SOL    HW118869   3.753   3.832   5.572  1.4777  1.8685  0.4742
 2412SOL    HW218870   3.781   3.722   5.475 -1.1788 -0.1122  0.7868
 2413SOL     OW18871   1.648   4.594   4.542 -0.2355  0.0077  0.0597
 2413SOL    HW118872   1.614   4.522   4.489 -0.8175 -0.0782  0.5553
 2413SOL    HW218873   1.571   4.616   4.595 -0.5746  0.4324 -0.6121
 2414SOL     OW18874   3.777   1.268   8.260 -0.0578 -0.4030  0.1785
 2414SOL    HW118875   3.822   1.228   8.334  0.2477  0.7859  0.6364
 2414SOL    HW218876   3.815   1.356   8.253  0.6190 -0.7403 -0.3826
 2415SOL     OW18877   1.762   3.665   4.296 -0.4809 -0.4541 -0.0323
 2415SOL    HW118878   1.850   3.677   4.261  0.8757 -2.0423  2.7879
 2415SOL    HW218879   1.722   3.599   4.240 -1.2807 -0.2694  0.3155
 2416SOL     OW18880   2.331   4.707   9.294 -0.3201  0.1058  0.0644
 2416SOL    HW118881   2.311   0.042   9.351 -1.0423  0.2943 -0.4327
 2416SOL    HW218882   2.418   4.686   9.327 -0.3512 -0.7412 -0.4048
 2417SOL     OW18883   3.463   3.754   4.876  1.2336  0.1753  0.1257
 2417SOL    HW118884   3.388   3.694   4.877  1.2387  0.1630 -0.1835
 2417SOL    HW218885   3.422   3.837   4.851 -0.3234 -0.2884  1.1440
 2418SOL     OW18886   1.964   4.091   5.227  0.1064  0.1494  0.2150
 2418SOL    HW118887   1.925   4.176   5.248 -0.8985  0.5197 -3.1550
 2418SOL    HW218888   2.057   4.096   5.251 -0.3743 -0.0002  2.0972
 2419SOL     OW18889   4.308   1.756   8.547 -0.1737  0.6996  0.0492
 2419SOL    HW118890   4.277   1.808   8.621 -3.1703 -1.4155  0.2890
 2419SOL    HW218891   4.402   1.762   8.564 -0.4168 -1.6177  2.1062
 2420SOL     OW18892   0.911   1.525   5.032  0.2216  0.1492  0.2533
 2420SOL    HW118893   0.963   1.495   5.106 -1.4077 -1.4184  0.7663
 2420SOL    HW218894   0.873   1.440   5.010 -0.6119  0.3023  1.1036
 2421SOL     OW18895   0.819   0.300  15.327  0.1226 -0.0059  0.0761
 2421SOL    HW118896   0.774   0.300  15.242 -1.3662  0.7124  0.8704
 2421SOL    HW218897   0.875   0.222  15.327  0.7658  0.4647  0.1463
 2422SOL     OW18898   1.847   2.368   2.968  0.0484  0.6013 -0.4707
 2422SOL    HW118899   1.840   2.463   2.968 -0.5361  0.5585  1.8352
 2422SOL    HW218900   1.939   2.357   2.945  0.8568 -0.9653  3.4516
 2423SOL     OW18901   0.302   3.551   3.961 -0.0897 -0.0672  0.0182
 2423SOL    HW118902   0.339   3.529   3.876  0.8067 -1.2168  0.7131
 2423SOL    HW218903   0.323   3.643   3.977 -2.8768  0.7387 -0.8915
 2424SOL     OW18904   4.563   0.498  17.714 -0.2736 -0.4934 -0.0601
 2424SOL    HW118905   4.611   0.439   0.018 -0.3265 -0.8862 -0.4182
 2424SOL    HW218906   4.552   0.441  17.638  1.2856  1.8306 -2.0383
 2425SOL     OW18907   1.833   3.772   3.594 -0.1150  0.3055 -0.7533
 2425SOL    HW118908   1.806   3.809   3.678 -3.7060 -1.4378 -1.1627
 2425SOL    HW218909   1.918   3.815   3.585  0.4358 -0.0934  2.3765
 2426SOL     OW18910   1.949   3.823   3.159  0.3504  0.2905  0.1661
 2426SOL    HW118911   1.945   3.877   3.080  0.6056  2.0264  1.3247
 2426SOL    HW218912   2.020   3.761   3.139  1.1021  0.5583  2.0327
 2427SOL     OW18913   0.354   3.123   3.136 -0.3114  0.1015 -0.5992
 2427SOL    HW118914   0.355   3.170   3.053 -0.9034  2.4102  0.6949
 2427SOL    HW218915   0.291   3.178   3.184 -1.1107  0.3617 -1.9455
 2428SOL     OW18916   0.604   2.293   2.653  0.0533  0.1850 -0.1734
 2428SOL    HW118917   0.613   2.200   2.630  1.5224  0.3619 -0.2746
 2428SOL    HW218918   0.510   2.305   2.667  0.2521  1.0410  0.4602
 2429SOL     OW18919   1.139   1.891   2.602 -0.3817 -0.5965 -0.1966
 2429SOL    HW118920   1.089   1.968   2.573  0.7103 -0.3713 -1.4899
 2429SOL    HW218921   1.209   1.934   2.650 -2.0481  1.9905 -0.0814
 2430SOL     OW18922   0.542   2.791  12.929  0.3082  0.0939 -0.0210
 2430SOL    HW118923   0.447   2.779  12.924  0.1726 -0.1289  2.7742
 2430SOL    HW218924   0.556   2.833  12.844  2.1928 -0.7568 -0.1337
 2431SOL     OW18925   3.901   4.366   5.570 -0.4235  0.1266  0.4805
 2431SOL    HW118926   3.832   4.370   5.636 -0.8041 -0.6294  0.1141
 2431SOL    HW218927   3.937   4.455   5.573 -0.3558  0.1252 -0.3189
 2432SOL     OW18928   2.322   4.546   8.682 -0.2390 -0.1909  0.1552
 2432SOL    HW118929   2.230   4.542   8.657 -0.1478 -0.5352 -0.1305
 2432SOL    HW218930   2.354   4.622   8.634  1.8040 -0.4025  1.1543
 2433SOL     OW18931   3.761   0.465   2.683 -0.1253  0.0339  0.4961
 2433SOL    HW118932   3.799   0.505   2.761 -0.1128 -0.9915  1.0163
 2433SOL    HW218933   3.705   0.403   2.730  0.3783 -0.6879  0.1528
 2434SOL     OW18934   4.110   1.882   7.705  0.2992 -0.3164  0.2064
 2434SOL    HW118935   4.090   1.810   7.645 -1.2334 -1.0057  1.5306
 2434SOL    HW218936   4.152   1.943   7.645  2.3524 -1.0036  0.9555
 2435SOL     OW18937   3.239   2.392   2.395  0.2173 -0.3788  0.5117
 2435SOL    HW118938   3.321   2.343   2.387  1.4902  1.5703  1.6026
 2435SOL    HW218939   3.241   2.420   2.486 -0.6456  2.9514 -0.4926
 2436SOL     OW18940   1.558   1.013  11.844 -0.0259 -0.2687  0.6707
 2436SOL    HW118941   1.492   0.946  11.826 -1.4211  0.3928  3.2526
 2436SOL    HW218942   1.636   0.963  11.821 -1.4971 -1.8999 -0.8061
 2437SOL     OW18943   1.163   0.787   4.155  0.8498 -0.3342  0.4295
 2437SOL    HW118944   1.211   0.802   4.074  1.4131 -2.5983  0.3373
 2437SOL    HW218945   1.079   0.752   4.126  0.3411  0.9887  0.3222
 2438SOL     OW18946   0.648   1.119   7.717 -0.7267  0.1620  0.0079
 2438SOL    HW118947   0.638   1.057   7.645  0.1800 -0.5573  0.5046
 2438SOL    HW218948   0.575   1.179   7.701 -1.1970 -0.6062 -0.7248
 2439SOL     OW18949   0.130   1.361   2.430  0.4289  0.4387  0.3545
 2439SOL    HW118950   0.058   1.383   2.490  0.3372  0.8325  0.1014
 2439SOL    HW218951   0.146   1.453   2.411  0.3713  0.8112  2.1849
 2440SOL     OW18952   3.641   1.096   6.488  0.1403  0.5306  0.3453
 2440SOL    HW118953   3.638   1.177   6.539  0.9407  0.3041  0.7672
 2440SOL    HW218954   3.655   1.028   6.554  1.2111 -1.3730 -1.8397
 2441SOL     OW18955   3.373   0.842   7.106 -0.2524  0.0496 -0.0282
 2441SOL    HW118956   3.367   0.930   7.071  0.1010  0.2977  0.5453
 2441SOL    HW218957   3.446   0.806   7.055 -1.5671 -2.9301  0.1903
 2442SOL     OW18958   3.327   2.714   6.665  0.2168 -0.1838 -0.5034
 2442SOL    HW118959   3.273   2.684   6.738 -0.4889  0.9844 -0.5373
 2442SOL    HW218960   3.260   2.762   6.616 -0.4078 -0.5422 -0.0055
 2443SOL     OW18961   1.785   3.807   6.512 -0.2732 -0.3179 -0.4793
 2443SOL    HW118962   1.692   3.785   6.503 -0.0150 -1.2473 -0.8266
 2443SOL    HW218963   1.809   3.725   6.554  0.0807  0.0865  0.1085
 2444SOL     OW18964   3.618   0.722   2.478 -0.0424  0.1757 -0.0584
 2444SOL    HW118965   3.666   0.653   2.434 -0.6936 -0.4729  0.2404
 2444SOL    HW218966   3.538   0.708   2.427 -0.3696  0.1683  0.4561
 2445SOL     OW18967   0.622   0.175   2.796 -0.4170  0.2407 -0.5017
 2445SOL    HW118968   0.614   0.217   2.881 -0.2784 -1.3346  0.2829
 2445SOL    HW218969   0.541   0.189   2.746 -0.7456  1.8055  0.4778
 2446SOL     OW18970   2.585   1.005   1.511  0.1523 -0.2148 -0.0794
 2446SOL    HW118971   2.554   1.095   1.501 -1.3126 -0.6964  0.0576
 2446SOL    HW218972   2.515   0.963   1.461 -1.8199  1.1830  1.5153
 2447SOL     OW18973   1.487   3.843  14.897 -0.7378  0.4836  0.1288
 2447SOL    HW118974   1.438   3.780  14.950 -2.9365  2.6464  0.6668
 2447SOL    HW218975   1.424   3.915  14.906 -0.7597  0.3853  0.7865
 2448SOL     OW18976   0.803   0.920   6.272 -0.1078  0.3837 -0.6393
 2448SOL    HW118977   0.859   0.998   6.274  0.8097 -0.3062  0.3756
 2448SOL    HW218978   0.747   0.940   6.197  0.8595  1.0130 -1.2004
 2449SOL     OW18979   1.472   2.893  11.513  0.4437  0.3174  0.2722
 2449SOL    HW118980   1.545   2.841  11.479  0.0015  0.0901 -0.3346
 2449SOL    HW218981   1.502   2.903  11.603  1.7683 -2.3615  0.1105
 2450SOL     OW18982   2.470   3.464   1.148 -0.3038  0.1664  0.0836
 2450SOL    HW118983   2.503   3.494   1.063  0.2147 -0.2498  0.1406
 2450SOL    HW218984   2.511   3.378   1.151 -0.6594  0.0085  0.4208
 2451SOL     OW18985   4.468   2.352   2.145 -0.3609 -0.0350 -0.0859
 2451SOL    HW118986   4.550   2.366   2.098 -0.8533  1.1220 -0.6092
 2451SOL    HW218987   4.460   2.261   2.114 -0.2402 -0.3574  0.8443
 2452SOL     OW18988   2.129   1.205   7.561  0.2948  0.1009  0.4881
 2452SOL    HW118989   2.210   1.227   7.606  1.7227 -1.6132 -1.2376
 2452SOL    HW218990   2.101   1.126   7.608 -1.0789 -1.1705 -2.4394
 2453SOL     OW18991   4.452   0.564  14.235 -0.1013 -0.6115  0.1461
 2453SOL    HW118992   4.525   0.618  14.266  0.0344  0.5198 -2.2275
 2453SOL    HW218993   4.495   0.549  14.151 -2.7000 -1.8879 -0.9542
 2454SOL     OW18994   2.321   0.781   4.451  0.3909 -0.4903  0.3664
 2454SOL    HW118995   2.397   0.723   4.462  1.7826  1.0818 -1.0616
 2454SOL    HW218996   2.264   0.759   4.525 -1.9345  3.1330 -0.3542
 2455SOL     OW18997   3.685   0.040   9.065 -0.2169 -0.2915  0.2534
 2455SOL    HW118998   3.646   4.701   9.026  0.2144 -0.5034  0.2378
 2455SOL    HW218999   3.750   0.005   9.127  1.7255  0.4715 -1.3663
 2456SOL     OW19000   2.600   2.339   4.283 -0.2666 -0.1586  0.0270
 2456SOL    HW119001   2.651   2.357   4.204  0.2255 -1.4163  0.0674
 2456SOL    HW219002   2.575   2.428   4.309 -0.0237  0.0313 -0.3923
 2457SOL     OW19003   1.727   1.623   5.266  0.2097  0.6112 -0.1202
 2457SOL    HW119004   1.730   1.662   5.178  2.8461  1.3504  0.2954
 2457SOL    HW219005   1.637   1.604   5.290  0.2746 -1.4204 -1.5280
 2458SOL     OW19006   3.338   1.168   2.563 -0.3340  0.2324 -0.0159
 2458SOL    HW119007   3.409   1.173   2.499 -1.8639 -0.7178 -1.7987
 2458SOL    HW219008   3.302   1.086   2.528 -1.3271  0.1536  1.1826
 2459SOL     OW19009   3.867   1.329   4.415  0.2068 -0.0892 -0.6015
 2459SOL    HW119010   3.876   1.422   4.393 -0.7891  0.1734  0.0809
 2459SOL    HW219011   3.772   1.318   4.416  0.1482  0.4452 -0.2655
 2460SOL     OW19012   0.920   2.095   2.089  0.5462  0.0000 -0.5856
 2460SOL    HW119013   0.854   2.027   2.101  0.5236  0.0174 -0.6097
 2460SOL    HW219014   0.921   2.140   2.174  0.5356 -2.2326  0.5769
 2461SOL     OW19015   3.780   2.221   2.315  0.0478  0.1812 -0.0800
 2461SOL    HW119016   3.852   2.161   2.333 -0.6015 -0.6132 -0.1269
 2461SOL    HW219017   3.801   2.236   2.223  0.4463  0.9024  0.1301
 2462SOL     OW19018   2.892   2.523   6.943 -0.1030 -0.7378  0.2255
 2462SOL    HW119019   2.833   2.599   6.942  2.0897  0.9413 -0.9863
 2462SOL    HW219020   2.845   2.468   7.005  0.4825 -2.8667 -1.2344
 2463SOL     OW19021   0.354   4.229   7.643 -0.1015  0.0733  0.2947
 2463SOL    HW119022   0.397   4.153   7.605 -0.1864 -1.2348  2.8283
 2463SOL    HW219023   0.270   4.221   7.597  0.0784  0.9261 -0.1889
 2464SOL     OW19024   0.198   2.645   3.739 -0.1459  0.0813 -0.0847
 2464SOL    HW119025   0.106   2.669   3.753 -0.1207 -1.1855  2.1207
 2464SOL    HW219026   0.224   2.652   3.830 -2.3598  0.1173  0.5473
 2465SOL     OW19027   0.769   0.876  12.600  0.2762  0.1519  0.3611
 2465SOL    HW119028   0.849   0.923  12.625  1.7887 -2.4866  0.4424
 2465SOL    HW219029   0.810   0.799  12.562  0.0284  0.6570 -0.9359
 2466SOL     OW19030   1.300   3.192   8.668  0.1395 -0.5938  0.1749
 2466SOL    HW119031   1.286   3.256   8.738 -1.9868  0.1575 -0.9264
 2466SOL    HW219032   1.376   3.137   8.686  0.0299 -0.5410  0.7814
 2467SOL     OW19033   3.928   1.568   0.048 -0.3981  0.0530 -0.2409
 2467SOL    HW119034   3.936   1.527  17.715 -3.4085  0.5706 -0.7650
 2467SOL    HW219035   3.852   1.526   0.088  0.6438 -3.0577 -1.5478
 2468SOL     OW19036   3.641   0.795   4.006 -0.1080  0.0460 -0.5833
 2468SOL    HW119037   3.723   0.827   3.969  0.4605 -1.3485 -0.5316
 2468SOL    HW219038   3.577   0.854   3.967  0.4460 -0.3724 -2.0950
 2469SOL     OW19039   1.604   0.687   0.850  0.1112  0.0832  0.1624
 2469SOL    HW119040   1.606   0.662   0.757 -1.2218  0.7567 -0.0432
 2469SOL    HW219041   1.665   0.761   0.852 -1.6733  1.5740  0.0871
 2470SOL     OW19042   3.685   2.162   6.155 -0.7301  0.7997  0.0772
 2470SOL    HW119043   3.777   2.189   6.157 -0.9353  1.5102 -0.0314
 2470SOL    HW219044   3.692   2.081   6.205 -2.8484  0.6020  0.0603
 2471SOL     OW19045   4.223   4.131  15.275 -0.1370  0.2927  0.6829
 2471SOL    HW119046   4.242   4.205  15.334  2.0858  0.6163 -0.4340
 2471SOL    HW219047   4.150   4.089  15.320  0.0619 -2.2679 -1.4279
 2472SOL     OW19048   1.475   2.981   0.514  0.0047 -0.5184 -0.3063
 2472SOL    HW119049   1.397   2.982   0.570  0.0250  1.5803 -0.3197
 2472SOL    HW219050   1.528   3.058   0.536 -0.2946 -0.2655 -0.4660
 2473SOL     OW19051   2.420   1.408   8.577 -0.2336  0.6055 -0.1093
 2473SOL    HW119052   2.401   1.488   8.529 -0.6245 -1.3192 -3.2053
 2473SOL    HW219053   2.427   1.446   8.665  0.8835 -1.1330  0.5609
 2474SOL     OW19054   0.407   1.388   0.820 -0.0688  0.2740 -0.0941
 2474SOL    HW119055   0.433   1.451   0.754  4.0604  0.7383  1.9833
 2474SOL    HW219056   0.474   1.403   0.887  1.3329  1.9119 -1.8709
 2475SOL     OW19057   4.545   1.233   3.700 -0.1017  0.4656 -0.1385
 2475SOL    HW119058   4.596   1.184   3.763 -0.1691  1.2639  0.5323
 2475SOL    HW219059   4.470   1.257   3.755 -1.2557 -4.1241  0.3092
 2476SOL     OW19060   3.349   2.396  11.803 -0.2356 -0.0168 -0.1127
 2476SOL    HW119061   3.345   2.385  11.898  4.6173  2.9832  0.4479
 2476SOL    HW219062   3.443   2.404  11.788 -0.3051  0.1044 -0.4840
 2477SOL     OW19063   2.598   0.494   3.668  0.8046  0.5925  0.0765
 2477SOL    HW119064   2.609   0.520   3.577 -0.1656  2.5052  0.4962
 2477SOL    HW219065   2.536   0.565   3.687 -0.3306 -0.8819  1.9384
 2478SOL     OW19066   0.961   1.920   8.183  0.8466 -0.5782 -0.6347
 2478SOL    HW119067   1.015   1.849   8.217  0.7975  0.0155  0.6905
 2478SOL    HW219068   1.002   1.935   8.098  0.4615  0.2381 -0.6773
 2479SOL     OW19069   4.676   0.434  11.660 -0.5458 -0.1226  0.2098
 2479SOL    HW119070   4.598   0.420  11.713 -0.8856 -0.9445 -0.5071
 2479SOL    HW219071   4.666   0.354  11.608  0.1643 -0.6203  0.8571
 2480SOL     OW19072   2.285   2.274   3.917 -0.3791 -0.2550  0.9027
 2480SOL    HW119073   2.223   2.224   3.864 -1.3968  1.7100  0.2389
 2480SOL    HW219074   2.338   2.202   3.951 -0.6874 -1.1478 -0.5148
 2481SOL     OW19075   2.774   4.580   4.574  0.1654 -0.6261  0.6557
 2481SOL    HW119076   2.733   4.578   4.488  2.0270  0.7544 -0.2435
 2481SOL    HW219077   2.695   4.561   4.625 -0.2027 -0.3422  0.1930
 2482SOL     OW19078   2.152   3.256   9.229 -0.4876 -0.0671  0.4910
 2482SOL    HW119079   2.180   3.347   9.240 -0.1358 -0.1225  0.0883
 2482SOL    HW219080   2.148   3.222   9.318 -1.3802  1.2796  0.9667
 2483SOL     OW19081   2.306   2.946   7.976  0.7142  0.0054 -0.0106
 2483SOL    HW119082   2.309   2.868   8.032  0.6746 -0.0616 -0.1028
 2483SOL    HW219083   2.373   3.001   8.018  0.5206 -1.0571  1.6994
 2484SOL     OW19084   1.474   3.601   7.266  0.0051 -0.7672  0.4713
 2484SOL    HW119085   1.433   3.688   7.259  2.7805  0.5972  0.9261
 2484SOL    HW219086   1.562   3.630   7.291  1.2164 -2.9291 -1.3104
 2485SOL     OW19087   1.064   1.945  14.899  1.0565 -0.3344  0.2643
 2485SOL    HW119088   1.004   1.885  14.855 -0.2845  2.1685 -1.2704
 2485SOL    HW219089   1.135   1.884  14.921 -0.1651 -1.2186  1.7149
 2486SOL     OW19090   0.469   1.559   5.979 -0.5160  0.5017  0.6157
 2486SOL    HW119091   0.440   1.600   5.898  0.9688 -0.8675 -0.5928
 2486SOL    HW219092   0.396   1.580   6.038 -0.8825  0.2581  0.2521
 2487SOL     OW19093   2.359   2.075   6.143  0.4881 -0.1911 -0.3813
 2487SOL    HW119094   2.284   2.030   6.102 -0.2681  0.3619  0.3911
 2487SOL    HW219095   2.426   2.015   6.110  2.1281  1.4114  0.0427
 2488SOL     OW19096   1.174   4.336  11.974  0.2461 -0.2191 -0.1478
 2488SOL    HW119097   1.262   4.373  11.965  0.3727 -0.4037  0.3112
 2488SOL    HW219098   1.155   4.360  12.064  1.3213  0.7780 -0.1858
 2489SOL     OW19099   0.151   2.958   6.564 -0.0092  0.2783 -0.1488
 2489SOL    HW119100   0.084   2.929   6.626  0.7255 -0.2127  0.4108
 2489SOL    HW219101   0.216   3.001   6.620  0.4384  0.3497 -0.7252
 2490SOL     OW19102   0.252   1.852   8.550 -0.4306  0.2981 -0.2048
 2490SOL    HW119103   0.173   1.904   8.558  0.0032  0.8253  0.5665
 2490SOL    HW219104   0.299   1.909   8.489  3.1841  0.9302  3.2156
 2491SOL     OW19105   2.612   2.939   9.942 -0.0320 -0.2618 -0.0110
 2491SOL    HW119106   2.569   2.971  10.021  0.5788  0.4548  0.0307
 2491SOL    HW219107   2.654   2.859   9.974 -1.9484 -1.3870 -0.2728
 2492SOL     OW19108   2.568   3.886   6.103  0.0244  0.0462  0.0470
 2492SOL    HW119109   2.474   3.869   6.117 -0.1832  1.7706  0.7519
 2492SOL    HW219110   2.581   3.865   6.011  0.2820  0.4752 -0.0131
 2493SOL     OW19111   4.684   1.983  17.486  0.4384 -0.1022  0.9186
 2493SOL    HW119112   4.618   1.988  17.554 -1.9364 -0.9458 -1.3406
 2493SOL    HW219113   0.020   1.945  17.532  2.6210  2.1031 -0.7931
 2494SOL     OW19114   0.776   0.182   6.492 -0.0923  0.1675  0.1324
 2494SOL    HW119115   0.787   0.153   6.401 -0.7610 -0.6185  0.3090
 2494SOL    HW219116   0.781   0.096   6.533 -0.8209 -0.2417 -0.6325
 2495SOL     OW19117   1.701   2.392   4.058 -0.5527  0.0813  0.4079
 2495SOL    HW119118   1.773   2.451   4.034  0.6952 -1.8093 -0.5752
 2495SOL    HW219119   1.626   2.442   4.026 -1.3188 -0.4069  1.4377
 2496SOL     OW19120   4.419   4.551   8.150 -0.1216 -0.1623  0.1655
 2496SOL    HW119121   4.378   4.476   8.106 -0.8595  0.3791 -0.0570
 2496SOL    HW219122   4.390   4.540   8.241 -1.2719  1.2180 -0.0368
 2497SOL     OW19123   4.020   4.698   6.162  0.3424 -0.2425 -0.0063
 2497SOL    HW119124   3.989   4.612   6.190  1.3471  0.3318  2.9451
 2497SOL    HW219125   4.024   0.005   6.246 -0.9942 -1.2216  0.6048
 2498SOL     OW19126   4.380   1.556   1.912 -0.3169 -0.2604  0.0794
 2498SOL    HW119127   4.463   1.530   1.951 -0.0626  0.1049 -0.2151
 2498SOL    HW219128   4.365   1.486   1.849  0.0419  0.9565 -1.3634
 2499SOL     OW19129   4.417   3.349  13.305  0.3277  0.8848  0.4166
 2499SOL    HW119130   4.355   3.405  13.353  3.1824  2.7889  1.8998
 2499SOL    HW219131   4.370   3.319  13.227  1.4868  1.9807 -0.7031
 2500SOL     OW19132   1.803   0.195   7.579 -0.1832 -0.0908  0.1795
 2500SOL    HW119133   1.801   0.257   7.506 -0.6162 -1.4362 -0.9570
 2500SOL    HW219134   1.886   0.229   7.612 -1.5951  2.5762  0.9603
 2501SOL     OW19135   2.968   4.538  16.718 -0.1656 -0.3191  0.9648
 2501SOL    HW119136   2.872   4.532  16.718 -0.2091  0.5069 -0.9768
 2501SOL    HW219137   2.978   4.556  16.812  2.0746  0.2789  0.5969
 2502SOL     OW19138   1.809   4.216   8.953  0.1045  0.2179  0.9650
 2502SOL    HW119139   1.858   4.138   8.930  1.7068  1.7430 -0.8282
 2502SOL    HW219140   1.875   4.272   8.993  0.5492 -1.0084  1.9445
 2503SOL     OW19141   4.701   2.596   6.245 -0.0267 -0.0634 -0.9186
 2503SOL    HW119142   4.717   2.661   6.313  1.6807 -1.4087 -0.0238
 2503SOL    HW219143   0.050   2.560   6.241  0.3342  0.7690 -0.5234
 2504SOL     OW19144   0.901   0.825  15.377  0.2025  0.5299 -0.8009
 2504SOL    HW119145   0.891   0.736  15.410 -1.8068  1.4413  0.9686
 2504SOL    HW219146   0.825   0.820  15.319 -1.4900 -0.3433  1.5194
 2505SOL     OW19147   2.171   0.140   4.016  0.2288  0.8504 -0.3813
 2505SOL    HW119148   2.179   0.234   4.029 -0.6498  0.6253  1.8458
 2505SOL    HW219149   2.076   0.135   4.027  0.2902  0.8525  0.1424
 2506SOL     OW19150   1.367   4.447   4.921  0.8325  0.2480 -0.5335
 2506SOL    HW119151   1.343   4.398   5.000  0.3865  0.4344 -0.5532
 2506SOL    HW219152   1.419   4.379   4.879 -0.7821 -2.0172  1.1430
 2507SOL     OW19153   1.184   2.207   8.641 -0.0862  0.0787  0.0601
 2507SOL    HW119154   1.090   2.223   8.641 -0.7268 -3.5827 -0.8605
 2507SOL    HW219155   1.214   2.275   8.580 -1.1316  1.3889  1.0205
 2508SOL     OW19156   3.619   0.602   1.894  0.1844  0.5036 -0.0184
 2508SOL    HW119157   3.693   0.607   1.954 -1.1548  0.7179  1.6123
 2508SOL    HW219158   3.645   0.526   1.842 -0.1371 -0.0129  0.5715
 2509SOL     OW19159   1.344   2.434  15.944 -0.3070  0.1461  0.5416
 2509SOL    HW119160   1.378   2.501  15.884 -1.5677 -0.9785 -1.4379
 2509SOL    HW219161   1.257   2.416  15.908 -0.3009 -0.0988  0.6484
 2510SOL     OW19162   3.024   0.436  16.986  0.1577  0.5511 -0.0584
 2510SOL    HW119163   3.087   0.454  16.915  1.0129  1.4518  0.9325
 2510SOL    HW219164   3.069   0.476  17.060  1.6341  3.2083 -2.3578
 2511SOL     OW19165   3.428   2.744   9.491  0.0759  0.7070  0.0609
 2511SOL    HW119166   3.407   2.660   9.451  3.7200  0.1099 -0.6137
 2511SOL    HW219167   3.508   2.761   9.441 -0.1590  1.8849  0.0819
 2512SOL     OW19168   3.356   2.931  16.755  0.7422 -0.3516 -0.0764
 2512SOL    HW119169   3.399   3.004  16.710 -1.2858 -0.0319 -1.4692
 2512SOL    HW219170   3.348   2.873  16.679 -0.2310  0.2632 -0.4394
 2513SOL     OW19171   2.494   2.901   6.824 -0.0138  0.4832 -0.3080
 2513SOL    HW119172   2.451   2.981   6.855  1.2400  0.5828  1.1629
 2513SOL    HW219173   2.426   2.840   6.798  1.5038 -1.1979 -0.3633
 2514SOL     OW19174   0.410   1.577   2.119 -0.6015 -0.0717 -0.2504
 2514SOL    HW119175   0.326   1.585   2.074 -0.0708 -3.6921 -1.8796
 2514SOL    HW219176   0.436   1.495   2.077  0.7861  0.6691 -0.8151
 2515SOL     OW19177   1.165   4.672   7.478  0.0746  0.1862 -0.2568
 2515SOL    HW119178   1.221   4.596   7.493  0.5695  0.0329 -2.8131
 2515SOL    HW219179   1.221   4.733   7.430 -0.6098  2.7149  2.1568
 2516SOL     OW19180   3.018   2.160  10.011 -0.2726 -0.0361 -0.2086
 2516SOL    HW119181   3.103   2.184  10.048  0.6119 -0.9094 -1.6778
 2516SOL    HW219182   3.028   2.065  10.021 -0.6799  0.1069  1.5966
 2517SOL     OW19183   2.327   3.588   6.178  0.1096  0.0501 -0.6491
 2517SOL    HW119184   2.245   3.598   6.130  0.3135  0.6423 -0.8689
 2517SOL    HW219185   2.338   3.499   6.143 -1.0346  0.1605 -1.2934
 2518SOL     OW19186   0.916   2.069   4.947 -0.3247 -0.5030  0.2095
 2518SOL    HW119187   0.963   2.093   4.867  1.2700 -0.4315  1.1653
 2518SOL    HW219188   0.955   1.982   4.959 -0.8715 -0.4565  2.2369
 2519SOL     OW19189   0.855   1.935   9.124  0.0079  0.2151  0.4449
 2519SOL    HW119190   0.811   1.981   9.052  0.8636  1.5645  0.8034
 2519SOL    HW219191   0.787   1.939   9.192  1.3951 -1.4207  1.9283
 2520SOL     OW19192   1.058   3.688   3.128  0.3464 -0.1114  0.4350
 2520SOL    HW119193   0.979   3.635   3.131  1.6809 -2.0140  1.8479
 2520SOL    HW219194   1.126   3.630   3.162  0.6283  1.4956  2.5704
 2521SOL     OW19195   0.654   0.018   4.587 -0.1798 -0.5611 -0.6890
 2521SOL    HW119196   0.613   4.675   4.617 -0.4484 -0.2235 -0.1336
 2521SOL    HW219197   0.691   0.047   4.670 -1.3922 -1.3901  0.1355
 2522SOL     OW19198   1.704   3.375  16.770 -0.2972  0.2494 -0.5044
 2522SOL    HW119199   1.700   3.316  16.694 -0.2455 -2.0187  1.2712
 2522SOL    HW219200   1.683   3.312  16.839 -3.1074  0.0662 -1.5389
 2523SOL     OW19201   3.252   2.757   9.229 -0.1270 -0.2278  0.3247
 2523SOL    HW119202   3.306   2.744   9.306 -1.0308  0.1800  1.0255
 2523SOL    HW219203   3.298   2.693   9.174  1.8782  0.4502  1.2471
 2524SOL     OW19204   4.412   1.806   1.235 -0.0995 -0.1610  0.4314
 2524SOL    HW119205   4.481   1.762   1.185 -1.4855  1.0087 -2.5284
 2524SOL    HW219206   4.455   1.876   1.284 -0.8044 -0.0988  0.9507
 2525SOL     OW19207   0.361   1.264  17.600  0.3701 -0.8102  0.1931
 2525SOL    HW119208   0.328   1.237  17.686 -0.0123  1.0528  0.6232
 2525SOL    HW219209   0.369   1.174  17.568  1.4600 -0.5878 -0.1625
 2526SOL     OW19210   0.341   2.506  16.916  0.5630 -0.3625 -0.1017
 2526SOL    HW119211   0.318   2.596  16.936  0.0647 -0.7709  1.1612
 2526SOL    HW219212   0.384   2.477  16.997  0.7963 -0.7886 -0.3786
 2527SOL     OW19213   3.167   2.068  12.637  0.2735  0.2937  0.0940
 2527SOL    HW119214   3.077   2.101  12.636  0.4705  0.7009 -2.5103
 2527SOL    HW219215   3.164   1.994  12.697 -0.8860 -1.8412 -2.6030
 2528SOL     OW19216   4.687   0.141   6.073  0.3157  0.3735 -0.7299
 2528SOL    HW119217   0.017   0.119   6.135 -0.7427  1.1343  0.7148
 2528SOL    HW219218   4.696   0.236   6.078  0.1048  0.4176 -1.1531
 2529SOL     OW19219   0.617   1.301   2.446 -0.1125  0.1015 -0.5865
 2529SOL    HW119220   0.637   1.262   2.361  1.8313 -0.3029  0.0444
 2529SOL    HW219221   0.659   1.384   2.422  0.3264 -0.2636 -1.0727
 2530SOL     OW19222   2.585   2.949   4.179  0.1354 -0.0909  0.3116
 2530SOL    HW119223   2.506   2.972   4.230 -0.7206 -2.2768 -0.0133
 2530SOL    HW219224   2.601   2.866   4.224  0.5455 -0.8333 -1.2078
 2531SOL     OW19225   3.189   0.530   8.664  0.3988  0.6322  0.2603
 2531SOL    HW119226   3.278   0.558   8.645 -0.0361  0.8003 -1.5746
 2531SOL    HW219227   3.171   0.549   8.756 -1.9071 -0.8265  0.1233
 2532SOL     OW19228   0.480   0.690  13.866 -0.0665 -0.0061  0.1410
 2532SOL    HW119229   0.441   0.628  13.805  0.6926 -0.1697 -0.1846
 2532SOL    HW219230   0.429   0.767  13.841 -0.3327 -0.9451 -2.1744
 2533SOL     OW19231   1.393   1.882   8.132 -0.0950  0.0336  0.0198
 2533SOL    HW119232   1.479   1.849   8.106  0.3990  0.2611  1.3542
 2533SOL    HW219233   1.380   1.827   8.209 -1.1186  1.3008  0.7563
 2534SOL     OW19234   2.188   0.187  17.195 -0.4279 -0.5194 -0.1917
 2534SOL    HW119235   2.111   0.243  17.204 -0.4546 -0.6048  0.0944
 2534SOL    HW219236   2.194   0.130  17.272  3.1989 -0.7488 -0.6430
 2535SOL     OW19237   0.181   3.538  15.535  0.1258 -0.2086 -0.6531
 2535SOL    HW119238   0.103   3.484  15.522  1.0818 -1.2169 -2.1354
 2535SOL    HW219239   0.167   3.604  15.467  0.1586 -0.5356 -0.9754
 2536SOL     OW19240   2.374   0.380  11.978 -0.3806  0.2662 -0.3467
 2536SOL    HW119241   2.467   0.403  11.979  0.0186 -1.3258 -0.5004
 2536SOL    HW219242   2.361   0.359  12.070  1.6960  2.6222  0.4685
 2537SOL     OW19243   1.190   3.212   4.810 -0.1804 -0.3357 -0.5008
 2537SOL    HW119244   1.255   3.171   4.866  1.1607  2.4718 -0.0120
 2537SOL    HW219245   1.147   3.137   4.768 -0.5395  0.6071 -1.8105
 2538SOL     OW19246   0.018   2.117   5.190 -0.0949  0.4148  0.7102
 2538SOL    HW119247   4.729   2.037   5.234  0.1616 -0.5873 -0.9498
 2538SOL    HW219248   4.680   2.134   5.135  0.9050  2.0216 -0.1696
 2539SOL     OW19249   0.117   1.894   2.552 -0.5517  0.5999 -0.1202
 2539SOL    HW119250   0.066   1.943   2.617 -0.2665  1.3658 -0.4748
 2539SOL    HW219251   0.160   1.835   2.614 -1.1375 -0.3088 -0.5855
 2540SOL     OW19252   4.595   1.217   2.958  0.0214  0.0008  0.0868
 2540SOL    HW119253   4.613   1.273   2.883 -1.6554  1.4952  0.8113
 2540SOL    HW219254   4.513   1.174   2.934  0.3488 -0.1156 -0.8376
 2541SOL     OW19255   1.295   3.607  11.579 -0.0439 -0.2019 -0.2272
 2541SOL    HW119256   1.318   3.625  11.488  2.6158 -1.9683  0.1148
 2541SOL    HW219257   1.270   3.693  11.612 -0.5642 -0.3480 -0.2392
 2542SOL     OW19258   3.245   2.614   8.140 -0.3774 -0.6097 -0.1449
 2542SOL    HW119259   3.335   2.602   8.112  0.2754 -0.6330  1.9653
 2542SOL    HW219260   3.203   2.647   8.061  0.0945  0.8303  0.2049
 2543SOL     OW19261   1.276   3.161  14.807 -0.4162 -0.3972 -0.3200
 2543SOL    HW119262   1.272   3.101  14.733  0.0808  1.4391 -1.8337
 2543SOL    HW219263   1.204   3.223  14.794 -1.0624 -0.6591  1.9907
 2544SOL     OW19264   1.458   0.241  15.788 -0.1304 -0.0913 -0.1699
 2544SOL    HW119265   1.457   0.188  15.868  1.7840 -1.4756 -1.0449
 2544SOL    HW219266   1.447   0.173  15.721 -0.6131 -0.3933  0.2163
 2545SOL     OW19267   4.332   3.617   3.922 -0.6157  0.3387  0.0317
 2545SOL    HW119268   4.331   3.530   3.881 -0.4575  0.9475 -1.2752
 2545SOL    HW219269   4.426   3.628   3.933 -0.6111  0.8383 -0.4795
 2546SOL     OW19270   3.466   2.450   5.932 -0.4291  0.4487 -0.0620
 2546SOL    HW119271   3.480   2.481   5.842 -1.3510  0.8527 -0.0658
 2546SOL    HW219272   3.543   2.487   5.975 -0.8962  0.9069  0.3794
 2547SOL     OW19273   0.387   1.536  10.014  0.0486 -0.6585  0.1354
 2547SOL    HW119274   0.349   1.624  10.007 -0.6682 -0.9998 -0.2837
 2547SOL    HW219275   0.473   1.551  10.054  0.6316  0.1099 -1.3884
 2548SOL     OW19276   3.740   0.836   9.038 -0.0441  0.0956  0.1010
 2548SOL    HW119277   3.726   0.760   8.981 -0.0311  0.0979  0.0948
 2548SOL    HW219278   3.820   0.812   9.084  0.2139  0.3791 -0.2034
 2549SOL     OW19279   4.256   3.731   2.450 -0.1585  0.4613  0.5269
 2549SOL    HW119280   4.219   3.775   2.527 -1.0459 -0.5860  0.6868
 2549SOL    HW219281   4.247   3.639   2.474 -4.0573  0.6073 -0.3988
 2550SOL     OW19282   3.264   2.776   9.986  0.1584  0.6263 -0.2139
 2550SOL    HW119283   3.283   2.856  10.035 -1.6622 -0.2323  1.8878
 2550SOL    HW219284   3.174   2.756  10.011  1.8042 -3.1288  2.7591
 2551SOL     OW19285   2.888   0.791  14.714 -0.1662  0.2196 -0.0972
 2551SOL    HW119286   2.960   0.822  14.659  0.1515 -0.2382  0.0606
 2551SOL    HW219287   2.821   0.857  14.695 -0.6374 -0.1920  0.1576
 2552SOL     OW19288   0.208   3.591   6.800 -0.1849 -0.1924 -0.3095
 2552SOL    HW119289   0.302   3.580   6.812 -0.0700  2.0096  0.8845
 2552SOL    HW219290   0.173   3.518   6.851  0.4269 -0.8391 -0.8210
 2553SOL     OW19291   3.927   3.338   3.899 -0.3304  0.0323  0.4009
 2553SOL    HW119292   3.958   3.428   3.903  0.0509 -0.0075 -1.4816
 2553SOL    HW219293   3.895   3.327   3.809  0.2397 -0.7812  0.2972
 2554SOL     OW19294   0.949   0.320   3.656 -0.2231 -0.5954 -0.3023
 2554SOL    HW119295   0.991   0.310   3.741 -0.4565  1.4436  0.0537
 2554SOL    HW219296   0.922   0.230   3.638  1.4936 -1.2737  0.5112
 2555SOL     OW19297   2.090   0.133   2.502  0.6194 -0.2723  0.1669
 2555SOL    HW119298   2.036   0.194   2.552 -2.0564 -0.9982 -1.8792
 2555SOL    HW219299   2.015   0.077   2.483 -1.0369  1.9804  0.1239
 2556SOL     OW19300   3.168   1.193   4.973  0.2280 -0.0981  0.2013
 2556SOL    HW119301   3.171   1.108   5.017 -0.4425  0.8893  2.1680
 2556SOL    HW219302   3.081   1.199   4.934  0.6167 -0.3031 -0.6913
 2557SOL     OW19303   1.781   2.668   8.744  0.0776 -0.1658 -0.3364
 2557SOL    HW119304   1.858   2.625   8.706 -1.5194 -2.6227 -0.7748
 2557SOL    HW219305   1.733   2.675   8.662 -2.1351  0.4154  0.9969
 2558SOL     OW19306   3.990   1.804   6.118  0.1680 -0.1253  0.3630
 2558SOL    HW119307   4.071   1.855   6.116 -0.6297  1.1270 -0.4314
 2558SOL    HW219308   4.025   1.718   6.138  0.8816 -0.0243 -0.4658
 2559SOL     OW19309   0.530   2.889  12.207  0.0204 -0.1124  0.5349
 2559SOL    HW119310   0.465   2.953  12.239 -0.6811 -0.1029 -0.9143
 2559SOL    HW219311   0.592   2.892  12.280 -0.3399  2.0660  0.7500
 2560SOL     OW19312   0.331   2.284  17.126  0.3449 -0.0103 -0.2037
 2560SOL    HW119313   0.256   2.309  17.179  1.0749 -0.3502  0.9806
 2560SOL    HW219314   0.278   2.236  17.062 -1.3896 -0.3631  1.5131
 2561SOL     OW19315   1.688   2.180   7.170 -0.5188  0.0177  0.5544
 2561SOL    HW119316   1.734   2.197   7.252  0.8143  2.3861 -0.6878
 2561SOL    HW219317   1.659   2.269   7.148 -3.0133 -1.1970 -1.1053
 2562SOL     OW19318   0.717   1.248   8.533 -0.0587  0.2015  0.7528
 2562SOL    HW119319   0.692   1.165   8.492  1.1109  1.3561 -2.3072
 2562SOL    HW219320   0.633   1.291   8.517  0.9637  2.1341  0.5589
 2563SOL     OW19321   0.233   4.025   8.810  0.8010  0.0739 -0.6103
 2563SOL    HW119322   0.237   4.084   8.735 -0.2993  1.1693  0.2001
 2563SOL    HW219323   0.179   4.070   8.874 -0.5412 -0.1081 -1.6245
 2564SOL     OW19324   4.030   4.282   9.697  0.1074 -0.2710 -0.1176
 2564SOL    HW119325   4.055   4.317   9.611  0.5791 -0.4679 -0.0630
 2564SOL    HW219326   3.935   4.280   9.695  0.2037 -2.1260 -2.0413
 2565SOL     OW19327   3.374   1.114   8.965 -0.3006 -0.1755 -0.2423
 2565SOL    HW119328   3.453   1.164   8.986 -0.0887 -1.1895  1.3377
 2565SOL    HW219329   3.324   1.175   8.910  2.5970  1.1447 -1.3986
 2566SOL     OW19330   3.885   3.984   9.130 -0.0394  0.2927 -0.6338
 2566SOL    HW119331   3.975   3.953   9.120 -0.5988 -0.6526 -2.8840
 2566SOL    HW219332   3.843   3.913   9.178  1.0172  0.3160  0.3365
 2567SOL     OW19333   1.270   1.180  14.506  0.2256 -0.4395 -0.3361
 2567SOL    HW119334   1.363   1.162  14.520  0.3932  0.5627 -0.1754
 2567SOL    HW219335   1.227   1.099  14.479 -3.8665  1.0405  1.7754
 2568SOL     OW19336   4.061   0.060  15.753  0.5828 -0.3014  0.0667
 2568SOL    HW119337   3.967   0.076  15.743  0.8111  0.6819 -0.5315
 2568SOL    HW219338   4.065   4.710  15.718  1.9009 -1.2082  2.4793
 2569SOL     OW19339   4.410   1.355   0.052 -0.5301  0.7306 -0.3945
 2569SOL    HW119340   4.453   1.440   0.044  0.4509  0.1163 -1.6178
 2569SOL    HW219341   4.321   1.377   0.077 -0.7374 -0.9720  0.3865
 2570SOL     OW19342   0.945   2.655   6.625  0.4764 -0.3186  0.1896
 2570SOL    HW119343   0.998   2.613   6.692 -1.6422 -1.4576  1.1511
 2570SOL    HW219344   1.007   2.661   6.552  0.2272  0.8416  0.0693
 2571SOL     OW19345   1.733   2.403   8.830  0.0686  0.1917 -0.0787
 2571SOL    HW119346   1.719   2.496   8.812  1.8439  0.2531 -1.1582
 2571SOL    HW219347   1.647   2.377   8.862  1.8966 -2.1136  2.9944
 2572SOL     OW19348   4.081   2.307   3.106  0.1348 -0.5769  0.1111
 2572SOL    HW119349   3.996   2.319   3.064 -0.9049  0.2367  2.4600
 2572SOL    HW219350   4.122   2.247   3.043 -0.1321 -1.2373  0.5673
 2573SOL     OW19351   0.383   4.144   3.242  0.7047 -0.2316  0.4081
 2573SOL    HW119352   0.326   4.083   3.289  2.0676 -1.3872  0.5408
 2573SOL    HW219353   0.380   4.109   3.153  1.3333 -0.8630  0.6454
 2574SOL     OW19354   1.753   4.656  15.937 -0.3382  0.2447  0.0912
 2574SOL    HW119355   1.682   4.595  15.957  0.0996 -0.9340 -1.9004
 2574SOL    HW219356   1.765   4.650  15.842  0.1809 -1.6481  0.2874
 2575SOL     OW19357   3.999   4.114  17.606  0.5695 -0.0836  0.2321
 2575SOL    HW119358   4.077   4.098  17.659  2.6535 -0.2972 -2.8468
 2575SOL    HW219359   4.013   4.039  17.548 -1.2695  0.3751 -0.8052
 2576SOL     OW19360   0.194   1.811   1.625 -0.3847 -0.0028  0.1721
 2576SOL    HW119361   0.288   1.831   1.620 -0.3376  0.3324  2.5967
 2576SOL    HW219362   0.190   1.717   1.641  1.6430 -0.1304 -0.1110
 2577SOL     OW19363   4.172   2.800   8.591 -0.6513  1.1863 -0.3296
 2577SOL    HW119364   4.171   2.752   8.508  1.5837  1.0041 -0.2453
 2577SOL    HW219365   4.250   2.760   8.630  0.8565  0.5479 -4.0080
 2578SOL     OW19366   1.161   4.285   7.509 -0.0661 -0.1137 -0.1199
 2578SOL    HW119367   1.109   4.333   7.574  0.7801 -0.1149  0.5591
 2578SOL    HW219368   1.190   4.208   7.557  1.6205 -1.1873 -2.8918
 2579SOL     OW19369   1.758   2.052   3.549  0.2002 -0.0971 -0.1746
 2579SOL    HW119370   1.744   1.969   3.595 -0.6899  0.4692  0.5588
 2579SOL    HW219371   1.762   2.010   3.463  1.7054 -1.9955  0.8100
 2580SOL     OW19372   3.965   4.102   2.565 -0.6881  0.5393 -0.4333
 2580SOL    HW119373   3.993   4.013   2.588 -0.8663  0.7394  0.5797
 2580SOL    HW219374   4.005   4.105   2.478  0.6236 -1.2389  0.1040
 2581SOL     OW19375   0.378   1.042   3.196  0.3635  0.6494 -0.1710
 2581SOL    HW119376   0.438   0.968   3.209 -0.8060 -0.3172 -0.3041
 2581SOL    HW219377   0.437   1.096   3.143  0.7282 -1.2827 -1.7511
 2582SOL     OW19378   0.582   0.745   0.120 -0.3178 -0.4054  0.2151
 2582SOL    HW119379   0.603   0.809   0.051 -0.1687 -1.1385 -0.4206
 2582SOL    HW219380   0.643   0.771   0.189  0.9187 -2.0051 -0.2797
 2583SOL     OW19381   4.531   2.588   4.509 -0.0076 -0.3296 -0.1428
 2583SOL    HW119382   4.624   2.604   4.492 -0.5035  1.3667 -1.1787
 2583SOL    HW219383   4.486   2.580   4.425 -0.9228  1.9081  0.1288
 2584SOL     OW19384   3.393   3.145   2.506  0.6206 -0.9747 -0.2967
 2584SOL    HW119385   3.485   3.128   2.484  0.6988  0.6258 -1.1434
 2584SOL    HW219386   3.382   3.240   2.502  0.7722 -0.9045  1.0618
 2585SOL     OW19387   1.861   3.283   6.142 -0.5524 -0.1885  0.0917
 2585SOL    HW119388   1.800   3.356   6.149 -0.5209 -0.3224  1.6284
 2585SOL    HW219389   1.935   3.304   6.199  1.4413  0.1115 -2.6055
 2586SOL     OW19390   1.441   0.420  15.171 -0.6945  0.1507 -0.7875
 2586SOL    HW119391   1.431   0.326  15.158  0.0252 -0.0872  0.3443
 2586SOL    HW219392   1.384   0.457  15.104 -1.8569 -1.2539 -0.5697
 2587SOL     OW19393   1.628   1.564  10.692  0.0703 -0.1433 -0.0848
 2587SOL    HW119394   1.662   1.626  10.756 -2.8076  2.0915 -0.7253
 2587SOL    HW219395   1.622   1.621  10.615  1.7768  0.2480  0.0764
 2588SOL     OW19396   1.605   0.032   8.551  0.5129 -0.1190 -0.2236
 2588SOL    HW119397   1.662   0.081   8.610 -1.4595  1.8662  0.0436
 2588SOL    HW219398   1.550   4.723   8.613  0.9294  0.2310  0.4114
 2589SOL     OW19399   1.368   1.747   6.303 -0.2747 -0.0267 -0.1912
 2589SOL    HW119400   1.336   1.719   6.218  3.3811 -0.9293 -1.2596
 2589SOL    HW219401   1.400   1.834   6.279 -0.9322 -0.0413 -1.1242
 2590SOL     OW19402   1.113   0.199  13.304  0.1942  0.2115 -0.4749
 2590SOL    HW119403   1.032   0.230  13.342 -0.2416 -0.2410 -1.0246
 2590SOL    HW219404   1.179   0.226  13.368 -1.9450  1.3063  1.2624
 2591SOL     OW19405   2.467   0.937  14.229 -0.0967 -0.0223 -0.2533
 2591SOL    HW119406   2.519   0.899  14.300  2.0135  1.4285 -1.0303
 2591SOL    HW219407   2.401   0.979  14.285  0.5184  0.7984 -0.1422
 2592SOL     OW19408   3.908   1.354  13.042  0.4691  0.2905 -0.2117
 2592SOL    HW119409   3.940   1.264  13.053 -2.6127 -0.7403  0.4295
 2592SOL    HW219410   3.823   1.338  13.002 -0.0921  0.7778  0.7852
 2593SOL     OW19411   1.926   1.509   9.885 -0.4371 -0.0872  0.8138
 2593SOL    HW119412   1.916   1.599   9.917 -1.1307  0.9690 -2.3544
 2593SOL    HW219413   2.021   1.503   9.897  0.2882  3.3762 -2.9216
 2594SOL     OW19414   1.551   0.767   5.488 -0.2134  0.6612  0.4134
 2594SOL    HW119415   1.542   0.679   5.449 -1.1710  1.5945 -1.4775
 2594SOL    HW219416   1.470   0.762   5.540 -0.3929  2.6697  0.3297
 2595SOL     OW19417   0.296   0.989   1.163  0.5792  0.0987  0.2252
 2595SOL    HW119418   0.300   0.895   1.179 -1.0167  0.2376  1.3995
 2595SOL    HW219419   0.354   1.018   1.233  0.4557 -0.3081  0.4975
 2596SOL     OW19420   4.722   3.133  12.285  0.0745  0.1093 -0.1215
 2596SOL    HW119421   4.637   3.105  12.250 -0.9312 -1.0060  3.2048
 2596SOL    HW219422   4.682   3.179  12.359 -2.7306 -2.2156 -0.2003
 2597SOL     OW19423   1.301   3.902   4.080 -0.0928  0.0086  0.0959
 2597SOL    HW119424   1.344   3.834   4.132  1.5527  0.8309 -0.1992
 2597SOL    HW219425   1.266   3.963   4.145  1.4168  1.3141 -0.3151
 2598SOL     OW19426   0.059   2.864  11.387  0.0886 -0.1080  0.4789
 2598SOL    HW119427   0.064   2.946  11.338 -0.2013  0.1843  0.9353
 2598SOL    HW219428   0.030   2.902  11.470  1.1823 -0.9015  1.2216
 2599SOL     OW19429   1.154   3.064   9.705 -0.1579 -0.3174  0.2866
 2599SOL    HW119430   1.121   3.035   9.791  0.1334  1.1662  0.9020
 2599SOL    HW219431   1.099   3.004   9.655 -0.1533  0.1401 -0.2688
 2600SOL     OW19432   0.293   2.038  10.713 -0.0679  0.3557 -0.0265
 2600SOL    HW119433   0.310   1.976  10.784  0.7249  1.4350  0.7409
 2600SOL    HW219434   0.336   1.993  10.641  0.6739  2.4018 -0.8494
 2601SOL     OW19435   4.321   2.937  10.523  0.2872  0.3611 -0.6906
 2601SOL    HW119436   4.267   2.915  10.599  1.6432 -2.4696 -0.5268
 2601SOL    HW219437   4.252   2.994  10.489  0.0735 -0.0978 -1.0198
 2602SOL     OW19438   1.775   3.507   5.758  0.7481  0.3960  0.8162
 2602SOL    HW119439   1.746   3.500   5.667  0.3495  0.2364  0.9517
 2602SOL    HW219440   1.831   3.430   5.766  0.3619 -0.1699 -1.9537
 2603SOL     OW19441   4.007   2.885   8.794 -0.3184 -0.4356  0.5066
 2603SOL    HW119442   4.046   2.829   8.862  3.7740 -0.9475 -2.2170
 2603SOL    HW219443   4.069   2.876   8.722 -2.3332 -0.9257 -1.1726
 2604SOL     OW19444   1.563   4.207   9.025 -0.4340 -0.2195 -0.4340
 2604SOL    HW119445   1.560   4.112   9.034 -2.2208  0.0918  2.1802
 2604SOL    HW219446   1.645   4.213   8.977 -0.6566 -0.7983 -0.8855
 2605SOL     OW19447   1.973   4.338   3.012 -0.5546  0.3315  0.0500
 2605SOL    HW119448   1.976   4.420   3.061 -1.1123  0.2669  0.1927
 2605SOL    HW219449   2.010   4.274   3.074 -2.6097  0.3387  1.3272
 2606SOL     OW19450   1.749   4.383  15.226 -0.0667  0.0254 -0.5315
 2606SOL    HW119451   1.740   4.289  15.210  0.6728 -0.0304 -0.6090
 2606SOL    HW219452   1.771   4.391  15.319 -2.5696  0.2184  0.0345
 2607SOL     OW19453   1.254   0.957  15.205  0.4731 -0.2397 -0.0153
 2607SOL    HW119454   1.238   0.907  15.285 -2.5331  0.8868  0.0858
 2607SOL    HW219455   1.324   0.906  15.165  1.9151  0.3764  1.7099
 2608SOL     OW19456   1.122   0.403   9.427  0.0919  0.1356  0.0838
 2608SOL    HW119457   1.176   0.363   9.494 -0.3904 -0.5637  0.0673
 2608SOL    HW219458   1.156   0.491   9.414 -3.8402  1.4060 -1.9133
 2609SOL     OW19459   1.922   1.522   8.466 -0.1866 -0.4674 -0.5083
 2609SOL    HW119460   1.839   1.569   8.464  0.3157  0.4654  0.6074
 2609SOL    HW219461   1.952   1.560   8.549 -2.0979  1.8196 -0.8727
 2610SOL     OW19462   0.930   0.471   9.084 -0.0532  0.2462  0.7411
 2610SOL    HW119463   0.908   0.532   9.014  3.4726  1.2320  0.4956
 2610SOL    HW219464   1.014   0.502   9.118 -0.3544  2.0080 -0.1160
 2611SOL     OW19465   2.708   0.863   3.986  0.0928 -0.1347  0.2984
 2611SOL    HW119466   2.769   0.929   4.017 -0.6834  1.0106 -0.6008
 2611SOL    HW219467   2.753   0.847   3.903 -0.5082 -1.1557  0.1660
 2612SOL     OW19468   0.950   3.594   7.917 -0.2318 -0.6217  0.1494
 2612SOL    HW119469   1.008   3.531   7.961 -3.5488 -2.8869  1.2825
 2612SOL    HW219470   0.886   3.606   7.987  0.5724 -0.5926  0.8882
 2613SOL     OW19471   3.463   0.779  17.545 -0.3708 -0.1576 -0.2072
 2613SOL    HW119472   3.538   0.817  17.590 -1.6072 -0.9083  2.4783
 2613SOL    HW219473   3.511   0.717  17.490 -2.2770 -3.2986  1.6273
 2614SOL     OW19474   4.326   1.513   1.117  0.2350 -0.3323  0.2139
 2614SOL    HW119475   4.289   1.561   1.192  0.6750 -1.1350  0.9446
 2614SOL    HW219476   4.393   1.464   1.164  0.1756 -0.2124  0.4263
 2615SOL     OW19477   2.274   4.606  13.044 -0.2153 -0.1378 -0.1355
 2615SOL    HW119478   2.353   4.598  13.099  0.9854  1.7107 -1.5739
 2615SOL    HW219479   2.295   4.529  12.992  1.0238  0.1180 -0.0200
 2616SOL     OW19480   0.045   3.475   0.987 -0.2428 -0.4128 -0.3473
 2616SOL    HW119481   0.125   3.490   0.937 -0.3941  0.5642 -0.3002
 2616SOL    HW219482   0.069   3.511   1.073  0.4696 -0.2942 -0.5911
 2617SOL     OW19483   1.280   1.217   9.530 -0.0675  0.8365  0.0316
 2617SOL    HW119484   1.355   1.217   9.471  0.4978  0.3717  0.7504
 2617SOL    HW219485   1.266   1.311   9.529 -1.0176  0.6887 -0.3975
 2618SOL     OW19486   4.695   1.611   2.841 -0.6590  0.1301 -0.5396
 2618SOL    HW119487   4.732   1.607   2.929 -0.9796  1.2468 -0.3542
 2618SOL    HW219488   4.628   1.679   2.845 -1.5303 -0.9510  2.5630
 2619SOL     OW19489   1.737   0.115   6.308  0.2474 -0.2917  0.2568
 2619SOL    HW119490   1.736   0.162   6.225  0.7163 -0.0532  0.3889
 2619SOL    HW219491   1.810   0.056   6.289  0.2238 -0.0418 -0.5770
 2620SOL     OW19492   3.373   2.079   4.407 -0.1913 -0.4943 -0.2043
 2620SOL    HW119493   3.451   2.039   4.368  1.2062  1.5627  0.4975
 2620SOL    HW219494   3.310   2.014   4.375 -1.9959  1.9161 -1.5453
 2621SOL     OW19495   3.386   4.041   4.767 -0.3860 -0.4362  0.5002
 2621SOL    HW119496   3.312   4.089   4.803 -0.5164 -0.1390 -0.1485
 2621SOL    HW219497   3.370   4.056   4.673 -0.7486 -0.5585  0.5433
 2622SOL     OW19498   2.037   1.058   4.770  0.4123  0.0561 -0.4478
 2622SOL    HW119499   2.078   1.135   4.731  1.5585 -1.1881 -1.6968
 2622SOL    HW219500   2.007   1.098   4.852  1.0603  0.3623 -0.3570
 2623SOL     OW19501   0.345   4.662   3.967  0.4519 -0.1205  0.6035
 2623SOL    HW119502   0.252   4.645   3.981  0.0254  1.0996 -0.8261
 2623SOL    HW219503   0.386   4.605   4.032  1.4440 -1.8192 -1.4820
 2624SOL     OW19504   1.139   4.684  12.878 -0.5128  0.2546  0.2694
 2624SOL    HW119505   1.151   4.697  12.784 -2.2908  0.8982  0.1450
 2624SOL    HW219506   1.114   4.592  12.880  2.4242 -0.5090  1.8378
 2625SOL     OW19507   4.659   3.947  16.143  0.1356 -0.0169  0.4859
 2625SOL    HW119508   4.719   3.872  16.139 -2.5588 -2.2278  1.4034
 2625SOL    HW219509   4.707   3.986  16.216  2.3857 -3.6555  0.9885
 2626SOL     OW19510   3.275   1.626  13.597  0.2499  0.3017 -0.3813
 2626SOL    HW119511   3.260   1.587  13.683  1.5601 -0.8306 -0.6614
 2626SOL    HW219512   3.365   1.654  13.610  0.4919  0.3501 -2.1332
 2627SOL     OW19513   4.067   3.829   1.389  0.2723  0.3930  0.0162
 2627SOL    HW119514   4.076   3.922   1.408 -3.6510  0.6939  0.3343
 2627SOL    HW219515   4.017   3.829   1.307  0.4253 -0.3612 -0.0807
 2628SOL     OW19516   2.110   2.775   8.721 -0.3297  0.1353 -0.0207
 2628SOL    HW119517   2.057   2.837   8.771 -2.1034  0.4103 -2.1917
 2628SOL    HW219518   2.141   2.839   8.656  1.2235 -0.3466  0.2561
 2629SOL     OW19519   2.128   1.127  12.338 -0.2928  0.5331 -0.1917
 2629SOL    HW119520   2.140   1.034  12.353  1.5921  1.0350  1.4241
 2629SOL    HW219521   2.074   1.123  12.259  2.0907  0.5472 -1.8088
 2630SOL     OW19522   1.968   1.558   4.056 -0.2091  0.2589  0.9276
 2630SOL    HW119523   2.040   1.611   4.022 -0.3520 -0.9316 -1.2324
 2630SOL    HW219524   1.894   1.589   4.003  0.1871  1.1988  0.9123
 2631SOL     OW19525   1.901   4.102  13.519 -0.4300  0.0068  0.3307
 2631SOL    HW119526   1.890   4.191  13.484 -1.9614  0.9043  3.0979
 2631SOL    HW219527   1.918   4.053  13.439  2.7864  0.0742  0.9615
 2632SOL     OW19528   0.984   4.706   4.306  0.7584 -0.0195 -0.0495
 2632SOL    HW119529   0.938   0.048   4.330  1.2826  0.6046 -1.1383
 2632SOL    HW219530   1.004   4.676   4.394 -0.0119 -1.5718 -0.4199
 2633SOL     OW19531   2.294   2.364   9.634  0.3097  0.1169 -0.2744
 2633SOL    HW119532   2.365   2.428   9.643  0.0755  0.1411  1.4761
 2633SOL    HW219533   2.222   2.403   9.683  1.0857 -0.3842  1.2649
 2634SOL     OW19534   4.704   3.486  16.012  0.0050  0.2271 -0.0776
 2634SOL    HW119535   0.039   3.487  15.951 -0.0330  0.1718 -0.1251
 2634SOL    HW219536   4.685   3.392  16.007  1.6215 -0.0591 -0.7493
 2635SOL     OW19537   3.560   1.953   7.836 -0.4554 -0.0472  0.5549
 2635SOL    HW119538   3.468   1.939   7.815  0.1678 -1.7821 -1.0096
 2635SOL    HW219539   3.589   2.034   7.794  0.2729 -0.1276  0.8932
 2636SOL     OW19540   4.685   1.148   8.219 -0.6811  0.3172  0.1839
 2636SOL    HW119541   4.690   1.197   8.301  0.9000 -2.6963  1.8865
 2636SOL    HW219542   0.038   1.141   8.193 -1.6925  2.6672 -3.9035
 2637SOL     OW19543   4.209   4.700   9.124 -0.2298 -0.7192 -0.0470
 2637SOL    HW119544   4.180   0.041   9.080 -0.6093 -1.8338 -1.8025
 2637SOL    HW219545   4.192   4.732   9.213  0.4683  0.3355 -0.2817
 2638SOL     OW19546   3.908   0.267  10.848 -0.1825 -0.4117 -0.1407
 2638SOL    HW119547   3.862   0.197  10.894  0.8028 -0.1856  1.1807
 2638SOL    HW219548   3.912   0.239  10.756 -1.5078  0.8781 -0.5750
 2639SOL     OW19549   4.543   0.824  17.525 -0.0341 -0.0462 -0.2248
 2639SOL    HW119550   4.466   0.808  17.470 -0.3362 -0.7185  0.3777
 2639SOL    HW219551   4.549   0.915  17.497 -0.6222 -0.3731 -1.4076
 2640SOL     OW19552   1.388   1.294   7.589  0.2067 -0.0982 -0.1283
 2640SOL    HW119553   1.482   1.300   7.609  0.2007 -0.5628  0.0443
 2640SOL    HW219554   1.361   1.261   7.675 -0.1210  0.1161 -0.1520
 2641SOL     OW19555   3.973   0.034   7.040  0.1454  0.4002 -0.0704
 2641SOL    HW119556   3.942   0.123   7.057 -1.5736 -0.4617  1.3373
 2641SOL    HW219557   3.885   4.736   7.047  0.6749 -0.8576 -0.2335
 2642SOL     OW19558   2.438   0.103   3.951  0.3088 -0.4166 -0.2345
 2642SOL    HW119559   2.449   0.175   3.889  1.9553 -0.7316 -0.3095
 2642SOL    HW219560   2.345   0.083   3.935  0.7302 -1.1660 -1.7493
 2643SOL     OW19561   3.504   4.556   9.290  0.3782  0.7715  0.1256
 2643SOL    HW119562   3.473   4.635   9.245 -0.1612  0.4648 -0.0459
 2643SOL    HW219563   3.463   4.477   9.254  2.1285 -1.2185  2.4329
 2644SOL     OW19564   2.459   0.172   3.409 -0.7499  1.0488  0.0304
 2644SOL    HW119565   2.506   0.215   3.480  1.4632 -3.6585  1.4274
 2644SOL    HW219566   2.528   0.125   3.362 -1.5253 -3.0595  3.0529
 2645SOL     OW19567   3.012   3.618   5.975  0.3416  0.1205 -0.8355
 2645SOL    HW119568   2.937   3.640   6.030  1.8614 -1.6909  1.9661
 2645SOL    HW219569   2.960   3.585   5.902 -0.6878 -1.0232  0.4284
 2646SOL     OW19570   1.992   1.518   9.549 -0.0112  0.0302  0.1927
 2646SOL    HW119571   2.038   1.594   9.514  1.9422 -1.0839  0.3109
 2646SOL    HW219572   1.913   1.519   9.494  0.8462  1.1533 -1.0075
 2647SOL     OW19573   3.710   0.638  12.001 -0.7001  0.6034 -0.3095
 2647SOL    HW119574   3.652   0.694  11.950 -0.3283 -0.8953 -2.3499
 2647SOL    HW219575   3.705   0.676  12.089  2.9576  1.3048 -0.4071
 2648SOL     OW19576   3.354   3.917   8.187 -0.4159  0.3691  0.2454
 2648SOL    HW119577   3.397   3.834   8.208  0.0285  0.9716  1.6891
 2648SOL    HW219578   3.393   3.973   8.255  0.4759 -1.1498  0.9841
 2649SOL     OW19579   1.317   0.360   2.022 -0.0104 -0.0866 -0.8213
 2649SOL    HW119580   1.333   0.406   2.104  2.1913 -0.4261 -1.0564
 2649SOL    HW219581   1.240   0.406   1.989 -0.8077 -1.4198 -0.8280
 2650SOL     OW19582   2.809   3.002   9.752 -0.2984  0.2428 -0.3263
 2650SOL    HW119583   2.745   3.014   9.822 -0.9191 -0.4399 -0.7796
 2650SOL    HW219584   2.868   3.077   9.753 -0.1986  0.1674 -0.9003
 2651SOL     OW19585   0.695   0.244  15.545  0.0382 -0.2243  0.5926
 2651SOL    HW119586   0.706   0.151  15.565  1.3643 -0.2102 -0.0748
 2651SOL    HW219587   0.730   0.268  15.460 -0.0873 -0.3054  0.5177
 2652SOL     OW19588   0.159   2.869   7.911  0.0351  0.2252  0.6314
 2652SOL    HW119589   0.099   2.888   7.983 -1.5248 -1.8697 -0.1063
 2652SOL    HW219590   0.170   2.774   7.922  1.8491 -0.0251 -3.3647
 2653SOL     OW19591   0.284   2.277   2.094  0.2600  0.0153 -0.2070
 2653SOL    HW119592   0.366   2.272   2.045  0.0613 -2.5505 -0.2797
 2653SOL    HW219593   0.325   2.278   2.180 -3.5617  0.6964  1.6134
 2654SOL     OW19594   1.441   4.286  11.771  0.0424  0.3060  0.4769
 2654SOL    HW119595   1.534   4.279  11.750 -0.1382 -0.3474 -0.1005
 2654SOL    HW219596   1.424   4.372  11.810 -1.9137 -0.6941  1.8293
 2655SOL     OW19597   3.654   3.172  15.325  0.3791  0.2035 -0.1764
 2655SOL    HW119598   3.706   3.133  15.256 -1.8770 -2.5407 -0.3150
 2655SOL    HW219599   3.599   3.238  15.283 -0.5038 -0.0170  0.6254
 2656SOL     OW19600   3.001   1.944   1.838 -0.0038 -0.1352  0.0561
 2656SOL    HW119601   3.031   2.017   1.891 -1.0027  0.5423 -0.3152
 2656SOL    HW219602   2.946   1.893   1.898  0.3041 -0.1520  0.3257
 2657SOL     OW19603   1.005   1.887   0.200  0.3424  0.0760  0.2195
 2657SOL    HW119604   0.957   1.821   0.150  0.6187 -0.1473  0.2448
 2657SOL    HW219605   0.933   1.904   0.261  0.6080  1.1697  0.2148
 2658SOL     OW19606   0.878   1.621   8.124  0.1684  0.0803  0.3691
 2658SOL    HW119607   0.845   1.543   8.171 -0.7881 -0.5425 -1.3622
 2658SOL    HW219608   0.954   1.648   8.175 -1.2893 -0.9383  3.1478
 2659SOL     OW19609   4.154   3.865  17.171 -0.2086  0.0362 -0.3546
 2659SOL    HW119610   4.129   3.838  17.083 -2.4683  1.7258 -0.2425
 2659SOL    HW219611   4.236   3.909  17.151  0.8955 -2.2529 -0.8339
 2660SOL     OW19612   2.881   2.374   9.470 -0.0571 -0.3369 -0.1104
 2660SOL    HW119613   2.789   2.348   9.464  0.4123 -2.0824  0.3314
 2660SOL    HW219614   2.888   2.431   9.393 -1.1083 -0.0177  0.0387
 2661SOL     OW19615   3.470   0.548   2.119  0.3140 -0.0305 -0.6144
 2661SOL    HW119616   3.383   0.541   2.079  0.2324 -1.4491 -0.1680
 2661SOL    HW219617   3.528   0.568   2.046 -0.9644  1.3269 -1.2694
 2662SOL     OW19618   4.006   1.400   3.385  0.4611  0.4293  0.2304
 2662SOL    HW119619   4.084   1.367   3.430 -1.1602 -1.9132  1.3541
 2662SOL    HW219620   4.020   1.378   3.293  1.5698  0.4010  0.4036
 2663SOL     OW19621   2.413   2.744  15.345 -0.1561 -0.2499  0.0711
 2663SOL    HW119622   2.426   2.700  15.430 -0.2021 -2.3409 -0.9881
 2663SOL    HW219623   2.408   2.837  15.367  0.0537 -0.7845  2.4726
 2664SOL     OW19624   3.838   2.151   1.286 -0.2582  0.3642  0.2730
 2664SOL    HW119625   3.804   2.201   1.360 -0.3602  2.6966 -1.3391
 2664SOL    HW219626   3.902   2.206   1.241 -1.3735  0.5781 -1.0555
 2665SOL     OW19627   2.352   4.304   4.284  0.1181  0.4152 -0.0478
 2665SOL    HW119628   2.441   4.338   4.292  0.7532 -0.6892 -2.1934
 2665SOL    HW219629   2.362   4.237   4.216  0.4611  1.5583 -1.1356
 2666SOL     OW19630   0.753   1.982  15.617  0.3790  0.7520 -0.1089
 2666SOL    HW119631   0.691   1.996  15.546  1.2454 -0.6606 -1.1386
 2666SOL    HW219632   0.803   2.060  15.595  1.2830 -0.0379 -0.8724
 2667SOL     OW19633   4.397   4.524   3.395 -0.6498 -0.3743  0.6179
 2667SOL    HW119634   4.305   4.505   3.414 -0.8492  0.4767  0.5317
 2667SOL    HW219635   4.437   4.483   3.471 -0.2808  1.1011  1.2269
 2668SOL     OW19636   2.959   3.789  12.684 -1.1115  0.5244  0.5447
 2668SOL    HW119637   2.942   3.703  12.646  0.0799  0.0798  0.9910
 2668SOL    HW219638   3.048   3.813  12.656 -1.1599  0.7432  0.5785
 2669SOL     OW19639   4.040   3.739   3.077 -0.4672  0.3837 -0.1828
 2669SOL    HW119640   4.007   3.652   3.054  0.4423  0.4374 -1.7449
 2669SOL    HW219641   4.130   3.726   3.046  0.1669 -1.3781  2.4168
 2670SOL     OW19642   3.257   4.120   7.248  0.0662  0.2717 -0.1908
 2670SOL    HW119643   3.304   4.039   7.271  2.1445  1.1546 -1.2822
 2670SOL    HW219644   3.179   4.116   7.303 -0.7202 -0.2581 -1.3381
 2671SOL     OW19645   3.272   3.292   2.186  0.8586 -0.2650  0.4690
 2671SOL    HW119646   3.282   3.344   2.266  0.0176 -2.1383  1.7856
 2671SOL    HW219647   3.215   3.352   2.137  0.5351  0.0286  1.2125
 2672SOL     OW19648   2.036   3.971   7.741 -0.8796 -0.2535  0.5031
 2672SOL    HW119649   2.070   3.882   7.736  0.0578  0.2131 -1.8096
 2672SOL    HW219650   2.114   4.021   7.765  0.4111 -0.7752 -2.5094
 2673SOL     OW19651   0.438   2.470   7.849 -0.1696  0.6203 -0.0413
 2673SOL    HW119652   0.517   2.508   7.885 -0.3079  0.5258  0.3541
 2673SOL    HW219653   0.381   2.546   7.857 -2.6181 -1.1027 -0.8117
 2674SOL     OW19654   2.698   2.701   3.421 -0.0838 -0.1635 -0.4549
 2674SOL    HW119655   2.746   2.630   3.380 -0.2672  0.2157 -1.3191
 2674SOL    HW219656   2.768   2.733   3.478  0.7197 -1.6648 -0.5990
 2675SOL     OW19657   2.696   2.931   6.633  0.8002  0.1342  0.5127
 2675SOL    HW119658   2.662   3.005   6.582 -0.6262 -1.6015 -1.0384
 2675SOL    HW219659   2.629   2.905   6.696  0.2156  1.7253  0.5365
 2676SOL     OW19660   2.602   3.442   7.082 -0.1286  0.2560  0.3519
 2676SOL    HW119661   2.575   3.522   7.037 -0.0685 -0.6961 -1.3548
 2676SOL    HW219662   2.697   3.438   7.077 -0.2888 -0.4282 -2.1137
 2677SOL     OW19663   1.122   0.471   8.160 -0.5653 -0.4285 -0.4762
 2677SOL    HW119664   1.038   0.429   8.142 -0.6339 -1.4525  2.2359
 2677SOL    HW219665   1.133   0.443   8.251 -1.2929  1.1946  0.1082
 2678SOL     OW19666   0.904   2.458   2.823  0.7337 -0.9066  0.0854
 2678SOL    HW119667   0.874   2.471   2.913 -2.1766 -0.9671 -0.8663
 2678SOL    HW219668   0.839   2.398   2.785  0.7912  1.0913 -3.1692
 2679SOL     OW19669   3.040   0.086  17.155 -0.5682  0.1229  0.8654
 2679SOL    HW119670   2.997   0.158  17.202 -2.1375 -0.0581 -0.3022
 2679SOL    HW219671   3.109   0.063  17.217  0.9009 -0.3213 -0.9486
 2680SOL     OW19672   1.600   0.798  12.652  0.6175  0.0261 -0.3469
 2680SOL    HW119673   1.655   0.742  12.596  1.2368  1.2819 -0.9837
 2680SOL    HW219674   1.520   0.800  12.601 -0.2816  0.2654  1.0711
 2681SOL     OW19675   1.034   2.173   4.199  0.5937 -0.5148  0.5031
 2681SOL    HW119676   1.034   2.143   4.108  0.6690  2.9521 -0.6198
 2681SOL    HW219677   1.042   2.268   4.190  0.3088 -0.4942  0.4732
 2682SOL     OW19678   0.414   1.000  17.601 -0.1360 -0.1161 -0.2293
 2682SOL    HW119679   0.361   0.984  17.679 -3.3810  0.4114 -2.2833
 2682SOL    HW219680   0.494   0.965  17.638 -1.4905 -0.3505  2.4524
 2683SOL     OW19681   0.427   1.265   6.106 -0.1186 -0.2201  0.0774
 2683SOL    HW119682   0.395   1.331   6.168  3.5652  2.3008 -0.6875
 2683SOL    HW219683   0.357   1.248   6.043  2.2823 -1.0342 -2.3874
 2684SOL     OW19684   2.870   2.998   3.894  0.2239  0.8006  0.3386
 2684SOL    HW119685   2.822   2.916   3.889 -1.1572  1.5694  1.2625
 2684SOL    HW219686   2.840   3.032   3.978 -0.0338 -0.0535  0.5904
 2685SOL     OW19687   1.668   1.392  15.878  0.5304 -0.3931 -0.2336
 2685SOL    HW119688   1.686   1.315  15.824 -0.0046 -0.0048 -0.9663
 2685SOL    HW219689   1.738   1.447  15.844  1.8289 -1.4129  0.8211
 2686SOL     OW19690   2.493   0.469   5.677  0.0028 -0.1188 -0.1869
 2686SOL    HW119691   2.404   0.505   5.678  0.3960  0.8114  0.4790
 2686SOL    HW219692   2.467   0.387   5.635 -1.5035 -0.2835  1.0765
 2687SOL     OW19693   3.195   1.474   2.337  0.5240 -0.1765 -0.0589
 2687SOL    HW119694   3.204   1.533   2.411 -0.5317  0.5835 -0.5476
 2687SOL    HW219695   3.236   1.531   2.271  0.8728  0.9313  1.1277
 2688SOL     OW19696   0.770   2.939   2.657  0.3960  1.0908 -0.1942
 2688SOL    HW119697   0.740   2.894   2.578 -0.0238  0.2750  0.4345
 2688SOL    HW219698   0.692   2.991   2.677 -0.5424  0.3682 -1.9763
 2689SOL     OW19699   1.345   2.902   4.084  0.5756  0.1776 -0.7156
 2689SOL    HW119700   1.284   2.844   4.039  1.8532 -1.2879 -0.5808
 2689SOL    HW219701   1.397   2.921   4.006 -0.6264  0.1281 -1.5136
 2690SOL     OW19702   2.126   3.348  15.194  0.0084 -0.2408  0.3618
 2690SOL    HW119703   2.071   3.273  15.175  0.4124 -0.3139 -0.4889
 2690SOL    HW219704   2.071   3.393  15.259  0.7662 -0.7821  1.3874
 2691SOL     OW19705   2.673   2.579   9.906  0.7334 -0.6264  0.1510
 2691SOL    HW119706   2.718   2.494   9.905  0.0680 -0.9766 -0.2318
 2691SOL    HW219707   2.739   2.648   9.902 -0.0115  0.1338  1.0515
 2692SOL     OW19708   0.059   0.511  15.278  0.0804 -0.2458  0.2844
 2692SOL    HW119709   0.104   0.524  15.194  0.5148  2.9885  1.0341
 2692SOL    HW219710   4.711   0.481  15.253  0.1244 -0.3545  0.2579
 2693SOL     OW19711   2.508   4.017   3.209  0.4718  0.0833  0.8189
 2693SOL    HW119712   2.573   4.036   3.277  1.1543 -2.0120  0.7653
 2693SOL    HW219713   2.430   4.068   3.230  1.1625  2.1345 -1.6904
 2694SOL     OW19714   2.219   2.431   7.033 -0.2973 -0.1727 -0.0789
 2694SOL    HW119715   2.212   2.455   6.940 -1.7216 -0.4240 -0.0327
 2694SOL    HW219716   2.130   2.403   7.056 -0.5381  2.4158  2.0604
 2695SOL     OW19717   2.978   1.468   0.570 -0.6939 -0.2065 -0.0478
 2695SOL    HW119718   2.888   1.480   0.600 -0.8451 -2.3859  0.4026
 2695SOL    HW219719   2.970   1.374   0.553 -1.7576  0.0974 -1.2057
 2696SOL     OW19720   0.058   2.617   5.585  0.1568 -0.4757  0.0784
 2696SOL    HW119721   0.113   2.564   5.642 -0.9711 -0.7142  0.9497
 2696SOL    HW219722   0.119   2.687   5.564  0.2290 -0.0934  1.5957
 2697SOL     OW19723   1.882   2.529   5.196 -0.2434  0.0188 -0.5301
 2697SOL    HW119724   1.807   2.588   5.184  0.9233  1.7421  0.5388
 2697SOL    HW219725   1.951   2.587   5.165 -0.3689 -1.4648 -3.5221
 2698SOL     OW19726   1.853   2.627   5.838 -0.0091 -0.2834 -0.2691
 2698SOL    HW119727   1.862   2.551   5.780  3.4071 -0.4606  0.4789
 2698SOL    HW219728   1.870   2.704   5.785 -0.1801  0.2699  0.4835
 2699SOL     OW19729   1.649   1.221   0.217  0.5675  0.4719 -0.0453
 2699SOL    HW119730   1.662   1.144   0.161  1.9031  1.5034 -1.1464
 2699SOL    HW219731   1.596   1.279   0.162  2.8648  3.4474  0.8535
 2700SOL     OW19732   3.310   3.637  17.519 -0.0504 -0.0957  0.2773
 2700SOL    HW119733   3.374   3.588  17.570  0.0068 -0.9728 -0.6344
 2700SOL    HW219734   3.364   3.702  17.472 -0.1921 -0.4738 -0.4087
 2701SOL     OW19735   2.518   4.054   8.285  0.1401  0.3147  0.0115
 2701SOL    HW119736   2.600   4.005   8.279 -1.3925 -2.0749 -1.3148
 2701SOL    HW219737   2.451   3.986   8.276  0.3715  0.1769 -0.7005
 2702SOL     OW19738   4.356   4.600   7.261 -0.1358 -0.0795  0.2982
 2702SOL    HW119739   4.269   4.638   7.260  0.6685  1.7600  1.4139
 2702SOL    HW219740   4.360   4.583   7.355 -1.4213 -0.0466  0.3538
 2703SOL     OW19741   3.904   1.374  16.801 -0.0430  0.5955  0.1815
 2703SOL    HW119742   3.872   1.286  16.783 -1.1071  1.2967 -1.3701
 2703SOL    HW219743   3.916   1.408  16.713  0.6413 -3.7227 -1.3877
 2704SOL     OW19744   0.885   3.173   8.726  0.4442 -0.0563 -0.1629
 2704SOL    HW119745   0.841   3.232   8.664 -0.4674  0.0361  0.5790
 2704SOL    HW219746   0.825   3.099   8.716 -0.2591  0.5935 -0.7639
 2705SOL     OW19747   0.862   3.356  15.719 -0.3086  0.7790  0.3159
 2705SOL    HW119748   0.854   3.382  15.627 -0.6615 -1.7353 -0.3578
 2705SOL    HW219749   0.897   3.268  15.708 -0.2199  0.9646 -0.9871
 2706SOL     OW19750   3.106   0.740   9.140  0.6283 -0.9220 -0.2774
 2706SOL    HW119751   3.133   0.792   9.064 -0.1453  1.0632  0.8031
 2706SOL    HW219752   3.106   0.652   9.104 -3.1148 -0.9268 -0.2852
 2707SOL     OW19753   0.002   0.966  16.737 -0.1448  0.0680 -0.1209
 2707SOL    HW119754   4.681   0.987  16.666 -1.0617 -1.5788  0.1525
 2707SOL    HW219755   4.694   0.983  16.819  3.0094 -2.4393  2.1863
 2708SOL     OW19756   3.704   0.420   9.404 -0.2147 -0.7756  0.0408
 2708SOL    HW119757   3.662   0.356   9.348 -0.8271  1.9503 -2.6247
 2708SOL    HW219758   3.655   0.500   9.387  1.2268 -0.0216 -0.5699
 2709SOL     OW19759   0.535   2.778   4.607 -0.8397  0.0916  0.3346
 2709SOL    HW119760   0.500   2.739   4.526 -0.0536  1.4392 -0.6462
 2709SOL    HW219761   0.563   2.699   4.654  1.3040  0.3637 -0.4662
 2710SOL     OW19762   0.817   1.168  12.716  0.0527 -0.0825  0.1742
 2710SOL    HW119763   0.758   1.111  12.766  1.3257 -0.5684  1.1245
 2710SOL    HW219764   0.880   1.102  12.686  3.0906  1.6346  2.8130
 2711SOL     OW19765   4.158   4.611  14.757 -0.1633  0.1617 -0.5098
 2711SOL    HW119766   4.105   4.557  14.699  2.2340 -0.8809 -1.7217
 2711SOL    HW219767   4.124   4.699  14.738 -1.3674 -0.2349 -0.2152
 2712SOL     OW19768   1.210   1.255   6.212  0.4304 -0.2192 -0.0969
 2712SOL    HW119769   1.155   1.243   6.135 -0.0658  0.1690  0.1896
 2712SOL    HW219770   1.284   1.198   6.193 -0.2898 -1.0025 -0.5311
 2713SOL     OW19771   1.981   1.173   5.746 -0.4448  0.5434 -0.1813
 2713SOL    HW119772   1.946   1.186   5.658 -0.7951 -0.7264 -0.2216
 2713SOL    HW219773   1.908   1.150   5.802 -1.8368  0.8913 -1.8599
 2714SOL     OW19774   2.957   1.060   7.020  0.2730 -0.4290  0.1274
 2714SOL    HW119775   2.993   0.976   7.047  0.8640  0.0361  0.7600
 2714SOL    HW219776   2.871   1.059   7.062 -0.6351 -1.1259 -1.7146
 2715SOL     OW19777   3.751   1.628   6.368  0.0728 -0.4175  0.7463
 2715SOL    HW119778   3.763   1.677   6.450 -0.6126  2.1482 -0.6756
 2715SOL    HW219779   3.837   1.585   6.369  1.1346  1.7313  2.2079
 2716SOL     OW19780   0.970   4.382   3.686 -0.8427 -0.1657 -0.1677
 2716SOL    HW119781   1.046   4.439   3.677 -1.5070  0.8475  0.6549
 2716SOL    HW219782   0.947   4.393   3.779  2.4971  0.6053  0.5670
 2717SOL     OW19783   3.642   1.579   3.313 -0.5462  0.4380  0.2044
 2717SOL    HW119784   3.720   1.601   3.261  0.0150  1.4706  1.4761
 2717SOL    HW219785   3.668   1.510   3.375  0.9215  0.3857 -0.4523
 2718SOL     OW19786   3.093   3.905  15.570 -0.1072 -0.1286 -0.3725
 2718SOL    HW119787   3.163   3.871  15.625 -1.4736 -1.3788  0.5929
 2718SOL    HW219788   3.105   3.999  15.582  0.4497 -0.2431 -0.0538
 2719SOL     OW19789   3.014   2.073   4.771  0.5239  0.1511  0.3318
 2719SOL    HW119790   2.999   2.117   4.688 -1.8089 -0.2208  0.5606
 2719SOL    HW219791   2.933   2.112   4.804  1.7339  0.4986  2.9074
 2720SOL     OW19792   0.795   3.497   5.348 -0.3697  0.7470 -0.1906
 2720SOL    HW119793   0.718   3.444   5.331  0.0629 -0.3774  1.2913
 2720SOL    HW219794   0.849   3.424   5.379  2.0957  2.4965 -0.3074
 2721SOL     OW19795   2.403   3.354  17.703  0.4765 -0.3136  0.3410
 2721SOL    HW119796   2.489   3.338  17.664  0.7801  2.2425 -0.0337
 2721SOL    HW219797   2.359   3.375  17.620  0.6813 -0.2066  0.2597
 2722SOL     OW19798   0.933   0.192  13.886  0.0275  0.4683 -0.3465
 2722SOL    HW119799   0.860   0.133  13.903 -0.0551  0.1563 -1.8024
 2722SOL    HW219800   0.898   0.278  13.911 -0.5577  1.0153 -3.0612
 2723SOL     OW19801   1.011   2.514  13.091 -0.4642  0.1448 -0.7083
 2723SOL    HW119802   0.988   2.482  13.178  0.3721  2.1172  0.2466
 2723SOL    HW219803   0.927   2.553  13.066  1.0566  2.6738 -1.9420
 2724SOL     OW19804   3.689   1.672  10.521  0.0401  0.2994 -0.2051
 2724SOL    HW119805   3.663   1.742  10.462 -0.1946 -0.2473 -0.7558
 2724SOL    HW219806   3.774   1.645  10.485 -0.5283 -0.3777 -1.0513
 2725SOL     OW19807   0.293   2.400   8.844  0.0421  0.7570  0.1245
 2725SOL    HW119808   0.221   2.458   8.870 -1.5954 -0.7150 -1.1127
 2725SOL    HW219809   0.356   2.412   8.915  1.4277 -0.6802 -0.8586
 2726SOL     OW19810   1.362   1.933   3.759 -0.4368 -0.0183  0.2167
 2726SOL    HW119811   1.400   1.983   3.831  0.1372 -0.2358  0.0660
 2726SOL    HW219812   1.370   1.843   3.791  1.7182  0.2316  0.4166
 2727SOL     OW19813   2.690   2.709   6.992  0.3893 -0.3789 -0.3076
 2727SOL    HW119814   2.641   2.785   7.025 -0.2456 -0.8032 -0.2686
 2727SOL    HW219815   2.638   2.646   7.042 -1.4517  1.2537 -0.1521
 2728SOL     OW19816   2.440   2.072   3.729 -0.2076 -0.1576  0.5700
 2728SOL    HW119817   2.460   2.075   3.635 -0.2680 -1.8626  0.4935
 2728SOL    HW219818   2.524   2.099   3.766  0.0551 -1.5189  0.9625
 2729SOL     OW19819   1.600   1.681  14.576 -0.1398 -0.9774 -0.3134
 2729SOL    HW119820   1.583   1.773  14.552 -2.6368 -1.6479 -1.1488
 2729SOL    HW219821   1.678   1.661  14.524  0.7224  0.9913  0.2227
 2730SOL     OW19822   2.206   0.352   4.715  0.2857 -0.1576 -0.4664
 2730SOL    HW119823   2.146   0.310   4.654 -0.3100  0.0958 -0.0510
 2730SOL    HW219824   2.141   0.376   4.781  0.7330 -0.6214  0.1404
 2731SOL     OW19825   1.289   3.890   8.391 -0.4076  0.3697  0.4653
 2731SOL    HW119826   1.376   3.925   8.374 -0.0079 -0.8784 -0.1067
 2731SOL    HW219827   1.263   3.852   8.306 -1.2331 -0.4617  1.0858
 2732SOL     OW19828   2.160   1.636  10.728 -0.0815  0.3049 -0.0852
 2732SOL    HW119829   2.166   1.623  10.823  0.2922  1.3473  0.0422
 2732SOL    HW219830   2.075   1.677  10.713 -0.3281  0.4022  1.5515
 2733SOL     OW19831   0.512   1.298  15.959  0.2098 -0.2635  0.9626
 2733SOL    HW119832   0.581   1.247  15.917 -0.7678 -0.2670 -0.6355
 2733SOL    HW219833   0.553   1.382  15.979  0.3139  0.4535 -2.2749
 2734SOL     OW19834   1.619   4.453   9.182 -0.2432 -0.0113 -0.0383
 2734SOL    HW119835   1.710   4.483   9.176  0.1842 -1.5455 -1.1779
 2734SOL    HW219836   1.609   4.381   9.120  0.7751  1.4914 -1.9532
 2735SOL     OW19837   0.824   0.316   2.442  0.0108  0.1440  0.1327
 2735SOL    HW119838   0.816   0.221   2.436 -2.0834  0.2847  0.5356
 2735SOL    HW219839   0.910   0.323   2.400 -0.0438 -2.0355 -0.3694
 2736SOL     OW19840   4.089   3.692   2.229  0.1329 -0.0050  0.3924
 2736SOL    HW119841   4.167   3.709   2.281  1.1814 -3.5946 -0.0315
 2736SOL    HW219842   4.037   3.658   2.301 -1.6104 -0.1924 -0.9385
 2737SOL     OW19843   0.097   2.223   3.490  0.0633 -0.2516  0.2839
 2737SOL    HW119844   0.147   2.290   3.537  0.9161 -0.9520  0.3759
 2737SOL    HW219845   0.013   2.219   3.535 -0.2981 -1.4796 -0.5066
 2738SOL     OW19846   1.280   2.920   7.515 -0.0301 -0.2569 -0.4680
 2738SOL    HW119847   1.242   2.914   7.427  0.8987  2.7415 -1.0728
 2738SOL    HW219848   1.205   2.890   7.566  0.4365  0.8500  0.8652
 2739SOL     OW19849   3.585   2.787   2.918  0.2427 -0.3093 -0.4024
 2739SOL    HW119850   3.512   2.818   2.971  1.9431  2.7293  0.1965
 2739SOL    HW219851   3.615   2.712   2.969 -1.0817 -0.6905 -0.1940
 2740SOL     OW19852   1.366   0.247  10.122  0.5141 -0.3065 -0.1045
 2740SOL    HW119853   1.419   0.218  10.048 -0.3199 -1.0493 -0.4121
 2740SOL    HW219854   1.335   0.332  10.091 -0.4941 -0.6620 -0.0699
 2741SOL     OW19855   1.662   2.728   6.714  0.0173  0.1047  0.1950
 2741SOL    HW119856   1.694   2.729   6.624 -2.4797  0.7589 -0.6937
 2741SOL    HW219857   1.698   2.808   6.752  0.0940  0.6708 -1.0576
 2742SOL     OW19858   2.348   3.571   3.943  0.7362 -0.0470 -0.1628
 2742SOL    HW119859   2.271   3.618   3.912 -0.3068  0.0395  2.5340
 2742SOL    HW219860   2.388   3.642   3.993  1.6744 -2.0390  1.9410
 2743SOL     OW19861   2.981   4.612  10.060 -0.3404 -0.7089  0.1015
 2743SOL    HW119862   2.921   4.660  10.117  1.5195 -0.2039  1.6080
 2743SOL    HW219863   3.006   4.673   9.990 -0.3567  0.5155  1.1703
 2744SOL     OW19864   3.249   2.449   8.729  0.6685 -0.4962 -0.4973
 2744SOL    HW119865   3.243   2.544   8.737 -2.4264 -0.5126 -2.8451
 2744SOL    HW219866   3.330   2.449   8.678  1.8895 -0.1716  1.4465
 2745SOL     OW19867   3.161   1.633   8.856  0.0621 -0.3404  0.2475
 2745SOL    HW119868   3.187   1.724   8.871 -1.7888  0.4611 -1.4915
 2745SOL    HW219869   3.159   1.629   8.761  2.1182  1.1012  0.1387
 2746SOL     OW19870   3.594   4.342   6.397  0.3089 -0.1477  0.4250
 2746SOL    HW119871   3.571   4.411   6.336 -1.3540  0.2084  1.4525
 2746SOL    HW219872   3.607   4.398   6.474 -0.8627  0.3655  0.2484
 2747SOL     OW19873   3.919   0.312   3.874 -0.5713 -0.1101 -0.3450
 2747SOL    HW119874   3.840   0.322   3.927 -0.5662 -1.1414 -0.1285
 2747SOL    HW219875   3.881   0.249   3.812  1.6849 -1.2033 -0.5938
 2748SOL     OW19876   0.260   0.838  17.444 -0.8330  0.0859 -0.2170
 2748SOL    HW119877   0.305   0.897  17.504 -0.4995 -0.3117 -0.0819
 2748SOL    HW219878   0.234   0.900  17.376  0.4692  0.2384 -0.5711
 2749SOL     OW19879   0.409   1.526   1.087 -0.4796 -0.2839 -0.2307
 2749SOL    HW119880   0.363   1.568   1.014  0.1341  0.5013 -0.1592
 2749SOL    HW219881   0.500   1.518   1.061 -0.8831 -1.0389 -1.4120
 2750SOL     OW19882   0.625   1.498   0.675  0.3102 -0.2834  0.0319
 2750SOL    HW119883   0.697   1.505   0.612 -1.0400 -0.0784 -1.4911
 2750SOL    HW219884   0.582   1.583   0.665  0.5068 -0.0144  1.4845
 2751SOL     OW19885   4.148   0.153   4.468  0.0102  0.3281 -0.1472
 2751SOL    HW119886   4.084   0.142   4.398 -0.9518  0.5489  0.7003
 2751SOL    HW219887   4.129   0.245   4.486 -1.7594 -0.3718  1.4777
 2752SOL     OW19888   1.640   0.187   5.323 -0.4967  0.2845 -0.1196
 2752SOL    HW119889   1.601   0.116   5.374 -0.5008 -0.0390 -0.5743
 2752SOL    HW219890   1.646   0.147   5.237 -1.8833  2.3821 -1.1887
 2753SOL     OW19891   1.103   1.787   2.138  0.3205 -0.3824  0.1252
 2753SOL    HW119892   1.056   1.826   2.065  0.8773  1.3826  0.7228
 2753SOL    HW219893   1.194   1.786   2.110  0.4213  1.4974  0.4447
 2754SOL     OW19894   3.450   1.980   4.786  0.2348  0.3339 -0.2681
 2754SOL    HW119895   3.434   1.917   4.857  1.3246 -0.9526 -1.1581
 2754SOL    HW219896   3.404   1.931   4.719 -0.5471  0.7760 -0.0559
 2755SOL     OW19897   3.797   4.625   4.522  0.2200  0.2963 -0.0580
 2755SOL    HW119898   3.742   4.652   4.596 -0.9573 -2.3095  0.0005
 2755SOL    HW219899   3.731   4.621   4.453 -0.3354  0.2453  0.4713
 2756SOL     OW19900   1.709   1.403   5.011  0.2479  0.0404  0.1718
 2756SOL    HW119901   1.620   1.436   4.999 -0.4585 -1.3439  1.7529
 2756SOL    HW219902   1.710   1.399   5.106 -0.5318 -1.9173  0.1045
 2757SOL     OW19903   3.989   2.207   0.272  0.3908  0.0801  0.1925
 2757SOL    HW119904   3.966   2.115   0.257  1.8911 -0.6357  2.3069
 2757SOL    HW219905   3.912   2.230   0.325  1.0327  0.2384  1.0600
 2758SOL     OW19906   3.381   3.508   6.123  0.4829  0.4618 -0.3028
 2758SOL    HW119907   3.324   3.583   6.137  0.1453  0.1775 -0.1572
 2758SOL    HW219908   3.368   3.496   6.029 -0.1990  1.2166 -0.2998
 2759SOL     OW19909   2.475   1.419  12.695 -0.8668  0.2141 -0.1246
 2759SOL    HW119910   2.525   1.389  12.771 -2.0648 -0.2312  0.4941
 2759SOL    HW219911   2.406   1.461  12.746 -0.1014  0.4788  0.6955
 2760SOL     OW19912   1.170   1.694   2.428 -0.8187 -0.5162 -0.3590
 2760SOL    HW119913   1.153   1.758   2.359  0.4640  1.1458  0.8445
 2760SOL    HW219914   1.185   1.762   2.494  0.5451 -1.2045  0.0359
 2761SOL     OW19915   4.225   3.508   5.611  0.5402  0.0538 -0.3437
 2761SOL    HW119916   4.172   3.582   5.642 -2.6110 -1.8448 -1.2426
 2761SOL    HW219917   4.312   3.537   5.640  0.7298 -1.7186  0.8058
 2762SOL     OW19918   0.394   2.763   2.532  0.9076 -0.3670  0.5452
 2762SOL    HW119919   0.352   2.814   2.602  0.0419  1.8909 -1.6488
 2762SOL    HW219920   0.438   2.826   2.475  0.1944  0.2089  0.6283
 2763SOL     OW19921   0.531   0.145  10.642 -0.4301 -0.2391  0.3002
 2763SOL    HW119922   0.575   0.077  10.694 -0.0962  0.4938  0.9673
 2763SOL    HW219923   0.535   0.219  10.703  1.7646  1.2949 -1.7040
 2764SOL     OW19924   4.086   2.674   0.355 -0.3615 -0.2440  0.2770
 2764SOL    HW119925   4.126   2.755   0.324  0.1727 -0.6864 -0.1794
 2764SOL    HW219926   4.019   2.666   0.287 -0.6607 -0.3004  0.5773
 2765SOL     OW19927   3.965   4.345   4.183  0.1531  0.3648  0.0332
 2765SOL    HW119928   4.040   4.377   4.233 -0.8290  0.1747  1.6320
 2765SOL    HW219929   3.898   4.356   4.251 -0.3827  1.7744 -0.7197
 2766SOL     OW19930   3.296   3.008   7.101 -0.2867  0.3063  0.6319
 2766SOL    HW119931   3.318   3.086   7.151  1.6568  0.6178 -0.7085
 2766SOL    HW219932   3.328   3.031   7.014 -1.6954  1.4264  0.4131
 2767SOL     OW19933   4.663   2.001  16.324  0.5380 -0.6654 -0.3126
 2767SOL    HW119934   4.714   1.920  16.321  0.2018 -0.9564  1.7593
 2767SOL    HW219935   4.619   1.989  16.408  1.5184  1.5678  0.5210
 2768SOL     OW19936   0.669   2.641   5.200  0.4763  0.6239  0.2663
 2768SOL    HW119937   0.583   2.617   5.234  0.5401 -0.5114 -0.3479
 2768SOL    HW219938   0.662   2.736   5.189  0.8713  0.4765 -1.2833
 2769SOL     OW19939   0.796   0.892  17.383  0.0366 -0.7194  0.1624
 2769SOL    HW119940   0.857   0.961  17.357 -2.0728  1.5671  1.3512
 2769SOL    HW219941   0.827   0.815  17.334  3.2977  1.7998 -1.7927
 2770SOL     OW19942   3.765   0.471  13.161 -0.0748  0.2343  0.3747
 2770SOL    HW119943   3.702   0.517  13.106 -0.0785  0.0975  0.2630
 2770SOL    HW219944   3.761   0.382  13.125 -0.0841 -0.4358  2.0398
 2771SOL     OW19945   2.112   3.599   8.118  0.3211  0.3211  0.3251
 2771SOL    HW119946   2.074   3.622   8.203 -0.1276 -0.4638  0.3335
 2771SOL    HW219947   2.030   3.570   8.077  1.1755 -0.7290 -0.6492
 2772SOL     OW19948   4.576   0.559  11.911 -0.1081  0.0769  0.0466
 2772SOL    HW119949   4.598   0.492  11.975 -0.7043 -0.9073 -0.7928
 2772SOL    HW219950   4.656   0.612  11.905 -1.2314  1.4529 -2.9817
 2773SOL     OW19951   0.832   4.264   4.783  0.2815 -0.2665  0.1228
 2773SOL    HW119952   0.793   4.182   4.752 -2.0478  1.2615 -1.0271
 2773SOL    HW219953   0.759   4.300   4.835 -0.3158 -0.9808 -0.2159
 2774SOL     OW19954   0.633   2.293   2.305  0.3068  0.0042 -0.7545
 2774SOL    HW119955   0.540   2.273   2.320  0.6074 -1.8252 -1.2668
 2774SOL    HW219956   0.616   2.362   2.241 -0.1848  1.5389  1.0222
 2775SOL     OW19957   3.598   0.890   5.976  0.6795  0.2027 -0.0410
 2775SOL    HW119958   3.546   0.943   6.036  0.5720  0.0814 -0.0286
 2775SOL    HW219959   3.622   0.954   5.909  0.2242 -0.8318 -1.1817
 2776SOL     OW19960   0.676   2.009   0.846  1.0432  0.6505 -0.3245
 2776SOL    HW119961   0.672   2.103   0.864  0.0568  0.4816  0.3565
 2776SOL    HW219962   0.668   2.008   0.751  3.3839 -1.0014 -0.4894
 2777SOL     OW19963   0.956   1.377   5.259 -0.3568 -0.1429  0.1098
 2777SOL    HW119964   1.034   1.422   5.289  0.6336 -1.7293 -0.0436
 2777SOL    HW219965   0.996   1.291   5.244 -1.9895 -0.8775 -0.0262
 2778SOL     OW19966   4.241   1.980   6.104 -0.2936  0.1705 -0.5451
 2778SOL    HW119967   4.241   2.015   6.193 -0.2857  0.4723 -0.6667
 2778SOL    HW219968   4.335   1.970   6.087 -0.0580  1.1943  0.1087
 2779SOL     OW19969   0.484   3.116   5.161  0.1607  0.0084  0.2034
 2779SOL    HW119970   0.450   3.149   5.078 -1.9136 -1.7403  0.3503
 2779SOL    HW219971   0.410   3.126   5.221  2.1806  1.8095  2.3778
 2780SOL     OW19972   1.144   1.874   5.449 -0.5307  0.4603 -0.1194
 2780SOL    HW119973   1.074   1.827   5.404  0.4579 -0.0092 -1.1409
 2780SOL    HW219974   1.133   1.828   5.533 -1.5198  1.9638  0.5800
 2781SOL     OW19975   3.585   2.555   9.615 -0.2192  0.2785 -0.4791
 2781SOL    HW119976   3.528   2.631   9.603 -0.9003 -0.2502 -0.5976
 2781SOL    HW219977   3.657   2.600   9.658 -1.3609  0.1174  1.5784
 2782SOL     OW19978   3.084   0.696   9.406  0.3810 -0.6207 -0.1245
 2782SOL    HW119979   3.107   0.737   9.323 -3.2773 -0.9054 -1.2498
 2782SOL    HW219980   3.006   0.746   9.429  1.8912  1.4561  0.5168
 2783SOL     OW19981   1.915   3.365   8.858  0.3610  0.2640  0.1750
 2783SOL    HW119982   1.827   3.403   8.864  0.3860  0.4673 -0.8477
 2783SOL    HW219983   1.903   3.282   8.904  0.4666  2.1014  3.5878
 2784SOL     OW19984   0.987   2.086   0.774  0.0940 -0.0289 -0.3730
 2784SOL    HW119985   0.966   1.999   0.740 -0.4125 -0.0532 -0.0060
 2784SOL    HW219986   1.061   2.099   0.715  0.0873 -2.1698 -0.8417
 2785SOL     OW19987   4.447   1.006   8.225 -0.2289 -0.1464 -0.0045
 2785SOL    HW119988   4.427   1.021   8.133  0.9207 -0.6977 -0.3495
 2785SOL    HW219989   4.537   1.037   8.234 -0.5574  0.6787  0.3871
 2786SOL     OW19990   1.791   1.721  13.579 -0.0558  0.0038 -0.1215
 2786SOL    HW119991   1.768   1.814  13.580 -0.5482 -0.1140 -0.4899
 2786SOL    HW219992   1.887   1.723  13.572  0.0123 -2.4265  0.0453
 2787SOL     OW19993   4.506   0.527   6.266  0.0560 -0.9714  0.4531
 2787SOL    HW119994   4.420   0.498   6.234 -0.3921  2.4142 -1.3479
 2787SOL    HW219995   4.565   0.501   6.195 -1.7253 -0.8698 -1.0690
 2788SOL     OW19996   3.096   2.959  17.484 -0.7039  0.4066 -0.1420
 2788SOL    HW119997   3.065   2.971  17.394  0.4529  0.5313 -0.5254
 2788SOL    HW219998   3.038   2.898  17.529  1.6899 -0.3030  1.9638
 2789SOL     OW19999   1.124   3.644   1.138  0.1922  0.3917  0.4991
 2789SOL    HW120000   1.068   3.706   1.184 -0.7092  0.4908 -0.7440
 2789SOL    HW220001   1.147   3.702   1.065  1.1702  0.4226  0.8275
 2790SOL     OW20002   3.068   0.056   1.964  1.0862  0.1398  0.1746
 2790SOL    HW120003   3.029   0.133   1.923 -1.2949 -0.7331  0.8446
 2790SOL    HW220004   3.153   0.095   1.983 -0.5465  4.1923 -0.8989
 2791SOL     OW20005   1.288   0.808   6.346  0.1422  0.6724 -0.0791
 2791SOL    HW120006   1.319   0.727   6.306 -0.8173  0.2273  0.0906
 2791SOL    HW220007   1.203   0.777   6.376  0.6585  1.9961  2.7682
 2792SOL     OW20008   2.806   2.643   6.546 -0.1657  0.5492  0.0155
 2792SOL    HW120009   2.878   2.609   6.599 -0.9730  0.5815  1.1391
 2792SOL    HW220010   2.736   2.625   6.609 -0.7544  0.0349 -0.7725
 2793SOL     OW20011   2.728   2.165   8.938  0.6188  0.3703  0.4756
 2793SOL    HW120012   2.687   2.225   8.876  2.4068 -0.6476 -1.6971
 2793SOL    HW220013   2.656   2.111   8.971  0.9652 -1.5195 -1.8197
 2794SOL     OW20014   2.487   1.517   7.613 -0.0262  0.2376  0.3562
 2794SOL    HW120015   2.397   1.545   7.633  0.5280  2.7722 -0.7327
 2794SOL    HW220016   2.516   1.527   7.704 -0.6361  0.5993  0.5139
 2795SOL     OW20017   0.776   4.623   2.641 -1.0309  0.0940  0.0013
 2795SOL    HW120018   0.871   4.619   2.640 -0.9733  0.8422  1.6252
 2795SOL    HW220019   0.773   4.641   2.735 -0.2370  1.2565 -0.1922
 2796SOL     OW20020   2.033   1.367   9.228  0.1886  0.5961 -0.0539
 2796SOL    HW120021   2.029   1.364   9.132 -1.4019  0.8054  0.0013
 2796SOL    HW220022   1.954   1.321   9.256  1.1587 -1.0346 -0.0045
 2797SOL     OW20023   0.974   1.588   0.018 -0.0169 -0.2102  0.3567
 2797SOL    HW120024   0.943   1.501  17.747  0.5548 -0.3997  0.2851
 2797SOL    HW220025   1.003   1.616  17.685  0.2964 -0.5814  0.3362
 2798SOL     OW20026   3.007   2.685   9.052 -0.0785 -0.3284  0.2816
 2798SOL    HW120027   3.080   2.718   9.104 -0.4900  0.2747  0.4664
 2798SOL    HW220028   2.982   2.756   8.993  0.9842  2.2439  2.9911
 2799SOL     OW20029   3.771   3.028   3.481 -0.5806 -0.3270  0.7931
 2799SOL    HW120030   3.737   3.116   3.495  0.5500  0.4078 -1.0675
 2799SOL    HW220031   3.835   3.034   3.410 -1.2185  5.0265  0.7073
 2800SOL     OW20032   2.433   0.257   7.499  0.7788  0.5576  0.2695
 2800SOL    HW120033   2.427   0.162   7.495  1.2842  0.5351  0.0416
 2800SOL    HW220034   2.501   0.275   7.434  0.9752  1.4388  0.7134
 2801SOL     OW20035   4.611   3.857   7.152  0.4598 -0.0716 -0.5190
 2801SOL    HW120036   4.675   3.794   7.118  0.3292 -0.2075 -0.5111
 2801SOL    HW220037   4.548   3.874   7.082 -0.3888  1.2218  0.5691
 2802SOL     OW20038   2.600   4.618   8.442  0.4806  0.0496 -0.2987
 2802SOL    HW120039   2.565   4.679   8.378 -0.0874 -0.4544 -0.4742
 2802SOL    HW220040   2.660   4.567   8.388  0.8780 -0.6255  0.7811
 2803SOL     OW20041   4.734   2.849   0.203 -0.0052 -0.2512  0.4063
 2803SOL    HW120042   0.047   2.800   0.266  1.1236 -0.2850 -0.5463
 2803SOL    HW220043   4.645   2.836   0.236 -0.8425  2.0616 -0.8651
 2804SOL     OW20044   1.027   2.821   7.559 -0.0271  0.3247  0.0191
 2804SOL    HW120045   0.932   2.811   7.566  0.2498 -1.1185  1.7793
 2804SOL    HW220046   1.039   2.732   7.527 -0.4586 -0.3680  1.7592
 2805SOL     OW20047   1.653   2.961   3.258  0.1945  0.1007  0.4396
 2805SOL    HW120048   1.569   2.956   3.212  0.6011  0.2279 -0.3134
 2805SOL    HW220049   1.702   3.024   3.205 -0.5347 -0.5703 -1.0197
 2806SOL     OW20050   2.179   1.644   3.012 -0.0564 -0.0283 -0.5943
 2806SOL    HW120051   2.152   1.646   2.920  0.5064 -0.6293 -0.7655
 2806SOL    HW220052   2.208   1.554   3.023  2.2706  0.7634 -0.2070
 2807SOL     OW20053   4.143   0.134   8.946  0.7317 -0.2699  0.3636
 2807SOL    HW120054   4.179   0.222   8.935  0.2717 -0.1726 -0.3677
 2807SOL    HW220055   4.080   0.137   8.874  1.8259  2.3006 -0.4790
 2808SOL     OW20056   1.777   3.490  13.497  0.2660 -0.0383  0.1989
 2808SOL    HW120057   1.750   3.470  13.407  0.9150  0.7564 -0.1715
 2808SOL    HW220058   1.744   3.417  13.550 -0.1430  0.1817  0.2435
 2809SOL     OW20059   1.310   3.623   3.649 -0.7427 -0.4187 -0.3191
 2809SOL    HW120060   1.393   3.657   3.615 -0.3383  0.6814  1.7482
 2809SOL    HW220061   1.249   3.691   3.621 -0.0012 -0.5118 -2.1985
 2810SOL     OW20062   1.395   0.517   7.808 -0.3470  0.1512  0.6005
 2810SOL    HW120063   1.380   0.605   7.842 -0.2820  0.4881 -0.2384
 2810SOL    HW220064   1.353   0.467   7.878 -2.0512 -1.9137 -1.9093
 2811SOL     OW20065   0.800   2.517   3.062  0.1254  0.2516  0.2102
 2811SOL    HW120066   0.834   2.559   3.141 -0.3061  1.9708 -0.5175
 2811SOL    HW220067   0.747   2.450   3.105 -0.4562  0.0072 -0.8787
 2812SOL     OW20068   2.830   2.744   4.987 -0.5355 -0.0363  0.2959
 2812SOL    HW120069   2.858   2.660   4.950 -0.5507 -0.0446  0.3036
 2812SOL    HW220070   2.754   2.767   4.934 -1.0575 -0.8735  0.6714
 2813SOL     OW20071   1.506   1.119   8.709  0.1946 -0.1101  0.1806
 2813SOL    HW120072   1.542   1.206   8.692 -0.2201 -0.0616 -0.4494
 2813SOL    HW220073   1.417   1.118   8.673  0.2905  0.6598 -0.0850
 2814SOL     OW20074   1.038   0.070   9.309  0.2490  0.2577 -0.1504
 2814SOL    HW120075   0.979   0.077   9.384 -0.9151 -2.0165 -0.8509
 2814SOL    HW220076   1.004   4.727   9.272 -0.7442  1.2621 -1.4440
 2815SOL     OW20077   3.067   0.284   8.560  0.0321  0.1778  0.2204
 2815SOL    HW120078   3.128   0.357   8.558 -0.3261  0.4238 -1.7650
 2815SOL    HW220079   3.021   0.287   8.476  0.9000  1.3534 -0.2047
 2816SOL     OW20080   1.865   0.610  16.259 -0.3307 -0.2030 -0.0609
 2816SOL    HW120081   1.919   0.572  16.329 -1.9642 -1.6206  0.4312
 2816SOL    HW220082   1.841   0.534  16.206  2.4149  0.5288 -2.3653
 2817SOL     OW20083   3.246   3.272  17.375  0.5856 -0.0926  0.2697
 2817SOL    HW120084   3.289   3.346  17.333 -1.5025  1.0062  0.0681
 2817SOL    HW220085   3.222   3.220  17.298 -1.4128 -0.4512  1.1288
 2818SOL     OW20086   4.182   2.700   8.056 -0.1224 -0.0128  0.0110
 2818SOL    HW120087   4.089   2.699   8.033  0.2424 -1.0068 -1.4202
 2818SOL    HW220088   4.191   2.605   8.054  1.4501  0.1245  0.0873
 2819SOL     OW20089   0.769   4.460   7.532  0.1527 -0.0477 -0.2848
 2819SOL    HW120090   0.728   4.546   7.544 -1.1479 -0.6712 -0.2205
 2819SOL    HW220091   0.747   4.449   7.440  1.2191  2.8861 -0.8956
 2820SOL     OW20092   4.529   2.885   7.248 -0.1873 -0.0874  0.1626
 2820SOL    HW120093   4.464   2.817   7.231 -0.5015  0.1521  0.4077
 2820SOL    HW220094   4.478   2.929   7.315  2.0452  1.3604  0.9341
 2821SOL     OW20095   3.970   3.317  11.955  0.2336  0.6062 -0.3309
 2821SOL    HW120096   3.885   3.336  11.914 -0.2343  0.6572  0.6504
 2821SOL    HW220097   4.014   3.395  11.923  2.8838 -0.5251  0.6033
 2822SOL     OW20098   1.580   1.384   4.495  0.3411 -0.1837  0.2743
 2822SOL    HW120099   1.520   1.325   4.541  1.4014 -0.7467  0.9351
 2822SOL    HW220100   1.622   1.322   4.436  0.8356 -1.3887  1.8777
 2823SOL     OW20101   3.093   2.023  13.196  0.4031  0.0940 -0.1851
 2823SOL    HW120102   3.075   1.946  13.142  0.1862  0.9676 -1.3531
 2823SOL    HW220103   3.113   2.087  13.129 -0.7607  0.5808 -0.0727
 2824SOL     OW20104   0.747   0.527   4.917 -0.2296 -0.1132  0.1334
 2824SOL    HW120105   0.741   0.489   4.829 -0.1801 -0.1888  0.1626
 2824SOL    HW220106   0.772   0.617   4.899 -2.0719  0.0370 -1.7238
 2825SOL     OW20107   1.432   0.209   9.442  0.3705 -0.8885 -0.3703
 2825SOL    HW120108   1.382   0.204   9.524  1.1590  3.6568  0.4001
 2825SOL    HW220109   1.380   0.145   9.394  0.4946  0.1239 -1.8443
 2826SOL     OW20110   1.323   3.137   6.745 -0.1599  0.3849 -0.2437
 2826SOL    HW120111   1.368   3.064   6.702 -1.2714  0.4893 -1.5719
 2826SOL    HW220112   1.240   3.133   6.699 -0.3996 -0.7192  0.2661
 2827SOL     OW20113   1.764   0.182  11.944  0.4303  0.5983 -0.0650
 2827SOL    HW120114   1.852   0.145  11.937  0.1877 -0.0761  0.4714
 2827SOL    HW220115   1.748   0.204  12.035  1.0052 -1.3314  0.4931
 2828SOL     OW20116   0.879   0.751   4.871  0.0986  0.4150 -0.1472
 2828SOL    HW120117   0.961   0.724   4.913 -0.2020  1.5362  1.1451
 2828SOL    HW220118   0.911   0.819   4.812 -0.0707 -0.5028 -1.3006
 2829SOL     OW20119   2.103   0.182   3.093  0.1895  0.0041 -0.2827
 2829SOL    HW120120   2.038   0.166   3.162 -1.4159 -1.9437 -2.2749
 2829SOL    HW220121   2.056   0.251   3.046  0.7175  1.0989  0.7738
 2830SOL     OW20122   0.422   0.216   3.317  0.5627 -0.1768  0.1318
 2830SOL    HW120123   0.403   0.301   3.358  2.1944 -0.9067  2.3845
 2830SOL    HW220124   0.342   0.182   3.276  1.6773 -1.1944 -1.1977
 2831SOL     OW20125   0.676   4.252  15.099  0.1512  0.0438 -0.0215
 2831SOL    HW120126   0.624   4.217  15.172  0.8143 -2.7169 -0.8477
 2831SOL    HW220127   0.746   4.296  15.146  0.1596 -0.8585  0.8261
 2832SOL     OW20128   2.110   2.073  17.437 -0.0631 -0.6877 -0.3426
 2832SOL    HW120129   2.019   2.044  17.448 -0.5677  0.5999 -1.1025
 2832SOL    HW220130   2.112   2.087  17.342 -1.5622  0.0392 -0.2648
 2833SOL     OW20131   1.711   2.048  14.290 -0.1174 -0.3495 -0.4735
 2833SOL    HW120132   1.679   2.024  14.377  0.0966  0.6810 -0.0970
 2833SOL    HW220133   1.791   1.995  14.289  1.0499  1.3640  0.9060
 2834SOL     OW20134   3.175   1.234   6.952  0.2189 -0.6534  0.3310
 2834SOL    HW120135   3.233   1.161   6.930  1.1039 -0.4551  1.9986
 2834SOL    HW220136   3.090   1.191   6.943 -0.2300  0.4918 -0.9782
 2835SOL     OW20137   2.656   1.507   4.188  0.2860  0.4802  0.1066
 2835SOL    HW120138   2.596   1.479   4.258 -0.1194  2.4754  0.5563
 2835SOL    HW220139   2.602   1.580   4.159 -1.9014 -1.2830 -0.2985
 2836SOL     OW20140   2.700   4.589   0.213  0.2432 -0.5222 -0.6507
 2836SOL    HW120141   2.684   4.659   0.150  2.2594 -1.9583 -2.7498
 2836SOL    HW220142   2.637   4.525   0.180 -1.6204  0.9855 -0.0396
 2837SOL     OW20143   2.949   1.537   2.968  0.1621 -0.3062  0.5793
 2837SOL    HW120144   3.032   1.549   3.014  0.0936 -1.9851  1.1396
 2837SOL    HW220145   2.882   1.560   3.032 -0.2710 -1.4939  0.5404
 2838SOL     OW20146   3.163   1.986  14.319 -0.6197 -0.2894  0.2532
 2838SOL    HW120147   3.177   2.053  14.251 -0.9197 -0.7882 -0.3073
 2838SOL    HW220148   3.092   2.028  14.367 -1.5229  0.1055 -1.4167
 2839SOL     OW20149   4.519   0.805   1.866  0.2863 -0.4795 -0.2485
 2839SOL    HW120150   4.487   0.857   1.939 -2.0384 -1.4434 -0.5793
 2839SOL    HW220151   4.586   0.748   1.903 -1.7609 -1.1212  2.4394
 2840SOL     OW20152   4.279   2.988   1.038  0.3453 -1.0798 -0.1425
 2840SOL    HW120153   4.269   3.000   0.944 -1.1263 -0.6657  0.0767
 2840SOL    HW220154   4.344   2.918   1.033  0.6626 -0.8391  0.7458
 2841SOL     OW20155   2.526   2.177  13.213  0.3979  0.1987  0.0573
 2841SOL    HW120156   2.508   2.173  13.119  0.1960  1.6257  0.0412
 2841SOL    HW220157   2.444   2.206  13.253  0.1841 -0.0806 -0.1742
 2842SOL     OW20158   0.592   1.596  10.180 -0.4007 -0.0239  0.1528
 2842SOL    HW120159   0.640   1.679  10.178  0.7994 -0.7554 -1.3780
 2842SOL    HW220160   0.664   1.535  10.200  0.6572  1.2920  0.3979
 2843SOL     OW20161   1.825   2.293   6.055 -0.5513  0.0236 -0.1154
 2843SOL    HW120162   1.920   2.309   6.052 -0.3139 -0.5941  4.0611
 2843SOL    HW220163   1.788   2.372   6.015 -0.2774  0.1037 -0.2126
 2844SOL     OW20164   3.228   0.949   3.157 -0.5330  0.7109 -0.5969
 2844SOL    HW120165   3.221   0.926   3.065  0.7333 -1.2613 -0.1975
 2844SOL    HW220166   3.158   1.011   3.180  1.2274  2.5221 -0.0929
 2845SOL     OW20167   2.014   1.033   2.221 -0.3116  0.0052  0.6697
 2845SOL    HW120168   2.022   1.127   2.237  0.2017  0.0171  0.3488
 2845SOL    HW220169   1.949   1.015   2.289 -1.3530  0.2741 -0.2428
 2846SOL     OW20170   2.114   1.500  12.448 -0.1095  0.0261  0.0763
 2846SOL    HW120171   2.023   1.523  12.427 -0.7735 -2.5525  0.1140
 2846SOL    HW220172   2.160   1.519  12.366  1.1384 -1.7813  0.3717
 2847SOL     OW20173   1.852   0.297   3.554  0.3950  0.5474 -0.2943
 2847SOL    HW120174   1.835   0.370   3.614  2.4788  0.0386  0.9151
 2847SOL    HW220175   1.817   0.333   3.473 -1.0761 -0.0977  0.0679
 2848SOL     OW20176   1.384   4.310   2.860 -0.3274 -0.2383 -0.0352
 2848SOL    HW120177   1.362   4.364   2.784 -0.2661  0.2006  0.2600
 2848SOL    HW220178   1.347   4.225   2.835 -1.7053  0.5354 -0.6298
 2849SOL     OW20179   4.217   4.337   7.779  0.1033 -0.0235 -0.0568
 2849SOL    HW120180   4.189   4.421   7.744  1.4008  0.5738  0.3591
 2849SOL    HW220181   4.164   4.283   7.721  0.2767 -0.6937  0.4014
 2850SOL     OW20182   1.084   2.208   7.802 -0.1175 -0.3860  0.1996
 2850SOL    HW120183   1.118   2.197   7.713 -0.5176  0.6861 -0.0868
 2850SOL    HW220184   0.991   2.212   7.780 -0.3868 -0.3866  1.3543
 2851SOL     OW20185   4.119   0.012   2.125  0.3209 -0.6590  0.3693
 2851SOL    HW120186   4.121   4.655   2.127  0.4318 -0.6830 -1.8831
 2851SOL    HW220187   4.205   0.040   2.093  0.9206 -3.5907 -0.5574
 2852SOL     OW20188   2.229   1.586   1.807 -0.3013 -0.2136  0.7073
 2852SOL    HW120189   2.204   1.647   1.876 -0.0922 -1.2018  1.6637
 2852SOL    HW220190   2.323   1.594   1.818 -0.0424  2.0304 -3.1873
 2853SOL     OW20191   0.165   2.484   0.577 -0.5738 -0.8183  0.3370
 2853SOL    HW120192   0.072   2.483   0.598 -0.8191 -0.0872 -0.7028
 2853SOL    HW220193   0.204   2.547   0.638 -2.7471 -1.1867  2.1300
 2854SOL     OW20194   0.528   4.682   7.598  0.5526 -0.0255  0.3308
 2854SOL    HW120195   0.527   4.707   7.505  0.5116  0.5656  0.4965
 2854SOL    HW220196   0.614   4.714   7.624  1.0067  0.7456 -2.1232
 2855SOL     OW20197   3.439   2.005   6.815  0.5669 -0.0629  0.0076
 2855SOL    HW120198   3.392   2.069   6.868 -2.5586 -1.0346 -1.6374
 2855SOL    HW220199   3.389   1.926   6.828 -0.0259  0.3103 -0.0158
 2856SOL     OW20200   4.341   1.202   4.213  0.5107 -0.2582 -0.1668
 2856SOL    HW120201   4.417   1.257   4.235  2.2396 -2.4017 -0.7484
 2856SOL    HW220202   4.268   1.239   4.264  0.8155  1.6043 -1.0895
 2857SOL     OW20203   0.595   4.680   8.422  0.0759  0.4704  0.1326
 2857SOL    HW120204   0.631   4.660   8.336  1.4017 -2.1863  1.3066
 2857SOL    HW220205   0.517   4.625   8.428 -0.1200  0.2457 -4.1806
 2858SOL     OW20206   1.566   0.379   7.046  0.1852 -0.5645 -0.6066
 2858SOL    HW120207   1.643   0.325   7.064  0.7708  1.3085  2.3661
 2858SOL    HW220208   1.526   0.370   7.132  0.9356  0.8084 -0.1073
 2859SOL     OW20209   3.346   1.415   4.125  0.0781  0.1436 -0.4296
 2859SOL    HW120210   3.371   1.415   4.217  1.5020  2.2636 -0.8245
 2859SOL    HW220211   3.361   1.507   4.103  2.3432  0.2405  1.4715
 2860SOL     OW20212   1.847   1.994   0.294  0.1092  0.2695 -0.2938
 2860SOL    HW120213   1.860   1.913   0.245 -1.0248  0.2093 -0.4778
 2860SOL    HW220214   1.880   1.968   0.380  1.9255  0.8370 -0.8028
 2861SOL     OW20215   3.509   0.711   9.697  0.5921 -0.3343 -0.2238
 2861SOL    HW120216   3.429   0.659   9.708  1.2085 -1.2371  0.0891
 2861SOL    HW220217   3.565   0.636   9.677 -0.7467 -2.3395  3.4115
 2862SOL     OW20218   1.728   4.351   3.184 -0.4285  0.0732  0.0096
 2862SOL    HW120219   1.772   4.304   3.113  1.6789  1.2586  0.5289
 2862SOL    HW220220   1.636   4.343   3.161 -0.0466  0.2576 -1.6134
 2863SOL     OW20221   0.542   3.155   2.624  0.2680 -0.0931  0.3005
 2863SOL    HW120222   0.533   3.102   2.545 -1.0694  1.1840 -0.3933
 2863SOL    HW220223   0.527   3.242   2.587 -0.9442 -0.5587 -0.2752
 2864SOL     OW20224   4.522   4.292   9.453  0.8447 -0.1645  0.0103
 2864SOL    HW120225   4.546   4.376   9.414 -2.2383  0.5311 -0.3655
 2864SOL    HW220226   4.588   4.278   9.522  1.2557  4.3823  0.5415
 2865SOL     OW20227   0.579   1.332   4.465  0.4337  0.1661 -0.3024
 2865SOL    HW120228   0.608   1.258   4.412 -0.1027  1.0853 -1.8513
 2865SOL    HW220229   0.519   1.378   4.408  0.1844  1.6068  1.1107
 2866SOL     OW20230   4.407   3.690   9.653 -0.0903 -0.4425  0.7020
 2866SOL    HW120231   4.370   3.770   9.617  0.1695 -1.2988 -1.4845
 2866SOL    HW220232   4.322   3.652   9.673 -0.7478  0.6942  0.0860
 2867SOL     OW20233   4.433   4.714   6.048  0.0221 -0.2562 -0.0587
 2867SOL    HW120234   4.363   0.040   6.037  0.3180  0.0302 -0.2648
 2867SOL    HW220235   4.506   0.022   6.006  0.0160 -0.3243 -0.1444
 2868SOL     OW20236   0.676   4.034   2.274 -0.6419 -0.1630  0.1263
 2868SOL    HW120237   0.651   4.024   2.182 -3.1665 -0.9978  0.8982
 2868SOL    HW220238   0.639   4.119   2.299  1.7805  0.3655  1.9357
 2869SOL     OW20239   3.766   1.460   0.322 -0.3067 -0.2249  0.2258
 2869SOL    HW120240   3.681   1.458   0.365  0.0030  0.0255  0.8516
 2869SOL    HW220241   3.776   1.365   0.322 -0.4150 -0.2263  1.8005
 2870SOL     OW20242   2.720   0.461   4.508 -0.0536  0.6294  0.1460
 2870SOL    HW120243   2.776   0.538   4.523  1.0385 -0.3150  1.0120
 2870SOL    HW220244   2.765   0.429   4.430 -0.9040 -1.4277  0.5244
 2871SOL     OW20245   1.740   4.651  11.702 -0.3226 -0.3417  0.4445
 2871SOL    HW120246   1.725   4.587  11.632 -0.2987 -2.0322  1.9945
 2871SOL    HW220247   1.732   4.592  11.776  0.7900 -0.4461  0.4749
 2872SOL     OW20248   2.880   4.559   7.906  0.3959 -0.1731 -0.3013
 2872SOL    HW120249   2.847   4.532   7.992  1.7080 -2.4034 -0.4874
 2872SOL    HW220250   2.805   4.517   7.862 -0.5291  0.5593  0.5760
 2873SOL     OW20251   0.824   1.722   7.467  0.1101  0.4248 -0.0735
 2873SOL    HW120252   0.735   1.689   7.456  0.3194 -0.2478  0.2097
 2873SOL    HW220253   0.809   1.814   7.444  0.9302  0.8125  0.9276
 2874SOL     OW20254   3.310   2.198   5.476 -0.1215 -0.3694 -0.2520
 2874SOL    HW120255   3.371   2.158   5.537 -0.0780  0.0446 -0.0243
 2874SOL    HW220256   3.312   2.134   5.405 -1.3753  1.1269 -1.6397
 2875SOL     OW20257   0.343   1.943   7.163  0.2900  0.1716  0.1607
 2875SOL    HW120258   0.297   1.930   7.246  2.7391  0.4505  1.5563
 2875SOL    HW220259   0.308   2.024   7.125  0.5208 -0.4265 -1.3011
 2876SOL     OW20260   1.123   4.061   5.219 -0.0933 -0.0160 -0.5418
 2876SOL    HW120261   1.089   4.121   5.153  1.8904 -0.6997 -2.2250
 2876SOL    HW220262   1.052   4.052   5.281 -1.2405  2.8985 -1.4753
 2877SOL     OW20263   1.320   2.995   9.280  0.4927 -0.4793 -0.0174
 2877SOL    HW120264   1.252   3.002   9.212  0.6514 -1.8890 -0.3176
 2877SOL    HW220265   1.277   2.991   9.365  0.6831  1.9569  0.1767
 2878SOL     OW20266   0.835   3.253  13.826  0.3328  0.3093  0.1114
 2878SOL    HW120267   0.802   3.289  13.744  0.1554  2.2713  1.0526
 2878SOL    HW220268   0.763   3.281  13.882 -0.0095 -0.1010 -0.1215
 2879SOL     OW20269   1.811   2.936   6.810  0.0557 -0.1597 -0.2531
 2879SOL    HW120270   1.804   3.014   6.864 -1.6654  0.7298 -1.7372
 2879SOL    HW220271   1.903   2.944   6.786  0.6449 -2.1949  1.2815
 2880SOL     OW20272   1.609   2.928  16.718 -0.2600 -0.5070  0.1784
 2880SOL    HW120273   1.558   2.950  16.796  3.6214  0.3681  2.4674
 2880SOL    HW220274   1.682   2.988  16.728 -1.6355  1.3115 -0.6651
 2881SOL     OW20275   3.063   3.239   0.799  0.4693  0.0166  0.2629
 2881SOL    HW120276   3.131   3.228   0.732  0.8331  3.1597  0.0964
 2881SOL    HW220277   3.122   3.254   0.873  0.7537  1.9512 -0.3366
 2882SOL     OW20278   3.102   1.461  17.306 -0.0941  0.0353 -0.8436
 2882SOL    HW120279   3.108   1.380  17.256  0.1384  0.1461 -0.9920
 2882SOL    HW220280   3.189   1.475  17.342 -0.0344  2.0872 -1.7954
 2883SOL     OW20281   2.634   0.575  10.894  0.5655 -0.1866  0.5417
 2883SOL    HW120282   2.665   0.665  10.910  0.5819 -0.0045 -0.5040
 2883SOL    HW220283   2.655   0.532  10.977 -0.6795 -0.1067  0.8960
 2884SOL     OW20284   2.912   1.846   4.999  0.0534 -0.4604 -0.0554
 2884SOL    HW120285   2.907   1.898   5.079 -2.0754  0.8647 -1.0491
 2884SOL    HW220286   2.835   1.865   4.945 -0.1164 -0.7541  0.0846
 2885SOL     OW20287   1.396   0.711  13.150 -0.2542 -0.2808 -0.8035
 2885SOL    HW120288   1.393   0.795  13.195  1.1637 -1.0712  0.7526
 2885SOL    HW220289   1.474   0.712  13.095 -0.3077 -1.3487 -0.9061
 2886SOL     OW20290   1.958   2.599   6.125 -0.0062  0.4761 -0.9366
 2886SOL    HW120291   1.958   2.624   6.032  2.2906 -0.6083 -1.2326
 2886SOL    HW220292   2.029   2.535   6.133 -0.3453  0.6736  3.2026
 2887SOL     OW20293   1.469   0.710   2.416  0.2907 -0.3221 -0.1965
 2887SOL    HW120294   1.441   0.629   2.459 -0.5637 -1.1131 -2.2272
 2887SOL    HW220295   1.444   0.774   2.483  4.3428  1.1042 -0.0417
 2888SOL     OW20296   0.038   1.901   9.026 -0.5979 -0.2682 -0.6529
 2888SOL    HW120297   0.037   1.996   9.016 -1.7691 -0.3483 -1.3739
 2888SOL    HW220298   4.683   1.886   9.010 -0.9423 -0.3959  1.4236
 2889SOL     OW20299   1.575   1.669  12.434  0.3897 -0.5581  0.1433
 2889SOL    HW120300   1.533   1.755  12.440 -3.0695 -2.0961 -2.0771
 2889SOL    HW220301   1.497   1.616  12.419 -0.2955  0.6310 -0.5131
 2890SOL     OW20302   3.450   4.659   3.666 -0.6035 -0.4810  0.5569
 2890SOL    HW120303   3.388   4.710   3.717  1.0954  2.5916 -0.4453
 2890SOL    HW220304   3.531   4.669   3.716 -0.4828 -0.3736  0.3424
 2891SOL     OW20305   0.180   2.832  15.619  0.4133  0.2191 -0.0485
 2891SOL    HW120306   0.133   2.838  15.703 -0.2361 -2.4214 -0.1941
 2891SOL    HW220307   0.132   2.771  15.562 -1.3556  0.8648  0.7364
 2892SOL     OW20308   2.535   1.995   9.048  0.2013  0.0660 -0.0749
 2892SOL    HW120309   2.451   2.007   9.092  0.7231  0.5792  0.7885
 2892SOL    HW220310   2.543   1.900   9.044 -2.0698 -0.1274 -0.0081
 2893SOL     OW20311   3.710   1.360   9.261  0.2509  0.9560 -0.3204
 2893SOL    HW120312   3.641   1.395   9.205  0.7640  1.1319 -0.8410
 2893SOL    HW220313   3.694   1.265   9.263 -0.0498  0.9800 -1.8775
 2894SOL     OW20314   3.095   3.794   9.232 -0.0343 -0.1518 -0.1551
 2894SOL    HW120315   3.141   3.847   9.297  1.1502 -1.0671 -0.2553
 2894SOL    HW220316   3.041   3.862   9.192 -0.6709  0.0295  0.9991
 2895SOL     OW20317   3.468   2.308   4.324 -0.5652 -0.4461 -0.2741
 2895SOL    HW120318   3.538   2.312   4.389 -1.1158  0.2837  0.2703
 2895SOL    HW220319   3.418   2.232   4.356  2.4181 -1.7015  1.3395
 2896SOL     OW20320   0.051   2.893   6.173 -0.0868 -0.3888 -0.2450
 2896SOL    HW120321   4.717   2.929   6.222  0.4500 -2.0086  1.7497
 2896SOL    HW220322   0.111   2.891   6.247 -2.3648  4.3370  1.7472
 2897SOL     OW20323   1.341   0.639   0.983 -0.0647 -0.2258  0.1320
 2897SOL    HW120324   1.415   0.692   0.954  0.9745 -1.3968  0.6275
 2897SOL    HW220325   1.322   0.583   0.908 -1.3982 -0.9305  0.9993
 2898SOL     OW20326   4.086   2.491  12.598  0.5192 -0.1238  0.6784
 2898SOL    HW120327   4.028   2.428  12.642  0.5255  0.6068  1.7187
 2898SOL    HW220328   4.119   2.543  12.670  0.8851  1.3781 -0.5820
 2899SOL     OW20329   1.334   1.469  13.401 -1.0394 -0.0259  0.2644
 2899SOL    HW120330   1.258   1.519  13.370  1.3466  2.8407 -0.9557
 2899SOL    HW220331   1.297   1.411  13.468 -1.5664  1.5651  1.3468
 2900SOL     OW20332   1.965   2.974   3.070 -0.2517  0.0651 -0.2702
 2900SOL    HW120333   2.038   2.996   3.127 -0.5538  0.5314 -0.0595
 2900SOL    HW220334   1.908   3.051   3.073  0.5337  0.6764 -1.0102
 2901SOL     OW20335   2.448   1.446   7.362  0.0180 -0.2706  0.2930
 2901SOL    HW120336   2.463   1.505   7.435  1.2230  0.2775 -0.3965
 2901SOL    HW220337   2.370   1.491   7.330  0.7567  0.8533  0.0928
 2902SOL     OW20338   3.647   1.611   8.587 -0.0465  0.2095  0.0142
 2902SOL    HW120339   3.722   1.639   8.535  2.0731 -1.7402  2.0050
 2902SOL    HW220340   3.580   1.611   8.519 -0.0157  0.8201 -0.0201
 2903SOL     OW20341   2.752   0.648  10.618 -0.0113  0.2682  0.0451
 2903SOL    HW120342   2.763   0.654  10.523  0.1244 -0.9253 -0.0223
 2903SOL    HW220343   2.727   0.737  10.644 -0.3794  0.5532 -1.2766
 2904SOL     OW20344   1.924   3.200   0.203  0.6121  0.0062  0.0697
 2904SOL    HW120345   2.003   3.227   0.157  0.7715 -0.1570  0.2493
 2904SOL    HW220346   1.856   3.236   0.147  2.2040 -2.9343 -3.7360
 2905SOL     OW20347   0.563   1.307  11.036 -0.1190 -0.4690  0.8210
 2905SOL    HW120348   0.525   1.319  10.949  0.6593  0.7340  0.6421
 2905SOL    HW220349   0.627   1.239  11.016 -0.0236  0.1942 -1.1307
 2906SOL     OW20350   2.432   3.960   0.250 -0.3942  0.0947  0.4416
 2906SOL    HW120351   2.512   3.917   0.283 -0.2390 -0.5536 -0.7892
 2906SOL    HW220352   2.370   3.890   0.232 -0.9723  0.7998 -0.2915
 2907SOL     OW20353   4.533   1.054  11.454 -0.2455  0.3353  0.2418
 2907SOL    HW120354   4.587   0.981  11.483  0.9380 -0.0614 -2.9215
 2907SOL    HW220355   4.595   1.114  11.414  2.1024 -1.9444  0.4772
 2908SOL     OW20356   3.651   1.793   9.294 -0.5043 -0.5135 -0.0233
 2908SOL    HW120357   3.670   1.875   9.341 -0.1251 -0.3610 -0.4389
 2908SOL    HW220358   3.571   1.760   9.334 -0.8171 -0.7544 -0.8743
 2909SOL     OW20359   3.988   1.256   5.140  0.1831  0.0914  0.4693
 2909SOL    HW120360   3.901   1.216   5.133 -0.5515  1.8393 -0.4664
 2909SOL    HW220361   4.007   1.226   5.228  1.4072 -1.4973 -0.3400
 2910SOL     OW20362   1.253   0.833   3.897 -0.0012 -0.1115  0.0821
 2910SOL    HW120363   1.283   0.883   3.821 -1.9274 -1.8305 -1.8166
 2910SOL    HW220364   1.159   0.847   3.887  0.4701  1.0587 -2.5464
 2911SOL     OW20365   0.436   0.653   7.076  0.2825 -0.1983  0.1196
 2911SOL    HW120366   0.458   0.662   6.983  0.0791  0.6877  0.1539
 2911SOL    HW220367   0.407   0.563   7.087 -2.2264  0.4529 -1.0753
 2912SOL     OW20368   4.288   1.563  12.073  0.2777  0.6890 -0.6020
 2912SOL    HW120369   4.327   1.604  12.150  0.3763 -0.0036 -0.2864
 2912SOL    HW220370   4.346   1.602  12.007  1.3581  0.8653  0.4523
 2913SOL     OW20371   4.367   3.398   3.789  0.1205 -0.4138  0.8346
 2913SOL    HW120372   4.462   3.393   3.777  0.3136  0.9145  1.7994
 2913SOL    HW220373   4.357   3.311   3.828  1.5084 -0.7108  0.5457
 2914SOL     OW20374   2.065   1.764  13.572  0.1722  0.8563  0.5769
 2914SOL    HW120375   2.096   1.675  13.590  0.1197  0.7119 -0.0304
 2914SOL    HW220376   2.132   1.792  13.510 -0.1080 -1.1709 -0.6366
 2915SOL     OW20377   3.980   3.909   4.719 -0.3367  0.5853 -0.2876
 2915SOL    HW120378   4.051   3.921   4.656  0.7710  0.9823  1.0436
 2915SOL    HW220379   3.914   3.966   4.678 -1.2584  0.2167  0.6945
 2916SOL     OW20380   0.790   2.677   4.773  0.1220 -0.8995 -0.5899
 2916SOL    HW120381   0.867   2.630   4.740  0.8987  0.1647 -0.2749
 2916SOL    HW220382   0.802   2.762   4.730  0.3823 -0.3997  0.4778
 2917SOL     OW20383   2.999   1.164   8.464  0.3442  0.5853 -0.0724
 2917SOL    HW120384   3.015   1.079   8.423 -1.8510  0.4138 -0.5862
 2917SOL    HW220385   2.970   1.218   8.390 -3.7391 -1.2263  0.1730
 2918SOL     OW20386   4.651   2.846  12.270 -0.0792 -0.3354 -0.3025
 2918SOL    HW120387   4.664   2.752  12.253 -0.1979 -0.0685 -1.8926
 2918SOL    HW220388   4.715   2.859  12.340  1.4295 -0.8033 -1.5758
 2919SOL     OW20389   4.173   0.451   6.272  0.7188  0.0472 -0.1670
 2919SOL    HW120390   4.101   0.490   6.321  1.0999  1.1720 -0.5178
 2919SOL    HW220391   4.181   0.366   6.316  2.7029  0.1166 -0.4079
 2920SOL     OW20392   1.674   4.058  14.824 -0.1433 -1.0760 -0.3956
 2920SOL    HW120393   1.715   4.028  14.744 -0.0535  4.1219 -2.2954
 2920SOL    HW220394   1.635   3.979  14.862  0.9352 -1.7030 -0.6212
 2921SOL     OW20395   1.092   2.792  11.916  0.3386 -0.1017  0.8651
 2921SOL    HW120396   1.083   2.780  11.821  1.5221 -1.6501  0.9614
 2921SOL    HW220397   1.129   2.881  11.921  2.4812 -0.8667 -1.3708
 2922SOL     OW20398   0.319   0.366  17.657  0.4304  0.2252  0.0987
 2922SOL    HW120399   0.354   0.430  17.719  2.0600  0.5599 -1.1725
 2922SOL    HW220400   0.330   0.290  17.713  1.5001 -0.7941 -1.4971
 2923SOL     OW20401   3.272   1.239  11.803 -0.4124  0.4288  0.4828
 2923SOL    HW120402   3.234   1.256  11.717 -2.2573 -1.3277  0.9580
 2923SOL    HW220403   3.193   1.215  11.852 -0.8934  0.4004 -0.3058
 2924SOL     OW20404   4.432   0.359  13.236 -0.1713 -0.1872 -0.1112
 2924SOL    HW120405   4.503   0.315  13.188  0.2887  1.4918 -0.9596
 2924SOL    HW220406   4.426   0.295  13.307  1.5799 -0.2165  0.0239
 2925SOL     OW20407   4.151   3.254  13.536  0.2368  0.0262 -0.0004
 2925SOL    HW120408   4.219   3.201  13.495  0.9647  1.8542 -1.1760
 2925SOL    HW220409   4.179   3.346  13.535 -2.1826  0.7889  0.6896
 2926SOL     OW20410   2.669   3.901   7.346  0.5070  0.1529 -0.4774
 2926SOL    HW120411   2.652   3.807   7.358 -0.6872  0.4909  0.5362
 2926SOL    HW220412   2.612   3.916   7.271 -0.8590 -0.0858  0.4877
 2927SOL     OW20413   1.627   3.888   4.078  0.2255  0.2955 -0.2069
 2927SOL    HW120414   1.610   3.802   4.040 -1.1710  0.7538 -0.6026
 2927SOL    HW220415   1.674   3.931   4.007  1.6623  0.0583  0.6024
 2928SOL     OW20416   1.478   2.968   3.504 -0.0013  0.0315 -0.3046
 2928SOL    HW120417   1.511   2.986   3.416 -0.0061  0.5283 -0.2064
 2928SOL    HW220418   1.476   3.056   3.542  1.0677  0.3798 -1.0427
 2929SOL     OW20419   2.807   1.431   6.455  0.0364  0.3478 -0.2871
 2929SOL    HW120420   2.766   1.378   6.386  1.4653  0.2505 -1.0680
 2929SOL    HW220421   2.884   1.378   6.474  1.8071  2.4335 -1.6034
 2930SOL     OW20422   2.527   0.840  13.666 -0.4401 -0.2888  0.6927
 2930SOL    HW120423   2.492   0.914  13.716 -1.2447 -0.0366 -0.2528
 2930SOL    HW220424   2.489   0.765  13.713 -1.5745 -1.4494 -2.0841
 2931SOL     OW20425   4.727   1.965   6.072 -0.1646 -0.2718 -0.0137
 2931SOL    HW120426   4.641   2.007   6.071  0.2004  0.4662 -1.3844
 2931SOL    HW220427   0.029   2.020   6.004 -0.5698 -0.8600 -0.7324
 2932SOL     OW20428   1.433   2.004   6.251 -0.0799 -0.2930 -0.4474
 2932SOL    HW120429   1.374   2.051   6.192  0.1809  1.7411  0.8915
 2932SOL    HW220430   1.514   2.054   6.237 -0.0490 -0.4206 -0.7206
 2933SOL     OW20431   3.304   1.788  15.853 -0.1093  0.2877  0.2566
 2933SOL    HW120432   3.332   1.735  15.779 -1.0678  0.2474 -0.0831
 2933SOL    HW220433   3.246   1.843  15.799 -0.6262 -0.1990  0.3198
 2934SOL     OW20434   2.931   3.099   4.231 -0.2068  0.0179 -0.1806
 2934SOL    HW120435   2.980   3.129   4.308  1.9112 -2.0325 -0.7399
 2934SOL    HW220436   2.897   3.013   4.254  1.9679  0.2092  3.8297
 2935SOL     OW20437   3.315   2.322   5.145 -0.3131 -0.3283 -0.1824
 2935SOL    HW120438   3.373   2.260   5.188  0.0274  1.2390  1.6363
 2935SOL    HW220439   3.378   2.359   5.083  1.1523  0.2590  1.6383
 2936SOL     OW20440   3.631   1.086   4.172 -0.3312  0.8972 -0.5210
 2936SOL    HW120441   3.702   1.036   4.212  0.4680  1.4647 -1.2043
 2936SOL    HW220442   3.616   1.032   4.094 -3.4400  2.9973 -1.4057
 2937SOL     OW20443   2.644   0.553   3.995  0.0021  0.3935  0.5423
 2937SOL    HW120444   2.636   0.513   4.082 -0.0525 -0.1517  0.2842
 2937SOL    HW220445   2.688   0.635   4.018  0.6870  1.2135 -3.8472
 2938SOL     OW20446   0.118   0.504   9.157  0.3767 -0.6888 -0.3732
 2938SOL    HW120447   0.097   0.495   9.064 -1.2700  0.9169 -0.1574
 2938SOL    HW220448   0.043   0.456   9.193 -0.6228  0.5861 -0.7627
 2939SOL     OW20449   1.069   1.860  12.486 -0.7086 -0.0620 -0.4641
 2939SOL    HW120450   0.981   1.852  12.448 -0.4743 -0.3123 -0.9491
 2939SOL    HW220451   1.064   1.790  12.550  0.9864 -1.7793 -2.2343
 2940SOL     OW20452   4.327   2.587   0.118 -0.0448  1.1193  0.6430
 2940SOL    HW120453   4.261   2.522   0.140 -0.2512 -0.0613 -3.5379
 2940SOL    HW220454   4.360   2.564   0.032  1.7485 -3.1063  2.4967
 2941SOL     OW20455   2.812   3.682  11.369  0.3375 -0.5473  0.3471
 2941SOL    HW120456   2.881   3.630  11.409  0.2245 -0.5212  0.5792
 2941SOL    HW220457   2.834   3.774  11.381 -1.9471  0.3430 -2.2601
 2942SOL     OW20458   4.264   4.658   5.147 -0.4370  0.0844 -0.2091
 2942SOL    HW120459   4.256   4.703   5.063 -1.5073 -0.7894 -0.5725
 2942SOL    HW220460   4.201   4.587   5.131 -0.3262 -0.6618  2.6372
 2943SOL     OW20461   1.611   2.249  13.358 -0.2000 -0.1868 -0.8004
 2943SOL    HW120462   1.644   2.202  13.281  0.2410 -1.7713  0.3436
 2943SOL    HW220463   1.528   2.205  13.376 -0.5834  1.0730  0.4552
 2944SOL     OW20464   3.822   1.639   0.541 -0.5332  0.2528 -0.6637
 2944SOL    HW120465   3.853   1.577   0.475 -4.5422 -2.0474 -0.3571
 2944SOL    HW220466   3.727   1.636   0.535 -0.4708 -0.6822 -1.2066
 2945SOL     OW20467   0.938   4.117   3.889 -0.1728 -0.2482  0.5631
 2945SOL    HW120468   0.872   4.137   3.823 -1.6920  0.4096  2.2698
 2945SOL    HW220469   0.955   4.203   3.928 -1.0523 -0.2084  0.8481
 2946SOL     OW20470   1.082   1.711   8.282 -0.0173 -0.2336 -0.6464
 2946SOL    HW120471   1.111   1.742   8.368 -0.3170 -1.1319 -0.2253
 2946SOL    HW220472   1.168   1.681   8.252  0.4944 -1.3725  1.9816
 2947SOL     OW20473   1.671   1.455   5.494 -0.3709 -0.1535  0.1861
 2947SOL    HW120474   1.681   1.505   5.574  0.2292 -0.2600  0.1799
 2947SOL    HW220475   1.723   1.511   5.437  0.5611 -0.7744  0.4390
 2948SOL     OW20476   4.101   2.925   2.896 -0.3222 -0.0610  0.1520
 2948SOL    HW120477   4.136   2.882   2.819  1.4657  1.8202 -0.0855
 2948SOL    HW220478   4.008   2.901   2.894 -0.6812  1.2490  1.1277
 2949SOL     OW20479   0.046   2.284   4.578 -0.0177 -0.5462 -0.0303
 2949SOL    HW120480   0.113   2.353   4.583  1.5816 -2.1095  0.1009
 2949SOL    HW220481   4.720   2.334   4.530  3.5852  2.9463 -1.3398
 2950SOL     OW20482   0.073   4.566   3.058 -0.1465 -0.1015 -0.3135
 2950SOL    HW120483   4.732   4.583   3.008 -0.6382 -1.1529  0.1338
 2950SOL    HW220484   0.047   4.583   3.148 -1.7107  0.2447 -0.8278
 2951SOL     OW20485   1.243   2.343   8.424 -0.3242  0.1006  0.0152
 2951SOL    HW120486   1.164   2.342   8.369 -0.0306  0.3739 -0.4099
 2951SOL    HW220487   1.298   2.289   8.368  0.9670  1.0174  0.3971
 2952SOL     OW20488   0.615   4.168   6.636 -0.2254 -0.2594 -0.3211
 2952SOL    HW120489   0.641   4.104   6.701 -1.7829  0.2816  0.8363
 2952SOL    HW220490   0.600   4.111   6.561  0.9798  1.0560 -1.5623
 2953SOL     OW20491   3.655   2.983  15.071  0.3076 -0.0036  0.2880
 2953SOL    HW120492   3.566   3.017  15.061  0.6133  0.6197 -0.2728
 2953SOL    HW220493   3.703   3.058  15.037  0.9696 -1.1656 -1.3333
 2954SOL     OW20494   2.985   3.580   7.332  0.1509 -0.5205  0.4118
 2954SOL    HW120495   3.013   3.529   7.256  1.3642 -0.7848  1.0221
 2954SOL    HW220496   2.891   3.568   7.325 -0.2657  2.1877  1.1465
 2955SOL     OW20497   1.973   1.253  14.428  0.1793 -0.6860 -0.1830
 2955SOL    HW120498   1.891   1.254  14.379 -0.0273 -0.6923  0.1653
 2955SOL    HW220499   2.024   1.219  14.353  0.5000 -0.0094 -0.2677
 2956SOL     OW20500   3.115   0.839  14.891  0.3562 -0.4781  0.2692
 2956SOL    HW120501   3.035   0.864  14.937  1.8502  1.6628  1.6727
 2956SOL    HW220502   3.173   0.879  14.956 -0.3272 -0.3871  0.8187
 2957SOL     OW20503   0.850   1.265   3.850  0.1031 -0.0390 -0.1719
 2957SOL    HW120504   0.931   1.244   3.804 -0.0007 -0.0984 -0.3275
 2957SOL    HW220505   0.888   1.289   3.934  0.6619  0.8040 -0.6685
 2958SOL     OW20506   1.951   3.988  14.766 -0.5913  0.3368 -0.0712
 2958SOL    HW120507   1.882   3.969  14.702 -1.1101 -0.7782  0.8238
 2958SOL    HW220508   1.953   3.910  14.820  0.7860 -0.1325 -0.7969
 2959SOL     OW20509   4.177   0.503  14.172 -0.6615 -0.1833 -0.3693
 2959SOL    HW120510   4.158   0.451  14.093 -0.1505  0.7489 -1.1037
 2959SOL    HW220511   4.273   0.500  14.175 -0.6342  1.0527 -0.1047
 2960SOL     OW20512   4.354   3.551   8.043 -0.1151  0.3452  0.1151
 2960SOL    HW120513   4.327   3.621   7.983 -0.1918  1.7190  1.7638
 2960SOL    HW220514   4.341   3.470   7.994  2.5800  0.2238 -0.3888
 2961SOL     OW20515   2.737   1.976   9.964  0.1060  0.0802  0.5063
 2961SOL    HW120516   2.704   2.061   9.935  0.0485 -0.7746 -2.0046
 2961SOL    HW220517   2.779   1.949   9.882 -1.9751  1.6814 -1.1281
 2962SOL     OW20518   4.296   0.779  12.831  0.5299 -0.0927  0.0116
 2962SOL    HW120519   4.320   0.796  12.739 -1.4215  0.4292 -0.4053
 2962SOL    HW220520   4.382   0.770  12.872  0.8184  0.6423 -0.4288
 2963SOL     OW20521   2.111   2.114   0.996 -0.5370  0.1038  0.0393
 2963SOL    HW120522   2.180   2.070   1.045 -1.8603  1.1005  2.8121
 2963SOL    HW220523   2.143   2.205   1.001 -1.8287  0.7432 -3.3325
 2964SOL     OW20524   1.681   3.785   7.282 -0.2918  0.5568 -0.0876
 2964SOL    HW120525   1.728   3.812   7.203  2.8231 -0.6859  1.3361
 2964SOL    HW220526   1.743   3.812   7.349  4.1752  0.2032 -4.0878
 2965SOL     OW20527   1.948   3.621  16.461 -0.6080 -0.0976 -0.6922
 2965SOL    HW120528   1.957   3.652  16.551  0.7104  0.4274 -1.0033
 2965SOL    HW220529   1.987   3.697  16.419 -1.0861  0.5177 -0.0237
 2966SOL     OW20530   1.674   3.493   9.610 -0.3175  0.2639 -0.6388
 2966SOL    HW120531   1.606   3.560   9.619  0.1136  0.4669  1.0441
 2966SOL    HW220532   1.689   3.505   9.517  2.3142 -2.6053 -0.5857
 2967SOL     OW20533   0.634   2.476  17.493 -0.0005 -0.0757 -0.5347
 2967SOL    HW120534   0.595   2.522  17.567  0.2433 -3.2141  1.5472
 2967SOL    HW220535   0.722   2.514  17.492 -0.7003  1.5580  1.9985
 2968SOL     OW20536   3.438   2.664   7.628 -0.2845 -0.1354  0.4544
 2968SOL    HW120537   3.461   2.752   7.599 -0.4731 -0.3642 -0.3949
 2968SOL    HW220538   3.440   2.612   7.548  0.5312 -0.3439  0.6057
 2969SOL     OW20539   4.705   4.308   7.617 -0.1107  0.3942  0.0116
 2969SOL    HW120540   0.060   4.325   7.603 -0.3414 -2.2995 -4.8402
 2969SOL    HW220541   4.718   4.213   7.621  0.3417  0.4200 -0.7868
 2970SOL     OW20542   0.530   2.825   7.415 -0.4301  0.6746 -0.3182
 2970SOL    HW120543   0.558   2.883   7.344 -1.6417  1.7821  0.1046
 2970SOL    HW220544   0.543   2.746   7.364 -0.2045 -0.0140  0.7963
 2971SOL     OW20545   0.599   3.811   4.735  0.2987 -0.5569  0.3440
 2971SOL    HW120546   0.525   3.777   4.785 -0.8189  1.5448  0.1114
 2971SOL    HW220547   0.672   3.777   4.787  0.3177 -0.2929  0.4874
 2972SOL     OW20548   4.159   3.808  11.548  0.8480  0.2376  0.4511
 2972SOL    HW120549   4.064   3.805  11.558  0.8334  1.5724  0.8415
 2972SOL    HW220550   4.189   3.748  11.617  1.8432  0.9081  0.6112
 2973SOL     OW20551   1.374   4.119   6.631  0.2516 -0.6298 -0.3270
 2973SOL    HW120552   1.281   4.124   6.610 -0.2424  0.3260  2.1068
 2973SOL    HW220553   1.410   4.107   6.543  0.4672  0.7251 -0.4181
 2974SOL     OW20554   2.111   4.440   4.260 -0.1304 -0.3905 -0.1997
 2974SOL    HW120555   2.125   4.523   4.213  1.5916 -0.4902  0.1305
 2974SOL    HW220556   2.201   4.410   4.273  0.3680  0.4519 -1.6853
 2975SOL     OW20557   3.917   0.210   1.596  0.5176  0.2816  0.3908
 2975SOL    HW120558   3.923   0.148   1.669  2.2311  1.2950  1.1087
 2975SOL    HW220559   3.953   0.286   1.642  0.4695  0.6117 -0.1184
 2976SOL     OW20560   2.327   2.469  10.068 -0.1846  0.0630 -0.1518
 2976SOL    HW120561   2.239   2.433  10.068  0.0704 -0.5559 -0.5027
 2976SOL    HW220562   2.361   2.401  10.009 -0.2149  0.8934 -1.1351
 2977SOL     OW20563   3.507   1.102   2.792 -0.3420 -0.0365  0.4424
 2977SOL    HW120564   3.551   1.072   2.712  2.3262  0.2870  1.8198
 2977SOL    HW220565   3.472   1.190   2.775 -1.5041 -0.3599  1.1798
 2978SOL     OW20566   1.424   4.507   6.541 -0.2058 -0.1558 -0.3258
 2978SOL    HW120567   1.469   4.584   6.505  3.1385 -1.5714  0.8472
 2978SOL    HW220568   1.480   4.442   6.499 -0.1229  1.4542 -2.7339
 2979SOL     OW20569   1.231   2.244  13.811 -0.4580  0.1384 -0.0148
 2979SOL    HW120570   1.277   2.324  13.785  2.1646 -1.0455  0.9557
 2979SOL    HW220571   1.241   2.248  13.906  1.5568 -1.9871 -0.1367
 2980SOL     OW20572   1.423   4.452  13.594 -0.2555 -0.5244  0.1711
 2980SOL    HW120573   1.498   4.403  13.559 -0.8316 -2.0380  1.0266
 2980SOL    HW220574   1.389   4.487  13.511  2.6619  3.5497  0.6717
 2981SOL     OW20575   2.230   4.328  13.168  0.2318  0.2057 -0.8611
 2981SOL    HW120576   2.255   4.388  13.238  2.5832  1.5970 -2.9175
 2981SOL    HW220577   2.148   4.366  13.136  0.2393 -0.6147 -1.8552
 2982SOL     OW20578   0.172   1.924  15.121 -0.1601  0.0011  0.1833
 2982SOL    HW120579   0.090   1.918  15.170  0.6927  2.8248  1.9791
 2982SOL    HW220580   0.153   1.897  15.032 -0.2452  0.3269  0.1045
 2983SOL     OW20581   0.693   3.702   6.109  0.5098  0.4527  0.8087
 2983SOL    HW120582   0.741   3.777   6.073  0.4475  1.0623  1.9767
 2983SOL    HW220583   0.618   3.706   6.049  0.3681  0.6470  0.9971
 2984SOL     OW20584   3.139   3.434   2.669 -0.4740 -0.3243  0.1176
 2984SOL    HW120585   3.208   3.373   2.694 -0.3552  0.7623  2.4297
 2984SOL    HW220586   3.077   3.418   2.741 -1.0224  1.2536 -0.0034
 2985SOL     OW20587   0.246   3.146   5.329 -0.3757  0.8098  0.4657
 2985SOL    HW120588   0.190   3.067   5.326  2.1587 -0.9787  0.6186
 2985SOL    HW220589   0.181   3.216   5.318  0.0246  0.7345 -2.3042
 2986SOL     OW20590   1.056   0.920  13.377  0.1784 -0.1241  0.2232
 2986SOL    HW120591   1.119   0.968  13.323  0.8103  0.7907  1.7989
 2986SOL    HW220592   1.083   0.946  13.465 -0.1699 -1.4940  0.7441
 2987SOL     OW20593   3.548   1.582  15.053  0.1459  0.7695 -0.0636
 2987SOL    HW120594   3.627   1.613  15.008  0.1221 -0.0928 -0.7066
 2987SOL    HW220595   3.583   1.587  15.142  1.6259  4.4901 -0.8511
 2988SOL     OW20596   4.708   1.030   8.972  0.0228 -0.5810  0.0478
 2988SOL    HW120597   4.658   1.101   8.933  0.5644  0.4370  1.1950
 2988SOL    HW220598   0.031   1.073   9.031  0.0011  1.3733 -1.3558
 2989SOL     OW20599   1.027   3.994   4.873  0.4321  0.0385 -0.0257
 2989SOL    HW120600   0.951   4.006   4.929  1.2254  3.4381  0.3040
 2989SOL    HW220601   1.092   3.955   4.931 -1.0190 -0.3310  1.3447
 2990SOL     OW20602   1.071   0.277   4.171 -0.0039  0.1790  0.5604
 2990SOL    HW120603   0.980   0.251   4.183 -0.9126  4.6190  3.2971
 2990SOL    HW220604   1.105   0.259   4.258  0.7100  1.2910  0.5193
 2991SOL     OW20605   3.618   1.599   8.130  0.7928  0.1867  0.6667
 2991SOL    HW120606   3.549   1.535   8.112 -0.1646  1.4073 -0.0354
 2991SOL    HW220607   3.671   1.549   8.193 -0.6502 -2.4716 -0.2465
 2992SOL     OW20608   2.287   2.146   9.463  0.6405  0.3969 -0.5223
 2992SOL    HW120609   2.277   2.226   9.515 -1.3316 -0.0207 -0.2591
 2992SOL    HW220610   2.298   2.180   9.374 -0.7177  2.4885  0.1075
 2993SOL     OW20611   1.508   2.530   3.920 -0.9198  0.0472  0.5213
 2993SOL    HW120612   1.529   2.613   3.877  2.3806 -1.3138 -0.4462
 2993SOL    HW220613   1.506   2.474   3.842  1.5134  0.7385 -0.0520
 2994SOL     OW20614   2.332   4.043   6.465  0.0791  0.1472 -0.2992
 2994SOL    HW120615   2.419   4.055   6.428  0.4281  0.5714  0.6701
 2994SOL    HW220616   2.311   3.955   6.434 -0.8590 -0.5374  2.2206
 2995SOL     OW20617   1.688   1.252   7.581  0.5257 -0.0091  0.2348
 2995SOL    HW120618   1.756   1.274   7.645  0.6913 -1.5359  0.5887
 2995SOL    HW220619   1.722   1.283   7.497 -1.9104  0.5365 -0.5321
 2996SOL     OW20620   2.279   0.989   7.900  0.1122  0.1268 -0.1835
 2996SOL    HW120621   2.329   0.912   7.871  0.4472  1.1030 -2.2214
 2996SOL    HW220622   2.191   0.973   7.867  0.8464  1.3975 -2.7847
 2997SOL     OW20623   4.404   0.377   9.681  0.1073 -0.6824  0.1236
 2997SOL    HW120624   4.419   0.449   9.743  0.5211 -0.6564 -0.0040
 2997SOL    HW220625   4.355   0.328   9.747  0.4465  1.7353  2.1774
 2998SOL     OW20626   2.608   2.404   3.619 -0.6037 -0.5870  0.5643
 2998SOL    HW120627   2.595   2.484   3.569  2.8902 -0.3076  0.1009
 2998SOL    HW220628   2.600   2.330   3.558  1.2069  1.3865 -2.0191
 2999SOL     OW20629   4.040   4.616   4.281 -0.2643 -0.4743  0.3876
 2999SOL    HW120630   3.989   4.666   4.217  0.8032  2.5626  1.9002
 2999SOL    HW220631   3.986   4.633   4.358 -0.8410  1.0642 -0.3642
 3000SOL     OW20632   0.302   0.964   2.156  0.2351  0.0264 -0.2329
 3000SOL    HW120633   0.273   0.875   2.137 -1.9148  0.4330  1.0986
 3000SOL    HW220634   0.261   0.979   2.242  0.4482  0.5689 -0.2289
 3001SOL     OW20635   0.213   2.715   7.006  0.6577  0.1236  0.6786
 3001SOL    HW120636   0.174   2.628   7.006  1.7896 -0.4125  3.6488
 3001SOL    HW220637   0.155   2.759   6.944  0.1326  1.3652  2.0187
 3002SOL     OW20638   0.990   1.907   4.450  0.2644  0.0555  0.0023
 3002SOL    HW120639   1.083   1.929   4.441 -0.0483  1.6808  0.9456
 3002SOL    HW220640   0.978   1.848   4.375  2.7634 -1.1835  0.5684
 3003SOL     OW20641   3.283   2.856   2.033 -0.0872  0.5702 -0.5459
 3003SOL    HW120642   3.345   2.898   2.093  0.3744 -1.7342  0.6040
 3003SOL    HW220643   3.209   2.917   2.031  0.1548  0.8836 -0.0378
 3004SOL     OW20644   0.681   1.949   8.264 -0.3943 -0.1021  0.4544
 3004SOL    HW120645   0.769   1.927   8.297  0.6324  1.2489 -1.3911
 3004SOL    HW220646   0.680   1.896   8.185 -0.5603  0.0999  0.3234
 3005SOL     OW20647   3.293   3.841  17.111  0.4540  0.2643  0.1982
 3005SOL    HW120648   3.220   3.902  17.121 -0.3847 -0.5014 -1.1975
 3005SOL    HW220649   3.312   3.818  17.202  0.5773 -0.0452  0.0949
 3006SOL     OW20650   3.893   3.274   2.121 -0.5007 -0.1518 -0.2500
 3006SOL    HW120651   3.822   3.335   2.143  0.9585  1.7157 -0.6555
 3006SOL    HW220652   3.953   3.341   2.088  0.6918 -0.6345  0.9232
 3007SOL     OW20653   0.974   2.901   8.695 -0.6484 -0.1346 -0.5313
 3007SOL    HW120654   0.950   2.903   8.603 -1.4024  0.2208 -0.3250
 3007SOL    HW220655   0.993   2.993   8.715  1.2118 -0.1684 -2.1271
 3008SOL     OW20656   1.756   0.264   6.050  0.0916  0.2739 -0.2428
 3008SOL    HW120657   1.691   0.330   6.072 -2.7139 -1.7921 -2.3517
 3008SOL    HW220658   1.742   0.246   5.957 -2.6143 -1.2341  0.4437
 3009SOL     OW20659   2.546   4.613   4.051 -0.4075  0.5879 -0.4817
 3009SOL    HW120660   2.464   4.582   4.090  0.5115 -1.0926  0.1308
 3009SOL    HW220661   2.504   4.685   4.003 -0.6600  2.0974  1.9953
 3010SOL     OW20662   2.456   0.936   1.056 -0.6386 -0.6589 -0.1829
 3010SOL    HW120663   2.429   0.893   0.975  0.0861 -1.2402 -0.1129
 3010SOL    HW220664   2.538   0.889   1.073 -0.5604 -0.4714 -0.0393
 3011SOL     OW20665   1.180   2.500   5.002  0.1647 -0.1366 -0.0899
 3011SOL    HW120666   1.274   2.478   5.007  0.2075 -0.4352 -2.0115
 3011SOL    HW220667   1.161   2.489   4.909  1.3434  0.2210 -0.3755
 3012SOL     OW20668   2.142   3.726   9.075 -0.2460  0.2923  0.8816
 3012SOL    HW120669   2.120   3.717   8.983  0.1380  1.5206  0.6744
 3012SOL    HW220670   2.067   3.776   9.107  0.3281  0.6853  1.6083
 3013SOL     OW20671   3.222   0.090   6.032 -0.0342  0.5566  0.1185
 3013SOL    HW120672   3.186   0.167   5.988  1.9259  1.7698  0.6638
 3013SOL    HW220673   3.295   0.131   6.077  0.8649  0.4603 -1.2427
 3014SOL     OW20674   2.264   2.339   8.506 -0.0179 -0.1834  0.5267
 3014SOL    HW120675   2.206   2.378   8.441  0.2439  0.1694  0.5043
 3014SOL    HW220676   2.210   2.346   8.585  1.8387  0.9644  1.7170
 3015SOL     OW20677   1.286   2.646   3.069 -1.1091 -0.1596  0.4337
 3015SOL    HW120678   1.375   2.617   3.051 -1.6400 -0.8191 -1.1361
 3015SOL    HW220679   1.275   2.707   2.996  0.7504  0.6342  0.8248
 3016SOL     OW20680   2.390   3.781   4.244  0.1739 -0.2344 -0.1639
 3016SOL    HW120681   2.299   3.769   4.270  0.2401  0.9203  0.6214
 3016SOL    HW220682   2.430   3.713   4.299  1.9163  1.4213  0.6339
 3017SOL     OW20683   2.203   0.948   1.559 -0.0754 -0.1039 -0.4157
 3017SOL    HW120684   2.118   0.933   1.519 -0.3749  1.2501 -0.2805
 3017SOL    HW220685   2.270   0.909   1.502 -1.1320 -1.8767 -0.4453
 3018SOL     OW20686   2.734   3.235   1.869  0.0790 -0.1994 -0.1911
 3018SOL    HW120687   2.822   3.203   1.850 -0.2484 -1.6679  0.7808
 3018SOL    HW220688   2.738   3.329   1.887 -1.8272  0.1563 -1.6274
 3019SOL     OW20689   1.751   0.127   4.351  0.3193  0.0896 -0.3390
 3019SOL    HW120690   1.744   0.106   4.257  0.2536 -1.2874 -0.0319
 3019SOL    HW220691   1.741   0.041   4.391  1.6879 -0.5933 -1.4731
 3020SOL     OW20692   1.245   0.729   1.403  0.3459 -0.2642  0.3948
 3020SOL    HW120693   1.212   0.680   1.329 -0.5129  0.8842  0.0252
 3020SOL    HW220694   1.266   0.661   1.468 -0.9775 -0.0443  1.0565
 3021SOL     OW20695   3.827   3.880   3.567 -0.1145  0.0480  0.2710
 3021SOL    HW120696   3.880   3.866   3.489  2.5592  0.0818  2.0806
 3021SOL    HW220697   3.845   3.971   3.592 -3.2133  0.6111  0.4217
 3022SOL     OW20698   4.073   3.475   6.894  0.0300 -0.3886  0.0993
 3022SOL    HW120699   3.997   3.417   6.904 -0.4944 -0.1803 -2.6823
 3022SOL    HW220700   4.071   3.514   6.981 -0.3327 -0.9100  0.3294
 3023SOL     OW20701   1.396   0.800  11.794 -0.1384 -0.0841 -0.2529
 3023SOL    HW120702   1.380   0.756  11.711 -1.4575  0.2218 -0.1604
 3023SOL    HW220703   1.425   0.731  11.855  1.9902 -1.3722 -2.7171
 3024SOL     OW20704   3.446   0.078   4.260  0.1583 -0.1325 -0.5112
 3024SOL    HW120705   3.363   0.074   4.309  0.8449 -0.6032  0.6098
 3024SOL    HW220706   3.497   0.010   4.303  0.4756 -0.4986 -1.4749
 3025SOL     OW20707   0.855   4.186   5.787 -0.2512  0.0245  0.1964
 3025SOL    HW120708   0.883   4.095   5.781 -0.6108 -0.0865  0.2489
 3025SOL    HW220709   0.891   4.217   5.871 -0.3979 -0.6277  0.4999
 3026SOL     OW20710   1.194   1.115   4.026 -0.2196  0.3717 -0.1603
 3026SOL    HW120711   1.159   1.107   4.115  3.1497 -0.0240  1.1664
 3026SOL    HW220712   1.147   1.047   3.978 -0.6312  1.6726 -1.5947
 3027SOL     OW20713   4.521   3.230   6.501 -0.3172  0.0961  0.5999
 3027SOL    HW120714   4.584   3.257   6.434  0.6246  0.3817  1.5938
 3027SOL    HW220715   4.566   3.254   6.582 -0.3359  0.8820  0.3801
 3028SOL     OW20716   3.412   0.116   4.910 -0.1016  0.0318 -0.0485
 3028SOL    HW120717   3.381   0.132   4.821 -0.8053 -0.4718  0.1043
 3028SOL    HW220718   3.496   0.161   4.905  0.4445 -0.8610  1.1521
 3029SOL     OW20719   2.654   0.115   1.149 -0.7680  0.1279 -0.2200
 3029SOL    HW120720   2.719   0.080   1.088  0.3361 -0.8744  1.5165
 3029SOL    HW220721   2.574   0.126   1.097 -0.8112  1.0124  0.0319
 3030SOL     OW20722   0.901   1.586  15.549 -0.0750 -0.5472 -0.0577
 3030SOL    HW120723   0.950   1.650  15.601 -0.4360  0.4610 -0.9578
 3030SOL    HW220724   0.975   1.562  15.493  2.8902  0.7831  3.2558
 3031SOL     OW20725   1.174   1.193   5.410 -0.0464 -0.0438  0.3251
 3031SOL    HW120726   1.120   1.149   5.344  0.1525 -0.1052  0.2036
 3031SOL    HW220727   1.243   1.223   5.351  0.4511 -0.1110  0.8714
 3032SOL     OW20728   3.708   3.457  10.538  0.6126  0.0840 -0.4772
 3032SOL    HW120729   3.783   3.465  10.598 -0.4798  0.9240  0.7565
 3032SOL    HW220730   3.705   3.545  10.500 -0.5466 -0.0860 -0.7778
 3033SOL     OW20731   0.874   0.220   6.033  0.0977 -0.4392  0.3319
 3033SOL    HW120732   0.955   0.216   6.084  1.3067 -0.5351 -1.6066
 3033SOL    HW220733   0.891   0.178   5.949  1.4184  1.1507 -0.2071
 3034SOL     OW20734   1.114   2.666   5.255 -0.0341  0.0383  0.1412
 3034SOL    HW120735   1.119   2.589   5.199  1.3671  0.7500 -0.7199
 3034SOL    HW220736   1.077   2.724   5.189  3.3546  2.2258  0.1886
 3035SOL     OW20737   2.428   1.581  10.365  0.1474 -0.3494 -0.2017
 3035SOL    HW120738   2.360   1.561  10.429 -2.2639  2.7276 -1.7850
 3035SOL    HW220739   2.509   1.584  10.416 -0.5282  0.3564  0.8318
 3036SOL     OW20740   2.491   1.968   3.455 -0.2130 -0.0314 -0.2165
 3036SOL    HW120741   2.513   1.888   3.502 -0.3202 -1.1484 -2.0505
 3036SOL    HW220742   2.413   1.941   3.406 -0.0814  0.1921 -0.5496
 3037SOL     OW20743   0.153   1.000   2.379 -0.0232 -0.2374  0.0531
 3037SOL    HW120744   0.152   1.091   2.410  2.4020  0.1722 -1.0465
 3037SOL    HW220745   0.060   0.976   2.381 -0.9654  3.4239  0.4499
 3038SOL     OW20746   3.297   1.576   7.850 -0.2669  0.2633  0.1822
 3038SOL    HW120747   3.218   1.630   7.849  0.0308  0.6783 -0.8885
 3038SOL    HW220748   3.305   1.546   7.759 -0.6583 -1.3873  0.6783
 3039SOL     OW20749   0.095   3.509   5.068 -0.1010  0.4897 -0.3553
 3039SOL    HW120750   0.174   3.531   5.117 -0.0537  1.8957 -1.0773
 3039SOL    HW220751   0.029   3.569   5.103 -1.1559  0.0315 -1.5419
 3040SOL     OW20752   0.195   1.096   5.965 -0.8216 -0.4612 -0.1304
 3040SOL    HW120753   0.261   1.049   5.914 -1.5942 -0.5915 -1.0148
 3040SOL    HW220754   0.134   1.026   5.987 -0.2243 -0.6967  0.7959
 3041SOL     OW20755   3.615   2.136   5.008  0.4448 -0.3698 -0.3939
 3041SOL    HW120756   3.588   2.059   4.959  3.7582 -0.1241 -2.5695
 3041SOL    HW220757   3.649   2.094   5.088 -1.3037 -1.1609 -0.0676
 3042SOL     OW20758   0.787   1.468   6.924  1.0023  0.0103 -0.3925
 3042SOL    HW120759   0.818   1.383   6.893 -0.4631 -1.6893  2.7505
 3042SOL    HW220760   0.778   1.506   6.837  1.6895 -0.7064 -0.7732
 3043SOL     OW20761   2.932   2.182   6.077 -0.2134  0.1211  0.2672
 3043SOL    HW120762   2.905   2.265   6.038  1.0637  0.7695  0.7672
 3043SOL    HW220763   2.941   2.127   5.999 -1.6458  1.9010 -1.1376
 3044SOL     OW20764   1.404   2.818   4.641  0.7056  0.4116  0.2654
 3044SOL    HW120765   1.484   2.870   4.633  0.0899  0.8421 -3.1579
 3044SOL    HW220766   1.362   2.832   4.556  0.8541  0.1307  0.1497
 3045SOL     OW20767   1.686   2.556   8.485  0.3387  0.5941  0.1700
 3045SOL    HW120768   1.595   2.576   8.507  1.3370  2.4014  2.6689
 3045SOL    HW220769   1.691   2.470   8.444  0.5335  0.7868 -0.2158
 3046SOL     OW20770   3.627   4.366   4.906 -0.2584 -0.1259  0.1004
 3046SOL    HW120771   3.641   4.435   4.971 -0.9746  0.5091 -0.4160
 3046SOL    HW220772   3.639   4.286   4.957 -0.2623 -0.2740 -0.1328
 3047SOL     OW20773   0.439   0.222  12.720  0.2779 -0.4415  0.8902
 3047SOL    HW120774   0.519   0.182  12.686 -0.3931  0.5421 -1.8529
 3047SOL    HW220775   0.465   0.314  12.725  0.8604 -0.6199  1.1033
 3048SOL     OW20776   1.768   2.726   4.609  0.3809 -0.0724  0.2530
 3048SOL    HW120777   1.685   2.695   4.645  0.0288  2.1910  1.4131
 3048SOL    HW220778   1.761   2.815   4.645  0.7450  0.0625 -0.0059
 3049SOL     OW20779   4.606   3.063  17.726 -0.0592  0.7291 -0.0653
 3049SOL    HW120780   4.527   3.011  17.717  0.4295 -0.2372  1.2508
 3049SOL    HW220781   4.609   3.071   0.068 -0.0474 -1.7771  0.1463
 3050SOL     OW20782   0.610   4.652   2.017 -0.0774 -0.2001 -0.3512
 3050SOL    HW120783   0.561   4.731   2.039  2.7410  0.0303  4.9960
 3050SOL    HW220784   0.564   4.583   2.065 -0.8580 -0.2120 -1.1140
 3051SOL     OW20785   2.081   0.664   3.722  0.7790 -0.6600  0.2257
 3051SOL    HW120786   2.044   0.692   3.638 -0.1433 -2.9233 -0.1071
 3051SOL    HW220787   2.112   0.576   3.700  4.2077  0.1713  1.6897
 3052SOL     OW20788   4.465   2.448  10.863  0.0735 -0.1254 -0.2201
 3052SOL    HW120789   4.527   2.381  10.892 -0.8640 -1.7108 -1.8975
 3052SOL    HW220790   4.528   2.503  10.816 -1.6031  1.8750 -0.1576
 3053SOL     OW20791   0.362   1.863   2.894 -0.4466  0.5448 -0.0639
 3053SOL    HW120792   0.336   1.873   2.986  0.3917 -2.5135  0.5091
 3053SOL    HW220793   0.440   1.810   2.908  0.6908  3.1663  3.4612
 3054SOL     OW20794   4.668   2.102   0.191 -0.4248  0.2890  0.0184
 3054SOL    HW120795   4.717   2.172   0.149 -0.5787 -0.0987 -0.8008
 3054SOL    HW220796   4.656   2.132   0.281  1.7577  0.2095  0.3250
 3055SOL     OW20797   0.026   4.417   9.158 -0.3692 -0.0360 -0.1596
 3055SOL    HW120798   0.058   4.416   9.067  1.4250 -0.7318  0.4792
 3055SOL    HW220799   4.676   4.449   9.145 -1.1540 -0.7516  3.5767
 3056SOL     OW20800   1.312   1.018   3.284  0.1009 -0.2931 -0.4354
 3056SOL    HW120801   1.322   0.982   3.372  0.3785 -2.6736 -1.4163
 3056SOL    HW220802   1.222   1.048   3.293  0.2057 -0.1827  0.2748
 3057SOL     OW20803   2.287   1.304  12.234  0.1116  0.1288  0.3199
 3057SOL    HW120804   2.345   1.342  12.301 -1.0159 -0.5688  1.6835
 3057SOL    HW220805   2.244   1.238  12.288 -1.9985  0.4301 -1.0015
 3058SOL     OW20806   1.488   0.513   5.411 -0.2396 -0.0356  0.5753
 3058SOL    HW120807   1.407   0.508   5.462  0.0691  0.4967  1.1105
 3058SOL    HW220808   1.460   0.499   5.321 -1.9787 -2.2912  1.4567
 3059SOL     OW20809   0.055   3.419   8.265 -0.9971 -0.2210 -0.1736
 3059SOL    HW120810   0.114   3.390   8.334 -1.7064  1.2574  1.0750
 3059SOL    HW220811   4.728   3.474   8.308  0.9297  1.7450  0.2974
 3060SOL     OW20812   0.672   3.148   8.541 -0.2678  0.0507  0.5822
 3060SOL    HW120813   0.616   3.226   8.538 -0.3594 -0.0471 -0.4691
 3060SOL    HW220814   0.611   3.083   8.507  0.9233  0.2000 -1.8918
 3061SOL     OW20815   0.616   1.059  13.142 -0.5180 -0.0359 -0.3919
 3061SOL    HW120816   0.524   1.078  13.121 -0.8676 -0.3897  0.7770
 3061SOL    HW220817   0.646   1.025  13.058 -0.4544  1.5222 -1.0059
 3062SOL     OW20818   2.096   2.411   2.914  0.2601 -0.4056 -0.5608
 3062SOL    HW120819   2.121   2.496   2.949  1.0320 -1.1561  0.7058
 3062SOL    HW220820   2.145   2.398   2.833  0.8329  3.5029 -0.8207
 3063SOL     OW20821   2.220   2.497   1.503 -0.1718  0.7316 -0.0898
 3063SOL    HW120822   2.269   2.578   1.496  1.6762 -0.3769  0.1550
 3063SOL    HW220823   2.268   2.449   1.571  1.1538 -0.8804 -2.1851
 3064SOL     OW20824   1.260   0.125   8.603 -0.0358  0.5243  0.0412
 3064SOL    HW120825   1.228   0.125   8.513  0.3843  0.0283 -0.1124
 3064SOL    HW220826   1.326   0.055   8.609 -1.9860 -1.4183 -1.3463
 3065SOL     OW20827   1.460   4.541   3.017 -0.4731  0.6388 -0.2665
 3065SOL    HW120828   1.384   4.593   3.043  0.3003  2.0982 -0.9106
 3065SOL    HW220829   1.419   4.480   2.957 -0.2113 -1.5061  1.7619
 3066SOL     OW20830   3.054   0.576   4.311  0.6536 -0.0642  0.6262
 3066SOL    HW120831   3.054   0.667   4.341 -0.0544  0.7708 -1.9242
 3066SOL    HW220832   2.970   0.554   4.271  0.7010  0.8302  0.0410
 3067SOL     OW20833   0.019   1.474   8.729  0.3540  0.2066  0.7304
 3067SOL    HW120834   0.073   1.541   8.688 -0.0363 -1.1190 -1.9680
 3067SOL    HW220835   0.044   1.498   8.818 -1.0978  1.5444  0.7888
 3068SOL     OW20836   0.585   3.615   3.708  0.0054 -0.1534  0.5499
 3068SOL    HW120837   0.573   3.699   3.752  0.2014  0.5477 -0.7459
 3068SOL    HW220838   0.654   3.643   3.648  1.2916  0.7402  2.4665
 3069SOL     OW20839   3.799   1.964   7.273  0.1317 -0.3323  0.0499
 3069SOL    HW120840   3.786   1.923   7.187  0.8256 -2.1116  0.7973
 3069SOL    HW220841   3.709   1.982   7.297  0.0227 -0.7318 -0.0531
 3070SOL     OW20842   1.565   2.438   1.236 -0.1435 -0.6810  0.5205
 3070SOL    HW120843   1.550   2.344   1.250 -0.9883 -0.7046 -0.4940
 3070SOL    HW220844   1.500   2.475   1.295 -0.9300 -0.4268 -0.5060
 3071SOL     OW20845   1.908   2.618   9.739 -0.0504 -0.5100 -0.0781
 3071SOL    HW120846   1.930   2.654   9.653 -0.0381  2.9625  1.4050
 3071SOL    HW220847   1.892   2.704   9.777 -3.1990 -0.0262 -2.4571
 3072SOL     OW20848   4.047   2.563   9.264 -0.5657 -0.3244 -0.6419
 3072SOL    HW120849   4.026   2.606   9.181  2.8927 -0.2968 -1.4962
 3072SOL    HW220850   3.968   2.567   9.318  0.4583 -0.6968  0.8652
 3073SOL     OW20851   3.789   2.361   7.464  1.0848  0.3060 -0.1113
 3073SOL    HW120852   3.813   2.450   7.491 -2.1456  1.6261 -1.5498
 3073SOL    HW220853   3.879   2.334   7.447  1.2513  1.5245 -1.1567
 3074SOL     OW20854   3.441   3.117   4.406  0.3314  0.5181 -0.2594
 3074SOL    HW120855   3.478   3.132   4.320 -0.5360 -0.7257 -0.8465
 3074SOL    HW220856   3.468   3.198   4.449 -0.1992  0.1184  0.8315
 3075SOL     OW20857   4.576   0.751   6.390 -0.7032  0.4900 -0.1049
 3075SOL    HW120858   4.651   0.713   6.435 -1.7724 -1.9326 -0.3664
 3075SOL    HW220859   4.551   0.681   6.330  0.0116  0.4542 -0.3504
 3076SOL     OW20860   1.984   0.378   7.714 -0.4862  0.0720 -0.5305
 3076SOL    HW120861   1.987   0.474   7.716 -1.1884  0.0436  3.0269
 3076SOL    HW220862   1.929   0.373   7.793  0.5573  0.2163  0.2142
 3077SOL     OW20863   3.234   2.874   7.383 -0.0890 -0.0214 -0.7106
 3077SOL    HW120864   3.236   2.895   7.290  1.8212 -0.6880 -0.8225
 3077SOL    HW220865   3.296   2.801   7.384 -2.1365 -1.7352  3.2435
 3078SOL     OW20866   2.228   2.686   4.489 -0.1836  0.5656 -0.1543
 3078SOL    HW120867   2.134   2.678   4.470 -0.3620  1.1364  0.5142
 3078SOL    HW220868   2.255   2.594   4.489 -1.4187  0.2008  1.0886
 3079SOL     OW20869   4.393   1.275   1.992  0.3219 -0.4560 -0.3476
 3079SOL    HW120870   4.358   1.249   1.907  1.3352  2.1883 -1.5598
 3079SOL    HW220871   4.476   1.227   1.996  0.0128 -1.0064 -0.5258
 3080SOL     OW20872   0.276   2.113   3.329  0.5820 -0.0648  0.0909
 3080SOL    HW120873   0.309   2.063   3.404  0.8165  1.2743  0.8745
 3080SOL    HW220874   0.203   2.157   3.371  1.3402  0.6299  0.6716
 3081SOL     OW20875   2.098   0.527   3.199 -0.7268 -0.1391  0.1994
 3081SOL    HW120876   2.008   0.509   3.172 -0.6691  2.0167 -1.4633
 3081SOL    HW220877   2.131   0.565   3.117 -1.3687  2.5194  1.1575
 3082SOL     OW20878   2.603   0.151   2.742  0.1962 -0.5943 -0.7185
 3082SOL    HW120879   2.543   0.210   2.697  0.7423  1.3320  1.0462
 3082SOL    HW220880   2.536   0.102   2.790 -3.0205  4.1030 -0.4053
 3083SOL     OW20881   4.422   1.378   7.159 -0.3890 -0.1803 -0.0599
 3083SOL    HW120882   4.384   1.327   7.231  1.0255 -1.8791 -0.5170
 3083SOL    HW220883   4.480   1.311   7.122 -0.4888  0.9401 -2.2099
 3084SOL     OW20884   1.919   0.946  17.540  0.1020 -0.4779  0.4002
 3084SOL    HW120885   1.911   0.878  17.474  0.2656  0.9793 -1.1284
 3084SOL    HW220886   2.012   0.961  17.557  0.2645 -0.8352 -0.2134
 3085SOL     OW20887   1.092   1.304   1.979 -0.0153  0.1927 -0.1391
 3085SOL    HW120888   1.118   1.336   2.066  0.2348  0.0922 -0.1766
 3085SOL    HW220889   1.153   1.348   1.920 -2.3517  2.6505 -0.7013
 3086SOL     OW20890   0.037   2.233   4.844 -0.0228  0.1007 -0.4527
 3086SOL    HW120891   0.029   2.266   4.754 -2.9389  2.1241  0.5805
 3086SOL    HW220892   0.112   2.281   4.879  0.7491 -2.5385  1.5240
 3087SOL     OW20893   4.020   1.454   4.959  0.1039  0.1519 -0.0286
 3087SOL    HW120894   3.986   1.384   5.015  1.2296  1.2988  2.0704
 3087SOL    HW220895   3.949   1.513   4.933  1.5487  1.0219 -1.9176
 3088SOL     OW20896   1.722   0.608   7.244 -0.7233 -0.5325 -0.1742
 3088SOL    HW120897   1.628   0.619   7.232 -0.4053  0.1041 -2.2411
 3088SOL    HW220898   1.761   0.607   7.156 -1.2526 -1.3754 -0.3913
 3089SOL     OW20899   3.309   4.138   4.484  0.0315  0.5479 -0.1277
 3089SOL    HW120900   3.275   4.096   4.405  0.7364 -0.9601  0.3727
 3089SOL    HW220901   3.233   4.170   4.533  0.3459  0.4514  0.4251
 3090SOL     OW20902   0.014   2.493   9.062  0.1774  0.2634 -0.8616
 3090SOL    HW120903   0.064   2.572   9.044 -0.0932  0.2889 -1.5176
 3090SOL    HW220904   0.057   2.471   9.145  0.6585 -1.2709 -1.5074
 3091SOL     OW20905   2.110   1.679   8.909 -0.3806  0.3335  0.2956
 3091SOL    HW120906   2.175   1.749   8.914 -0.7596  0.6382  0.9845
 3091SOL    HW220907   2.106   1.661   9.003  1.3505 -1.8840 -0.0461
 3092SOL     OW20908   3.273   1.651   2.514  0.1146  0.4051 -0.6332
 3092SOL    HW120909   3.355   1.607   2.538 -1.3467 -1.2583  1.2821
 3092SOL    HW220910   3.278   1.735   2.560 -1.5008 -0.0139  0.3272
 3093SOL     OW20911   0.740   0.569  17.659 -0.0050 -0.5117  0.8822
 3093SOL    HW120912   0.754   0.485  17.615 -1.9973 -1.0587  1.2912
 3093SOL    HW220913   0.670   0.608  17.607 -0.0316 -0.3379  1.0465
 3094SOL     OW20914   2.871   4.149   8.955 -0.0821 -0.2130 -0.2124
 3094SOL    HW120915   2.779   4.138   8.933 -0.5818 -0.5906  2.0903
 3094SOL    HW220916   2.907   4.102   8.880  2.3694  0.4225  0.5514
 3095SOL     OW20917   4.152   1.414  12.991 -0.2432  0.1786 -0.5922
 3095SOL    HW120918   4.146   1.446  13.081 -2.9157 -0.1810 -0.6583
 3095SOL    HW220919   4.068   1.369  12.986  1.4935 -3.1645 -0.0464
 3096SOL     OW20920   1.352   0.773   0.109 -0.2392  0.1046  0.2606
 3096SOL    HW120921   1.429   0.760   0.053 -1.9457  0.5130 -2.2001
 3096SOL    HW220922   1.369   0.705   0.174 -0.8896 -1.6685 -1.4331
 3097SOL     OW20923   3.365   3.861   1.194 -0.2596  0.0638  0.0194
 3097SOL    HW120924   3.445   3.866   1.142 -0.3792 -2.7325 -0.4472
 3097SOL    HW220925   3.374   3.929   1.261 -0.4252 -1.4112  1.5312
 3098SOL     OW20926   1.907   0.743  17.371 -0.0486 -0.1433 -0.1523
 3098SOL    HW120927   1.835   0.782  17.321 -0.5771  2.1476  2.3988
 3098SOL    HW220928   1.857   0.672  17.412 -1.7270  1.4217  0.4909
 3099SOL     OW20929   1.136   3.536   5.445  0.0575 -0.4192 -0.0929
 3099SOL    HW120930   1.210   3.534   5.505 -0.3131  0.8775  0.4016
 3099SOL    HW220931   1.176   3.552   5.359 -1.6742  1.6853 -0.4953
 3100SOL     OW20932   2.602   2.373   4.826 -0.2459  0.1972  0.2308
 3100SOL    HW120933   2.551   2.441   4.870 -2.3333 -2.1825  1.4984
 3100SOL    HW220934   2.536   2.357   4.758 -0.8641  0.5318  0.7497
 3101SOL     OW20935   0.805   4.475  12.928 -0.0190 -0.4150 -0.3630
 3101SOL    HW120936   0.755   4.417  12.985  1.2452  1.5475  2.7181
 3101SOL    HW220937   0.743   4.531  12.880  0.6939  0.2358 -0.5221
 3102SOL     OW20938   3.227   0.233  12.714 -0.1626  0.1464 -0.2947
 3102SOL    HW120939   3.166   0.307  12.720  0.6528  0.7600  0.5297
 3102SOL    HW220940   3.264   0.254  12.629  0.3014 -0.1167 -0.1560
 3103SOL     OW20941   3.103   0.915  12.717 -0.4608  0.2319  0.1131
 3103SOL    HW120942   3.118   0.947  12.628  0.0533  1.8134  0.7801
 3103SOL    HW220943   3.072   0.999  12.750  0.8926  0.9093 -0.3443
 3104SOL     OW20944   3.467   1.697  12.074 -0.2930 -0.2443 -0.0843
 3104SOL    HW120945   3.392   1.672  12.020 -0.1430 -0.4312 -0.2056
 3104SOL    HW220946   3.521   1.746  12.012  0.8953  1.7096  2.5129
 3105SOL     OW20947   3.065   3.409   4.213 -0.3901 -0.9382  0.4236
 3105SOL    HW120948   3.118   3.331   4.225 -0.7343 -0.6515  3.5984
 3105SOL    HW220949   3.112   3.472   4.267 -3.4618  1.8859 -0.1369
 3106SOL     OW20950   1.252   0.388  13.529  0.0018  0.6056 -0.3872
 3106SOL    HW120951   1.256   0.454  13.599  0.7247 -0.6750  0.7800
 3106SOL    HW220952   1.287   0.440  13.457  2.4713 -0.5892 -0.0392
 3107SOL     OW20953   0.397   1.876   6.210 -0.0384  0.6515 -0.2331
 3107SOL    HW120954   0.346   1.957   6.199  2.0253  2.4114  3.2279
 3107SOL    HW220955   0.318   1.834   6.245 -0.6200  1.5471 -0.4436
 3108SOL     OW20956   1.501   3.432  11.659 -0.2834  0.0499 -0.4748
 3108SOL    HW120957   1.425   3.477  11.622 -1.7776 -0.2217  2.2371
 3108SOL    HW220958   1.476   3.346  11.625  1.7956 -0.5626 -0.4627
 3109SOL     OW20959   3.360   4.274   3.082 -0.0469 -0.3352 -0.2534
 3109SOL    HW120960   3.331   4.358   3.046 -2.9168 -1.3450 -0.2931
 3109SOL    HW220961   3.332   4.220   3.007 -0.5172 -0.1101 -0.2382
 3110SOL     OW20962   0.576   0.642   3.898  0.2408  0.3998 -0.7233
 3110SOL    HW120963   0.577   0.644   3.994  1.1871 -2.0667 -0.6747
 3110SOL    HW220964   0.521   0.565   3.884  1.8958 -0.5926 -1.7906
 3111SOL     OW20965   1.666   3.460  17.491 -0.2541  0.0570 -0.3507
 3111SOL    HW120966   1.757   3.446  17.519 -0.3778 -2.3169 -1.0873
 3111SOL    HW220967   1.677   3.465  17.396  0.3962 -0.3506 -0.2995
 3112SOL     OW20968   4.717   3.122   2.048  0.0197 -0.4412  0.1320
 3112SOL    HW120969   4.713   3.102   2.141  1.0045 -0.8053  0.0960
 3112SOL    HW220970   4.725   3.218   2.053 -0.6268 -0.2479 -2.4838
 3113SOL     OW20971   4.510   1.641   0.620  0.0574 -0.5247  0.3983
 3113SOL    HW120972   4.452   1.612   0.549 -2.0000 -0.3043  1.9816
 3113SOL    HW220973   4.446   1.639   0.692  0.7000  0.4696  0.9921
 3114SOL     OW20974   0.281   2.490   4.604  0.0396  0.0590 -0.1216
 3114SOL    HW120975   0.370   2.457   4.595 -0.9774 -3.6003  3.3966
 3114SOL    HW220976   0.295   2.577   4.567 -0.3935 -0.1929 -0.8791
 3115SOL     OW20977   2.279   4.495  11.790  0.4816 -0.0967  0.4180
 3115SOL    HW120978   2.301   4.402  11.803  0.7785  0.1870  1.9898
 3115SOL    HW220979   2.368   4.526  11.810 -0.0042  1.3466  0.2810
 3116SOL     OW20980   1.382   1.152   7.136 -0.1117  0.2570  0.0941
 3116SOL    HW120981   1.408   1.223   7.195 -0.8376  1.8436 -1.4902
 3116SOL    HW220982   1.345   1.181   7.053 -1.2481 -0.8943  0.1836
 3117SOL     OW20983   1.904   0.438   8.580  0.1615  0.1074 -0.6843
 3117SOL    HW120984   1.971   0.503   8.559  0.6150 -0.3995 -0.7851
 3117SOL    HW220985   1.945   0.352   8.579 -1.2326 -0.5948  2.2532
 3118SOL     OW20986   3.070   3.775   4.880 -0.2470  0.1763  0.5538
 3118SOL    HW120987   2.995   3.766   4.820 -1.3992  4.0405  1.4645
 3118SOL    HW220988   3.138   3.721   4.839 -0.5920  0.4478 -0.3904
 3119SOL     OW20989   3.352   1.911   2.988 -0.2597  0.2956  0.5017
 3119SOL    HW120990   3.313   1.942   3.070  1.4806  0.8850  1.1077
 3119SOL    HW220991   3.278   1.864   2.949 -0.4416 -1.2412  2.6841
 3120SOL     OW20992   3.616   2.030   0.165 -0.1851 -0.2933  0.0313
 3120SOL    HW120993   3.528   1.997   0.183 -0.7152  1.5391  0.7713
 3120SOL    HW220994   3.660   2.031   0.250  1.2013  0.0077 -0.6859
 3121SOL     OW20995   3.143   1.030   7.343 -0.1690  0.2042 -0.5476
 3121SOL    HW120996   3.177   1.094   7.282 -2.6136  1.4383 -0.6079
 3121SOL    HW220997   3.110   0.966   7.280 -2.3069 -0.5405  1.3139
 3122SOL     OW20998   2.185   2.911   5.536 -0.0916 -0.0377 -0.8435
 3122SOL    HW120999   2.210   2.823   5.564  1.5215  0.8763  0.5658
 3122SOL    HW221000   2.101   2.894   5.493 -0.5670 -3.2938  1.3807
 3123SOL     OW21001   1.299   3.681   9.081 -0.6568 -0.0319  0.5483
 3123SOL    HW121002   1.226   3.651   9.027  0.9727 -1.0752 -1.0447
 3123SOL    HW221003   1.261   3.769   9.088 -2.5346 -0.8090  0.1655
 3124SOL     OW21004   4.092   3.348   5.432  0.0927  0.3375 -0.4915
 3124SOL    HW121005   4.129   3.411   5.495  0.9526 -0.8250  0.1610
 3124SOL    HW221006   4.124   3.398   5.356  2.7445  1.0938  1.1173
 3125SOL     OW21007   3.139   4.274   4.647 -0.3785  0.1673  0.4460
 3125SOL    HW121008   3.176   4.299   4.732  0.3537 -1.5389  0.6108
 3125SOL    HW221009   3.044   4.275   4.664 -0.1322 -1.3503  1.8993
 3126SOL     OW21010   2.956   4.106  13.994 -0.5893 -0.2598  0.3517
 3126SOL    HW121011   3.017   4.074  14.061  1.1643  0.3146 -0.9701
 3126SOL    HW221012   3.016   4.139  13.927 -1.1974  2.8268  1.3369
 3127SOL     OW21013   3.039   0.430   4.739  0.0551  0.0474 -0.4324
 3127SOL    HW121014   3.081   0.376   4.806  3.2060 -0.6841 -2.9969
 3127SOL    HW221015   3.110   0.434   4.676  1.8048  1.1184  1.6155
 3128SOL     OW21016   3.352   3.351  11.919  0.0155  0.1450 -0.5269
 3128SOL    HW121017   3.439   3.339  11.957  0.6998  0.1758 -2.0881
 3128SOL    HW221018   3.292   3.285  11.952  1.3502 -0.2732  1.0649
 3129SOL     OW21019   0.714   2.814   3.783 -0.6659 -0.3629 -0.1253
 3129SOL    HW121020   0.703   2.900   3.743 -0.1263  0.5366  1.6825
 3129SOL    HW221021   0.802   2.790   3.753 -0.2788  1.9860 -0.8302
 3130SOL     OW21022   0.627   2.701   3.336  0.1831  0.4490  0.5398
 3130SOL    HW121023   0.617   2.612   3.370 -0.3257  0.4750  0.4711
 3130SOL    HW221024   0.637   2.749   3.418 -0.1105 -1.6997  1.8244
 3131SOL     OW21025   0.576   3.799  14.734 -0.5711  0.3438  0.0679
 3131SOL    HW121026   0.584   3.740  14.659  1.2754  2.3138 -1.2691
 3131SOL    HW221027   0.642   3.864  14.711 -1.3808  1.5530  1.1797
 3132SOL     OW21028   4.297   0.598   2.261 -0.8047 -0.2676  0.0367
 3132SOL    HW121029   4.232   0.530   2.276 -0.4531 -0.7452 -0.6069
 3132SOL    HW221030   4.367   0.541   2.229 -2.3424 -2.0373 -0.1427
 3133SOL     OW21031   3.836   4.104   5.522 -0.1910  0.1599 -0.1522
 3133SOL    HW121032   3.910   4.048   5.546 -0.3333  0.7628  1.7495
 3133SOL    HW221033   3.868   4.192   5.539 -0.0412  0.0980 -0.1119
 3134SOL     OW21034   0.683   1.717  15.631 -0.3285 -0.0047  0.3159
 3134SOL    HW121035   0.750   1.669  15.584 -0.1986  0.6844 -0.2048
 3134SOL    HW221036   0.698   1.811  15.620  2.6673 -0.5748 -0.3465
 3135SOL     OW21037   1.913   0.436   5.657  0.1357 -0.1830 -0.2756
 3135SOL    HW121038   1.833   0.394   5.628 -1.3279  1.7245  1.0380
 3135SOL    HW221039   1.881   0.526   5.654 -0.3058 -0.3097  0.6999
 3136SOL     OW21040   4.068   3.041   5.611 -0.6499 -0.9517  1.0934
 3136SOL    HW121041   4.086   3.034   5.517 -2.4206  0.1054  0.6848
 3136SOL    HW221042   4.122   3.116   5.635  0.2853 -1.0925 -0.6056
 3137SOL     OW21043   3.189   2.543   2.908 -0.9067 -0.4180  0.3474
 3137SOL    HW121044   3.252   2.521   2.977  0.5211  3.4719  0.2973
 3137SOL    HW221045   3.143   2.625   2.930  2.1358  1.3772 -0.0343
 3138SOL     OW21046   0.283   2.112  14.799  0.1924 -0.3472 -0.2012
 3138SOL    HW121047   0.284   2.138  14.891  2.1049  1.9557 -0.8719
 3138SOL    HW221048   0.303   2.019  14.806 -0.2897 -0.4009  0.4694
 3139SOL     OW21049   2.637   3.323  10.377 -0.3192 -0.2273 -0.1225
 3139SOL    HW121050   2.558   3.347  10.425 -0.1015  0.1570  0.0490
 3139SOL    HW221051   2.606   3.308  10.287  1.4746  2.4006 -1.1985
 3140SOL     OW21052   0.388   0.706   3.323 -0.0551 -0.1406  0.2558
 3140SOL    HW121053   0.428   0.777   3.374 -0.2345 -1.3326  2.0450
 3140SOL    HW221054   0.430   0.722   3.238 -0.3569 -2.2700 -0.2982
 3141SOL     OW21055   3.447   1.176   4.361  0.4161  0.1279 -0.2790
 3141SOL    HW121056   3.477   1.266   4.373 -0.8125  0.6951 -1.5554
 3141SOL    HW221057   3.502   1.155   4.285  2.0004  0.5673  0.7340
 3142SOL     OW21058   1.545   0.909   4.342  0.5317  0.4609  0.1816
 3142SOL    HW121059   1.623   0.964   4.342  0.4479  0.5729 -2.2899
 3142SOL    HW221060   1.573   0.822   4.370  1.8560  1.3585  1.6380
 3143SOL     OW21061   3.965   3.671   5.823 -0.7744 -0.2269  0.1371
 3143SOL    HW121062   4.004   3.726   5.755 -1.0670 -0.7317 -0.4430
 3143SOL    HW221063   4.033   3.674   5.891 -0.2446  1.6351 -0.4889
 3144SOL     OW21064   0.497   3.905  16.678 -0.1996 -0.5093 -0.6487
 3144SOL    HW121065   0.508   3.999  16.693  2.7488 -0.9091 -0.3289
 3144SOL    HW221066   0.508   3.902  16.583  0.0545 -1.1735 -0.6038
 3145SOL     OW21067   0.276   2.901  11.201  0.0635  0.8589  0.7073
 3145SOL    HW121068   0.227   2.856  11.270  1.2885 -1.2692  0.1853
 3145SOL    HW221069   0.354   2.932  11.246  0.8886  1.4101 -1.0791
 3146SOL     OW21070   3.212   0.477   4.518  0.6384 -0.1459 -0.2709
 3146SOL    HW121071   3.149   0.511   4.454 -0.6695 -0.0774  1.0272
 3146SOL    HW221072   3.280   0.446   4.459  0.3474  1.1495 -1.2995
 3147SOL     OW21073   1.431   0.903  10.370  0.1110  0.1476 -0.3406
 3147SOL    HW121074   1.443   0.813  10.397  0.6650 -0.3511 -2.2423
 3147SOL    HW221075   1.404   0.877  10.282  2.0803 -1.4892 -0.4490
 3148SOL     OW21076   3.274   0.754   3.825 -0.2464  0.2281 -0.2291
 3148SOL    HW121077   3.235   0.679   3.869  0.0742 -0.9085 -1.8895
 3148SOL    HW221078   3.199   0.813   3.838 -0.1920 -0.1296  1.6865
 3149SOL     OW21079   0.852   0.001   8.263 -0.2234 -0.4921 -0.1959
 3149SOL    HW121080   0.828   0.043   8.181 -1.4125 -0.6617  0.0754
 3149SOL    HW221081   0.867   4.649   8.238  1.5993  0.4036 -2.3916
 3150SOL     OW21082   3.049   2.811   9.409  0.7806  0.1108  0.0946
 3150SOL    HW121083   3.111   2.800   9.337  2.0128 -1.8482  1.4382
 3150SOL    HW221084   2.966   2.808   9.362  0.9547 -0.6628 -0.1688
 3151SOL     OW21085   3.580   4.076   3.361  0.0990 -0.3202 -0.0281
 3151SOL    HW121086   3.619   4.019   3.295  0.6040  1.4490 -1.2378
 3151SOL    HW221087   3.653   4.138   3.362 -1.0038  0.9425  1.7818
 3152SOL     OW21088   0.231   0.486  11.717 -0.8048  0.1141 -0.3115
 3152SOL    HW121089   0.297   0.456  11.654  0.6980 -1.4108  1.9889
 3152SOL    HW221090   0.151   0.439  11.692 -0.8057 -1.1997  2.1474
 3153SOL     OW21091   1.499   0.727   6.845  0.0282 -0.4271 -0.1889
 3153SOL    HW121092   1.497   0.760   6.755  0.6133  0.0064 -0.0434
 3153SOL    HW221093   1.569   0.777   6.889  0.2472 -1.0459  0.1593
 3154SOL     OW21094   4.534   0.097   7.620  0.1916  0.4037  0.1249
 3154SOL    HW121095   4.506   0.180   7.583  0.8645  0.8766  0.6788
 3154SOL    HW221096   4.597   0.076   7.550  2.4314 -0.6645  2.4496
 3155SOL     OW21097   2.997   3.539   4.644  0.1654  0.0486 -0.3286
 3155SOL    HW121098   3.054   3.563   4.572  0.5760 -2.3155 -0.8089
 3155SOL    HW221099   2.920   3.500   4.600  0.0763 -1.9364  1.5879
 3156SOL     OW21100   1.044   2.448   5.900 -0.4140  0.1907  0.6248
 3156SOL    HW121101   1.025   2.371   5.953  0.8215 -0.9190 -0.5346
 3156SOL    HW221102   1.095   2.399   5.836  1.0521  2.4573  0.0419
 3157SOL     OW21103   0.949   3.280   5.445 -0.0806  0.7233  0.0799
 3157SOL    HW121104   0.983   3.255   5.359 -2.5263  0.6528 -0.8814
 3157SOL    HW221105   1.029   3.306   5.491 -1.4251  1.0264  2.2701
 3158SOL     OW21106   4.294   4.018   8.642 -0.7073 -0.3305 -0.2773
 3158SOL    HW121107   4.385   4.039   8.663 -0.4043 -1.1946 -0.7213
 3158SOL    HW221108   4.257   4.094   8.597  0.2597 -0.8488 -1.9603
 3159SOL     OW21109   0.477   4.576  11.931 -0.2348 -0.4495 -0.2341
 3159SOL    HW121110   0.443   4.569  12.020  0.3403 -1.4954 -0.1001
 3159SOL    HW221111   0.492   4.487  11.899  1.1630 -0.3797  0.2244
 3160SOL     OW21112   2.139   4.628   9.581  0.1623 -0.1939 -0.3105
 3160SOL    HW121113   2.198   4.553   9.572  1.0880  0.5346 -0.3080
 3160SOL    HW221114   2.057   4.584   9.559 -0.3415 -0.4333  2.0744
 3161SOL     OW21115   0.911   4.509   9.521  0.3678  0.7955 -0.3371
 3161SOL    HW121116   0.986   4.548   9.565  0.0052 -1.2448  2.0390
 3161SOL    HW221117   0.889   4.430   9.569  2.6908  0.9928  1.0256
 3162SOL     OW21118   3.680   4.117  11.131 -0.3945  0.1309  0.2611
 3162SOL    HW121119   3.730   4.168  11.067 -1.9570  0.1504 -0.9604
 3162SOL    HW221120   3.634   4.182  11.183 -0.2040  0.8187 -0.4264
 3163SOL     OW21121   3.473   4.306   7.572 -0.0513  0.4134  0.3928
 3163SOL    HW121122   3.426   4.254   7.638 -1.5615 -0.6944 -1.5853
 3163SOL    HW221123   3.523   4.241   7.523  2.3630 -0.1117  3.5024
 3164SOL     OW21124   3.537   3.941   9.978 -0.3032 -0.3265 -0.1791
 3164SOL    HW121125   3.516   3.976  10.064 -0.1467 -0.1120 -0.2298
 3164SOL    HW221126   3.520   4.022   9.931 -1.1179  0.3399  1.2964
 3165SOL     OW21127   0.212   4.455   0.192 -0.0563  0.1253 -0.0418
 3165SOL    HW121128   0.143   4.430   0.253  1.0412  0.5893  1.3634
 3165SOL    HW221129   0.203   4.392   0.120 -4.0480 -0.0083  0.6144
 3166SOL     OW21130   3.743   0.649   7.127  0.5013  0.3120  0.2752
 3166SOL    HW121131   3.837   0.643   7.145  0.3792  0.9075  1.1065
 3166SOL    HW221132   3.712   0.558   7.127 -0.1250  0.5223 -0.8089
 3167SOL     OW21133   0.917   3.955   9.167 -0.4822  0.5595  0.0992
 3167SOL    HW121134   0.939   3.990   9.254  0.3844  0.5351 -0.1108
 3167SOL    HW221135   0.828   3.991   9.164  0.6003  3.3306  0.4401
 3168SOL     OW21136   1.960   3.015   4.327 -0.4209 -0.8433  0.0320
 3168SOL    HW121137   2.013   3.015   4.407 -1.0750  1.3522  0.4663
 3168SOL    HW221138   2.023   2.990   4.259 -1.7704 -0.5845 -1.3162
 3169SOL     OW21139   1.937   1.775  10.697  0.2624  0.3545  0.6450
 3169SOL    HW121140   1.994   1.840  10.738  0.7169  1.5784 -1.9534
 3169SOL    HW221141   1.849   1.803  10.723 -0.4339  0.3779 -1.7392
 3170SOL     OW21142   2.412   0.944   9.103  0.4152 -0.5900 -0.4394
 3170SOL    HW121143   2.342   0.966   9.164  1.8713  0.0110  1.0358
 3170SOL    HW221144   2.492   0.963   9.152  1.3098 -0.2099 -2.0336
 3171SOL     OW21145   2.839   1.079  14.161  0.2136  0.4227 -0.2017
 3171SOL    HW121146   2.888   1.160  14.143  1.1822 -0.2986 -0.7753
 3171SOL    HW221147   2.752   1.100  14.127  0.4397  0.6959 -0.6285
 3172SOL     OW21148   2.616   2.561   4.479  0.0806  0.4510  0.3609
 3172SOL    HW121149   2.692   2.568   4.537  0.7882  0.9237 -0.6035
 3172SOL    HW221150   2.538   2.587   4.527 -0.4697  0.7342 -0.6756
 3173SOL     OW21151   0.070   0.037   5.167  0.1604 -0.5008 -0.1683
 3173SOL    HW121152   0.049   0.086   5.246 -0.9350 -2.5280  0.8087
 3173SOL    HW221153   0.026   4.695   5.192 -1.4753  0.1741 -0.8602
 3174SOL     OW21154   3.389   4.597   1.247 -0.3966  0.2814 -0.1994
 3174SOL    HW121155   3.301   4.561   1.238  0.2873 -1.5304  0.4485
 3174SOL    HW221156   3.380   4.667   1.312  0.1500  1.9504 -1.9327
 3175SOL     OW21157   2.097   1.506  16.556  0.7959 -0.0985  0.2729
 3175SOL    HW121158   2.062   1.581  16.507 -0.9532 -0.5798  0.7892
 3175SOL    HW221159   2.158   1.476  16.489  2.3388  2.4928  0.5285
 3176SOL     OW21160   0.435   4.550  13.183  0.0110 -0.6177  0.2232
 3176SOL    HW121161   0.459   4.631  13.140 -1.4081 -0.2839  0.0369
 3176SOL    HW221162   0.520   4.518  13.214  0.8363  0.5949 -0.8182
 3177SOL     OW21163   0.735   2.954   6.020  0.3507 -0.1986 -0.4172
 3177SOL    HW121164   0.826   2.927   6.010  0.1770 -0.8980 -0.0890
 3177SOL    HW221165   0.745   3.044   5.987 -1.8895  0.3855  0.5331
 3178SOL     OW21166   1.164   1.187   0.960 -0.3073  0.0424  0.4369
 3178SOL    HW121167   1.075   1.155   0.947 -0.1950 -0.5447  1.0457
 3178SOL    HW221168   1.163   1.265   0.905 -2.1096  0.7493  1.4806
 3179SOL     OW21169   0.429   1.416   4.238  0.1723  0.0364  0.2439
 3179SOL    HW121170   0.340   1.450   4.237  0.0598 -0.2927 -0.8146
 3179SOL    HW221171   0.408   1.325   4.220  0.0600  0.0639  0.2370
 3180SOL     OW21172   0.794   2.351   3.801  0.0623  0.2323 -0.2608
 3180SOL    HW121173   0.787   2.275   3.744  3.1991 -0.7273  0.6845
 3180SOL    HW221174   0.804   2.405   3.723 -0.1054 -1.1650 -1.2552
 3181SOL     OW21175   3.155   2.631   6.847 -0.3946  0.1662 -0.1707
 3181SOL    HW121176   3.101   2.556   6.872 -0.5173  0.2385 -0.2192
 3181SOL    HW221177   3.129   2.682   6.924  2.3143  0.8717  0.2882
 3182SOL     OW21178   0.450   2.973   5.975 -0.2835 -0.0708  0.4068
 3182SOL    HW121179   0.440   2.942   6.066 -2.7672 -0.6296 -0.0703
 3182SOL    HW221180   0.537   2.939   5.955  0.0976 -0.2760  2.3751
 3183SOL     OW21181   1.956   2.863  11.219 -0.3613 -0.2603 -0.4508
 3183SOL    HW121182   1.939   2.842  11.311 -2.1478  0.5147 -0.5985
 3183SOL    HW221183   1.973   2.781  11.173  1.7962 -0.5452  0.8390
 3184SOL     OW21184   3.788   1.859   4.715  0.1172  0.5660 -0.0199
 3184SOL    HW121185   3.784   1.952   4.737 -0.6231  0.2363  1.1900
 3184SOL    HW221186   3.766   1.864   4.622  0.1298  2.0374  0.0586
 3185SOL     OW21187   1.690   0.337   5.539 -0.1080  0.1549  0.1362
 3185SOL    HW121188   1.685   0.285   5.459 -1.8690  0.3314  0.1471
 3185SOL    HW221189   1.625   0.406   5.523  0.2129  0.1596 -1.0876
 3186SOL     OW21190   3.892   0.018  10.329 -0.4380  0.2501  0.2037
 3186SOL    HW121191   3.940   0.090  10.287 -0.6048  0.7352  0.8556
 3186SOL    HW221192   3.965   4.697  10.346  1.0014  1.6206 -1.1592
 3187SOL     OW21193   2.947   0.105   5.053  0.0858 -0.1147  0.0646
 3187SOL    HW121194   2.950   0.017   5.090  0.3765 -0.4058 -0.6478
 3187SOL    HW221195   2.940   0.087   4.959 -2.0444  1.3935 -0.0683
 3188SOL     OW21196   1.517   4.710   6.019 -0.1335 -0.1546 -1.0338
 3188SOL    HW121197   1.603   4.674   6.038  0.3152  0.5713 -1.7175
 3188SOL    HW221198   1.527   0.008   5.932  0.2256  2.1890  0.0004
 3189SOL     OW21199   4.445   2.644   3.775 -0.0153  0.4585  0.2695
 3189SOL    HW121200   4.400   2.631   3.691 -0.5774 -2.0451  0.9538
 3189SOL    HW221201   4.465   2.552   3.796 -0.5161  0.1395 -0.6509
 3190SOL     OW21202   3.032   4.293   8.116 -0.4194 -0.4219 -0.0988
 3190SOL    HW121203   3.036   4.216   8.058  0.1792 -2.6981  2.9406
 3190SOL    HW221204   2.950   4.335   8.092 -1.1191 -2.2815 -1.0222
 3191SOL     OW21205   1.314   0.010   4.370  0.0616 -0.0222 -0.0396
 3191SOL    HW121206   1.314   0.053   4.285 -0.3896 -1.0867 -0.5845
 3191SOL    HW221207   1.240   0.040   4.423  0.6252 -3.3482  2.6494
 3192SOL     OW21208   1.629   1.980  16.997  0.0192  0.0022 -0.0725
 3192SOL    HW121209   1.648   1.894  16.959 -3.1261 -0.6851 -0.0560
 3192SOL    HW221210   1.704   2.027  16.962 -0.2026  1.0052  0.8158
 3193SOL     OW21211   1.304   4.387   0.804 -0.0675 -0.1032  0.0167
 3193SOL    HW121212   1.293   4.401   0.709 -1.6088 -1.1755  0.0303
 3193SOL    HW221213   1.397   4.369   0.815  0.2480  0.3552 -1.8576
 3194SOL     OW21214   0.617   4.400   9.470 -0.0663  0.0858 -0.1085
 3194SOL    HW121215   0.561   4.477   9.478 -1.1416 -0.5395 -1.6642
 3194SOL    HW221216   0.565   4.339   9.522 -0.8313  0.5359 -0.3478
 3195SOL     OW21217   2.795   1.050  14.635  0.1445  0.5388  0.0950
 3195SOL    HW121218   2.856   1.058  14.561  0.7037 -0.8262  0.4163
 3195SOL    HW221219   2.825   1.124  14.688  0.0317  0.9992 -0.4802
 3196SOL     OW21220   2.958   1.552   3.686 -0.0629  0.1288  0.1990
 3196SOL    HW121221   2.918   1.465   3.694  0.9778 -0.3189  0.4656
 3196SOL    HW221222   2.991   1.556   3.596  2.5849  0.1806  1.1845
 3197SOL     OW21223   3.945   2.768   6.072  0.1443 -0.1697  0.4920
 3197SOL    HW121224   4.030   2.810   6.083 -0.2412  0.6759  0.1945
 3197SOL    HW221225   3.936   2.780   5.977 -2.6242 -0.9609  0.6514
 3198SOL     OW21226   0.063   2.955   5.319 -0.5275  0.3855  0.5176
 3198SOL    HW121227   0.109   2.916   5.394  1.3513 -0.1470 -0.8963
 3198SOL    HW221228   0.085   2.897   5.246 -0.0382  0.6516  0.4546
 3199SOL     OW21229   1.313   3.841   9.386 -0.2308  0.2997 -0.1508
 3199SOL    HW121230   1.225   3.843   9.425 -0.1740  1.5644 -0.0835
 3199SOL    HW221231   1.287   3.838   9.294 -1.2453  3.0096  0.0290
 3200SOL     OW21232   3.240   1.856   4.329  0.2621 -0.3979  0.3079
 3200SOL    HW121233   3.222   1.782   4.387 -1.3855 -0.2769 -0.0558
 3200SOL    HW221234   3.170   1.850   4.263 -0.4642 -0.4457  1.0861
 3201SOL     OW21235   4.209   0.212   3.014 -0.5952 -0.1803  0.0216
 3201SOL    HW121236   4.142   0.170   3.069 -1.3203 -0.4414 -1.0665
 3201SOL    HW221237   4.262   0.261   3.077 -0.8312 -1.6347  1.3665
 3202SOL     OW21238   4.590   3.009   4.945 -0.0078 -0.5979 -0.6723
 3202SOL    HW121239   4.535   2.946   4.898 -1.2721  0.2629 -0.3538
 3202SOL    HW221240   4.517   3.063   4.975  0.4506 -0.1166 -0.4183
 3203SOL     OW21241   0.375   3.553   7.905 -0.4422 -0.3132  0.2642
 3203SOL    HW121242   0.286   3.536   7.874 -0.0915 -0.1905 -0.8065
 3203SOL    HW221243   0.415   3.467   7.914 -0.4719 -0.3561 -0.0274
 3204SOL     OW21244   4.510   4.725   4.931 -0.2117 -0.2250 -0.2965
 3204SOL    HW121245   4.508   0.014   5.023 -0.4754 -0.2618 -0.2924
 3204SOL    HW221246   4.586   0.033   4.898 -0.5972  0.7398  0.1731
 3205SOL     OW21247   2.875   1.702  11.110  0.6928  0.6228  0.4235
 3205SOL    HW121248   2.915   1.772  11.059  2.2685 -0.1193  0.6317
 3205SOL    HW221249   2.848   1.753  11.186 -4.1526  0.6474 -1.2904
 3206SOL     OW21250   3.768   3.654  15.055 -0.1257  0.1772  0.4900
 3206SOL    HW121251   3.825   3.627  14.983  0.6359 -2.2565  2.0018
 3206SOL    HW221252   3.720   3.725  15.014  1.4625  0.9287 -0.0808
 3207SOL     OW21253   2.603   0.741   8.640 -0.7130 -0.3762 -0.1800
 3207SOL    HW121254   2.609   0.698   8.554  1.3001  2.2931 -1.3811
 3207SOL    HW221255   2.612   0.672   8.706 -0.9742 -0.3663 -0.1347
 3208SOL     OW21256   0.179   3.081  11.010 -0.4873 -0.1473 -0.7454
 3208SOL    HW121257   0.088   3.074  11.036 -0.7147  0.7944 -1.2971
 3208SOL    HW221258   0.231   3.020  11.062  0.9729  0.2114 -1.7838
 3209SOL     OW21259   3.306   1.277  13.920  0.1418 -0.2712  0.0206
 3209SOL    HW121260   3.269   1.204  13.870  0.4244 -0.8041  0.5870
 3209SOL    HW221261   3.281   1.357  13.875 -0.3303  0.5485  1.7592
 3210SOL     OW21262   0.842   1.694   3.058 -0.6016  0.1135 -0.0826
 3210SOL    HW121263   0.751   1.722   3.050 -0.6085  0.5342  1.4044
 3210SOL    HW221264   0.885   1.743   2.988  0.4930  2.1055  1.9927
 3211SOL     OW21265   2.212   1.836   7.578  0.1099  0.1574 -0.7060
 3211SOL    HW121266   2.301   1.868   7.562  0.7206 -0.9712  0.4384
 3211SOL    HW221267   2.218   1.783   7.658  1.6174  1.2727 -0.0779
 3212SOL     OW21268   2.329   0.742  13.276 -0.1156  0.1173  0.3624
 3212SOL    HW121269   2.297   0.738  13.185 -2.0814  2.5678  0.9369
 3212SOL    HW221270   2.365   0.831  13.274 -1.3512  0.5903 -1.7436
 3213SOL     OW21271   1.531   1.311   6.754  0.5455  0.6187 -0.2748
 3213SOL    HW121272   1.517   1.388   6.810  1.8838  0.3268  0.4366
 3213SOL    HW221273   1.541   1.359   6.672 -1.0276  0.0011 -0.8354
 3214SOL     OW21274   1.465   2.033   3.998 -0.0491  0.1136  0.5071
 3214SOL    HW121275   1.434   2.000   4.082 -0.6054  2.8260  1.3731
 3214SOL    HW221276   1.560   2.017   3.999 -0.1229 -0.4362 -1.9217
 3215SOL     OW21277   2.616   1.656   5.723 -0.8361  0.2289  0.1143
 3215SOL    HW121278   2.635   1.715   5.795 -1.7627 -0.2205  0.7359
 3215SOL    HW221279   2.705   1.633   5.697 -0.6853  0.3335  0.5394
 3216SOL     OW21280   4.476   3.263   0.144 -0.2537  0.1842 -0.3228
 3216SOL    HW121281   4.428   3.237   0.223 -0.8762 -0.1714 -0.8149
 3216SOL    HW221282   4.408   3.254   0.077 -0.3372 -1.4815 -0.0145
 3217SOL     OW21283   3.489   2.000  16.795  0.1629  0.2396  0.3294
 3217SOL    HW121284   3.577   2.034  16.806  0.2471  0.8179 -2.1853
 3217SOL    HW221285   3.435   2.078  16.780  0.9683  0.9644  1.2515
 3218SOL     OW21286   0.959   1.252   8.672 -0.1342 -0.2775 -0.1570
 3218SOL    HW121287   0.944   1.296   8.756  2.2875  0.8907 -0.3252
 3218SOL    HW221288   0.873   1.257   8.632 -0.8449 -2.9106  1.0832
 3219SOL     OW21289   0.019   2.870  15.169 -0.2488  0.3532  0.1299
 3219SOL    HW121290   0.035   2.799  15.107 -1.6683 -0.1991  0.3968
 3219SOL    HW221291   0.056   2.821  15.242  1.4693  0.1743 -0.8674
 3220SOL     OW21292   4.480   1.129   6.740 -0.1818 -0.4611 -0.6295
 3220SOL    HW121293   4.455   1.149   6.830 -3.6291  0.3659 -1.7414
 3220SOL    HW221294   4.556   1.072   6.753  2.2528  2.7296 -0.9207
 3221SOL     OW21295   1.110   4.225   5.927 -0.1333  0.5889 -0.2686
 3221SOL    HW121296   1.193   4.274   5.924  0.5867 -0.5301  0.9964
 3221SOL    HW221297   1.121   4.173   6.006 -1.0145  1.0698  0.1661
 3222SOL     OW21298   1.207   0.999   3.677  0.4321 -0.0544  0.0296
 3222SOL    HW121299   1.166   1.081   3.703 -0.3951 -0.3855 -0.2248
 3222SOL    HW221300   1.132   0.952   3.641 -0.1767  0.5644  0.4885
 3223SOL     OW21301   2.137   2.684   5.219  0.4838 -0.0955  0.1464
 3223SOL    HW121302   2.094   2.768   5.205  0.3307 -0.4987 -1.7383
 3223SOL    HW221303   2.229   2.711   5.222  0.1218  1.0541  1.2671
 3224SOL     OW21304   1.050   3.796   2.604  0.1057  0.0696 -0.3989
 3224SOL    HW121305   1.009   3.812   2.689 -1.3007  0.6943 -1.1885
 3224SOL    HW221306   1.006   3.860   2.548  0.4741  1.2316  0.6299
 3225SOL     OW21307   0.653   3.771   2.009 -0.1225 -0.2081  0.0952
 3225SOL    HW121308   0.642   3.866   2.000  0.3217 -0.2163 -0.5190
 3225SOL    HW221309   0.560   3.753   2.024 -0.2072  0.8716  0.8904
 3226SOL     OW21310   2.043   4.718   7.450  0.0309 -0.3891  0.2103
 3226SOL    HW121311   2.117   4.668   7.415 -0.5249 -0.2126 -1.2103
 3226SOL    HW221312   2.085   0.036   7.514 -1.8246  0.5474  0.5871
 3227SOL     OW21313   0.290   3.322   4.654  0.4113 -0.0824 -0.0612
 3227SOL    HW121314   0.376   3.355   4.678 -0.0747  0.6419  0.6934
 3227SOL    HW221315   0.234   3.345   4.728 -0.7009 -2.2129 -0.2422
 3228SOL     OW21316   4.264   3.244   3.130  0.0202  0.0450 -0.6624
 3228SOL    HW121317   4.317   3.320   3.155  0.7081 -0.2695 -1.1454
 3228SOL    HW221318   4.325   3.171   3.128  0.0190  0.0384 -0.3059
 3229SOL     OW21319   1.809   1.871   6.458 -0.4453  0.0979 -0.3416
 3229SOL    HW121320   1.816   1.779   6.483  0.1754 -0.1711 -1.5419
 3229SOL    HW221321   1.723   1.885   6.500  0.2184  2.2265  0.3184
 3230SOL     OW21322   4.081   0.718   4.521 -0.1013 -0.2449  0.0591
 3230SOL    HW121323   4.135   0.700   4.598  1.2788  0.3907 -0.7559
 3230SOL    HW221324   4.155   0.738   4.462 -0.9952 -0.0761 -1.0059
 3231SOL     OW21325   0.561   4.323   4.903  0.3050 -0.4192 -0.0035
 3231SOL    HW121326   0.560   4.249   4.964 -1.1313  0.9994  1.6808
 3231SOL    HW221327   0.514   4.280   4.831 -0.5496  0.4339  0.0432
 3232SOL     OW21328   1.395   4.091   8.768 -0.0162  0.1352  0.3374
 3232SOL    HW121329   1.350   4.134   8.841  1.5937  1.7019  0.3945
 3232SOL    HW221330   1.465   4.048   8.817  0.5042  1.0166  0.3662
 3233SOL     OW21331   1.798   4.488   7.065  0.0804 -0.3036 -0.4756
 3233SOL    HW121332   1.798   4.463   6.973 -0.8168 -0.3986 -0.4540
 3233SOL    HW221333   1.829   4.579   7.063 -1.7126  0.2658 -2.4956
 3234SOL     OW21334   1.919   0.561   4.643 -0.1798  0.1517 -0.4621
 3234SOL    HW121335   1.857   0.493   4.618 -0.8651  0.5526  0.1725
 3234SOL    HW221336   1.968   0.517   4.712  0.4094  3.2316  1.0923
 3235SOL     OW21337   4.073   4.356   0.556  0.8119  0.0884  0.7501
 3235SOL    HW121338   4.145   4.418   0.547 -0.9422  1.8555 -1.0305
 3235SOL    HW221339   4.007   4.411   0.598  0.2456  0.1853 -0.2899
 3236SOL     OW21340   2.078   3.727  16.708  0.5011 -0.0289  0.5479
 3236SOL    HW121341   2.050   3.734  16.799  0.1879 -0.6049  0.4960
 3236SOL    HW221342   2.171   3.734  16.729  0.5281 -0.2894  0.5116
 3237SOL     OW21343   4.459   1.710   6.900  0.3556 -0.3463 -0.0421
 3237SOL    HW121344   4.474   1.636   6.959  1.0135  0.3811  0.7201
 3237SOL    HW221345   4.503   1.680   6.820 -1.7841 -1.1362 -0.9110
 3238SOL     OW21346   2.365   0.621   7.023 -0.1497 -0.3375  0.6378
 3238SOL    HW121347   2.362   0.668   7.107 -2.0989  0.0674  0.3573
 3238SOL    HW221348   2.383   0.534   7.059 -0.5188 -0.4059  0.6598
 3239SOL     OW21349   3.094   1.039   6.263  0.2070  0.2770 -0.6645
 3239SOL    HW121350   3.186   1.062   6.248  0.5920  0.6684  2.2097
 3239SOL    HW221351   3.094   0.944   6.263  0.8569  0.2756 -0.5538
 3240SOL     OW21352   0.668   1.310   3.670  0.2801  0.0244 -0.6613
 3240SOL    HW121353   0.595   1.276   3.721 -1.4341  1.3297 -2.2248
 3240SOL    HW221354   0.737   1.308   3.735 -0.5214 -1.7497  0.1206
 3241SOL     OW21355   4.158   1.434   0.145 -0.0556 -0.1665  0.5011
 3241SOL    HW121356   4.084   1.468   0.095 -1.1789 -1.4402  1.2954
 3241SOL    HW221357   4.197   1.512   0.185  1.2236  0.3890 -1.8282
 3242SOL     OW21358   1.360   2.236   1.328  0.7047 -0.0278  0.0074
 3242SOL    HW121359   1.279   2.257   1.375  0.8787  1.2715 -0.2768
 3242SOL    HW221360   1.356   2.141   1.321 -0.2518  0.0069  0.0265
 3243SOL     OW21361   4.588   3.777   3.366  0.2640  0.2395  0.1545
 3243SOL    HW121362   4.549   3.697   3.401 -0.1664  0.0463 -0.7490
 3243SOL    HW221363   4.529   3.845   3.396 -0.8039 -1.3249  1.5955
 3244SOL     OW21364   2.487   1.329   7.133 -0.1355  0.1500 -0.4532
 3244SOL    HW121365   2.425   1.389   7.092  1.0504  0.3514 -1.9784
 3244SOL    HW221366   2.479   1.336   7.228 -1.5725 -1.1727 -0.4674
 3245SOL     OW21367   1.122   0.748  13.107 -0.1152 -0.0488 -0.3722
 3245SOL    HW121368   1.217   0.743  13.124 -0.5251  0.4269  2.0302
 3245SOL    HW221369   1.085   0.696  13.179 -0.1467 -0.2040 -0.5012
 3246SOL     OW21370   4.415   1.284   6.144  0.3602 -0.2288  0.8633
 3246SOL    HW121371   4.406   1.370   6.102  2.3677  0.1468  1.1953
 3246SOL    HW221372   4.368   1.228   6.083  0.0232 -0.2178  1.1125
 3247SOL     OW21373   3.650   1.590   4.895 -0.3081 -0.2750  0.2442
 3247SOL    HW121374   3.609   1.652   4.955  0.3215  0.1260  0.2667
 3247SOL    HW221375   3.588   1.520   4.915 -0.6414 -0.1675 -0.4198
 3248SOL     OW21376   4.270   2.828  14.286 -0.0547 -0.2737 -0.1558
 3248SOL    HW121377   4.213   2.867  14.352 -0.2602  0.2559 -0.6453
 3248SOL    HW221378   4.329   2.901  14.267  0.0922 -0.5706 -0.8377
 3249SOL     OW21379   4.312   0.611  13.165 -0.0417 -0.0918  0.7746
 3249SOL    HW121380   4.330   0.522  13.196  2.4472  0.1741  0.0863
 3249SOL    HW221381   4.218   0.598  13.153 -0.1954 -1.2049  3.1133
 3250SOL     OW21382   0.081   0.553   6.448 -0.1474  0.6921  0.0171
 3250SOL    HW121383   0.156   0.595   6.490  0.0630 -0.6954  1.0457
 3250SOL    HW221384   0.107   0.469   6.410  0.7441  1.0872 -0.2374
 3251SOL     OW21385   1.221   2.098   4.365 -0.1435 -0.8524  0.8730
 3251SOL    HW121386   1.149   2.118   4.304  1.4096  1.8374 -0.0851
 3251SOL    HW221387   1.260   2.032   4.307  0.0432  0.0348 -0.0186
 3252SOL     OW21388   2.274   1.329   4.072  0.0151  0.3178 -0.0395
 3252SOL    HW121389   2.285   1.393   4.142  1.6058  2.4477 -2.2374
 3252SOL    HW221390   2.281   1.246   4.120 -2.1364 -0.4172 -0.9968
 3253SOL     OW21391   4.645   1.069  16.991 -0.0329 -0.3836 -0.3115
 3253SOL    HW121392   4.624   1.036  17.078  1.9101 -0.0441  0.2872
 3253SOL    HW221393   4.613   1.159  16.995 -0.9833 -0.7382 -0.0000
 3254SOL     OW21394   4.412   0.283   9.153  0.1560  0.5124 -0.0133
 3254SOL    HW121395   4.334   0.315   9.198 -0.9617  0.2038 -1.7351
 3254SOL    HW221396   4.485   0.310   9.208 -1.1452  0.5439  1.6942
 3255SOL     OW21397   3.049   4.436   7.309 -0.4153  0.5858  0.1155
 3255SOL    HW121398   3.098   4.457   7.388  0.3700 -0.8304  0.0089
 3255SOL    HW221399   3.014   4.355   7.347 -1.2712  1.5040  1.2468
 3256SOL     OW21400   4.284   3.538  10.126  0.2863  0.0695 -0.3944
 3256SOL    HW121401   4.322   3.571  10.045  1.3871 -0.1213  0.0394
 3256SOL    HW221402   4.362   3.515  10.177  0.6526  1.2500 -0.4107
 3257SOL     OW21403   4.700   3.255   9.587 -0.6282  0.7877 -0.4907
 3257SOL    HW121404   4.697   3.347   9.613  1.9882  1.1112 -1.4172
 3257SOL    HW221405   0.003   3.219   9.665  1.9551  1.4260 -1.5836
 3258SOL     OW21406   1.703   4.510   7.741  0.2151  0.0276  0.5230
 3258SOL    HW121407   1.667   4.478   7.824  1.4438 -0.2496  0.9496
 3258SOL    HW221408   1.706   4.606   7.749  0.9579  0.0483 -0.0109
 3259SOL     OW21409   3.711   0.321  14.348  0.3549 -0.5112  0.1761
 3259SOL    HW121410   3.668   0.338  14.264 -1.1230 -1.1325  0.8064
 3259SOL    HW221411   3.636   0.301  14.404 -1.6362 -0.9426 -2.6164
 3260SOL     OW21412   2.618   3.611   4.423 -0.5595 -0.3690  0.0823
 3260SOL    HW121413   2.580   3.554   4.356  1.1707  1.2433 -2.2515
 3260SOL    HW221414   2.686   3.557   4.464  0.5616 -0.4226 -1.8464
 3261SOL     OW21415   3.640   2.403  11.744  0.2511 -0.3874  0.0279
 3261SOL    HW121416   3.677   2.323  11.782  1.3671  0.3373  0.4918
 3261SOL    HW221417   3.688   2.477  11.783  0.3321  0.2234 -1.2584
 3262SOL     OW21418   3.161   3.156  17.645  0.0237  0.1457  0.0644
 3262SOL    HW121419   3.192   3.214  17.575 -3.6371  1.1724 -0.7169
 3262SOL    HW221420   3.125   3.087  17.590  1.6517 -0.8518  0.2587
 3263SOL     OW21421   4.628   2.601   5.136  0.7624  0.5013  0.8801
 3263SOL    HW121422   4.675   2.677   5.099  3.0599 -1.6297 -0.5932
 3263SOL    HW221423   4.692   2.531   5.122 -1.3815 -1.0191 -1.3585
 3264SOL     OW21424   1.797   0.745  17.730  0.0236 -0.4119  0.5796
 3264SOL    HW121425   1.838   0.819  17.685 -0.0047  0.3662  1.8139
 3264SOL    HW221426   1.839   0.750   0.063  1.6076  0.8529 -0.2586
 3265SOL     OW21427   2.425   3.873   9.854 -0.4383 -0.1828  0.1384
 3265SOL    HW121428   2.487   3.938   9.823  0.8780 -0.5598  2.0061
 3265SOL    HW221429   2.483   3.819   9.908 -0.4598  0.5937  0.9369
 3266SOL     OW21430   0.667   1.010  15.507 -0.1453  0.1212 -0.0900
 3266SOL    HW121431   0.760   1.013  15.530 -0.2735  0.4167  0.4075
 3266SOL    HW221432   0.658   1.060  15.426  1.0918  0.4929  0.0078
 3267SOL     OW21433   3.888   2.408   5.591 -0.0606  0.0936 -0.5348
 3267SOL    HW121434   3.904   2.487   5.642  1.0933 -0.1512 -0.5220
 3267SOL    HW221435   3.956   2.399   5.525 -0.6166  0.1296 -1.1107
 3268SOL     OW21436   2.153   2.996   9.807  0.4895 -0.4931 -0.1065
 3268SOL    HW121437   2.141   2.910   9.848 -0.9296 -0.8175 -1.1866
 3268SOL    HW221438   2.103   3.058   9.860 -1.7277 -0.7390 -1.9136
 3269SOL     OW21439   0.079   2.197   8.397  0.2461  0.0678  0.1215
 3269SOL    HW121440   0.079   2.293   8.398 -1.0023  0.0804 -0.7983
 3269SOL    HW221441   0.037   2.176   8.313 -1.3713  0.0185  0.9386
 3270SOL     OW21442   2.106   1.826   0.024  0.1491  0.1880  0.8198
 3270SOL    HW121443   2.070   1.899   0.073  0.0022  0.4537  0.3118
 3270SOL    HW221444   2.050   1.766   0.073  1.6101 -1.0097  1.0616
 3271SOL     OW21445   1.073   2.167   4.756  0.3528  0.3615 -0.7499
 3271SOL    HW121446   1.120   2.173   4.672 -0.0065 -1.2263 -1.0525
 3271SOL    HW221447   1.028   2.251   4.770 -0.5016 -0.1609 -0.3641
 3272SOL     OW21448   4.013   4.352  10.859 -0.0832 -0.5435  0.3621
 3272SOL    HW121449   4.056   4.427  10.900  0.0060 -0.9013  0.9306
 3272SOL    HW221450   3.924   4.374  10.835 -0.4396 -2.2836  0.0583
 3273SOL     OW21451   3.783   4.504  12.424 -0.0822  0.1959  0.2574
 3273SOL    HW121452   3.737   4.484  12.343 -0.8359  2.9512  0.0006
 3273SOL    HW221453   3.868   4.469  12.399 -0.3480  0.3469 -0.8276
 3274SOL     OW21454   3.891   3.299   6.448 -0.2335  0.1842  0.3431
 3274SOL    HW121455   3.945   3.369   6.411 -1.2784  0.6747 -0.2493
 3274SOL    HW221456   3.849   3.342   6.523 -0.9101  1.4567 -0.7560
 3275SOL     OW21457   1.228   3.887  17.383 -0.1132 -0.0647 -0.2763
 3275SOL    HW121458   1.297   3.891  17.316  1.3303 -3.1701  1.0422
 3275SOL    HW221459   1.147   3.902  17.335 -1.4059  0.8778  2.2013
 3276SOL     OW21460   4.075   0.215   7.772  0.0305  0.0120 -0.4690
 3276SOL    HW121461   4.150   0.274   7.768 -0.4955  0.6943 -0.3901
 3276SOL    HW221462   4.021   0.254   7.841 -0.3577  1.7466 -1.7266
 3277SOL     OW21463   0.947   0.780   8.241 -0.3741 -0.1249  0.3156
 3277SOL    HW121464   0.923   0.865   8.279  1.4566  1.4509 -2.0071
 3277SOL    HW221465   0.919   0.720   8.310  2.2300 -0.0944  1.4034
 3278SOL     OW21466   3.006   0.836   5.207  0.1344 -0.1637 -0.0952
 3278SOL    HW121467   3.045   0.799   5.128 -2.2084 -0.2381 -1.2246
 3278SOL    HW221468   2.917   0.831   5.173  0.8831  0.7967 -2.1975
 3279SOL     OW21469   1.457   1.561  13.080 -0.4555  0.4425 -0.1630
 3279SOL    HW121470   1.407   1.561  12.998 -1.2195 -1.1630  0.3022
 3279SOL    HW221471   1.496   1.647  13.091 -0.4893  0.8178 -3.0606
 3280SOL     OW21472   1.320   3.830   7.231  0.4179 -0.0519 -0.2634
 3280SOL    HW121473   1.299   3.844   7.323 -2.6610 -2.9751 -0.5052
 3280SOL    HW221474   1.366   3.909   7.203 -0.0343  1.5724  3.5812
 3281SOL     OW21475   4.181   3.189  12.906 -0.3882  0.2308 -0.5417
 3281SOL    HW121476   4.166   3.280  12.880  1.2600 -0.3365 -3.4484
 3281SOL    HW221477   4.242   3.163  12.838  2.2149  0.3655  1.7663
 3282SOL     OW21478   4.591   3.240   6.100  0.5044 -0.0347  0.5556
 3282SOL    HW121479   4.635   3.271   6.179  0.1658 -0.0116  0.7371
 3282SOL    HW221480   4.658   3.261   6.036 -0.9093 -0.4998 -1.0721
 3283SOL     OW21481   2.246   4.721  14.712 -0.0559 -0.8150 -0.1609
 3283SOL    HW121482   2.217   0.005  14.623 -2.5406 -1.9159  0.3698
 3283SOL    HW221483   2.162   4.726  14.757 -0.4702  0.5168 -1.0649
 3284SOL     OW21484   3.491   1.446   4.391 -0.1173 -0.5816  0.0571
 3284SOL    HW121485   3.510   1.429   4.483  0.1939 -2.2250 -0.2937
 3284SOL    HW221486   3.497   1.541   4.392  2.4275 -0.7423  0.7172
 3285SOL     OW21487   0.513   1.121   7.168 -0.3751  0.6703 -0.8899
 3285SOL    HW121488   0.601   1.147   7.142  0.6707 -0.9173  1.0131
 3285SOL    HW221489   0.541   1.067   7.243  0.2065 -0.5584 -1.9928
 3286SOL     OW21490   0.676   1.598   5.306 -0.2342  0.5741 -0.3016
 3286SOL    HW121491   0.656   1.511   5.269  0.4455  1.2567 -2.2778
 3286SOL    HW221492   0.597   1.646   5.280 -0.6452 -0.3618 -0.7964
 3287SOL     OW21493   2.252   3.238  13.612  0.1109 -0.4314 -0.0397
 3287SOL    HW121494   2.183   3.220  13.548  1.3571 -1.3143 -1.1306
 3287SOL    HW221495   2.232   3.331  13.625  0.3415 -0.4814  0.6398
 3288SOL     OW21496   3.344   3.411   9.444  0.1908 -0.6200 -0.7257
 3288SOL    HW121497   3.257   3.449   9.429  0.5032  0.5564  0.4496
 3288SOL    HW221498   3.329   3.347   9.512 -1.6208 -0.1487 -0.6910
 3289SOL     OW21499   0.877   0.769  14.807 -0.2376 -0.7206  0.0890
 3289SOL    HW121500   0.875   0.802  14.717  1.1511 -0.7917  0.0250
 3289SOL    HW221501   0.876   0.675  14.791  3.9726 -1.0513  1.8709
 3290SOL     OW21502   2.828   2.623   5.645 -0.3383  0.5527 -0.6549
 3290SOL    HW121503   2.766   2.659   5.581  0.8668  0.7847 -1.6897
 3290SOL    HW221504   2.868   2.703   5.680  0.5248 -0.3112  0.3134
 3291SOL     OW21505   4.100   3.676   0.251 -0.2616  0.8322 -0.1676
 3291SOL    HW121506   4.169   3.741   0.266  0.2342  0.1398  0.5494
 3291SOL    HW221507   4.065   3.694   0.164 -0.4802 -1.0075 -0.4575
 3292SOL     OW21508   2.344   2.195   2.275 -0.3231 -0.5638  0.3392
 3292SOL    HW121509   2.287   2.239   2.212 -1.6327 -0.7578  1.3923
 3292SOL    HW221510   2.278   2.168   2.338 -0.2895 -1.6945 -0.1055
 3293SOL     OW21511   3.849   0.066   7.691  0.1046  0.0881  0.2380
 3293SOL    HW121512   3.829   0.010   7.766 -2.3847  0.3407 -0.2209
 3293SOL    HW221513   3.932   0.106   7.717 -1.4323  1.4323  3.0731
 3294SOL     OW21514   3.847   0.173   2.461  0.1426  0.3795  0.1858
 3294SOL    HW121515   3.827   0.119   2.538  3.1520 -0.0742  0.6543
 3294SOL    HW221516   3.761   0.175   2.418  0.8208  0.4815 -1.1682
 3295SOL     OW21517   0.505   1.693   4.911  0.0715 -0.0224  0.0985
 3295SOL    HW121518   0.538   1.747   4.839  1.5836  0.5896  1.2614
 3295SOL    HW221519   0.491   1.616   4.855  0.8769 -0.8385  1.0140
 3296SOL     OW21520   3.343   0.100   2.819 -0.3112 -0.5067  0.2798
 3296SOL    HW121521   3.362   0.093   2.726 -0.6080  0.0825  0.1792
 3296SOL    HW221522   3.344   0.195   2.823  0.4031 -0.5261  0.6319
 3297SOL     OW21523   0.553   2.366   1.983  0.2995 -0.0863 -0.4895
 3297SOL    HW121524   0.636   2.414   1.973  1.4885 -1.8446  0.9193
 3297SOL    HW221525   0.577   2.276   1.961 -2.0765 -0.9306  0.4253
 3298SOL     OW21526   1.696   3.216   4.658  0.0265  0.0400  0.0709
 3298SOL    HW121527   1.754   3.258   4.722 -0.7160  3.3705 -1.4749
 3298SOL    HW221528   1.742   3.243   4.579  0.1978  0.6070  0.3610
 3299SOL     OW21529   0.972   0.321   0.248 -0.0685  0.5545 -0.1461
 3299SOL    HW121530   0.950   0.245   0.194  1.9411  0.6104 -1.0598
 3299SOL    HW221531   0.918   0.302   0.324  0.5290  0.5626  0.2808
 3300SOL     OW21532   3.961   1.071   0.706  0.5963  0.1689 -0.0381
 3300SOL    HW121533   3.939   1.164   0.701 -1.4589 -0.2425  1.6710
 3300SOL    HW221534   3.905   1.044   0.633  2.0424  0.2170 -1.1856
 3301SOL     OW21535   3.156   0.027  13.860  0.3046 -0.7522  0.4627
 3301SOL    HW121536   3.072   0.035  13.904  0.4298  0.1495  0.5309
 3301SOL    HW221537   3.146   0.111  13.816  1.2408 -0.7027  0.3556
 3302SOL     OW21538   1.036   2.472   2.459 -0.0097  0.2601 -0.4027
 3302SOL    HW121539   0.998   2.546   2.411 -1.4085 -0.0023  0.3141
 3302SOL    HW221540   1.117   2.459   2.410  0.0369 -5.0243  1.1818
 3303SOL     OW21541   2.040   1.190   8.272  0.0235  0.2274 -0.7931
 3303SOL    HW121542   2.062   1.180   8.365 -0.9973  1.4374 -0.4234
 3303SOL    HW221543   2.075   1.108   8.236  0.7389  0.6959 -1.1584
 3304SOL     OW21544   4.620   4.556   4.241  0.2770  0.2800 -0.1428
 3304SOL    HW121545   4.695   4.509   4.276  0.3178 -0.5902 -1.4001
 3304SOL    HW221546   4.566   4.479   4.224  1.5382 -0.6400  0.0269
 3305SOL     OW21547   3.429   2.003   3.977  0.0102 -0.1933 -0.2145
 3305SOL    HW121548   3.510   1.968   3.940 -0.9884 -0.5595 -2.0614
 3305SOL    HW221549   3.464   2.087   4.006 -3.1778  0.8223  0.6943
 3306SOL     OW21550   2.083   4.685   7.936 -0.2558  0.0932 -0.0563
 3306SOL    HW121551   2.048   4.642   7.858  0.0526 -0.9868  0.3898
 3306SOL    HW221552   2.174   4.708   7.916  0.6629 -1.4941  2.3367
 3307SOL     OW21553   2.677   0.280   4.730  0.0373  0.0683 -0.1266
 3307SOL    HW121554   2.660   0.346   4.663 -2.7388  1.0864  1.5690
 3307SOL    HW221555   2.734   0.217   4.686 -0.0755  0.1085 -0.3287
 3308SOL     OW21556   0.735   1.382   4.186  0.0496 -0.3562  0.0346
 3308SOL    HW121557   0.646   1.393   4.153 -0.5813  1.6126  2.4514
 3308SOL    HW221558   0.737   1.286   4.193 -0.0813 -0.4354 -1.0625
 3309SOL     OW21559   0.105   3.796   6.683  0.2727 -0.2819 -0.1819
 3309SOL    HW121560   0.145   3.713   6.710  0.0240 -0.4608 -0.3519
 3309SOL    HW221561   0.180   3.839   6.643 -1.8288  1.8112 -1.8497
 3310SOL     OW21562   3.249   3.482   9.100  0.0435  0.0684  0.0049
 3310SOL    HW121563   3.271   3.401   9.054  1.0896  1.4507 -1.9663
 3310SOL    HW221564   3.334   3.520   9.123 -0.6050  0.1716  2.1902
 3311SOL     OW21565   1.834   2.278   1.438  0.1477 -0.3401 -0.5025
 3311SOL    HW121566   1.915   2.278   1.490  0.3549 -3.5503 -0.7785
 3311SOL    HW221567   1.863   2.251   1.351 -1.0965 -0.5299 -0.8507
 3312SOL     OW21568   3.436   4.128   8.381  0.2419 -0.0489  0.3707
 3312SOL    HW121569   3.406   4.194   8.319 -1.3639  0.9101  2.1990
 3312SOL    HW221570   3.439   4.180   8.461  1.1623  0.2596  0.1403
 3313SOL     OW21571   0.804   3.372  15.446  0.2205  0.2994 -0.0311
 3313SOL    HW121572   0.718   3.405  15.420  0.3005 -0.5498 -1.3570
 3313SOL    HW221573   0.799   3.290  15.397  1.9007  0.5746 -0.6721
 3314SOL     OW21574   2.148   3.660   2.407 -1.1599  0.1662 -0.4745
 3314SOL    HW121575   2.122   3.658   2.499 -1.0733 -1.9843 -0.4894
 3314SOL    HW221576   2.208   3.586   2.410 -1.2147  0.1459  0.1072
 3315SOL     OW21577   3.668   2.925   4.322  0.1035 -0.4043 -0.8260
 3315SOL    HW121578   3.648   3.009   4.281  0.9454  0.0878 -0.2350
 3315SOL    HW221579   3.747   2.960   4.363 -1.0511  0.9121  0.2614
 3316SOL     OW21580   3.035   0.031   4.117  0.4449  0.1483  0.3946
 3316SOL    HW121581   3.110   0.040   4.058 -1.7617  3.8586 -1.8348
 3316SOL    HW221582   3.050   0.103   4.179  2.1389  1.6295 -1.7365
 3317SOL     OW21583   4.442   1.887   7.673  0.1776  0.1024  0.0362
 3317SOL    HW121584   4.391   1.967   7.663  2.0933  1.2284 -0.7572
 3317SOL    HW221585   4.371   1.827   7.696  2.5293 -2.5252  0.4963
 3318SOL     OW21586   4.505   1.725   2.545 -0.2717 -0.1754 -0.2598
 3318SOL    HW121587   4.546   1.802   2.505 -1.5250  0.7106  0.1637
 3318SOL    HW221588   4.426   1.715   2.493  1.2920  0.3734 -2.7192
 3319SOL     OW21589   1.474   3.026   6.941 -0.8177  0.3402  0.2291
 3319SOL    HW121590   1.419   3.071   6.877 -1.1400 -0.8642 -0.3356
 3319SOL    HW221591   1.550   3.082   6.932  0.0658 -0.9247 -0.0894
 3320SOL     OW21592   2.788   1.479   9.257  0.3746 -1.1202 -0.5998
 3320SOL    HW121593   2.843   1.439   9.189  1.4060  2.0357 -1.6458
 3320SOL    HW221594   2.700   1.470   9.220  1.3352 -1.7499 -2.7470
 3321SOL     OW21595   0.557   1.900   1.978  0.1080  0.0512  0.6509
 3321SOL    HW121596   0.586   1.829   2.034 -0.4098 -0.5399  0.1690
 3321SOL    HW221597   0.463   1.890   1.994  0.2409 -1.3172  0.6008
 3322SOL     OW21598   1.383   0.927   9.253  0.1217 -0.0354  0.0842
 3322SOL    HW121599   1.308   0.968   9.297  0.7283  2.8940 -1.5911
 3322SOL    HW221600   1.339   0.913   9.169 -3.1888  1.0091  1.6293
 3323SOL     OW21601   1.139   0.740  14.196 -0.1040 -0.2767  0.5229
 3323SOL    HW121602   1.172   0.826  14.222  1.4056 -0.8160  0.4238
 3323SOL    HW221603   1.056   0.763  14.154 -0.9901 -3.3242  0.5820
 3324SOL     OW21604   4.540   3.683   4.855 -0.4975  0.6214 -0.1399
 3324SOL    HW121605   4.499   3.732   4.926 -1.2138  2.9743 -2.1920
 3324SOL    HW221606   4.628   3.718   4.851 -0.2985 -0.0305 -1.6635
 3325SOL     OW21607   2.515   0.339   1.957 -0.5534 -0.1335  0.5260
 3325SOL    HW121608   2.568   0.265   1.925  1.3458  1.8412 -0.8733
 3325SOL    HW221609   2.538   0.328   2.049  1.1836  2.2688  0.3847
 3326SOL     OW21610   3.887   3.458  11.575 -0.2370 -0.9250 -0.7854
 3326SOL    HW121611   3.943   3.381  11.563  2.4066  1.3326 -2.7882
 3326SOL    HW221612   3.809   3.431  11.527 -2.1934  2.0554  0.7497
 3327SOL     OW21613   2.715   4.103   3.362 -0.9664  0.1347 -0.3246
 3327SOL    HW121614   2.794   4.156   3.369 -1.2201  0.5384 -0.4756
 3327SOL    HW221615   2.658   4.179   3.375 -0.1294  0.8261 -0.7352
 3328SOL     OW21616   0.367   0.765   8.737  0.3438 -0.9010  0.1801
 3328SOL    HW121617   0.323   0.686   8.706 -0.5228 -0.3356 -0.0382
 3328SOL    HW221618   0.301   0.795   8.799  0.2620 -0.8389  0.0636
 3329SOL     OW21619   1.718   2.135   8.462 -0.0059  0.5091 -0.0475
 3329SOL    HW121620   1.712   2.084   8.542 -0.8234 -1.4811 -1.3715
 3329SOL    HW221621   1.752   2.222   8.485 -1.8102  1.5242 -1.1241
 3330SOL     OW21622   1.710   1.966   4.279 -0.3673 -0.3151 -0.6556
 3330SOL    HW121623   1.732   2.021   4.204  1.1152 -1.1453 -0.8164
 3330SOL    HW221624   1.801   1.950   4.303 -0.3568  1.0389  0.2069
 3331SOL     OW21625   0.866   3.913  16.398 -0.1736  0.2151  0.4500
 3331SOL    HW121626   0.791   3.860  16.370  1.1624 -2.6940  2.3377
 3331SOL    HW221627   0.839   3.988  16.346  0.7132 -0.5771 -1.1193
 3332SOL     OW21628   1.276   2.377   2.326 -0.4258  0.1015 -0.4556
 3332SOL    HW121629   1.357   2.415   2.292 -1.7948  1.0466 -2.7409
 3332SOL    HW221630   1.262   2.327   2.245  0.3518  0.3578 -0.7463
 3333SOL     OW21631   1.880   0.902   3.250  0.3265  0.1863 -0.2455
 3333SOL    HW121632   1.787   0.894   3.272  0.8343 -0.0985  1.7501
 3333SOL    HW221633   1.879   0.996   3.269 -1.0444 -0.0611  0.8953
 3334SOL     OW21634   4.576   1.982  16.584  0.1887 -0.8397  0.1860
 3334SOL    HW121635   4.532   1.965  16.668 -1.9010  1.5748 -0.4221
 3334SOL    HW221636   4.665   1.951  16.602  0.7718  0.9660  0.4590
 3335SOL     OW21637   4.118   2.420   0.139  0.1882  0.2913 -0.4706
 3335SOL    HW121638   4.037   2.462   0.167 -0.4521 -0.6515 -0.9055
 3335SOL    HW221639   4.115   2.332   0.178  1.2973  0.7930  0.7584
 3336SOL     OW21640   1.083   4.406  12.875  0.2868  0.0111 -0.4722
 3336SOL    HW121641   1.101   4.338  12.810  0.6902  0.9854 -1.3805
 3336SOL    HW221642   0.993   4.384  12.898  0.8115  0.2216  1.8141
 3337SOL     OW21643   1.588   3.421   4.881  0.3718  0.2838 -0.2212
 3337SOL    HW121644   1.546   3.340   4.851 -1.4566  0.8102  0.8782
 3337SOL    HW221645   1.679   3.410   4.856 -0.0440 -2.7937 -0.3885
 3338SOL     OW21646   3.886   2.091   7.503  0.0646  0.1820 -0.1094
 3338SOL    HW121647   3.857   2.032   7.433 -0.4042 -0.1876  0.3988
 3338SOL    HW221648   3.928   2.154   7.445 -0.5929  1.9085  1.2989
 3339SOL     OW21649   4.614   0.381   5.084 -0.3260 -0.4980  0.3231
 3339SOL    HW121650   4.606   0.364   5.178 -1.2681  1.9174  0.6843
 3339SOL    HW221651   4.608   0.297   5.040  0.9111 -1.7062  2.4578
 3340SOL     OW21652   4.618   4.222   6.151  0.0696 -0.2673 -0.5499
 3340SOL    HW121653   4.639   4.286   6.218 -0.3734  0.0924 -0.7564
 3340SOL    HW221654   4.529   4.251   6.130 -0.3738  1.2092  3.5166
 3341SOL     OW21655   3.684   2.721   6.183 -0.0450 -0.3426 -0.2074
 3341SOL    HW121656   3.694   2.627   6.201  0.5229 -0.5861 -1.7947
 3341SOL    HW221657   3.771   2.744   6.149 -0.5557 -1.3497 -2.1958
 3342SOL     OW21658   2.907   2.474   2.767 -0.0037 -0.0405  0.6553
 3342SOL    HW121659   2.925   2.524   2.688 -1.6672 -1.3751 -0.5591
 3342SOL    HW221660   2.823   2.431   2.751  0.0266 -0.0229  0.4478
 3343SOL     OW21661   4.344   0.160   5.568 -0.1255  0.1199 -0.2674
 3343SOL    HW121662   4.285   0.107   5.515 -2.3583 -0.1906  2.5191
 3343SOL    HW221663   4.336   0.245   5.525  2.5838  1.3397  1.6778
 3344SOL     OW21664   4.448   1.867  14.634 -0.3990 -0.3085  0.6690
 3344SOL    HW121665   4.457   1.827  14.547 -2.1612 -0.6929  0.6801
 3344SOL    HW221666   4.499   1.946  14.614  1.1361 -1.2835  0.7097
 3345SOL     OW21667   2.440   1.469   3.204  0.4683 -0.4536 -0.1587
 3345SOL    HW121668   2.456   1.552   3.249  0.6142 -1.3714  1.4830
 3345SOL    HW221669   2.398   1.408   3.264  0.2919  0.1323  0.3136
 3346SOL     OW21670   1.067   3.284   8.527  0.5322  0.9951 -0.1832
 3346SOL    HW121671   1.002   3.303   8.594  0.3458 -2.2496  0.5521
 3346SOL    HW221672   1.153   3.255   8.557 -0.4971 -0.8845  0.9010
 3347SOL     OW21673   1.032   4.308   4.276 -0.8365  0.9337 -0.6391
 3347SOL    HW121674   1.100   4.241   4.262  0.8631  2.3148  0.9598
 3347SOL    HW221675   1.089   4.385   4.278  0.3930  0.0465 -0.9679
 3348SOL     OW21676   2.836   3.216   7.645 -0.4354 -0.6662 -0.5484
 3348SOL    HW121677   2.897   3.208   7.572  0.4149 -0.7476  0.1656
 3348SOL    HW221678   2.871   3.148   7.703  2.5138 -0.1627 -1.7812
 3349SOL     OW21679   3.083   3.657   6.322  0.2079 -0.0368 -0.2547
 3349SOL    HW121680   3.164   3.625   6.361  1.0376  0.2969 -1.6791
 3349SOL    HW221681   3.122   3.723   6.264  1.6931 -0.8353 -0.1639
 3350SOL     OW21682   3.929   4.529   8.989 -0.2430  0.0747  0.3065
 3350SOL    HW121683   3.901   4.556   9.077 -0.6294 -0.3134  0.3072
 3350SOL    HW221684   3.842   4.510   8.955 -0.2067 -0.4551  0.4930
 3351SOL     OW21685   0.100   4.734   4.136 -0.2226 -0.3604 -0.1390
 3351SOL    HW121686   0.017   0.024   4.174  0.4912  0.4988  0.7576
 3351SOL    HW221687   0.150   0.029   4.210  1.4782 -1.9447 -0.5761
 3352SOL     OW21688   4.306   1.996   4.398 -0.0144  0.0057  0.4382
 3352SOL    HW121689   4.351   1.987   4.482  1.4598  1.5338 -0.1809
 3352SOL    HW221690   4.242   2.058   4.432  1.4276  1.1088  1.1646
 3353SOL     OW21691   4.680   0.241  11.440 -0.2791 -0.1340  0.0508
 3353SOL    HW121692   4.707   0.160  11.484  0.1536  0.4995  0.9555
 3353SOL    HW221693   0.022   0.284  11.412 -0.3675 -1.1152 -1.6871
 3354SOL     OW21694   4.674   4.120   3.857  0.5975 -0.3132  0.3810
 3354SOL    HW121695   4.578   4.127   3.858  0.4089 -2.7252 -1.3634
 3354SOL    HW221696   4.704   4.163   3.937 -0.4646  0.6140  0.2834
 3355SOL     OW21697   3.265   0.375  11.241 -0.0526  0.0474  0.3005
 3355SOL    HW121698   3.177   0.346  11.218  0.4144  1.3097 -3.1690
 3355SOL    HW221699   3.274   0.459  11.197  0.2803  0.0769  0.4224
 3356SOL     OW21700   4.267   1.155  15.521  0.2829  0.2767 -0.5488
 3356SOL    HW121701   4.338   1.206  15.561 -1.2802  1.5876  0.5644
 3356SOL    HW221702   4.195   1.161  15.584  0.0610  0.0628 -0.7830
 3357SOL     OW21703   0.177   2.642   7.541  0.7155 -0.0325 -0.1100
 3357SOL    HW121704   0.107   2.644   7.476  1.4325 -2.7516 -0.9783
 3357SOL    HW221705   0.131   2.667   7.621  0.0673 -1.4405 -0.0405
 3358SOL     OW21706   3.728   2.678   7.095 -0.0704  0.1310  0.5929
 3358SOL    HW121707   3.674   2.664   7.172 -0.2993  0.5805  0.5198
 3358SOL    HW221708   3.808   2.642   7.133  0.5266  1.7928  0.9253
 3359SOL     OW21709   1.630   1.388   1.320  0.4043  0.0938 -0.2982
 3359SOL    HW121710   1.573   1.394   1.243 -1.7310 -0.9043  1.2184
 3359SOL    HW221711   1.575   1.363   1.394 -1.6022 -0.5194 -1.9800
 3360SOL     OW21712   0.868   0.953   2.632  0.2565  0.4993  0.1942
 3360SOL    HW121713   0.870   0.977   2.539 -1.1078 -0.6565 -0.1321
 3360SOL    HW221714   0.824   1.032   2.665 -0.2312  0.3483 -0.0941
 3361SOL     OW21715   1.251   3.848   7.785  0.3945 -0.1706 -0.2153
 3361SOL    HW121716   1.159   3.863   7.806  0.4166  0.2767 -0.4553
 3361SOL    HW221717   1.297   3.888   7.859 -0.0045  0.4218 -0.2974
 3362SOL     OW21718   3.504   3.802   8.752 -0.2656  0.1894  0.7696
 3362SOL    HW121719   3.500   3.798   8.657  1.3337 -0.3701  0.7133
 3362SOL    HW221720   3.410   3.811   8.764 -0.2198 -0.8079  1.8930
 3363SOL     OW21721   4.426   4.271   3.665  0.1883  0.1873  0.3092
 3363SOL    HW121722   4.443   4.252   3.757 -2.4054  0.8233  0.9144
 3363SOL    HW221723   4.446   4.365   3.659  0.3464  0.1616  0.4287
 3364SOL     OW21724   4.127   2.510   4.507 -0.1027  0.8259  0.4339
 3364SOL    HW121725   4.078   2.493   4.428  2.0881 -1.1669 -0.5047
 3364SOL    HW221726   4.064   2.574   4.540  0.0529  1.2595 -0.1107
 3365SOL     OW21727   1.927   0.059  15.394 -0.1655 -0.3985  0.0746
 3365SOL    HW121728   1.987   4.724  15.383 -0.0676 -0.0049 -2.0803
 3365SOL    HW221729   1.990   0.128  15.412 -1.0755  0.0004  1.7330
 3366SOL     OW21730   4.317   3.017  14.606  0.0743 -0.5074  0.3307
 3366SOL    HW121731   4.290   3.039  14.695 -3.3011  1.0341 -1.0778
 3366SOL    HW221732   4.232   3.002  14.566 -0.2213  2.3412 -0.1628
 3367SOL     OW21733   1.200   1.687   6.042  0.1776  0.2355  0.4488
 3367SOL    HW121734   1.185   1.612   5.984 -3.5853  1.5055 -0.2120
 3367SOL    HW221735   1.270   1.728   5.991 -0.9747  1.8694  0.1580
 3368SOL     OW21736   2.431   1.564   5.400  0.2101 -0.3159 -0.6188
 3368SOL    HW121737   2.508   1.506   5.408  0.1557 -0.1846  0.8269
 3368SOL    HW221738   2.463   1.621   5.331  1.3993  0.9743  0.9917
 3369SOL     OW21739   2.335   3.579   4.660 -0.0410  0.5362  0.3596
 3369SOL    HW121740   2.263   3.531   4.619  2.0597 -0.7339 -1.8571
 3369SOL    HW221741   2.395   3.504   4.654 -1.0246 -0.2788  0.7227
 3370SOL     OW21742   0.557   4.549  16.720 -0.0120 -0.1439 -0.4384
 3370SOL    HW121743   0.579   4.512  16.634 -3.6542  1.2620 -2.0050
 3370SOL    HW221744   0.555   4.643  16.705  1.2291 -0.2497 -1.3025
 3371SOL     OW21745   0.541   0.895   3.441  0.0775 -0.1241  0.0908
 3371SOL    HW121746   0.607   0.962   3.458  1.7786 -1.3729 -1.6939
 3371SOL    HW221747   0.554   0.832   3.512 -0.5303 -0.9903 -0.5625
 3372SOL     OW21748   0.339   0.689  12.711 -0.3433 -0.4315 -0.1939
 3372SOL    HW121749   0.318   0.669  12.620  2.4889  2.0840 -1.3922
 3372SOL    HW221750   0.399   0.620  12.739  1.0516  0.6214 -0.5700
 3373SOL     OW21751   0.346   1.467   2.956 -0.2037 -0.5496  0.2395
 3373SOL    HW121752   0.301   1.489   2.875 -2.3068  0.8833  1.7767
 3373SOL    HW221753   0.369   1.554   2.991  0.3244 -0.0532 -1.3321
 3374SOL     OW21754   3.893   0.913   7.857 -0.0839 -0.4584  0.0599
 3374SOL    HW121755   3.873   0.998   7.896  0.7703 -0.6656  0.9444
 3374SOL    HW221756   3.933   0.865   7.930  0.1779  0.1675  0.3283
 3375SOL     OW21757   2.734   1.680  13.554 -0.2026  0.1321  0.0676
 3375SOL    HW121758   2.654   1.716  13.591 -0.7783 -0.6444 -0.4279
 3375SOL    HW221759   2.772   1.762  13.522 -0.4907  0.3717  0.3354
 3376SOL     OW21760   1.315   0.920   1.676  0.4058  0.0126 -0.7951
 3376SOL    HW121761   1.369   0.904   1.599  0.1316 -2.2118 -0.5285
 3376SOL    HW221762   1.224   0.899   1.654 -0.0111 -0.5945  1.4168
 3377SOL     OW21763   0.886   0.492  14.756  0.4795 -0.6646  0.2038
 3377SOL    HW121764   0.828   0.497  14.679 -2.5196  0.3195  2.5241
 3377SOL    HW221765   0.888   0.397  14.771  0.7456 -0.8322 -0.8410
 3378SOL     OW21766   3.896   0.260   8.039 -0.1806 -0.5984  0.7480
 3378SOL    HW121767   3.812   0.304   8.054  0.0924 -0.2917  1.3730
 3378SOL    HW221768   3.933   0.265   8.127 -0.3626 -0.6909  0.8301
 3379SOL     OW21769   1.604   3.165   6.293  0.6450 -0.2868  0.7853
 3379SOL    HW121770   1.678   3.175   6.234 -0.1802  0.7839 -0.0610
 3379SOL    HW221771   1.583   3.258   6.296 -0.4667 -0.4489 -1.7829
 3380SOL     OW21772   1.220   4.343  17.119 -0.2501  0.1479 -0.7044
 3380SOL    HW121773   1.169   4.299  17.187  0.7436  0.7553  0.4348
 3380SOL    HW221774   1.229   4.424  17.170 -1.5472 -0.2192  0.1072
 3381SOL     OW21775   4.206   3.032   9.065  0.0425  0.2441 -0.0413
 3381SOL    HW121776   4.233   2.948   9.029  1.3911  0.4188  0.5543
 3381SOL    HW221777   4.224   3.036   9.159  2.4182 -0.4478 -0.4703
 3382SOL     OW21778   2.692   3.821   5.454  0.5841  0.0353  0.2457
 3382SOL    HW121779   2.760   3.756   5.471 -1.2585 -1.2067  2.9017
 3382SOL    HW221780   2.715   3.844   5.364 -1.0625  1.5453  0.2214
 3383SOL     OW21781   2.695   1.663   6.467 -0.0389 -0.4874  0.6425
 3383SOL    HW121782   2.745   1.699   6.394 -2.1520  1.0321 -0.0560
 3383SOL    HW221783   2.736   1.577   6.476  0.8595  0.0898  2.0922
 3384SOL     OW21784   4.086   2.554   3.947 -0.0584 -0.5404  0.0215
 3384SOL    HW121785   4.112   2.479   3.893 -1.3329 -1.2762  0.4145
 3384SOL    HW221786   4.051   2.622   3.889  1.9827 -1.5739 -2.4011
 3385SOL     OW21787   2.392   1.669   4.258  0.2639 -0.1993 -0.4139
 3385SOL    HW121788   2.322   1.688   4.196 -0.1064 -3.2170 -0.9247
 3385SOL    HW221789   2.451   1.743   4.242  0.1356 -0.2473 -1.1050
 3386SOL     OW21790   3.873   2.264   8.613  0.2923 -0.6303 -0.3513
 3386SOL    HW121791   3.826   2.185   8.641  0.4035 -0.2406  0.9150
 3386SOL    HW221792   3.837   2.272   8.525 -1.5248 -3.2810  0.1466
 3387SOL     OW21793   4.162   4.198   8.513 -0.1313  0.2229  0.3277
 3387SOL    HW121794   4.174   4.283   8.556 -2.9012  0.1514  1.2901
 3387SOL    HW221795   4.085   4.197   8.455  0.8886  2.1318 -1.0506
 3388SOL     OW21796   4.045   3.517   6.380 -0.1213  0.4145 -0.0929
 3388SOL    HW121797   4.093   3.597   6.356 -0.1212  1.1846  2.4549
 3388SOL    HW221798   4.068   3.508   6.472 -1.2486  1.2442  0.2640
 3389SOL     OW21799   2.772   0.796  13.564 -0.1700  0.1892 -0.8730
 3389SOL    HW121800   2.679   0.804  13.586  0.2323 -2.6721  1.7649
 3389SOL    HW221801   2.770   0.797  13.468 -2.4518  2.3350 -0.8060
 3390SOL     OW21802   0.062   4.652   7.098 -0.0873  0.5415  0.2457
 3390SOL    HW121803   4.709   4.674   7.112 -0.3664 -0.1413 -0.5133
 3390SOL    HW221804   0.048   4.617   7.010  1.0671  0.4830  0.0802
 3391SOL     OW21805   3.237   2.219   7.420  0.3325  0.4419 -0.2042
 3391SOL    HW121806   3.221   2.260   7.506 -2.0984 -1.6282  0.3006
 3391SOL    HW221807   3.329   2.243   7.408 -0.0030  3.2104  2.6559
 3392SOL     OW21808   4.384   2.434  10.187 -0.6438 -0.0510 -0.0607
 3392SOL    HW121809   4.316   2.495  10.157  0.3484  0.1658 -1.8782
 3392SOL    HW221810   4.445   2.494  10.229 -0.4009  0.8669 -1.7350
 3393SOL     OW21811   1.377   4.308  12.348 -0.2555  0.1011 -0.5961
 3393SOL    HW121812   1.334   4.232  12.384 -1.9139  0.6156 -1.5015
 3393SOL    HW221813   1.313   4.338  12.283 -1.6268 -1.3330  0.1324
 3394SOL     OW21814   0.326   2.716   4.436 -0.1198 -0.1876 -0.4239
 3394SOL    HW121815   0.371   2.653   4.381 -0.1231  0.8874 -1.6558
 3394SOL    HW221816   0.354   2.795   4.391 -3.0663  0.8799 -0.4139
 3395SOL     OW21817   4.621   3.544  13.383  0.2852  0.2992 -0.1591
 3395SOL    HW121818   4.578   3.459  13.371  0.2525  0.5341 -1.7499
 3395SOL    HW221819   4.675   3.537  13.304 -0.7414 -0.2638 -0.8160
 3396SOL     OW21820   1.433   2.492   5.917 -0.0205 -0.2120  0.5826
 3396SOL    HW121821   1.394   2.430   5.856 -1.0529  2.4560 -1.4311
 3396SOL    HW221822   1.400   2.449   5.996  0.3675  0.7701  1.2864
 3397SOL     OW21823   0.493   2.525  15.146 -0.1823 -0.0093  0.3420
 3397SOL    HW121824   0.484   2.493  15.056 -0.0694  0.3336  0.2111
 3397SOL    HW221825   0.511   2.438  15.182 -0.6907  0.8160  2.6071
 3398SOL     OW21826   3.888   1.355   7.575 -0.0720 -0.3023 -0.1129
 3398SOL    HW121827   3.970   1.314   7.547  0.3000  1.0778 -1.0099
 3398SOL    HW221828   3.881   1.334   7.668 -0.5735 -1.5139 -0.4153
 3399SOL     OW21829   2.174   0.925   2.020 -0.2844 -0.0708 -0.7074
 3399SOL    HW121830   2.142   0.936   2.110 -2.9116  2.9137 -2.0156
 3399SOL    HW221831   2.268   0.925   2.038 -0.5833  0.4023  0.8891
 3400SOL     OW21832   4.631   1.949   7.500 -0.5307 -0.0884 -0.2800
 3400SOL    HW121833   4.551   1.912   7.538 -1.4096  0.2291 -1.7927
 3400SOL    HW221834   4.652   1.875   7.443 -1.4008 -1.1766  0.8148
 3401SOL     OW21835   1.761   1.338  15.014 -0.6097 -1.1023  0.0853
 3401SOL    HW121836   1.856   1.351  15.021 -0.4315 -2.6991  0.6752
 3401SOL    HW221837   1.741   1.278  14.943  1.2660 -1.2492 -0.3067
 3402SOL     OW21838   1.252   4.099  16.996  0.5139  0.2789 -0.3124
 3402SOL    HW121839   1.202   4.115  16.915 -3.2359 -0.8613  1.7910
 3402SOL    HW221840   1.242   4.187  17.031 -0.6613 -0.9212  2.3641
 3403SOL     OW21841   2.874   3.558  15.431  0.0207  0.3980  0.3614
 3403SOL    HW121842   2.891   3.467  15.407  1.7446  0.1762  2.4070
 3403SOL    HW221843   2.860   3.555  15.526 -1.1437 -0.4445  0.1665
 3404SOL     OW21844   0.269   4.722  11.848  0.0890 -0.6239  0.0831
 3404SOL    HW121845   0.210   0.008  11.920  0.3287  0.0586  0.0439
 3404SOL    HW221846   0.338   4.672  11.892  0.3386  0.9723  1.4939
 3405SOL     OW21847   1.013   1.498  12.408 -0.3091 -0.7840 -0.3944
 3405SOL    HW121848   1.020   1.514  12.502 -1.3774  1.8830 -0.7968
 3405SOL    HW221849   1.004   1.402  12.407  0.1506 -0.8470  0.8186
 3406SOL     OW21850   1.248   3.769   8.117  0.1093  0.3097 -0.4723
 3406SOL    HW121851   1.339   3.742   8.113 -0.0651 -0.1964 -1.0705
 3406SOL    HW221852   1.220   3.708   8.048  0.4538 -0.6742  0.2630
 3407SOL     OW21853   2.815   1.167   5.801 -0.2559 -0.7980 -0.2670
 3407SOL    HW121854   2.909   1.161   5.786  0.1014  0.6287  1.3905
 3407SOL    HW221855   2.794   1.255   5.769  0.1953 -0.8772 -0.7733
 3408SOL     OW21856   3.194   2.749   7.925  0.4601  0.3241 -0.2958
 3408SOL    HW121857   3.100   2.753   7.948  0.5625  2.5452 -0.1861
 3408SOL    HW221858   3.184   2.784   7.837 -1.8268  0.6277  0.0648
 3409SOL     OW21859   2.155   3.603   5.806 -0.6475 -0.1237  0.3640
 3409SOL    HW121860   2.112   3.593   5.721 -0.1720  2.2477 -0.1545
 3409SOL    HW221861   2.134   3.693   5.831  0.5826  0.4758 -0.8040
 3410SOL     OW21862   3.920   4.183   6.886  0.1663  0.0697 -0.1964
 3410SOL    HW121863   3.952   4.206   6.973 -0.9306 -3.2829  1.0910
 3410SOL    HW221864   3.845   4.243   6.890 -0.0871 -0.3045  0.6662
 3411SOL     OW21865   2.949   3.390   1.071  0.1752  0.0225  0.0765
 3411SOL    HW121866   3.035   3.355   1.050  0.3688  0.8588 -0.5429
 3411SOL    HW221867   2.903   3.376   0.988  1.5148 -1.1851 -0.4647
 3412SOL     OW21868   3.080   0.511   5.151 -0.0495  0.2581  0.3212
 3412SOL    HW121869   3.117   0.589   5.109 -1.8347  0.1107 -1.5056
 3412SOL    HW221870   3.000   0.493   5.103  0.4592  1.4097 -0.9600
 3413SOL     OW21871   2.382   0.485   1.751 -0.0981 -0.5706 -0.3730
 3413SOL    HW121872   2.291   0.457   1.758  0.9396 -4.2605 -1.2952
 3413SOL    HW221873   2.422   0.418   1.806  0.6111 -1.2041 -1.6376
 3414SOL     OW21874   3.416   2.148  12.504  0.0372 -0.2313 -0.4258
 3414SOL    HW121875   3.327   2.116  12.519 -0.2831  1.0331  0.3693
 3414SOL    HW221876   3.435   2.125  12.413  2.0444  0.5049 -0.1778
 3415SOL     OW21877   0.995   3.862   7.876 -0.2340 -0.0938  0.3157
 3415SOL    HW121878   0.907   3.885   7.907  0.7228  3.5661  0.2801
 3415SOL    HW221879   0.981   3.768   7.891 -0.2768 -0.1078  0.1876
 3416SOL     OW21880   3.442   0.441   6.299  0.1969 -0.3709  0.4845
 3416SOL    HW121881   3.375   0.442   6.367 -1.5353  2.6245 -1.2595
 3416SOL    HW221882   3.495   0.362   6.309 -1.6413 -1.5272  1.0953
 3417SOL     OW21883   2.771   1.934  12.408  0.3288 -0.4999  0.0841
 3417SOL    HW121884   2.845   1.945  12.348  0.2590 -2.3320 -0.3491
 3417SOL    HW221885   2.797   1.991  12.480 -0.5185  0.7918 -0.6339
 3418SOL     OW21886   1.187   1.502   2.905  0.0861  0.4403  0.7915
 3418SOL    HW121887   1.226   1.579   2.863 -1.4867 -1.3005 -3.8450
 3418SOL    HW221888   1.149   1.466   2.824  1.2299 -0.5698  0.7070
 3419SOL     OW21889   0.995   3.674   4.073 -0.7643 -0.3683  0.3522
 3419SOL    HW121890   0.992   3.769   4.089  0.1602  0.2072 -2.8205
 3419SOL    HW221891   1.078   3.648   4.112  0.9182 -0.1403 -2.9925
 3420SOL     OW21892   0.411   1.023   5.300  0.5606  0.2610  0.6817
 3420SOL    HW121893   0.412   0.959   5.229 -1.6510 -0.6692  1.4840
 3420SOL    HW221894   0.341   1.078   5.265 -0.7968 -1.6398  0.3827
 3421SOL     OW21895   2.382   2.435   5.704  0.1818  0.4116  0.2419
 3421SOL    HW121896   2.308   2.408   5.758  0.7113  0.3292  0.9276
 3421SOL    HW221897   2.430   2.354   5.687 -3.8928 -1.8635 -0.4785
 3422SOL     OW21898   1.512   3.734   8.120  0.1715  0.4671  0.3063
 3422SOL    HW121899   1.525   3.642   8.095  0.2097  0.5227  0.1220
 3422SOL    HW221900   1.558   3.730   8.204 -0.5362 -1.0843  0.6068
 3423SOL     OW21901   0.787   4.435   3.233  0.3076  0.3868 -0.0766
 3423SOL    HW121902   0.714   4.411   3.176  0.4832 -0.5245  0.0939
 3423SOL    HW221903   0.850   4.436   3.162 -0.4610 -3.9789 -0.7743
 3424SOL     OW21904   4.317   4.009   7.148 -0.1771 -0.5504 -0.6062
 3424SOL    HW121905   4.346   3.986   7.060  1.0100 -0.8561 -0.1355
 3424SOL    HW221906   4.402   4.038   7.181 -0.7652  0.7542 -0.2427
 3425SOL     OW21907   2.912   1.548  16.148  0.2781  0.4428 -0.1406
 3425SOL    HW121908   2.836   1.541  16.091 -1.0622 -3.8939  2.1968
 3425SOL    HW221909   2.982   1.594  16.101  1.0485 -0.9336 -0.3361
 3426SOL     OW21910   3.597   3.656   3.135 -0.2071  0.0141 -0.1827
 3426SOL    HW121911   3.519   3.685   3.181  0.0293  0.9585 -0.3857
 3426SOL    HW221912   3.562   3.610   3.058  1.7579 -0.0504 -1.0533
 3427SOL     OW21913   0.247   3.271   8.562  0.5291  0.0609 -0.0525
 3427SOL    HW121914   0.277   3.337   8.624 -2.2889 -1.3537  2.8461
 3427SOL    HW221915   0.289   3.197   8.605  1.3461  0.8944  0.5746
 3428SOL     OW21916   3.457   3.460   6.741 -0.3712  0.7516  0.0198
 3428SOL    HW121917   3.362   3.455   6.739 -0.2484 -1.3998 -0.4629
 3428SOL    HW221918   3.474   3.427   6.653 -0.1540  1.1968 -0.1077
 3429SOL     OW21919   1.513   0.128  16.008  0.5531 -0.1962 -0.1926
 3429SOL    HW121920   1.597   0.164  15.979  0.1706  2.1704  1.6358
 3429SOL    HW221921   1.487   0.188  16.078 -1.6111 -0.4890 -0.7660
 3430SOL     OW21922   4.383   1.812   3.267  0.4824 -0.6173  0.4325
 3430SOL    HW121923   4.400   1.884   3.328  2.3480 -0.5847 -0.1182
 3430SOL    HW221924   4.431   1.744   3.315  0.6414 -0.3788  0.6144
 3431SOL     OW21925   3.079   2.561   7.430 -0.6006  0.5966  0.1945
 3431SOL    HW121926   3.073   2.466   7.415 -0.7904  0.6773 -0.2591
 3431SOL    HW221927   3.173   2.574   7.418 -0.2539 -2.5423 -0.4731
 3432SOL     OW21928   4.595   3.502   9.608  0.0678 -0.2618  0.1916
 3432SOL    HW121929   4.635   3.505   9.695 -1.2143 -0.0504  0.7720
 3432SOL    HW221930   4.521   3.562   9.608 -1.2175 -1.8301 -3.2685
 3433SOL     OW21931   4.606   1.230   8.810  0.3037  0.0059  0.7809
 3433SOL    HW121932   4.669   1.298   8.785  1.4765 -1.6106 -0.6764
 3433SOL    HW221933   4.523   1.277   8.803 -0.4259 -1.4135 -0.2507
 3434SOL     OW21934   0.131   1.859   6.286  0.1094  0.1644  0.1534
 3434SOL    HW121935   0.084   1.907   6.353  0.7133 -1.2042  1.5744
 3434SOL    HW221936   0.112   1.908   6.206 -1.1019  1.1391  1.0454
 3435SOL     OW21937   2.626   1.079   1.864 -0.1559  0.1058 -0.1307
 3435SOL    HW121938   2.573   1.005   1.833 -1.5838  0.6154  1.0677
 3435SOL    HW221939   2.594   1.151   1.810  3.4065  0.1803 -2.1469
 3436SOL     OW21940   0.983   3.456   5.782 -0.0845  0.2877  0.1456
 3436SOL    HW121941   1.033   3.404   5.718 -1.4541  1.7856 -2.1520
 3436SOL    HW221942   1.028   3.540   5.785 -1.6226  1.0876  0.4836
 3437SOL     OW21943   3.011   3.121   4.545  0.4636 -0.4869 -0.4745
 3437SOL    HW121944   3.023   3.027   4.559  0.7574 -0.3029  0.4832
 3437SOL    HW221945   3.088   3.141   4.493  1.7026 -2.5160  0.5924
 3438SOL     OW21946   3.088   4.479   4.849  0.5640 -0.1430  1.0697
 3438SOL    HW121947   3.035   4.493   4.928 -2.3960 -0.0720 -0.9642
 3438SOL    HW221948   3.132   4.564   4.845  0.6055 -0.2875 -1.5739
 3439SOL     OW21949   3.376   4.482   8.019  0.8873  0.3165 -0.8748
 3439SOL    HW121950   3.412   4.542   7.954  0.4397 -0.0815 -1.4859
 3439SOL    HW221951   3.392   4.530   8.100 -0.9284 -1.6053  0.6354
 3440SOL     OW21952   3.112   0.623   7.317 -0.2344  0.2158  0.4790
 3440SOL    HW121953   3.123   0.543   7.369  1.5245  1.5481  2.1188
 3440SOL    HW221954   3.077   0.677   7.387  0.6416  0.2080  0.9246
 3441SOL     OW21955   0.449   0.517  13.613  0.1112 -0.0595 -0.3448
 3441SOL    HW121956   0.411   0.430  13.600 -1.8357  0.8145 -0.4000
 3441SOL    HW221957   0.382   0.580  13.588  0.2872  0.8085  1.4202
 3442SOL     OW21958   2.994   2.324   3.055 -0.1880  0.0760  0.6954
 3442SOL    HW121959   2.986   2.393   2.989  0.2531  0.5378  1.1187
 3442SOL    HW221960   2.910   2.330   3.100  0.2353 -1.3761  1.6895
 3443SOL     OW21961   4.371   4.628   7.538 -0.7237 -0.2888 -0.6537
 3443SOL    HW121962   4.277   4.621   7.553 -0.8013 -0.9458 -1.4731
 3443SOL    HW221963   4.387   4.713   7.581  0.4825 -0.8623  0.0506
 3444SOL     OW21964   1.322   0.684  13.437  0.3885  0.1664  0.2275
 3444SOL    HW121965   1.264   0.714  13.367 -0.0408 -1.8214 -0.2578
 3444SOL    HW221966   1.307   0.759  13.494 -2.6962  0.1300 -0.5426
 3445SOL     OW21967   4.001   3.521   9.504 -0.0650 -0.1665 -0.3646
 3445SOL    HW121968   3.932   3.575   9.542  0.4118 -0.8871  1.5515
 3445SOL    HW221969   3.974   3.434   9.536 -0.0420 -0.3756 -0.9186
 3446SOL     OW21970   2.959   4.227   4.211 -0.4971 -0.2899  0.0728
 3446SOL    HW121971   2.980   4.147   4.259  1.8744  0.1509 -0.2532
 3446SOL    HW221972   3.025   4.294   4.231  2.6142 -3.7225  1.2160
 3447SOL     OW21973   4.718   0.724   3.309 -0.5029 -0.0703  0.5832
 3447SOL    HW121974   0.033   0.707   3.232 -1.5936  1.2762 -0.4590
 3447SOL    HW221975   0.008   0.813   3.330 -0.7789  0.2171 -0.2533
 3448SOL     OW21976   3.286   1.900   2.655 -0.7072  0.3523 -0.4734
 3448SOL    HW121977   3.299   1.994   2.641  1.1280  0.2843  0.8399
 3448SOL    HW221978   3.248   1.889   2.742  0.6961 -0.0500  0.0963
 3449SOL     OW21979   1.370   1.046   0.196  0.2008  0.3096  0.2143
 3449SOL    HW121980   1.379   1.104   0.120  1.3296  0.9957  0.8779
 3449SOL    HW221981   1.345   0.961   0.161  0.4829  0.2453  0.1781
 3450SOL     OW21982   1.017   1.374  17.584  0.8215 -0.0526 -0.4047
 3450SOL    HW121983   0.978   1.452  17.543 -0.8387 -1.6584 -1.8622
 3450SOL    HW221984   1.085   1.356  17.520 -0.0241 -0.4204 -1.1868
 3451SOL     OW21985   4.377   0.935   9.319  0.5647  0.4300 -1.0013
 3451SOL    HW121986   4.341   1.006   9.266  2.7036  1.4705 -1.0523
 3451SOL    HW221987   4.314   0.946   9.391 -1.1940 -0.4898 -2.4043
 3452SOL     OW21988   2.329   1.848   6.726 -0.4776 -0.8856  0.1287
 3452SOL    HW121989   2.307   1.925   6.778  0.9800  0.1211 -0.7486
 3452SOL    HW221990   2.247   1.811   6.695 -0.4701 -3.3572  3.0307
 3453SOL     OW21991   2.251   3.530   9.923  0.0879 -0.0149 -0.3146
 3453SOL    HW121992   2.277   3.517  10.015  0.9867  0.1829 -0.5415
 3453SOL    HW221993   2.226   3.438   9.912  1.0679 -0.2072 -0.8923
 3454SOL     OW21994   1.236   4.508   2.175 -0.2635  0.9011 -0.4910
 3454SOL    HW121995   1.294   4.569   2.219 -1.1935  1.1866  0.3276
 3454SOL    HW221996   1.173   4.486   2.244  0.5306  0.4672  0.0951
 3455SOL     OW21997   3.900   2.197  13.021  0.2313  0.3752 -0.2275
 3455SOL    HW121998   3.831   2.157  12.968 -1.0527  2.2294  0.0559
 3455SOL    HW221999   3.902   2.275  12.966  0.3534  0.0269 -0.7202
 3456SOL     OW22000   4.690   1.429   1.886 -0.2894  0.2259 -0.3110
 3456SOL    HW122001   4.664   1.410   1.976  2.7808  0.9640  0.7178
 3456SOL    HW222002   4.638   1.369   1.831  0.4416 -0.0483 -0.7040
 3457SOL     OW22003   3.205   0.589   5.912  0.1165 -0.1096  0.2325
 3457SOL    HW122004   3.199   0.676   5.950 -0.5153 -0.6395  1.3366
 3457SOL    HW222005   3.290   0.590   5.868  0.6005  0.5646  1.1911
 3458SOL     OW22006   2.682   2.696   9.113 -0.2901 -0.4119 -0.2888
 3458SOL    HW122007   2.604   2.751   9.115  0.0534  0.0469  0.5302
 3458SOL    HW222008   2.735   2.760   9.161  0.2552 -0.6257 -0.5966
 3459SOL     OW22009   4.089   2.554   2.434 -0.5197  0.3080  0.6771
 3459SOL    HW122010   4.179   2.547   2.402 -0.8084 -0.0398 -0.0471
 3459SOL    HW222011   4.064   2.640   2.402  0.3546  0.5206  0.5639
 3460SOL     OW22012   1.085   2.765   4.074  0.1260  0.0027 -0.1553
 3460SOL    HW122013   1.044   2.851   4.085 -4.6463 -2.1712 -1.1959
 3460SOL    HW222014   1.026   2.721   4.014 -2.3488  0.5574  1.8818
 3461SOL     OW22015   2.924   2.112   2.500  0.3542  0.2636  0.1369
 3461SOL    HW122016   2.840   2.075   2.527  0.9294 -0.5452  0.8207
 3461SOL    HW222017   2.974   2.131   2.579 -0.2593  0.4434  0.4803
 3462SOL     OW22018   3.875   4.723   4.060  0.0898 -0.4378  0.5338
 3462SOL    HW122019   3.939   4.672   4.010 -1.2118  0.7363 -2.3411
 3462SOL    HW222020   3.794   4.707   4.012  0.4629  0.1882 -0.3168
 3463SOL     OW22021   4.218   4.359  15.945 -0.2799 -0.1894 -0.6261
 3463SOL    HW122022   4.305   4.383  15.978 -0.7244  1.6807 -0.8107
 3463SOL    HW222023   4.200   4.275  15.987 -4.7377  0.2067 -1.7647
 3464SOL     OW22024   1.762   3.189   3.057  0.1808 -0.3084 -0.1129
 3464SOL    HW122025   1.762   3.238   3.139  0.9160 -3.1303  1.5769
 3464SOL    HW222026   1.671   3.205   3.030  1.3203  2.2644 -2.3229
 3465SOL     OW22027   3.207   1.533  13.844  0.2265  0.6284 -0.3178
 3465SOL    HW122028   3.118   1.564  13.830 -0.2106 -0.8754 -0.9021
 3465SOL    HW222029   3.218   1.527  13.939  2.7715 -3.5395 -0.8494
 3466SOL     OW22030   4.450   4.456  15.051 -0.0656  0.2218  0.9097
 3466SOL    HW122031   4.410   4.486  15.133 -0.4037 -0.3393  0.9527
 3466SOL    HW222032   4.533   4.427  15.087 -1.0736 -0.2122  2.8950
 3467SOL     OW22033   1.296   1.239   0.626  0.1890 -0.3628  0.6403
 3467SOL    HW122034   1.281   1.171   0.561 -0.2444 -0.9883  1.4071
 3467SOL    HW222035   1.231   1.301   0.592 -0.9483 -1.3430  1.0518
 3468SOL     OW22036   2.842   3.392   5.885  0.6722 -0.1729  0.2376
 3468SOL    HW122037   2.852   3.340   5.965 -0.8788  0.4827  0.8610
 3468SOL    HW222038   2.767   3.448   5.904  2.2671  1.5723  1.4477
 3469SOL     OW22039   2.966   0.723   8.147  0.1877  0.3455 -0.1449
 3469SOL    HW122040   2.989   0.655   8.083 -0.3396 -1.1835  1.2683
 3469SOL    HW222041   2.882   0.690   8.180  0.4802 -0.5195 -0.2614
 3470SOL     OW22042   2.769   2.050   7.385  0.0400 -0.0235  0.0133
 3470SOL    HW122043   2.803   2.017   7.302  0.9042  0.6045  0.1267
 3470SOL    HW222044   2.804   1.988   7.449  1.1929 -1.2226 -1.7722
 3471SOL     OW22045   0.970   0.822   7.064  0.1336  0.0381  0.2571
 3471SOL    HW122046   0.982   0.740   7.016 -1.2830  0.9474 -1.6664
 3471SOL    HW222047   1.015   0.805   7.147 -0.8567  1.2794  1.0392
 3472SOL     OW22048   1.179   2.136  12.521  0.4716  0.2813 -0.2547
 3472SOL    HW122049   1.256   2.094  12.559  0.9297  0.5876 -0.8489
 3472SOL    HW222050   1.111   2.069  12.532 -0.5631  1.4090  0.2195
 3473SOL     OW22051   0.674   3.528   8.035  0.2551 -0.2127  0.0928
 3473SOL    HW122052   0.603   3.592   8.025 -0.2600 -0.8797 -0.5082
 3473SOL    HW222053   0.631   3.449   8.004  1.8968 -0.4076 -1.6596
 3474SOL     OW22054   0.442   3.388   5.821 -0.1902 -0.5267 -0.1447
 3474SOL    HW122055   0.425   3.299   5.790 -0.3219 -0.7443  0.5574
 3474SOL    HW222056   0.537   3.398   5.815 -0.3334  0.7612 -0.3366
 3475SOL     OW22057   3.952   1.611   1.494 -0.2967  0.4518  0.2353
 3475SOL    HW122058   3.876   1.562   1.462 -0.1632 -1.6533  3.2375
 3475SOL    HW222059   3.986   1.651   1.413  0.7051 -1.0199 -0.0608
 3476SOL     OW22060   1.225   1.207   8.589  0.2419  0.1749 -0.2458
 3476SOL    HW122061   1.225   1.113   8.573  2.1580  0.0818  0.3977
 3476SOL    HW222062   1.136   1.217   8.624 -0.6229 -0.3976 -2.2901
 3477SOL     OW22063   0.545   4.562   2.519 -0.7524  0.5498 -0.4737
 3477SOL    HW122064   0.633   4.572   2.554 -0.3853 -1.9699 -0.6908
 3477SOL    HW222065   0.497   4.592   2.596  0.1431 -1.6897  0.9260
 3478SOL     OW22066   4.642   4.426   6.507  0.0711 -0.8312 -0.2912
 3478SOL    HW122067   4.630   4.521   6.502 -1.2139 -0.9816 -0.0551
 3478SOL    HW222068   4.718   4.410   6.561 -0.3812 -0.4824  0.4450
 3479SOL     OW22069   0.296   4.433   2.904 -0.0462  0.3327 -0.2830
 3479SOL    HW122070   0.215   4.463   2.862  0.9362  0.9033 -1.7753
 3479SOL    HW222071   0.266   4.441   2.994 -0.7309  1.9802 -0.6527
 3480SOL     OW22072   1.984   0.496   6.116  0.0426  0.5586  0.5864
 3480SOL    HW122073   1.889   0.494   6.120 -0.0075  0.6986 -0.4244
 3480SOL    HW222074   1.997   0.586   6.085 -0.4320 -0.3404 -2.1878
 3481SOL     OW22075   4.317   2.093  14.371 -0.1087 -0.4437  0.5875
 3481SOL    HW122076   4.316   2.177  14.325  2.4050 -1.3908 -1.1880
 3481SOL    HW222077   4.349   2.127  14.454  1.5692  0.1526 -0.2996
 3482SOL     OW22078   0.665   1.570  10.478 -0.2295 -0.3005 -0.4016
 3482SOL    HW122079   0.644   1.612  10.394  0.9291 -1.8128 -1.4622
 3482SOL    HW222080   0.616   1.628  10.536 -0.1812 -0.9167  0.2593
 3483SOL     OW22081   4.329   2.218   6.547 -0.8022 -0.3048  0.4498
 3483SOL    HW122082   4.258   2.226   6.611 -1.9622 -0.8784 -0.7475
 3483SOL    HW222083   4.366   2.306   6.539  1.4656 -1.2450  0.5835
 3484SOL     OW22084   2.254   4.157   3.992  0.1187  0.2076  0.2057
 3484SOL    HW122085   2.311   4.210   3.936 -0.6344  0.8267  0.0189
 3484SOL    HW222086   2.321   4.105   4.036 -2.4493 -2.7110  0.6568
 3485SOL     OW22087   2.079   4.335  10.767  0.1740 -0.3274  0.0312
 3485SOL    HW122088   2.123   4.361  10.848 -0.9102 -0.9168  0.8050
 3485SOL    HW222089   2.107   4.244  10.759  0.0040 -0.5321  1.8450
 3486SOL     OW22090   1.669   3.146   6.584  0.4767 -0.3217 -0.1111
 3486SOL    HW122091   1.621   3.104   6.513 -2.1310 -0.3297  1.6532
 3486SOL    HW222092   1.628   3.102   6.658  0.7752 -0.6676 -0.1536
 3487SOL     OW22093   1.331   0.349   5.155 -0.4506 -0.1984 -0.4897
 3487SOL    HW122094   1.277   0.379   5.083  0.7610 -2.0613 -2.1898
 3487SOL    HW222095   1.404   0.303   5.112  0.1762 -0.7379  1.1477
 3488SOL     OW22096   3.077   0.346   5.976  0.1238 -0.4578 -0.1493
 3488SOL    HW122097   3.015   0.397   6.027  1.6048  0.9392  0.2505
 3488SOL    HW222098   3.085   0.405   5.901  1.3582 -1.4204 -0.7925
 3489SOL     OW22099   1.212   0.535   9.099  0.2066 -0.1660 -0.0998
 3489SOL    HW122100   1.225   0.441   9.108  2.2985  0.2702  1.3487
 3489SOL    HW222101   1.244   0.552   9.010  0.8558 -0.8963 -0.0099
 3490SOL     OW22102   3.385   2.812   3.099  0.2198 -0.5627 -0.5990
 3490SOL    HW122103   3.294   2.812   3.130 -0.1849 -0.5859 -1.8081
 3490SOL    HW222104   3.430   2.844   3.177 -0.6728  0.6031 -0.5729
 3491SOL     OW22105   3.126   0.922   0.893 -0.1448 -1.0405  0.0528
 3491SOL    HW122106   3.112   0.998   0.949 -4.1517 -1.5453 -0.2528
 3491SOL    HW222107   3.213   0.951   0.863 -0.3899  0.0502  0.4015
 3492SOL     OW22108   0.475   3.956  14.944 -0.5599 -0.4065 -0.3331
 3492SOL    HW122109   0.534   4.024  14.914  1.7115 -2.3873 -0.3806
 3492SOL    HW222110   0.479   3.896  14.869 -0.6607 -1.0913  0.2103
 3493SOL     OW22111   3.588   2.470   3.957  0.0510  0.5200  0.1665
 3493SOL    HW122112   3.546   2.519   4.027  1.7496  0.2595  1.3603
 3493SOL    HW222113   3.578   2.530   3.883 -0.2763  0.4574  0.1569
 3494SOL     OW22114   3.801   1.678   6.621 -0.1812 -0.0955 -0.0888
 3494SOL    HW122115   3.762   1.665   6.707 -0.3099 -1.4146 -0.3461
 3494SOL    HW222116   3.860   1.751   6.641  1.8635 -1.4463 -1.1163
 3495SOL     OW22117   2.704   2.790   7.327 -0.6479  0.1818  0.1096
 3495SOL    HW122118   2.612   2.813   7.336 -1.0904 -0.8380 -1.6906
 3495SOL    HW222119   2.737   2.879   7.317  1.0498 -0.4037  0.3492
 3496SOL     OW22120   3.640   0.188   6.739 -0.0674  0.1098 -0.2282
 3496SOL    HW122121   3.572   0.164   6.802 -1.2625 -0.6518 -1.8005
 3496SOL    HW222122   3.707   0.231   6.792  1.3038  0.1876 -2.0242
 3497SOL     OW22123   0.989   4.115  16.545 -0.1339 -0.1109 -0.1143
 3497SOL    HW122124   0.925   4.157  16.486 -1.5326  0.3837  1.7724
 3497SOL    HW222125   0.998   4.037  16.489  1.2489  2.1475 -3.0734
 3498SOL     OW22126   3.195   3.704   2.648  0.0812  0.2619  0.7902
 3498SOL    HW122127   3.107   3.743   2.648  0.6626  1.6351 -3.5417
 3498SOL    HW222128   3.168   3.613   2.641  0.8878  0.0703  0.2132
 3499SOL     OW22129   4.445   3.478   6.318 -0.2124 -0.1124 -0.3286
 3499SOL    HW122130   4.420   3.418   6.248 -1.2182  0.1920 -0.2315
 3499SOL    HW222131   4.405   3.431   6.391 -1.1050  0.5821 -0.3724
 3500SOL     OW22132   4.577   3.741   6.720 -0.4809 -0.1580 -0.7068
 3500SOL    HW122133   4.521   3.800   6.669  0.9439  1.1251 -0.7606
 3500SOL    HW222134   4.664   3.774   6.700 -0.6460  0.8316  0.2240
 3501SOL     OW22135   2.521   2.339   6.415 -0.0313 -0.2966 -0.0928
 3501SOL    HW122136   2.567   2.258   6.433  1.7158  1.1937  2.1561
 3501SOL    HW222137   2.568   2.390   6.349  2.7800  0.6940  2.6785
 3502SOL     OW22138   4.231   0.819   7.881 -0.6756  0.7053  0.0994
 3502SOL    HW122139   4.236   0.829   7.976  0.7567 -0.7335  0.1865
 3502SOL    HW222140   4.157   0.759   7.873  1.2462 -1.6096 -0.3156
 3503SOL     OW22141   0.083   4.561   1.867 -0.1305 -0.0905 -0.6801
 3503SOL    HW122142   0.009   4.553   1.927  0.3906 -0.4853 -0.0882
 3503SOL    HW222143   0.086   4.466   1.854  0.6244 -0.2261  0.4363
 3504SOL     OW22144   0.392   4.391   6.639  0.0396 -0.1162 -0.5215
 3504SOL    HW122145   0.379   4.337   6.561  2.4902  0.3505 -1.2623
 3504SOL    HW222146   0.486   4.385   6.657  0.0079 -0.8336 -0.5936
 3505SOL     OW22147   4.274   0.610   1.931 -0.4101  0.0971  0.4585
 3505SOL    HW122148   4.254   0.575   2.018  0.7404 -2.0521 -0.1446
 3505SOL    HW222149   4.219   0.549   1.881 -0.2340 -2.3463  3.2303
 3506SOL     OW22150   2.659   0.483   7.573 -0.4138 -0.3896  0.9039
 3506SOL    HW122151   2.618   0.557   7.619  2.4756  0.6216  1.8681
 3506SOL    HW222152   2.588   0.419   7.580  0.9536 -1.8513  1.3159
 3507SOL     OW22153   0.826   4.419   8.559 -0.3546 -0.1516  0.1459
 3507SOL    HW122154   0.735   4.439   8.584 -0.3664 -0.6000  0.4672
 3507SOL    HW222155   0.828   4.323   8.567 -2.3116 -0.0432  2.0152
 3508SOL     OW22156   0.092   0.081  11.667  0.0419 -0.3632  0.2043
 3508SOL    HW122157   0.161   0.025  11.702  1.3303  0.7235 -0.5793
 3508SOL    HW222158   0.071   0.145  11.735 -4.2439 -0.0194 -1.4580
 3509SOL     OW22159   2.690   1.452   5.355 -0.7365  0.3105  0.6481
 3509SOL    HW122160   2.780   1.429   5.334 -0.6054  0.6522  0.8383
 3509SOL    HW222161   2.671   1.504   5.277 -0.0602 -0.4865 -0.0521
 3510SOL     OW22162   4.347   2.844   3.925 -0.0520 -0.2577  0.1794
 3510SOL    HW122163   4.258   2.824   3.894 -0.1251 -1.0726  0.9059
 3510SOL    HW222164   4.392   2.800   3.854 -0.2329  0.0706 -0.1414
 3511SOL     OW22165   2.807   4.676  11.581  0.0698 -0.7406 -0.0276
 3511SOL    HW122166   2.793   0.021  11.625  0.9038  0.7188 -2.5472
 3511SOL    HW222167   2.801   4.695  11.487 -0.4793  0.5991  0.2700
 3512SOL     OW22168   3.933   0.543  13.937  0.0504  0.7157 -0.6022
 3512SOL    HW122169   3.991   0.467  13.938 -1.4436 -0.4377  0.1957
 3512SOL    HW222170   3.964   0.582  13.855 -0.4147  1.6234 -0.3552
 3513SOL     OW22171   1.558   0.022   5.520 -0.1151 -0.1056  0.8454
 3513SOL    HW122172   1.480   0.025   5.576 -0.5741 -2.1996  0.3081
 3513SOL    HW222173   1.619   0.002   5.591 -0.4677 -0.0632  1.1629
 3514SOL     OW22174   2.397   0.735   7.279  0.8470 -0.3110  0.9388
 3514SOL    HW122175   2.393   0.831   7.286 -0.6737 -0.3712  0.7865
 3514SOL    HW222176   2.491   0.724   7.291  0.8149 -2.2447 -0.7014
 3515SOL     OW22177   4.211   3.232   2.661  0.4752  0.1933 -0.2625
 3515SOL    HW122178   4.189   3.146   2.625 -3.2875 -0.2074  3.0245
 3515SOL    HW222179   4.126   3.273   2.678  0.7154  1.1940 -1.4002
 3516SOL     OW22180   1.155   4.164   9.507 -0.6090  0.2594 -0.2455
 3516SOL    HW122181   1.149   4.112   9.427  0.0586  0.6176 -0.5273
 3516SOL    HW222182   1.062   4.153   9.527  0.0298 -3.6772  0.4184
 3517SOL     OW22183   4.237   1.173  16.663 -0.0189  0.2900  0.2793
 3517SOL    HW122184   4.303   1.242  16.671  0.2483  0.2794 -1.7698
 3517SOL    HW222185   4.211   1.200  16.575 -1.3956 -2.5052 -0.1893
 3518SOL     OW22186   0.759   2.307   4.061 -0.4589  0.0245  0.0131
 3518SOL    HW122187   0.674   2.273   4.032  0.1436 -3.0308  1.8678
 3518SOL    HW222188   0.791   2.318   3.971  0.5777 -2.2550  0.0823
 3519SOL     OW22189   0.664   3.206  10.123  0.0129  0.3959  0.3160
 3519SOL    HW122190   0.710   3.179  10.044  0.0821  0.9795  0.1559
 3519SOL    HW222191   0.578   3.237  10.094 -0.5594 -0.1271  1.4302
 3520SOL     OW22192   3.576   0.905   2.045 -0.0398 -0.3846  0.0502
 3520SOL    HW122193   3.650   0.909   2.105  0.9182 -2.4103 -1.0246
 3520SOL    HW222194   3.505   0.939   2.101 -1.6419 -0.5202 -1.8904
 3521SOL     OW22195   4.693   1.391   5.022  0.1308  0.3714 -0.2130
 3521SOL    HW122196   0.022   1.393   5.090 -0.0091 -0.2838 -0.0511
 3521SOL    HW222197   4.655   1.479   5.022  2.0018  1.1905 -2.0249
 3522SOL     OW22198   1.024   1.567   8.627 -0.3917 -0.0003  0.2587
 3522SOL    HW122199   0.962   1.558   8.554  0.4740  0.1943 -0.5086
 3522SOL    HW222200   1.065   1.481   8.626  1.2418  0.7904 -0.4456
 3523SOL     OW22201   1.217   0.872   9.629  0.0330 -0.2348 -0.2471
 3523SOL    HW122202   1.262   0.803   9.677  2.5071  1.4456 -0.1739
 3523SOL    HW222203   1.285   0.931   9.596  1.1127 -2.0487 -1.2815
 3524SOL     OW22204   0.499   2.524   6.116  0.1205 -0.2003  0.4017
 3524SOL    HW122205   0.575   2.582   6.117 -2.2282  2.9216 -1.7813
 3524SOL    HW222206   0.521   2.465   6.188 -0.7465  0.9251  1.5849
 3525SOL     OW22207   4.382   1.877   1.989 -0.1770  0.3463  0.5161
 3525SOL    HW122208   4.295   1.855   1.954 -0.7356  1.5146  1.1477
 3525SOL    HW222209   4.432   1.799   1.968 -2.3765 -0.5552 -1.3628
 3526SOL     OW22210   4.479   3.420  12.946 -0.1337  0.0980  0.0943
 3526SOL    HW122211   4.508   3.451  12.861  1.5507 -0.6206  0.4234
 3526SOL    HW222212   4.385   3.432  12.929  0.0627  1.6244  0.0355
 3527SOL     OW22213   1.909   2.051   8.180 -0.0009 -1.2088 -0.2376
 3527SOL    HW122214   1.910   1.968   8.227  2.3069 -0.6054  0.7635
 3527SOL    HW222215   1.815   2.058   8.165  0.0880 -0.5162 -0.4607
 3528SOL     OW22216   1.685   3.728   5.006  0.3996  0.0775  0.1305
 3528SOL    HW122217   1.680   3.824   5.005  2.7210  0.1907 -0.6487
 3528SOL    HW222218   1.777   3.727   4.980  0.3927 -3.0433  0.2065
 3529SOL     OW22219   1.325   1.892   4.216 -0.3277 -0.0062 -0.9986
 3529SOL    HW122220   1.396   1.839   4.253 -0.3603 -0.3906 -1.4927
 3529SOL    HW222221   1.259   1.824   4.203  0.5204 -0.2224 -4.0368
 3530SOL     OW22222   1.015   2.195   8.240 -0.2120  0.7384  0.6164
 3530SOL    HW122223   0.986   2.104   8.247  0.1438  0.7116  1.7155
 3530SOL    HW222224   1.108   2.190   8.220 -1.0240 -1.2755 -2.5875
 3531SOL     OW22225   3.769   1.307   5.534 -0.1216 -0.2762  0.7486
 3531SOL    HW122226   3.760   1.400   5.556  1.9862  0.3386 -1.0065
 3531SOL    HW222227   3.793   1.273   5.620  0.2966 -0.8017  0.4196
 3532SOL     OW22228   1.907   2.045   2.562 -0.1578 -0.6800 -0.5790
 3532SOL    HW122229   1.828   2.042   2.509 -0.1852 -1.0080 -0.5170
 3532SOL    HW222230   1.864   2.077   2.641  1.4198  1.4994 -0.6037
 3533SOL     OW22231   0.278   4.734  11.278 -0.1848  0.0344  0.2379
 3533SOL    HW122232   0.272   0.080  11.235 -0.9406 -1.0091 -1.7394
 3533SOL    HW222233   0.186   4.712  11.293 -0.4315  3.8188  3.9878
 3534SOL     OW22234   0.328   4.503  12.755  0.6410 -0.1144  0.1760
 3534SOL    HW122235   0.390   4.444  12.713  0.9942  1.2170 -1.1990
 3534SOL    HW222236   0.268   4.528  12.684  0.7343 -0.6242 -0.0774
 3535SOL     OW22237   1.438   4.701   2.656 -0.3823 -0.5554  0.1215
 3535SOL    HW122238   1.516   4.654   2.684  0.2055  0.3937  0.0729
 3535SOL    HW222239   1.370   4.638   2.680  0.5297 -1.6805 -0.2596
 3536SOL     OW22240   3.329   1.822   3.351 -0.7712 -0.1763 -0.4656
 3536SOL    HW122241   3.250   1.859   3.312 -1.1075 -0.0474  0.3329
 3536SOL    HW222242   3.357   1.760   3.284  0.5492  2.6727 -2.5870
 3537SOL     OW22243   0.886   0.357   8.152  0.1625 -0.0091  0.3884
 3537SOL    HW122244   0.819   0.406   8.105  0.7698  1.6482  1.2430
 3537SOL    HW222245   0.833   0.298   8.206 -2.2516  1.5921 -0.2768
 3538SOL     OW22246   1.749   3.655  10.013  0.2391  0.3120 -0.0616
 3538SOL    HW122247   1.760   3.562  10.030  1.2974  0.4452 -0.0576
 3538SOL    HW222248   1.700   3.674  10.092 -0.2399 -2.6189  0.3541
 3539SOL     OW22249   4.270   4.681   8.572 -0.6227  0.0283 -0.0955
 3539SOL    HW122250   4.237   4.664   8.660 -0.1622  2.7239  0.6090
 3539SOL    HW222251   4.304   0.031   8.586 -2.7103  1.0685 -1.4838
 3540SOL     OW22252   0.691   0.082  11.891  0.1396 -0.1004  0.8761
 3540SOL    HW122253   0.748   0.062  11.817 -0.9346 -0.5485  0.1705
 3540SOL    HW222254   0.616   0.125  11.848  2.0083  3.0715  0.7800
 3541SOL     OW22255   0.424   0.874   5.085  0.2381  0.1518 -0.1046
 3541SOL    HW122256   0.443   0.832   5.001 -0.5962 -0.6253  0.0835
 3541SOL    HW222257   0.341   0.830   5.103  0.1301 -0.0147 -1.0506
 3542SOL     OW22258   2.273   0.516   8.237 -0.2203  0.0417  0.0585
 3542SOL    HW122259   2.193   0.536   8.188 -0.7417 -0.2405  0.7897
 3542SOL    HW222260   2.323   0.484   8.162 -0.9380 -3.0680  0.8957
 3543SOL     OW22261   2.071   3.535  10.785 -0.1537  0.8016 -0.4057
 3543SOL    HW122262   2.074   3.540  10.690  2.5915  0.0687 -0.3446
 3543SOL    HW222263   2.165   3.529  10.801 -0.3369 -1.7204 -0.1649
 3544SOL     OW22264   1.948   0.352  17.157 -0.0941 -0.2118  0.0789
 3544SOL    HW122265   1.897   0.432  17.157 -0.4603 -0.4470 -0.0485
 3544SOL    HW222266   1.890   0.284  17.123 -2.6667  2.0708 -0.0875
 3545SOL     OW22267   1.206   0.654  12.132 -0.0228  0.2527 -0.0703
 3545SOL    HW122268   1.249   0.737  12.151  1.1147 -0.2144 -0.6452
 3545SOL    HW222269   1.164   0.670  12.048  0.3561  2.6901  0.2042
 3546SOL     OW22270   0.979   1.015   6.602  0.0520 -0.0476  0.3808
 3546SOL    HW122271   1.066   1.052   6.584  0.1238 -1.0516 -1.3897
 3546SOL    HW222272   0.984   0.933   6.553  0.8515 -0.7727  1.6434
 3547SOL     OW22273   0.974   2.013   7.361 -0.3598  0.3926  0.0271
 3547SOL    HW122274   0.917   2.083   7.394  2.9529  2.6357  0.9963
 3547SOL    HW222275   1.058   2.049   7.391 -1.5831  1.0322  2.6807
 3548SOL     OW22276   3.117   1.669   1.778 -0.0986  0.6098  0.0816
 3548SOL    HW122277   3.033   1.712   1.763 -0.6782  0.1232  2.0481
 3548SOL    HW222278   3.181   1.740   1.772  0.6612 -0.0485  0.4175
 3549SOL     OW22279   0.664   3.465  15.904  0.2982 -0.6885  0.3377
 3549SOL    HW122280   0.595   3.407  15.871 -1.1194 -0.4488  2.8995
 3549SOL    HW222281   0.736   3.428  15.852 -0.9376 -1.1407 -1.0289
 3550SOL     OW22282   0.830   1.676   9.066  0.0269  0.6132 -0.7867
 3550SOL    HW122283   0.860   1.766   9.083 -0.9150  0.9044 -0.6191
 3550SOL    HW222284   0.755   1.682   9.125  1.6828 -0.5772  1.4345
 3551SOL     OW22285   2.392   1.291   6.814 -0.4308  0.3489  0.4538
 3551SOL    HW122286   2.337   1.362   6.847 -2.0618 -0.6738 -0.0490
 3551SOL    HW222287   2.369   1.212   6.862 -0.5761 -0.3047 -0.6912
 3552SOL     OW22288   0.433   2.360  16.714 -0.2057 -0.0658  0.4315
 3552SOL    HW122289   0.417   2.412  16.792 -0.4564  0.8398 -0.2300
 3552SOL    HW222290   0.376   2.285  16.729 -1.3730  1.1880  2.1768
 3553SOL     OW22291   0.444   4.145   4.728  0.3880  0.0885  0.2283
 3553SOL    HW122292   0.514   4.094   4.688  0.3011 -0.1097  0.3288
 3553SOL    HW222293   0.373   4.081   4.722 -0.4745  1.1406 -0.7983
 3554SOL     OW22294   1.836   2.279   5.412 -0.3963 -0.4626  0.0991
 3554SOL    HW122295   1.785   2.314   5.339 -0.3286  0.3195  0.4246
 3554SOL    HW222296   1.890   2.219   5.361  2.1136  0.8809  1.1749
 3555SOL     OW22297   3.927   3.903  16.334  0.3123  0.1607 -0.3638
 3555SOL    HW122298   3.969   3.983  16.366  1.0735  0.9965 -3.3538
 3555SOL    HW222299   3.835   3.923  16.319 -0.6239 -2.2518  2.4242
 3556SOL     OW22300   1.872   4.338   7.969 -0.0412  0.1943  0.4375
 3556SOL    HW122301   1.890   4.409   8.031  0.0763 -1.4275  2.2506
 3556SOL    HW222302   1.943   4.279   7.994 -0.3957  0.1190  1.2617
 3557SOL     OW22303   3.229   2.313  12.760 -0.2147 -0.2837  0.4170
 3557SOL    HW122304   3.209   2.273  12.845  1.5862  1.2808  1.5856
 3557SOL    HW222305   3.228   2.234  12.707  0.8962 -0.3575  0.5165
 3558SOL     OW22306   1.371   2.271   2.731  0.0065  0.2428  0.3438
 3558SOL    HW122307   1.285   2.308   2.711  0.1933 -0.4007 -1.6281
 3558SOL    HW222308   1.365   2.189   2.681  0.2264 -0.2669  1.1508
 3559SOL     OW22309   3.591   1.646   7.440  0.3647  0.3184 -0.0802
 3559SOL    HW122310   3.596   1.550   7.443  3.6576  0.4566 -0.8770
 3559SOL    HW222311   3.665   1.681   7.489  0.6098  0.9370 -0.8913
 3560SOL     OW22312   3.192   0.432  13.997 -0.3225 -0.3543  0.6562
 3560SOL    HW122313   3.151   0.502  14.047  1.1754  0.5176  0.6594
 3560SOL    HW222314   3.153   0.360  14.047 -2.5009  0.5892  0.3023
 3561SOL     OW22315   0.711   4.627   7.977  0.1691 -0.9614 -1.1384
 3561SOL    HW122316   0.626   4.660   7.948  1.6001  2.4549 -1.4334
 3561SOL    HW222317   0.684   4.538   8.003  0.1337 -0.5848  0.1213
 3562SOL     OW22318   1.284   4.070   2.788 -0.0852 -0.2663 -0.0989
 3562SOL    HW122319   1.221   4.126   2.742  0.0270 -0.3280 -0.3277
 3562SOL    HW222320   1.312   4.005   2.723  0.7038 -0.1135  0.0809
 3563SOL     OW22321   0.429   0.566   5.445  0.0950 -0.0580 -0.0217
 3563SOL    HW122322   0.380   0.550   5.526  0.6263  0.0529  0.3281
 3563SOL    HW222323   0.356   0.569   5.383  1.3611  0.3393 -1.4979
 3564SOL     OW22324   3.848   4.490   5.265 -0.2075  0.3562 -0.3875
 3564SOL    HW122325   3.760   4.495   5.228 -0.9598 -1.6291  1.1369
 3564SOL    HW222326   3.829   4.440   5.344  0.0347  0.1141 -0.4820
 3565SOL     OW22327   0.447   1.524  17.337  0.3095 -0.1952  0.0724
 3565SOL    HW122328   0.472   1.591  17.401  0.3306 -1.2091  1.1142
 3565SOL    HW222329   0.482   1.566  17.258  0.9028  0.1794  0.5368
 3566SOL     OW22330   0.127   3.453   5.487 -0.2363  0.3471  0.0228
 3566SOL    HW122331   0.080   3.390   5.542  0.9589 -0.4599  0.1243
 3566SOL    HW222332   0.105   3.421   5.400  1.3559  0.3826 -0.3934
 3567SOL     OW22333   1.122   2.312   5.666  0.0908 -0.7256 -0.0180
 3567SOL    HW122334   1.063   2.241   5.641 -2.4485  1.7445 -1.0513
 3567SOL    HW222335   1.195   2.280   5.614  0.2708  1.0550 -0.8442
 3568SOL     OW22336   0.303   0.242  10.291 -0.4069  0.3574 -0.3151
 3568SOL    HW122337   0.210   0.264  10.302 -1.1473 -2.4046 -1.0788
 3568SOL    HW222338   0.317   0.288  10.209 -1.5341  1.7162  0.2524
 3569SOL     OW22339   0.003   4.336   8.419 -0.2667  0.0850  0.0400
 3569SOL    HW122340   4.727   4.272   8.349  2.5218  0.9813 -1.3502
 3569SOL    HW222341   0.033   4.413   8.371  0.0183  0.3645  0.6658
 3570SOL     OW22342   0.760   4.493  16.907  0.0298 -0.2441 -0.2191
 3570SOL    HW122343   0.701   4.507  16.832  1.3766  0.3339 -1.1578
 3570SOL    HW222344   0.797   4.580  16.917 -1.1209  0.2904 -0.5950
 3571SOL     OW22345   1.545   0.250   3.470  0.2065 -0.0027 -0.3593
 3571SOL    HW122346   1.601   0.315   3.428 -0.8331  1.5322  0.6333
 3571SOL    HW222347   1.587   0.172   3.434  3.0979 -0.0987  3.2003
 3572SOL     OW22348   1.141   1.027   9.366 -0.1590  0.2329 -0.2863
 3572SOL    HW122349   1.060   0.982   9.391  2.3441 -2.7951  2.3573
 3572SOL    HW222350   1.150   1.095   9.433  1.3246  1.1155 -1.3875
 3573SOL     OW22351   2.057   3.503   9.476  0.0467  0.5237  0.0014
 3573SOL    HW122352   2.031   3.555   9.551 -0.6330  0.0008  0.1294
 3573SOL    HW222353   2.090   3.419   9.509 -1.5983 -0.7370 -1.5405
 3574SOL     OW22354   3.130   3.375   8.144 -0.2712 -0.2501 -0.5825
 3574SOL    HW122355   3.092   3.288   8.145  1.7028 -1.1160  0.0174
 3574SOL    HW222356   3.208   3.361   8.198 -0.6965  0.9894  0.3520
 3575SOL     OW22357   3.213   2.365  11.493 -0.1466  0.0205  0.3450
 3575SOL    HW122358   3.268   2.429  11.449 -0.8496 -0.0473 -0.6379
 3575SOL    HW222359   3.269   2.341  11.567 -0.4841  0.7442  0.8410
 3576SOL     OW22360   2.321   3.964   8.085  0.2927  0.0061 -1.1435
 3576SOL    HW122361   2.379   4.022   8.036  1.3758 -0.3562 -0.2827
 3576SOL    HW222362   2.252   4.028   8.098  1.9092  1.2948  1.0752
 3577SOL     OW22363   4.342   3.435   7.068  0.0344 -0.0952  0.2814
 3577SOL    HW122364   4.254   3.421   7.104  0.7435  1.0446  2.4371
 3577SOL    HW222365   4.314   3.456   6.978 -1.0500  0.3715  0.7272
 3578SOL     OW22366   4.158   1.565   6.188 -0.0455 -0.2374  0.3872
 3578SOL    HW122367   4.091   1.516   6.140 -0.4113  2.3813 -1.7193
 3578SOL    HW222368   4.124   1.547   6.276  0.7179 -1.8476  0.3696
 3579SOL     OW22369   0.813   4.269   0.010 -0.4523  0.3274 -0.3398
 3579SOL    HW122370   0.752   4.230   0.072 -1.0405  1.5277 -0.1620
 3579SOL    HW222371   0.873   4.195   0.012 -0.7898  0.0389 -0.7649
 3580SOL     OW22372   2.179   3.108   5.773  0.5585  0.0955  0.0556
 3580SOL    HW122373   2.247   3.072   5.830  0.8148  1.6830  0.7633
 3580SOL    HW222374   2.175   3.043   5.703  0.4657  1.4917 -1.2375
 3581SOL     OW22375   2.005   1.995   9.227 -0.5067 -0.0447 -0.3332
 3581SOL    HW122376   1.938   1.943   9.272 -0.7071  0.3117 -0.2169
 3581SOL    HW222377   1.964   2.081   9.224 -0.2945  0.0883  0.4368
 3582SOL     OW22378   2.760   4.672  11.938 -0.1786 -0.1384  0.5990
 3582SOL    HW122379   2.810   4.689  12.018  0.7836  1.2145 -0.2878
 3582SOL    HW222380   2.775   4.579  11.920  2.4957  0.0463  1.8881
 3583SOL     OW22381   2.113   3.448   7.243 -0.1724  0.0540 -0.6858
 3583SOL    HW122382   2.160   3.467   7.325  0.8395 -0.7247 -1.0809
 3583SOL    HW222383   2.074   3.530   7.213 -2.6713 -1.2243 -0.8477
 3584SOL     OW22384   2.049   3.214   4.983  0.1807 -0.2020 -0.0087
 3584SOL    HW122385   2.105   3.207   5.061 -1.9758 -0.8144  1.4899
 3584SOL    HW222386   2.012   3.301   4.998 -0.2516 -0.4148  0.1431
 3585SOL     OW22387   1.564   0.165  10.360 -0.3272  0.0192  0.1099
 3585SOL    HW122388   1.471   0.164  10.384 -0.3135  1.3881  0.1885
 3585SOL    HW222389   1.567   0.227  10.288 -0.2692  1.3731  1.2802
 3586SOL     OW22390   0.025   2.806   5.029  0.2038  0.1057  0.6872
 3586SOL    HW122391   4.738   2.892   4.997 -2.2267 -0.9343 -0.1875
 3586SOL    HW222392   0.053   2.761   4.949 -0.6613  0.5192  0.1419
 3587SOL     OW22393   1.999   0.721   7.246  0.2116 -0.5063  0.6011
 3587SOL    HW122394   2.035   0.668   7.317 -0.2567 -1.1038  0.4032
 3587SOL    HW222395   1.991   0.653   7.178 -0.3898  0.7205 -0.5509
 3588SOL     OW22396   2.962   1.961   6.721 -0.2353  0.1846 -0.2063
 3588SOL    HW122397   2.966   2.054   6.743  1.3994 -0.2287  1.2368
 3588SOL    HW222398   2.870   1.937   6.719 -0.4152  0.9247 -1.1050
 3589SOL     OW22399   3.670   2.422   6.971 -0.0605  0.2059 -0.5309
 3589SOL    HW122400   3.585   2.447   6.935  0.0763  0.6933 -0.5196
 3589SOL    HW222401   3.697   2.504   7.014  1.9240 -0.9322  0.3858
 3590SOL     OW22402   1.415   1.606   5.300 -0.1161 -0.4826  0.2841
 3590SOL    HW122403   1.331   1.562   5.281 -0.5859  0.6207 -0.1667
 3590SOL    HW222404   1.394   1.698   5.285  0.5011 -0.1007  1.7572
 3591SOL     OW22405   3.031   0.571  14.188  0.3261 -0.6558  0.2913
 3591SOL    HW122406   3.028   0.584  14.283 -1.0008 -2.4671  0.5002
 3591SOL    HW222407   2.944   0.553  14.154 -0.0630  1.4894  0.1710
 3592SOL     OW22408   0.398   3.915   3.091 -0.1642 -0.1483 -0.4846
 3592SOL    HW122409   0.316   3.958   3.069 -0.2863 -1.1325 -1.9390
 3592SOL    HW222410   0.403   3.869   3.007 -2.5053 -0.1902 -0.6019
 3593SOL     OW22411   3.888   2.828   9.926  0.4757 -0.1684  0.4019
 3593SOL    HW122412   3.859   2.802  10.013 -1.5899 -0.4873 -0.3951
 3593SOL    HW222413   3.961   2.887   9.946  0.1953  1.5289 -3.5808
 3594SOL     OW22414   4.068   0.844  15.717 -0.1148  0.3265 -0.5891
 3594SOL    HW122415   4.069   0.862  15.811  2.0700  0.3681 -0.6145
 3594SOL    HW222416   4.071   0.935  15.687  1.6290  0.6366  0.5004
 3595SOL     OW22417   0.488   2.858   5.366  0.2414  0.1056 -0.4403
 3595SOL    HW122418   0.475   2.774   5.412  0.6435 -0.2057 -0.8948
 3595SOL    HW222419   0.440   2.847   5.284 -0.3674 -0.5836  0.0009
 3596SOL     OW22420   0.529   3.645  16.080 -0.5256  0.1888 -0.3307
 3596SOL    HW122421   0.583   3.722  16.060 -0.3779  1.0484  3.2695
 3596SOL    HW222422   0.558   3.578  16.018 -0.7091 -0.1143 -0.0896
 3597SOL     OW22423   2.292   0.638   7.521  0.2540  0.3017  0.7867
 3597SOL    HW122424   2.333   0.651   7.435  1.9920  0.9624  1.6999
 3597SOL    HW222425   2.202   0.615   7.501  0.7728 -0.4841 -0.6554
 3598SOL     OW22426   0.424   2.403  14.243 -0.2966 -0.5487  0.3195
 3598SOL    HW122427   0.347   2.460  14.246  0.3607  0.4409 -1.4487
 3598SOL    HW222428   0.495   2.467  14.237 -2.1230  1.5867  1.6812
 3599SOL     OW22429   1.038   4.296   1.203  0.3039 -0.0787  0.2619
 3599SOL    HW122430   1.083   4.269   1.123 -2.3389 -2.0625 -0.5729
 3599SOL    HW222431   1.094   4.315   1.277  0.4304  0.7446 -0.0524
 3600SOL     OW22432   0.563   2.609  13.941 -0.1299  0.6422  0.0085
 3600SOL    HW122433   0.550   2.669  14.015  0.2710  2.4073 -1.3579
 3600SOL    HW222434   0.620   2.542  13.979 -1.9479 -1.0559 -0.3036
 3601SOL     OW22435   0.731   0.319   0.459 -0.2078 -0.0931 -0.2443
 3601SOL    HW122436   0.793   0.392   0.464 -1.6705  1.1512 -0.3420
 3601SOL    HW222437   0.781   0.254   0.509  1.5507  0.0370 -1.8183
 3602SOL     OW22438   1.109   0.027   5.348  0.8587  0.8253  0.2751
 3602SOL    HW122439   1.150   4.711   5.281  0.1813  1.3097 -0.5212
 3602SOL    HW222440   1.018   0.028   5.320  0.8875 -0.9203  0.0850
 3603SOL     OW22441   1.519   2.606  13.914  0.6247 -0.3021  0.1587
 3603SOL    HW122442   1.460   2.682  13.913  0.6300 -0.2993 -0.4955
 3603SOL    HW222443   1.527   2.587  14.007 -1.0199  2.1006  0.7950
 3604SOL     OW22444   4.479   3.570   1.874 -0.0623  1.0558 -0.2524
 3604SOL    HW122445   4.474   3.557   1.779  0.4092 -0.8546 -0.0113
 3604SOL    HW222446   4.396   3.616   1.882 -0.8007  0.1351 -2.5651
 3605SOL     OW22447   2.994   1.814   4.708 -0.0050 -0.8700 -0.3593
 3605SOL    HW122448   2.966   1.791   4.796  1.6412  2.1240  0.9405
 3605SOL    HW222449   3.015   1.906   4.721  0.1025 -0.8966 -0.3464
 3606SOL     OW22450   4.391   3.820   9.304  0.4048 -0.4618  0.0087
 3606SOL    HW122451   4.444   3.899   9.292  0.4244 -0.3816  0.6060
 3606SOL    HW222452   4.348   3.838   9.388 -0.5215  1.3651 -0.8673
 3607SOL     OW22453   0.301   2.365   7.617  0.3672  0.6539 -0.4846
 3607SOL    HW122454   0.240   2.435   7.593 -0.6699 -0.4199 -0.9785
 3607SOL    HW222455   0.355   2.404   7.686 -1.0335  0.5919  0.6621
 3608SOL     OW22456   2.466   1.040   7.574  0.7772 -0.2580 -0.2909
 3608SOL    HW122457   2.428   1.113   7.624  1.9175  0.5000 -0.5197
 3608SOL    HW222458   2.537   1.087   7.529  1.2025 -1.9046 -1.3176
 3609SOL     OW22459   2.073   0.917   8.600  0.1717  0.9167  0.2290
 3609SOL    HW122460   2.018   0.898   8.676  0.3228 -1.4629 -0.2776
 3609SOL    HW222461   2.026   0.991   8.561 -1.3632 -0.1156  0.1180
 3610SOL     OW22462   1.508   0.120   9.909 -0.5052 -0.1705 -0.4064
 3610SOL    HW122463   1.560   0.192   9.875 -2.0529  0.3720 -1.6066
 3610SOL    HW222464   1.562   0.045   9.883 -0.8855 -0.7860  0.5296
 3611SOL     OW22465   3.834   1.581   2.270  0.3717 -0.1604  0.2550
 3611SOL    HW122466   3.842   1.672   2.245  2.3638 -0.3468  0.2500
 3611SOL    HW222467   3.886   1.583   2.350 -0.3483  0.8395  0.6989
 3612SOL     OW22468   3.481   1.437   9.128 -0.0895 -0.3247 -0.4589
 3612SOL    HW122469   3.388   1.460   9.125 -0.1362 -0.3974  0.4440
 3612SOL    HW222470   3.502   1.474   9.042  0.8724 -0.5822 -0.3288
 3613SOL     OW22471   1.774   3.128   9.731  0.1437  0.4539  0.1062
 3613SOL    HW122472   1.680   3.144   9.731  0.2025  0.7985 -0.2881
 3613SOL    HW222473   1.821   3.210   9.744 -3.3176  1.9170  3.3820
 3614SOL     OW22474   0.038   2.042  15.815 -0.0348  0.7285  0.1893
 3614SOL    HW122475   0.093   1.975  15.775 -0.8986  0.2884 -0.2604
 3614SOL    HW222476   0.032   2.018  15.908 -0.6774  2.0009  0.4834
 3615SOL     OW22477   0.183   1.189   1.573  0.9310  0.3831  0.0714
 3615SOL    HW122478   0.242   1.222   1.640  0.2341  0.1013  0.8227
 3615SOL    HW222479   0.237   1.119   1.536  1.9620  1.1625  0.1264
 3616SOL     OW22480   3.575   3.345   9.906  0.2415  0.5493  0.2214
 3616SOL    HW122481   3.593   3.277   9.840 -0.2287  0.0970  0.5631
 3616SOL    HW222482   3.641   3.320   9.971 -0.6883 -0.3668  0.8017
 3617SOL     OW22483   3.159   4.429   4.266 -0.1109  0.3772  0.5341
 3617SOL    HW122484   3.232   4.417   4.206 -0.5897  0.4726 -0.0626
 3617SOL    HW222485   3.210   4.438   4.347 -0.5488  1.2863  0.7057
 3618SOL     OW22486   1.101   1.220   3.769  0.4595  0.4218 -0.2206
 3618SOL    HW122487   1.132   1.238   3.857  1.5011  0.8481 -0.6742
 3618SOL    HW222488   1.140   1.295   3.725  1.8045  0.3811  0.9074
 3619SOL     OW22489   1.578   2.409   3.228  0.6808  0.3813 -0.0826
 3619SOL    HW122490   1.582   2.504   3.218  0.8478  0.4184  0.3129
 3619SOL    HW222491   1.587   2.388   3.135  0.3312 -0.0441 -0.0196
 3620SOL     OW22492   1.271   2.785  12.137  0.3913 -0.3149 -0.1844
 3620SOL    HW122493   1.211   2.824  12.201 -0.3178  0.4505 -1.3186
 3620SOL    HW222494   1.220   2.748  12.065  2.8779 -1.8088 -1.1677
 3621SOL     OW22495   4.404   0.499   4.931  0.5210 -0.0715  0.0982
 3621SOL    HW122496   4.456   0.556   4.874  0.3331  0.5389  0.5261
 3621SOL    HW222497   4.475   0.467   4.986 -0.7124 -0.4199  1.4781
 3622SOL     OW22498   3.879   4.475  10.607 -0.9850  0.3013 -0.1771
 3622SOL    HW122499   3.849   4.465  10.697 -1.1973 -1.4353 -0.4398
 3622SOL    HW222500   3.834   4.558  10.588  0.4741  1.6805  2.2991
 3623SOL     OW22501   1.549   3.455   6.768  0.2957 -0.8825 -0.2834
 3623SOL    HW122502   1.468   3.410   6.743 -1.2092  1.3132  0.6803
 3623SOL    HW222503   1.543   3.479   6.860 -1.3239 -0.1035 -0.5901
 3624SOL     OW22504   1.418   4.619  13.343  0.5357 -0.3102 -0.7133
 3624SOL    HW122505   1.450   4.709  13.340 -0.8843  0.1848 -1.0276
 3624SOL    HW222506   1.442   4.593  13.254 -3.3542  0.1750 -1.9040
 3625SOL     OW22507   1.071   1.570   0.287  0.7258  0.2444  0.0027
 3625SOL    HW122508   1.080   1.479   0.316 -1.2131  0.3798  1.0268
 3625SOL    HW222509   1.051   1.559   0.194  2.5926 -0.8018 -0.2711
 3626SOL     OW22510   4.265   2.271   7.205  0.4165 -0.4256 -0.3450
 3626SOL    HW122511   4.300   2.343   7.257  2.2608 -1.3808 -0.2262
 3626SOL    HW222512   4.286   2.317   7.124  2.6001  0.9930  1.0260
 3627SOL     OW22513   2.136   1.053   4.425  0.7389  0.3493  0.3766
 3627SOL    HW122514   2.125   0.992   4.499 -2.0017 -2.1995 -2.1103
 3627SOL    HW222515   2.131   1.138   4.468  0.9183  0.2465  0.6010
 3628SOL     OW22516   3.229   0.806   4.713 -0.0083  0.4721 -0.6072
 3628SOL    HW122517   3.267   0.876   4.661  2.2035 -0.8998 -0.8202
 3628SOL    HW222518   3.296   0.739   4.725 -0.3676  0.1332 -0.4470
 3629SOL     OW22519   4.481   0.147   5.171 -0.0313 -0.1877  0.2564
 3629SOL    HW122520   4.388   0.128   5.180 -0.2510  0.3451 -0.9629
 3629SOL    HW222521   4.516   0.136   5.260  0.1010 -0.1993  0.2038
 3630SOL     OW22522   0.094   1.759  16.268  0.5926 -0.6995 -0.2349
 3630SOL    HW122523   0.107   1.821  16.196 -0.8672 -0.9370 -0.7025
 3630SOL    HW222524   0.104   1.675  16.224 -0.4114  0.2012 -2.1923
 3631SOL     OW22525   1.829   4.467   6.804  0.2100 -0.2464 -0.2539
 3631SOL    HW122526   1.813   4.479   6.710  0.2853 -2.8100 -0.6062
 3631SOL    HW222527   1.917   4.431   6.811  0.3001 -0.0062 -0.1496
 3632SOL     OW22528   1.857   0.155  10.230 -0.1127  0.0340 -0.1932
 3632SOL    HW122529   1.870   0.103  10.309 -1.8537  0.1789  0.2000
 3632SOL    HW222530   1.773   0.200  10.235  0.1309  0.4018  0.6224
 3633SOL     OW22531   2.866   0.252   3.515  0.0657 -0.0488  0.2463
 3633SOL    HW122532   2.792   0.199   3.544  2.2554 -2.2227  1.8118
 3633SOL    HW222533   2.828   0.308   3.446 -0.0656  1.1000  1.2482
 3634SOL     OW22534   3.461   2.553   9.191 -0.5677 -0.1044 -0.0116
 3634SOL    HW122535   3.482   2.486   9.256 -0.9227  1.0336  1.2871
 3634SOL    HW222536   3.545   2.575   9.152  0.4005 -2.7438  0.6010
 3635SOL     OW22537   0.059   4.227   4.165  0.4904 -0.0201  0.3574
 3635SOL    HW122538   0.115   4.283   4.219 -0.7281  1.8067 -0.2606
 3635SOL    HW222539   0.122   4.161   4.137 -1.2007 -1.7815  0.6781
 3636SOL     OW22540   0.443   4.302  11.869  0.5139  0.4302  0.9631
 3636SOL    HW122541   0.378   4.240  11.903  0.0484  0.3069 -0.1290
 3636SOL    HW222542   0.499   4.249  11.811 -1.6975  1.3921 -2.0581
 3637SOL     OW22543   1.564   3.458   8.072 -0.2615 -0.9429  0.1630
 3637SOL    HW122544   1.512   3.444   7.992 -0.6459 -0.6148  0.3555
 3637SOL    HW222545   1.636   3.398   8.054 -0.4621 -0.4741 -2.1952
 3638SOL     OW22546   4.512   1.124   1.386 -0.2753 -0.3837  1.1074
 3638SOL    HW122547   4.596   1.113   1.342  0.2728 -0.7189  2.2212
 3638SOL    HW222548   4.526   1.071   1.465 -0.0806  0.8650  1.9111
 3639SOL     OW22549   1.839   0.578   8.268  0.3558 -0.3732  0.4336
 3639SOL    HW122550   1.772   0.549   8.329 -1.0732 -0.3886 -1.1424
 3639SOL    HW222551   1.855   0.666   8.304 -1.2264 -0.1865  0.6798
 3640SOL     OW22552   4.634   0.618   5.867  0.6095 -0.1481  0.5737
 3640SOL    HW122553   4.673   0.699   5.833 -0.4574  0.4388  0.7226
 3640SOL    HW222554   4.623   0.568   5.786  1.1296 -0.8209  0.9231
 3641SOL     OW22555   4.672   0.756   5.522  0.2536 -0.0386 -0.0990
 3641SOL    HW122556   4.680   0.835   5.469 -3.1224  1.3307  1.4230
 3641SOL    HW222557   4.629   0.792   5.600  1.7354  0.6621  0.3997
 3642SOL     OW22558   3.487   3.767   2.172  0.0470  0.0482  0.1767
 3642SOL    HW122559   3.502   3.861   2.164 -1.8745  0.2533 -0.9608
 3642SOL    HW222560   3.558   3.737   2.114 -2.2518 -0.5142 -2.3486
 3643SOL     OW22561   0.585   0.690   1.400 -0.0917  0.3015  0.0706
 3643SOL    HW122562   0.648   0.686   1.472 -0.7043  1.7433  0.6932
 3643SOL    HW222563   0.628   0.752   1.341 -2.0477  2.9617  1.4472
 3644SOL     OW22564   0.758   0.053   7.651 -0.0699 -0.2202  0.4229
 3644SOL    HW122565   0.835   0.026   7.701 -1.6856 -2.0036  1.9640
 3644SOL    HW222566   0.798   0.058   7.564  2.2354 -0.5164  1.4447
 3645SOL     OW22567   4.186   1.512  16.606 -0.5707  0.6936  0.4193
 3645SOL    HW122568   4.273   1.488  16.637 -1.5829  0.3048  2.9311
 3645SOL    HW222569   4.137   1.527  16.686 -2.9141  0.3547 -0.9533
 3646SOL     OW22570   2.010   3.208   3.418  0.0150  0.0427  0.2345
 3646SOL    HW122571   2.022   3.283   3.475 -0.3024 -0.4824  0.9856
 3646SOL    HW222572   1.992   3.258   3.338 -0.3085  0.3597  0.5085
 3647SOL     OW22573   3.927   0.886   4.938 -0.2250  0.0353  0.0417
 3647SOL    HW122574   3.866   0.954   4.968 -2.6577 -1.5515 -1.3418
 3647SOL    HW222575   4.000   0.928   4.893  1.0850 -1.2660  0.9749
 3648SOL     OW22576   1.926   2.361  13.668 -0.3096 -0.9809 -0.2499
 3648SOL    HW122577   1.962   2.429  13.611 -1.1042  0.2320  0.6873
 3648SOL    HW222578   1.844   2.406  13.690  0.5468  0.3728  0.1555
 3649SOL     OW22579   1.421   3.744   4.293  0.0094 -0.1349  0.4666
 3649SOL    HW122580   1.517   3.752   4.295  0.0448 -0.3547 -0.2909
 3649SOL    HW222581   1.409   3.752   4.388 -3.3452 -2.2158  0.1958
 3650SOL     OW22582   4.096   0.646   2.801  0.1705 -0.0864  0.1783
 3650SOL    HW122583   4.079   0.622   2.710  0.0276  1.8160 -0.3056
 3650SOL    HW222584   4.140   0.566   2.829  0.7036 -0.2561 -1.1412
 3651SOL     OW22585   3.469   0.837   9.109 -0.2781 -0.6130 -0.0189
 3651SOL    HW122586   3.454   0.798   9.023 -1.3247 -2.6238  1.0655
 3651SOL    HW222587   3.565   0.840   9.106 -0.2429 -0.1723  1.4924
 3652SOL     OW22588   0.464   4.310   1.929 -0.3549 -0.1416  0.3207
 3652SOL    HW122589   0.502   4.385   1.883  2.5337 -0.3464  2.3517
 3652SOL    HW222590   0.483   4.242   1.864  0.0948  0.1729  0.1281
 3653SOL     OW22591   3.233   3.184   8.989 -0.1894 -0.6968  0.0090
 3653SOL    HW122592   3.152   3.192   8.939 -2.2448 -0.8115  3.3732
 3653SOL    HW222593   3.290   3.227   8.925 -0.4536 -0.2108  0.1010
 3654SOL     OW22594   1.127   4.581  13.194  0.2756  0.1650  0.1573
 3654SOL    HW122595   1.032   4.584  13.182  0.3062 -0.6618 -0.2869
 3654SOL    HW222596   1.142   4.592  13.288 -0.0507 -1.6942  0.4434
 3655SOL     OW22597   2.352   0.342  11.009 -0.3023  0.3484 -0.6633
 3655SOL    HW122598   2.446   0.351  11.026 -0.5034  0.2983  0.5258
 3655SOL    HW222599   2.340   0.359  10.916 -1.3463 -0.5164 -0.6894
 3656SOL     OW22600   2.895   4.547   6.711  0.2872  0.7135  0.6011
 3656SOL    HW122601   2.982   4.568   6.746  0.5411 -0.7382  0.8377
 3656SOL    HW222602   2.882   4.457   6.741 -1.1244  0.6606 -0.1543
 3657SOL     OW22603   2.386   2.603   6.095  0.5656 -0.3088 -0.2750
 3657SOL    HW122604   2.435   2.638   6.022 -1.6832  2.6367 -0.3798
 3657SOL    HW222605   2.416   2.512   6.092  0.7535 -0.3035  1.3108
 3658SOL     OW22606   0.347   0.249  12.004 -0.7922 -0.5890 -0.6690
 3658SOL    HW122607   0.407   0.233  12.077 -1.1247 -1.4919 -0.5918
 3658SOL    HW222608   0.276   0.185  12.015 -1.0265 -0.2126  0.0507
 3659SOL     OW22609   4.200   3.243  13.174  0.3728 -0.2009 -0.2120
 3659SOL    HW122610   4.162   3.163  13.211  0.3659 -1.1170 -2.1880
 3659SOL    HW222611   4.206   3.217  13.082  0.0998 -0.6902 -0.0934
 3660SOL     OW22612   2.476   0.707   4.917 -0.2274 -0.0982  0.3787
 3660SOL    HW122613   2.413   0.672   4.854  0.7122  1.8657 -1.6482
 3660SOL    HW222614   2.534   0.761   4.864  1.3556 -1.2252  0.9576
 3661SOL     OW22615   1.569   1.141   0.473 -0.2362  0.4282  0.5662
 3661SOL    HW122616   1.592   1.161   0.382 -0.3005 -2.5866 -0.1154
 3661SOL    HW222617   1.512   1.216   0.490  0.5391  0.9686  0.7885
 3662SOL     OW22618   2.997   2.410   5.871  0.0666  0.5232 -0.1175
 3662SOL    HW122619   2.984   2.463   5.949  0.5729  0.5732 -0.0627
 3662SOL    HW222620   3.089   2.384   5.868  0.5297  1.7708  3.2270
 3663SOL     OW22621   4.712   4.503   6.025 -0.3342  0.6864  0.0179
 3663SOL    HW122622   0.063   4.533   6.012 -0.2496 -0.1124 -1.2357
 3663SOL    HW222623   4.676   4.493   5.937  1.6700  0.1445 -0.7498
 3664SOL     OW22624   3.754   3.903  14.822  0.0642  0.1144 -0.4707
 3664SOL    HW122625   3.682   3.966  14.818  0.0200  0.0960 -0.0073
 3664SOL    HW222626   3.749   3.846  14.745 -1.4040 -0.6905  0.2236
 3665SOL     OW22627   3.971   0.694  14.141 -0.0883  0.5215  0.5896
 3665SOL    HW122628   4.040   0.628  14.146 -1.5718 -1.1161 -0.2901
 3665SOL    HW222629   3.929   0.670  14.058  1.5225 -0.5292  0.0842
 3666SOL     OW22630   2.312   4.423   3.163 -0.0467 -0.5886 -0.4226
 3666SOL    HW122631   2.273   4.457   3.083  0.8021 -1.5198 -1.2381
 3666SOL    HW222632   2.403   4.454   3.156 -0.6668  0.7319 -2.7143
 3667SOL     OW22633   3.239   2.003   8.152  0.6787 -0.2672 -0.3910
 3667SOL    HW122634   3.182   2.051   8.212  1.4679  1.2953 -0.8942
 3667SOL    HW222635   3.247   2.066   8.081  1.4521 -1.0399 -0.9796
 3668SOL     OW22636   4.244   1.248   9.503 -0.5527 -0.0108  0.1505
 3668SOL    HW122637   4.207   1.329   9.468 -0.3889 -0.0794 -0.1897
 3668SOL    HW222638   4.338   1.258   9.485 -0.8795 -1.1243 -2.1751
 3669SOL     OW22639   1.753   0.198  15.925  0.3511  0.0909 -0.3177
 3669SOL    HW122640   1.764   0.193  15.830 -0.9584 -2.7544 -0.3286
 3669SOL    HW222641   1.786   0.109  15.938  4.1516  1.2052 -2.3291
 3670SOL     OW22642   3.933   3.822   5.119 -0.1281  0.3357 -0.2048
 3670SOL    HW122643   3.881   3.824   5.039 -1.4921  1.7139  0.7048
 3670SOL    HW222644   3.979   3.738   5.119 -0.2981  0.2479 -0.7734
 3671SOL     OW22645   0.384   1.818   7.856  0.0663  0.6060 -0.0387
 3671SOL    HW122646   0.306   1.871   7.841 -0.8304 -0.7805 -0.3631
 3671SOL    HW222647   0.403   1.841   7.947 -1.6822 -1.1403  0.7731
 3672SOL     OW22648   2.540   1.519  13.435  0.1431 -0.9309 -0.0123
 3672SOL    HW122649   2.525   1.581  13.364 -0.7228 -1.2118 -0.0692
 3672SOL    HW222650   2.631   1.538  13.460 -0.4900 -0.0637  1.6110
 3673SOL     OW22651   0.645   2.143   1.848 -0.5919  0.2459  0.0321
 3673SOL    HW122652   0.726   2.102   1.817  0.6625  1.4077  1.8049
 3673SOL    HW222653   0.623   2.079   1.916  0.0310  0.1355  0.1312
 3674SOL     OW22654   2.280   3.495   4.305  0.1592  0.2097  0.2464
 3674SOL    HW122655   2.244   3.443   4.376 -0.8310  2.0380  1.0640
 3674SOL    HW222656   2.371   3.466   4.307  0.6441  1.8166  1.3678
 3675SOL     OW22657   0.551   1.377   1.938 -0.4315  0.2603  0.0634
 3675SOL    HW122658   0.543   1.283   1.958  2.2912  0.3369  1.4201
 3675SOL    HW222659   0.642   1.394   1.963 -0.7973  1.9866  0.1682
 3676SOL     OW22660   4.294   2.318   7.820  0.1070  0.9328 -0.4789
 3676SOL    HW122661   4.215   2.281   7.859  0.3196  1.7366  0.7133
 3676SOL    HW222662   4.353   2.274   7.881  1.2949  1.5180 -1.1940
 3677SOL     OW22663   3.697   3.377  11.409 -0.1307  0.0232 -0.1386
 3677SOL    HW122664   3.676   3.367  11.316 -3.7212 -1.8510  0.8539
 3677SOL    HW222665   3.619   3.333  11.443  1.8791 -3.1007  0.3477
 3678SOL     OW22666   3.402   4.076  12.046 -0.0454 -0.1750  0.2286
 3678SOL    HW122667   3.424   3.983  12.038  1.3586  0.3392 -1.8248
 3678SOL    HW222668   3.368   4.093  11.959  1.7008 -0.9754 -0.6235
 3679SOL     OW22669   2.314   0.896  14.601 -0.4388  0.7629  0.6012
 3679SOL    HW122670   2.231   0.907  14.647 -0.7022 -2.5213  0.8912
 3679SOL    HW222671   2.362   0.850  14.669 -1.1617 -2.3050 -0.9671
 3680SOL     OW22672   0.251   3.064  12.267  0.5927 -0.1929 -0.0254
 3680SOL    HW122673   0.308   3.140  12.280  1.5432 -0.8779 -0.1997
 3680SOL    HW222674   0.166   3.105  12.251  0.0580 -0.6773  1.5232
 3681SOL     OW22675   1.532   3.202   7.903 -0.0313  1.0689 -0.5422
 3681SOL    HW122676   1.495   3.163   7.824  1.3617  1.4611 -1.3745
 3681SOL    HW222677   1.463   3.185   7.967 -0.0324  0.4557 -0.7046
 3682SOL     OW22678   3.609   2.381   5.105 -0.7026 -0.1947  0.4587
 3682SOL    HW122679   3.603   2.297   5.060 -2.8691 -0.4365  1.1751
 3682SOL    HW222680   3.696   2.383   5.143  0.4016 -0.2637 -2.0848
 3683SOL     OW22681   4.723   3.980   5.415  0.1176 -0.0168  0.0317
 3683SOL    HW122682   0.030   3.900   5.390 -0.3549 -0.3538  0.2335
 3683SOL    HW222683   4.737   3.984   5.510 -0.1255 -0.1000  0.0708
 3684SOL     OW22684   3.769   3.770   6.290  0.0739  0.3406 -0.3572
 3684SOL    HW122685   3.719   3.820   6.225  0.5066  1.2359 -0.0045
 3684SOL    HW222686   3.809   3.702   6.236 -1.4724 -1.2076  0.4095
 3685SOL     OW22687   0.370   2.763  15.449  0.2504 -0.1191 -0.0305
 3685SOL    HW122688   0.297   2.801  15.498 -0.2008 -1.6818  0.5214
 3685SOL    HW222689   0.433   2.835  15.451 -3.2498  2.9544 -0.9750
 3686SOL     OW22690   3.262   0.419   6.505  0.1079  0.2753 -0.1715
 3686SOL    HW122691   3.172   0.397   6.528 -0.0658  1.6354  0.3980
 3686SOL    HW222692   3.309   0.413   6.588  1.1113  0.5959 -0.7100
 3687SOL     OW22693   3.560   2.125  15.894 -0.8245 -0.6267 -0.0337
 3687SOL    HW122694   3.625   2.187  15.861 -1.5498  0.1370 -0.0085
 3687SOL    HW222695   3.515   2.179  15.959 -1.1325 -0.7345 -0.1578
 3688SOL     OW22696   2.161   0.199   7.592 -0.6219  0.5513 -0.8302
 3688SOL    HW122697   2.233   0.260   7.575  0.9225 -0.7966  0.9568
 3688SOL    HW222698   2.102   0.258   7.640 -1.4467 -0.6921 -0.3278
 3689SOL     OW22699   2.485   4.723  11.891  0.0472 -0.1298  0.4288
 3689SOL    HW122700   2.411   4.733  11.951 -1.1546  0.6954 -1.1760
 3689SOL    HW222701   2.560   4.684  11.935  1.4463  0.5953 -1.2880
 3690SOL     OW22702   2.106   1.700   6.124  0.1947  0.2334 -1.2246
 3690SOL    HW122703   2.016   1.734   6.124 -0.4195 -1.3990  0.7560
 3690SOL    HW222704   2.143   1.753   6.194  1.1478  1.5507 -2.7467
 3691SOL     OW22705   2.310   4.147   2.659  0.3822 -0.0516  0.2205
 3691SOL    HW122706   2.232   4.200   2.640  1.8398  1.8364 -0.4386
 3691SOL    HW222707   2.283   4.069   2.610  3.2745 -1.7696  1.3970
 3692SOL     OW22708   2.632   3.952   2.170 -0.8396 -0.3479 -0.0682
 3692SOL    HW122709   2.615   4.041   2.140  0.4100  0.1760  0.7817
 3692SOL    HW222710   2.570   3.953   2.243  0.4889 -1.1618  1.0883
 3693SOL     OW22711   4.728   0.001   5.792  0.0867 -0.5357  0.3420
 3693SOL    HW122712   0.057   0.068   5.790 -0.2317 -0.1551  3.8507
 3693SOL    HW222713   4.671   0.009   5.868 -0.9684 -0.8319 -0.4174
 3694SOL     OW22714   0.195   3.517   6.266 -0.8398  0.1516  0.0691
 3694SOL    HW122715   0.256   3.495   6.196 -1.3451 -2.5085  0.4636
 3694SOL    HW222716   0.251   3.560   6.331  1.6303 -1.7650 -0.7997
 3695SOL     OW22717   2.534   4.317   5.200  0.2696  0.0064  0.6344
 3695SOL    HW122718   2.625   4.334   5.225  0.3856 -0.3934  0.4846
 3695SOL    HW222719   2.544   4.349   5.110 -2.6285 -0.9839 -0.0255
 3696SOL     OW22720   2.585   4.105   1.073  0.0016 -0.7762 -0.5302
 3696SOL    HW122721   2.514   4.056   1.114 -2.4541  2.1060 -1.3976
 3696SOL    HW222722   2.539   4.180   1.036  1.7000  1.4458  1.8617
 3697SOL     OW22723   2.107   2.336   1.319  0.3094  0.1495  0.0004
 3697SOL    HW122724   2.107   2.397   1.392  1.3089  1.0684 -0.7726
 3697SOL    HW222725   2.174   2.272   1.344  0.5759  0.4986  0.1716
 3698SOL     OW22726   2.465   1.672   0.271  0.0535 -0.5609 -0.3152
 3698SOL    HW122727   2.519   1.627   0.206  0.2626 -1.3884  0.4292
 3698SOL    HW222728   2.426   1.742   0.219  0.9125 -0.6048 -1.0277
 3699SOL     OW22729   0.947   0.252  17.304 -0.5090  0.6817 -0.5046
 3699SOL    HW122730   0.932   0.172  17.253  1.0870 -0.1375  0.2813
 3699SOL    HW222731   1.033   0.225  17.339 -1.5289 -2.6748 -0.5887
 3700SOL     OW22732   3.727   2.809  15.723 -0.2652 -0.4973  0.0740
 3700SOL    HW122733   3.721   2.900  15.693 -1.4245 -0.0823  1.5653
 3700SOL    HW222734   3.695   2.759  15.648 -0.8450  0.9778 -0.6529
 3701SOL     OW22735   4.123   3.033   2.485  0.0314 -0.2276 -0.2155
 3701SOL    HW122736   4.097   3.079   2.405  1.7342  1.3692  0.1336
 3701SOL    HW222737   4.184   2.975   2.439  0.9833 -0.0225  0.7783
 3702SOL     OW22738   0.781   1.173  13.316  0.0557 -0.3548  0.3087
 3702SOL    HW122739   0.726   1.123  13.257 -1.4281 -0.3641  1.7131
 3702SOL    HW222740   0.866   1.146  13.282 -0.0041  2.1336 -1.8405
 3703SOL     OW22741   4.246   3.692   5.381 -0.9717 -0.5174  0.3657
 3703SOL    HW122742   4.336   3.724   5.387 -0.8888 -1.1134  2.4086
 3703SOL    HW222743   4.248   3.611   5.432  0.0864 -1.6656 -1.5192
 3704SOL     OW22744   2.311   2.821   3.495  0.2486 -0.3551 -0.0572
 3704SOL    HW122745   2.216   2.821   3.483  0.1908 -0.8841  0.3977
 3704SOL    HW222746   2.317   2.851   3.585  0.6983 -0.4599 -0.0516
 3705SOL     OW22747   3.383   1.959   0.339  0.3356 -0.0261  0.2277
 3705SOL    HW122748   3.313   1.898   0.319  0.9447 -0.2624 -1.1838
 3705SOL    HW222749   3.335   2.040   0.324  0.3320 -0.1265 -0.3020
 3706SOL     OW22750   0.537   3.860  16.401  0.1628  0.2858  0.3822
 3706SOL    HW122751   0.442   3.854  16.399  0.2050  0.0753 -1.0680
 3706SOL    HW222752   0.548   3.907  16.318  0.5267 -0.2486  0.1300
 3707SOL     OW22753   1.093   4.600   4.529 -0.2221  0.0217 -0.5174
 3707SOL    HW122754   1.167   4.541   4.519 -0.6632 -0.2017 -2.4732
 3707SOL    HW222755   1.030   4.552   4.584  0.4364 -0.0776  0.1442
 3708SOL     OW22756   3.041   2.248   8.714  0.4904 -0.1300 -0.5022
 3708SOL    HW122757   3.025   2.326   8.662 -1.4757  0.2478  0.6700
 3708SOL    HW222758   3.134   2.263   8.731  0.5629 -0.2759 -0.7669
 3709SOL     OW22759   3.073   0.280   6.296 -0.1467 -0.0056 -0.1419
 3709SOL    HW122760   3.109   0.340   6.230  3.4091 -0.8870  1.0027
 3709SOL    HW222761   3.033   0.340   6.359  0.4300  0.1642  0.0619
 3710SOL     OW22762   4.390   1.018   0.871  0.1758  0.2596 -0.4314
 3710SOL    HW122763   4.379   1.025   0.776  0.1131  0.2462 -0.4245
 3710SOL    HW222764   4.390   1.110   0.899 -2.2035 -0.4975  1.9906
 3711SOL     OW22765   1.509   1.505  16.093  0.2683  0.3598 -0.3768
 3711SOL    HW122766   1.581   1.458  16.052  0.4188 -0.6792  1.0994
 3711SOL    HW222767   1.541   1.502  16.183  0.6862 -0.1179 -0.5420
 3712SOL     OW22768   3.221   1.420   1.884 -0.0308 -0.1744 -0.0242
 3712SOL    HW122769   3.189   1.497   1.838 -2.2082 -1.3458 -0.4734
 3712SOL    HW222770   3.264   1.459   1.960 -0.8298 -0.2612  0.4788
 3713SOL     OW22771   1.946   1.910  11.842  0.0509  0.0069 -0.7222
 3713SOL    HW122772   1.971   1.921  11.934 -0.5040  2.9410 -0.9202
 3713SOL    HW222773   1.854   1.888  11.853  0.4031 -0.7239  0.7800
 3714SOL     OW22774   4.477   0.935  10.429  0.3278  0.2917 -0.8566
 3714SOL    HW122775   4.507   0.990  10.356  3.2684 -2.7728 -1.9512
 3714SOL    HW222776   4.419   0.877  10.380  0.5873 -0.4707 -0.2659
 3715SOL     OW22777   1.281   3.861   4.754  0.2183  0.4958  0.0403
 3715SOL    HW122778   1.333   3.920   4.809 -0.6384  2.4371 -1.2210
 3715SOL    HW222779   1.328   3.782   4.779  0.0841  0.2988 -0.3308
 3716SOL     OW22780   3.598   4.116   7.107  0.1763  0.1828 -0.8504
 3716SOL    HW122781   3.612   4.032   7.062  1.3410  0.2522 -0.6065
 3716SOL    HW222782   3.663   4.122   7.177  0.5571 -0.4576 -1.1538
 3717SOL     OW22783   2.889   0.340  14.308  0.7445  0.0447 -0.7758
 3717SOL    HW122784   2.904   0.284  14.385  1.3798  1.2866  0.0008
 3717SOL    HW222785   2.793   0.349  14.309  0.7191 -0.0840 -2.1673
 3718SOL     OW22786   1.045   4.180  11.770 -0.2807 -0.3532 -0.3601
 3718SOL    HW122787   1.081   4.227  11.695  0.4740  0.3943  0.4657
 3718SOL    HW222788   1.103   4.212  11.840 -1.6511  0.2493  0.4941
 3719SOL     OW22789   2.925   2.040   6.294  0.4070 -0.0642  0.0616
 3719SOL    HW122790   2.926   2.095   6.216 -1.2202 -1.9669 -1.2989
 3719SOL    HW222791   2.843   2.072   6.333 -0.3499 -0.5885 -1.0726
 3720SOL     OW22792   4.217   4.322   5.415  0.0644  0.4526  0.4182
 3720SOL    HW122793   4.312   4.315   5.423  0.0714 -0.3476 -0.3294
 3720SOL    HW222794   4.189   4.387   5.479 -2.0687 -1.4767  1.4848
 3721SOL     OW22795   4.518   0.222   7.983 -0.3303 -0.7242 -0.8423
 3721SOL    HW122796   4.503   0.153   7.919  2.5874 -0.3975 -1.8881
 3721SOL    HW222797   4.612   0.228   7.964  0.0070 -0.8111  0.7297
 3722SOL     OW22798   0.539   1.572   1.672  0.6207  0.2170 -0.0521
 3722SOL    HW122799   0.521   1.665   1.685  0.8212  0.6182 -2.5092
 3722SOL    HW222800   0.548   1.539   1.761 -0.0893 -1.6366 -0.6694
 3723SOL     OW22801   3.132   0.297  13.742 -0.1580  0.5198 -0.2568
 3723SOL    HW122802   3.171   0.332  13.662 -1.1967  1.1336 -0.4960
 3723SOL    HW222803   3.154   0.368  13.803 -0.3388  0.4167 -0.0694
 3724SOL     OW22804   0.152   3.807   2.739  0.8065 -0.1818 -0.1880
 3724SOL    HW122805   0.133   3.776   2.651 -0.9628 -2.7468  1.0907
 3724SOL    HW222806   0.177   3.896   2.713 -0.7438  0.0015 -1.0544
 3725SOL     OW22807   2.932   2.388  15.815 -0.1795 -0.2935  0.1192
 3725SOL    HW122808   2.963   2.444  15.886  0.0921  0.4141 -0.5517
 3725SOL    HW222809   2.839   2.409  15.820 -0.1531  0.2197 -1.5685
 3726SOL     OW22810   1.878   0.778   5.501  0.1232  0.0290  0.1175
 3726SOL    HW122811   1.828   0.780   5.582 -1.3768 -1.3394 -0.7608
 3726SOL    HW222812   1.832   0.724   5.436 -0.4556  2.6121 -1.6258
 3727SOL     OW22813   1.394   4.632   8.672  0.7394  0.1533  0.4250
 3727SOL    HW122814   1.430   4.543   8.667  1.1235  0.1740  3.1544
 3727SOL    HW222815   1.419   4.656   8.761 -1.0166 -0.6247  1.1196
 3728SOL     OW22816   1.200   3.990   3.835  0.6615  0.3636 -0.4541
 3728SOL    HW122817   1.228   3.962   3.922  0.9181 -1.8684 -1.2596
 3728SOL    HW222818   1.113   4.028   3.852  0.6936 -0.7491  2.1495
 3729SOL     OW22819   1.788   1.443   1.989 -0.0699  0.4493  0.5637
 3729SOL    HW122820   1.816   1.370   1.934 -1.9820 -0.7990  1.2420
 3729SOL    HW222821   1.718   1.474   1.932 -0.1271  0.5638  0.6974
 3730SOL     OW22822   4.113   0.726   3.531  0.0650 -0.4298 -1.0585
 3730SOL    HW122823   4.133   0.817   3.552  0.6515 -0.2970 -2.2156
 3730SOL    HW222824   4.028   0.706   3.570  0.1323 -1.7055 -1.5657
 3731SOL     OW22825   0.657   0.714   5.250 -0.3068 -0.2397  0.2505
 3731SOL    HW122826   0.601   0.691   5.324  0.1285 -2.2451 -0.0286
 3731SOL    HW222827   0.593   0.752   5.189  1.9279  0.3436 -1.7418
 3732SOL     OW22828   4.089   3.042   6.765 -0.2182  0.1482 -0.1090
 3732SOL    HW122829   4.008   3.092   6.758  1.2892  2.6560  0.6636
 3732SOL    HW222830   4.101   3.015   6.674  1.9501 -1.4434  0.6342
 3733SOL     OW22831   0.792   4.185   8.831 -0.2611  0.2917  0.1043
 3733SOL    HW122832   0.775   4.271   8.869 -1.5369 -1.0020  2.4934
 3733SOL    HW222833   0.798   4.130   8.909 -1.6465  1.2330  0.8630
 3734SOL     OW22834   4.412   2.256   3.287 -0.2224  0.7608  0.0549
 3734SOL    HW122835   4.406   2.177   3.232 -1.8505  3.2024 -3.2668
 3734SOL    HW222836   4.491   2.292   3.248 -0.9331  0.1081 -1.9977
 3735SOL     OW22837   0.147   3.865   5.006  1.1815  0.0225 -0.6915
 3735SOL    HW122838   0.099   3.848   4.925  0.7933  2.8120 -1.0601
 3735SOL    HW222839   0.148   3.961   5.008  0.3302 -0.0056  1.7295
 3736SOL     OW22840   3.010   2.047   5.828 -0.0684 -0.2332 -0.0105
 3736SOL    HW122841   3.053   2.023   5.746  1.6280  0.8792  0.5467
 3736SOL    HW222842   3.061   2.125   5.847 -1.3391  0.0122  2.3993
 3737SOL     OW22843   0.290   3.108   7.632 -0.3938  0.5179 -0.0211
 3737SOL    HW122844   0.361   3.065   7.679 -2.2055 -1.4757  0.8826
 3737SOL    HW222845   0.228   3.035   7.634 -1.4335  1.4296  0.7506
 3738SOL     OW22846   0.249   1.202   7.207 -0.5834 -0.5377 -0.1860
 3738SOL    HW122847   0.280   1.253   7.282 -1.4470 -3.1162  1.9293
 3738SOL    HW222848   0.332   1.181   7.166 -0.9615 -1.4532 -0.4755
 3739SOL     OW22849   4.434   3.816  16.191 -0.3236 -0.0338  0.4228
 3739SOL    HW122850   4.519   3.849  16.165 -0.3276  0.1285  0.6206
 3739SOL    HW222851   4.419   3.856  16.277 -0.5498  0.0634  0.3363
 3740SOL     OW22852   0.497   2.577   9.798  0.0871 -0.3435  0.5939
 3740SOL    HW122853   0.590   2.591   9.780  0.0387 -0.7955 -0.0216
 3740SOL    HW222854   0.456   2.613   9.719  0.6516 -1.1946 -0.0908
 3741SOL     OW22855   2.413   1.557   6.394 -0.5612 -0.0610  0.3492
 3741SOL    HW122856   2.503   1.553   6.427 -0.6904  0.8311  0.8180
 3741SOL    HW222857   2.428   1.529   6.304  0.3835 -2.0006  1.0956
 3742SOL     OW22858   1.852   2.143  13.519  0.2671  0.5411 -0.1326
 3742SOL    HW122859   1.785   2.173  13.457 -0.3171 -1.4769 -0.4572
 3742SOL    HW222860   1.885   2.221  13.563 -0.9213  0.9806 -0.0254
 3743SOL     OW22861   0.639   1.361   7.433 -0.3267 -0.3184  0.5105
 3743SOL    HW122862   0.718   1.308   7.447 -1.5508 -1.7239  2.0698
 3743SOL    HW222863   0.627   1.426   7.502 -0.2563 -0.8950  1.0696
 3744SOL     OW22864   1.062   2.040   3.953  0.0947  0.1943  0.3640
 3744SOL    HW122865   1.139   1.983   3.959  0.2451  0.2631 -0.8264
 3744SOL    HW222866   0.994   1.974   3.963 -1.1504  1.4542  0.2123
 3745SOL     OW22867   1.773   1.779   8.012  0.3696 -0.4802  0.1035
 3745SOL    HW122868   1.707   1.828   7.963  1.8559  1.3892 -0.0170
 3745SOL    HW222869   1.706   1.732   8.062 -2.3081  2.5584 -0.5611
 3746SOL     OW22870   0.583   0.672   4.188 -0.2865 -0.0741  0.4085
 3746SOL    HW122871   0.640   0.683   4.264  1.2503 -0.0060 -0.7535
 3746SOL    HW222872   0.541   0.590   4.213  1.2101 -1.0271 -0.2068
 3747SOL     OW22873   2.903   2.554   8.418 -0.3949 -0.2312  0.1323
 3747SOL    HW122874   2.927   2.586   8.505  1.5489  0.8271 -0.7853
 3747SOL    HW222875   2.841   2.624   8.399 -0.0157 -0.1346 -0.7556
 3748SOL     OW22876   1.688   1.791  11.839  0.1566  0.4632  0.0894
 3748SOL    HW122877   1.736   1.708  11.841 -1.8992 -0.7280  0.1495
 3748SOL    HW222878   1.641   1.768  11.758  2.1112 -1.4506 -0.5319
 3749SOL     OW22879   3.854   2.418   8.101 -1.0561  0.3892  0.5319
 3749SOL    HW122880   3.827   2.350   8.162  0.2501  0.1590  0.8524
 3749SOL    HW222881   3.787   2.404   8.034 -2.0862  1.8027  1.2573
 3750SOL     OW22882   2.800   3.343   8.548 -0.2185 -0.0536 -0.0644
 3750SOL    HW122883   2.886   3.332   8.510 -1.5963  0.5513 -3.3541
 3750SOL    HW222884   2.832   3.383   8.629  1.0800  0.1899 -0.7035
 3751SOL     OW22885   0.006   1.838  14.305 -0.4106  0.1064  0.4381
 3751SOL    HW122886   4.731   1.880  14.220 -1.2499 -0.9572  0.0474
 3751SOL    HW222887   4.667   1.782  14.310  0.1860 -0.7711 -0.0860
 3752SOL     OW22888   1.649   1.346   3.917  0.2783 -0.7800 -0.3278
 3752SOL    HW122889   1.691   1.425   3.882 -1.8036 -0.3934 -1.9153
 3752SOL    HW222890   1.726   1.306   3.958  1.0698  0.2448 -0.8200
 3753SOL     OW22891   1.797   4.009   3.309 -0.0597 -0.3672  0.0064
 3753SOL    HW122892   1.782   4.051   3.224  0.5660  0.6607  0.4018
 3753SOL    HW222893   1.851   3.932   3.289  0.2795  0.2067 -1.2886
 3754SOL     OW22894   2.639   4.192   4.032  0.3272  0.0235 -0.5170
 3754SOL    HW122895   2.559   4.145   4.054 -0.8684  2.7056  0.9164
 3754SOL    HW222896   2.692   4.113   4.027 -2.1218 -1.8752  3.2970
 3755SOL     OW22897   0.975   1.085  14.691  0.0385 -0.7030  0.8367
 3755SOL    HW122898   1.055   1.042  14.722  0.5423 -0.0201  0.4906
 3755SOL    HW222899   0.943   1.019  14.630  1.2870 -0.5029 -0.0404
 3756SOL     OW22900   0.637   4.593  15.477  0.8508  0.2436  0.2241
 3756SOL    HW122901   0.654   4.646  15.555 -1.2842  2.0849 -0.5757
 3756SOL    HW222902   0.607   4.662  15.419  1.8608  0.4205 -0.0858
 3757SOL     OW22903   4.504   2.976   8.919 -0.2228  0.0131 -1.2049
 3757SOL    HW122904   4.419   2.931   8.925 -0.0677 -0.1900 -0.6205
 3757SOL    HW222905   4.527   3.008   9.005  0.7092 -0.7494 -1.1775
 3758SOL     OW22906   1.334   0.355   4.382  0.0874  0.0949 -0.3532
 3758SOL    HW122907   1.333   0.450   4.372  0.8562  0.1232 -0.0942
 3758SOL    HW222908   1.319   0.328   4.292 -0.6526 -0.0977 -0.1768
 3759SOL     OW22909   4.412   3.258   8.870 -0.2575  0.2858 -0.3438
 3759SOL    HW122910   4.429   3.164   8.858  0.7715  0.5093 -0.6351
 3759SOL    HW222911   4.491   3.299   8.905  1.7320 -2.0059 -2.1466
 3760SOL     OW22912   4.067   1.536   9.428  0.4895 -0.0923 -0.2316
 3760SOL    HW122913   4.105   1.493   9.351  0.8121 -1.0467  0.4656
 3760SOL    HW222914   3.997   1.587   9.386  1.8287  2.1262  0.2624
 3761SOL     OW22915   4.679   2.627   6.585 -0.0010  0.1124  0.2536
 3761SOL    HW122916   4.724   2.549   6.616 -1.0306  0.4587  2.5968
 3761SOL    HW222917   0.009   2.679   6.543  1.2119 -0.2290  1.8243
 3762SOL     OW22918   0.012   3.801   8.384 -0.7289  0.3264 -0.2204
 3762SOL    HW122919   4.702   3.861   8.327  0.0998 -0.0054 -1.2821
 3762SOL    HW222920   0.058   3.739   8.327  0.9884 -0.1984  1.7543
 3763SOL     OW22921   0.669   4.448  14.537 -0.0056  0.2581  0.0545
 3763SOL    HW122922   0.631   4.389  14.602 -0.3981  1.8513  1.2566
 3763SOL    HW222923   0.743   4.487  14.584  0.9266 -1.8789  0.4035
 3764SOL     OW22924   2.612   1.410   5.056  0.1438  0.1847 -0.2891
 3764SOL    HW122925   2.520   1.418   5.029  0.5868  0.4963 -1.6904
 3764SOL    HW222926   2.609   1.317   5.081 -2.0194 -0.0138 -1.2939
 3765SOL     OW22927   4.298   2.525   7.291 -0.2026  0.5873  0.1245
 3765SOL    HW122928   4.268   2.597   7.237 -2.2799 -0.4617 -0.1021
 3765SOL    HW222929   4.300   2.563   7.379 -0.3261  2.6716 -0.7751
 3766SOL     OW22930   3.995   4.470   4.701  0.2395 -0.5128  0.2997
 3766SOL    HW122931   3.929   4.508   4.643  0.9109 -1.7167 -1.2410
 3766SOL    HW222932   4.073   4.524   4.687  0.8478 -1.7598 -1.0922
 3767SOL     OW22933   4.214   1.973  13.280 -0.3869 -0.2808 -0.3326
 3767SOL    HW122934   4.175   2.026  13.350 -1.5354 -1.8935  0.2660
 3767SOL    HW222935   4.217   2.034  13.207  0.1182 -0.4713 -0.4723
 3768SOL     OW22936   1.603   3.094  17.373 -0.1679  0.8511  0.6756
 3768SOL    HW122937   1.668   3.096  17.443  0.2564  0.5369  0.2907
 3768SOL    HW222938   1.657   3.064  17.300 -0.7686  0.3738  0.4198
 3769SOL     OW22939   1.108   2.883   9.508 -0.3317  0.2694 -0.5946
 3769SOL    HW122940   1.111   2.803   9.561  1.2737  0.3957 -0.4841
 3769SOL    HW222941   1.053   2.863   9.433 -0.8161  0.9864 -0.4308
 3770SOL     OW22942   0.191   3.826   9.709 -0.0478 -0.3298 -0.2419
 3770SOL    HW122943   0.098   3.803   9.712 -0.1268  0.1465  0.9751
 3770SOL    HW222944   0.229   3.753   9.758 -1.9999  0.4214  2.3797
 3771SOL     OW22945   0.632   1.865  10.165 -0.7542  0.9431 -0.1495
 3771SOL    HW122946   0.603   1.929  10.229 -0.2098  3.8645 -2.8646
 3771SOL    HW222947   0.633   1.917  10.085 -1.2399  0.9706 -0.1377
 3772SOL     OW22948   3.597   0.329   8.972  0.0420 -0.4856 -0.0457
 3772SOL    HW122949   3.552   0.265   8.917  2.5126 -3.5954  1.6211
 3772SOL    HW222950   3.685   0.299   8.990 -0.2875 -1.0186  0.6637
 3773SOL     OW22951   2.977   3.052  13.395 -0.0613 -0.0492  0.2725
 3773SOL    HW122952   2.985   3.136  13.439 -0.4375 -0.4373  1.0647
 3773SOL    HW222953   2.900   3.063  13.340  0.8177  0.2817 -0.9075
 3774SOL     OW22954   0.244   3.734   6.003  0.2192  0.2000 -0.0846
 3774SOL    HW122955   0.265   3.641   6.004  0.1865  0.2178  2.4361
 3774SOL    HW222956   0.314   3.765   6.061  1.3685 -0.1057 -1.3158
 3775SOL     OW22957   4.619   1.150   6.246  0.8015 -0.1543 -0.2304
 3775SOL    HW122958   4.561   1.210   6.201  0.4479  0.8636  1.5986
 3775SOL    HW222959   4.559   1.126   6.316  0.4771  1.2520 -0.0401
 3776SOL     OW22960   3.700   0.900   7.348 -0.1976 -0.0160  0.7406
 3776SOL    HW122961   3.760   0.964   7.309  0.9825 -1.7101 -0.2101
 3776SOL    HW222962   3.620   0.947   7.326 -0.8386 -0.0777  3.0334
 3777SOL     OW22963   2.091   1.018   2.577  0.3733 -0.4443  0.2012
 3777SOL    HW122964   2.102   0.925   2.557  1.4187 -0.3999  0.5819
 3777SOL    HW222965   2.142   1.051   2.503 -0.3107  2.5137  1.0654
 3778SOL     OW22966   3.982   4.552   3.079 -0.0642 -0.0349  0.1521
 3778SOL    HW122967   4.068   4.573   3.043  0.8734 -0.1328  2.3436
 3778SOL    HW222968   4.022   4.488   3.139  1.0020 -0.2210 -0.7585
 3779SOL     OW22969   3.907   1.033   6.744 -0.0557  0.3256 -0.2290
 3779SOL    HW122970   3.828   1.079   6.774 -0.5619 -1.8666  1.7704
 3779SOL    HW222971   3.976   1.095   6.769  0.1183 -0.7914  2.0718
 3780SOL     OW22972   3.310   0.305  14.235  0.3396 -0.0629  0.0426
 3780SOL    HW122973   3.340   0.256  14.312 -1.3989 -0.8014  0.2409
 3780SOL    HW222974   3.223   0.265  14.227 -0.1107  0.9152  0.1122
 3781SOL     OW22975   0.818   3.231   4.129  0.4534  0.0975 -0.1894
 3781SOL    HW122976   0.781   3.319   4.127 -2.0074 -0.9022  0.6170
 3781SOL    HW222977   0.865   3.237   4.212 -0.5102 -0.1612  0.3807
 3782SOL     OW22978   1.762   2.588   2.163  0.2761 -0.1742  0.0303
 3782SOL    HW122979   1.842   2.616   2.209 -0.1153  0.2730  0.4350
 3782SOL    HW222980   1.701   2.660   2.179 -0.1502 -0.2777 -1.1523
 3783SOL     OW22981   1.922   1.052   0.220 -0.0015  0.6661  0.1296
 3783SOL    HW122982   1.866   0.984   0.258  1.2876 -0.6014 -0.2031
 3783SOL    HW222983   1.905   1.126   0.278 -0.5214 -0.2855  1.1919
 3784SOL     OW22984   2.428   2.606   2.468  0.6445 -0.1851  0.2200
 3784SOL    HW122985   2.514   2.628   2.503  0.9173 -1.3609  0.3040
 3784SOL    HW222986   2.462   2.532   2.417 -0.8913  1.5447 -3.3526
 3785SOL     OW22987   1.866   2.938   1.888  0.1119 -0.6298  0.3245
 3785SOL    HW122988   1.834   3.024   1.917  0.1989 -0.0575 -1.2839
 3785SOL    HW222989   1.950   2.930   1.933  0.5899 -1.9569 -0.8223
 3786SOL     OW22990   1.502   1.329  15.066  0.3471 -0.2666 -0.1639
 3786SOL    HW122991   1.491   1.384  14.988  0.3587 -0.2951 -0.1856
 3786SOL    HW222992   1.596   1.315  15.058  0.5384  1.6009 -1.3548
 3787SOL     OW22993   1.561   1.191  14.650  0.3519  0.4211  0.0787
 3787SOL    HW122994   1.495   1.137  14.692 -0.0272  1.6678  1.0857
 3787SOL    HW222995   1.623   1.180  14.722 -1.5321 -0.1189  1.6090
 3788SOL     OW22996   1.016   2.224   6.043 -0.3014  0.2219 -0.0544
 3788SOL    HW122997   0.966   2.239   6.123 -0.2779  2.7173 -0.5182
 3788SOL    HW222998   1.003   2.131   6.026 -2.3773  0.2249  1.4740
 3789SOL     OW22999   1.865   3.403   5.477  0.1030 -0.2513 -0.2182
 3789SOL    HW123000   1.950   3.403   5.433  1.1302  1.7319  1.7626
 3789SOL    HW223001   1.834   3.494   5.476 -0.1130 -0.3167  0.4380
 3790SOL     OW23002   4.564   3.513   1.341 -0.4495 -0.4521 -0.5738
 3790SOL    HW123003   4.570   3.599   1.299  2.4818 -0.3771 -0.0052
 3790SOL    HW223004   4.553   3.461   1.261 -1.7938 -0.5546 -0.3176
 3791SOL     OW23005   2.130   1.966   2.923  0.8320  0.3949 -0.0273
 3791SOL    HW123006   2.131   1.878   2.884  0.7516 -0.3837  1.7367
 3791SOL    HW223007   2.059   1.963   2.987  1.8134 -0.8578  0.9837
 3792SOL     OW23008   4.666   3.773   1.932 -0.4512  0.1791 -0.1066
 3792SOL    HW123009   4.671   3.729   2.017 -0.8786 -2.8028 -1.6375
 3792SOL    HW223010   4.588   3.724   1.905 -1.4065  1.2055  0.7819
 3793SOL     OW23011   2.994   0.576   7.694 -0.0629  0.1527 -0.3277
 3793SOL    HW123012   3.043   0.517   7.637 -1.2015  0.3900 -1.5353
 3793SOL    HW223013   3.030   0.658   7.660  0.8153 -0.9684 -2.0695
 3794SOL     OW23014   4.075   3.776  17.705 -0.1959 -0.1127 -0.1884
 3794SOL    HW123015   4.112   3.863  17.719  2.0340 -0.9248 -1.0294
 3794SOL    HW223016   4.007   3.796  17.640  0.8934 -0.7681 -1.5432
 3795SOL     OW23017   1.071   2.440   1.290  0.5892  0.0221  0.1965
 3795SOL    HW123018   1.021   2.520   1.273  0.9521  0.3872  0.8464
 3795SOL    HW223019   1.158   2.478   1.274 -0.3064  1.7391 -0.6453
 3796SOL     OW23020   2.741   2.516   6.319 -0.0588 -0.0210 -0.2433
 3796SOL    HW123021   2.678   2.580   6.353 -2.1313 -1.9425 -0.4211
 3796SOL    HW223022   2.813   2.547   6.373 -1.0681 -0.2887  1.2681
 3797SOL     OW23023   3.032   1.839   4.178 -0.4193  0.5874 -0.3078
 3797SOL    HW123024   3.023   1.748   4.150  0.7829  0.1861  0.5839
 3797SOL    HW223025   2.958   1.842   4.238  0.1095  1.2622  0.3163
 3798SOL     OW23026   4.244   0.077   8.299  0.2614  0.1394  0.2984
 3798SOL    HW123027   4.275   0.004   8.351 -0.5064 -0.7329 -0.4652
 3798SOL    HW223028   4.280   0.066   8.211  1.7561  1.0793  0.7906
 3799SOL     OW23029   0.464   1.348  10.769 -0.5120 -0.7890 -0.2338
 3799SOL    HW123030   0.542   1.403  10.778  0.1011 -1.3738 -2.0235
 3799SOL    HW223031   0.444   1.348  10.676  0.3619 -1.4192 -0.4287
 3800SOL     OW23032   3.143   0.987  13.484  0.3747  0.4694  0.3786
 3800SOL    HW123033   3.131   1.082  13.487 -1.0367  0.2681  1.0872
 3800SOL    HW223034   3.071   0.962  13.542  0.4658  2.5715  1.4175
 3801SOL     OW23035   1.054   2.117   3.255 -0.1914  0.1279  0.1628
 3801SOL    HW123036   1.079   2.034   3.215  2.3052  0.5719  0.8015
 3801SOL    HW223037   1.123   2.173   3.219 -1.2826  0.2804 -1.6732
 3802SOL     OW23038   2.498   0.571   3.129 -0.0489  0.1299 -0.4174
 3802SOL    HW123039   2.438   0.499   3.111 -1.3671  1.4085 -1.1160
 3802SOL    HW223040   2.436   0.643   3.139 -0.4300 -0.2310 -0.1602
 3803SOL     OW23041   3.695   2.771   5.310  0.6051 -0.3742  0.1651
 3803SOL    HW123042   3.639   2.848   5.302  1.6629  0.4504  0.7175
 3803SOL    HW223043   3.769   2.795   5.365  1.3396 -0.3078 -0.8580
 3804SOL     OW23044   0.865   0.046   3.629  0.0636  0.0919 -0.4314
 3804SOL    HW123045   0.803   4.725   3.668  0.6641  0.1400  0.5841
 3804SOL    HW223046   0.882   0.021   3.538 -1.3686  0.6420 -0.8447
 3805SOL     OW23047   3.372   4.331   9.214  0.8897  0.2167  0.4143
 3805SOL    HW123048   3.351   4.238   9.219 -0.7254  0.6959  2.4810
 3805SOL    HW223049   3.305   4.367   9.156  0.1094 -1.0442  0.5145
 3806SOL     OW23050   4.136   2.277   2.511  0.2799 -0.1515 -0.0194
 3806SOL    HW123051   4.073   2.348   2.522  0.0247 -0.2564 -0.7952
 3806SOL    HW223052   4.144   2.258   2.604 -0.1454  0.9632  0.2447
 3807SOL     OW23053   0.368   1.596   5.719 -0.2269 -0.3381 -0.0132
 3807SOL    HW123054   0.310   1.543   5.773  0.2929  1.2939  2.1672
 3807SOL    HW223055   0.315   1.616   5.642 -0.0128  1.7785  0.3737
 3808SOL     OW23056   0.970   0.465   5.374  0.0842  0.0523 -0.8019
 3808SOL    HW123057   0.971   0.523   5.297  1.7736  1.1185  0.0110
 3808SOL    HW223058   1.036   0.397   5.360 -0.9585 -0.7052 -2.0185
 3809SOL     OW23059   3.714   4.146   2.749  0.1133  0.0274  0.1898
 3809SOL    HW123060   3.785   4.090   2.717  1.1472  0.9415  0.8763
 3809SOL    HW223061   3.769   4.224   2.763 -0.5558  0.5444 -0.0334
 3810SOL     OW23062   4.621   0.738  14.953  0.2268 -0.4120  0.1052
 3810SOL    HW123063   4.618   0.643  14.968 -1.0067 -0.7108 -1.9717
 3810SOL    HW223064   4.643   0.752  14.861  1.6943 -1.1064  0.3506
 3811SOL     OW23065   2.856   4.075   8.338  0.1250 -0.3928 -0.1078
 3811SOL    HW123066   2.822   3.998   8.384  0.2385  0.0099  0.6541
 3811SOL    HW223067   2.933   4.030   8.304  0.8456  1.0006 -0.2726
 3812SOL     OW23068   3.612   3.166   4.201 -0.0867  0.5213 -0.1752
 3812SOL    HW123069   3.560   3.163   4.120  1.7016 -0.3334 -1.2857
 3812SOL    HW223070   3.681   3.229   4.180 -0.6388  1.1771 -0.0092
 3813SOL     OW23071   0.890   4.167   8.586  0.7997  0.2587  0.2586
 3813SOL    HW123072   0.970   4.118   8.568 -1.2642 -2.1569 -2.4031
 3813SOL    HW223073   0.873   4.165   8.680 -1.6449 -0.9661 -0.1969
 3814SOL     OW23074   4.548   1.583   1.430 -0.0803  0.4146 -0.0952
 3814SOL    HW123075   4.587   1.663   1.465  0.4543  0.9304 -1.8260
 3814SOL    HW223076   4.620   1.568   1.368 -0.1345 -0.7807  0.1511
 3815SOL     OW23077   2.107   0.369   3.639  0.2499  0.7778  0.1936
 3815SOL    HW123078   2.035   0.317   3.603  2.4465 -0.6162 -2.1475
 3815SOL    HW223079   2.170   0.344   3.572  0.0748 -0.4191  0.4754
 3816SOL     OW23080   2.024   2.003  13.755 -0.1148  0.2602 -0.4845
 3816SOL    HW123081   1.949   1.978  13.808 -0.8402  1.7319 -0.8277
 3816SOL    HW223082   2.021   1.932  13.691  0.6869 -0.8728  0.7269
 3817SOL     OW23083   2.850   4.587   9.534  0.3345  0.6669 -0.0757
 3817SOL    HW123084   2.910   4.615   9.604  1.8716 -0.5984 -0.8888
 3817SOL    HW223085   2.912   4.549   9.471 -0.8476  0.9637 -1.3999
 3818SOL     OW23086   0.057   2.660   4.179 -0.0105 -0.7329  0.2747
 3818SOL    HW123087   0.114   2.680   4.105 -0.8102  0.3991 -0.0418
 3818SOL    HW223088   4.725   2.619   4.129  0.1077  1.5832 -1.7759
 3819SOL     OW23089   3.043   2.989   0.103  0.4122  0.3915  0.0823
 3819SOL    HW123090   3.104   3.049   0.061  0.4356  0.1281 -0.2600
 3819SOL    HW223091   3.072   2.999   0.194  1.4118 -0.0516 -0.1902
 3820SOL     OW23092   0.410   1.326   1.295 -0.1525 -0.1793 -0.6755
 3820SOL    HW123093   0.390   1.413   1.330 -0.3225 -0.4683 -0.0609
 3820SOL    HW223094   0.389   1.343   1.203  1.0836 -0.4032 -0.9967
 3821SOL     OW23095   0.862   1.682  10.738 -0.1022 -0.5652 -0.1911
 3821SOL    HW123096   0.943   1.642  10.706  0.5674 -0.6931  1.6135
 3821SOL    HW223097   0.889   1.758  10.790  2.7196 -1.1436 -0.7933
 3822SOL     OW23098   0.413   0.895   9.247 -0.0498 -0.2933  0.2326
 3822SOL    HW123099   0.354   0.841   9.194  1.2495 -1.2225 -0.2590
 3822SOL    HW223100   0.447   0.829   9.306  2.2237 -0.1814 -0.9636
 3823SOL     OW23101   2.738   3.862   7.069 -0.0029 -0.3984  0.6319
 3823SOL    HW123102   2.816   3.894   7.024 -0.8680 -0.3666 -0.8633
 3823SOL    HW223103   2.763   3.874   7.160  0.4907  1.3639  0.2594
 3824SOL     OW23104   3.515   0.029   3.990 -0.3706 -0.5380 -0.3618
 3824SOL    HW123105   3.514   0.062   4.079 -0.3800  1.3301 -1.0620
 3824SOL    HW223106   3.426   0.057   3.968 -0.6866 -0.6230  0.8257
 3825SOL     OW23107   3.419   1.427   0.232 -0.1236  0.1083  0.2221
 3825SOL    HW123108   3.341   1.386   0.195 -1.0514  1.1555  1.0014
 3825SOL    HW223109   3.477   1.429   0.157 -0.2060  0.0645  0.1573
 3826SOL     OW23110   0.111   0.730  13.836 -0.0021 -0.0802  0.0678
 3826SOL    HW123111   0.107   0.652  13.891  2.6982 -0.4412 -0.2041
 3826SOL    HW223112   0.049   0.785  13.883 -1.0767  0.2834 -1.7832
 3827SOL     OW23113   0.863   4.363   6.216  0.3762  0.3802 -0.3773
 3827SOL    HW123114   0.953   4.332   6.227  0.5704  1.4051  0.8967
 3827SOL    HW223115   0.835   4.367   6.307  1.5607  1.8668 -0.0909
 3828SOL     OW23116   4.261   1.652   6.612  0.5585 -0.4392 -0.5058
 3828SOL    HW123117   4.256   1.736   6.658 -2.1045 -0.8802  0.0321
 3828SOL    HW223118   4.323   1.602   6.666 -0.4227  0.7952  1.7810
 3829SOL     OW23119   2.760   2.927   0.197  0.1617  0.4143  0.3429
 3829SOL    HW123120   2.835   2.986   0.186  0.3114 -0.1380 -1.6500
 3829SOL    HW223121   2.776   2.880   0.278 -0.3174 -1.3300 -0.5621
 3830SOL     OW23122   1.811   1.689   2.157  0.0922  0.2410 -0.5982
 3830SOL    HW123123   1.822   1.754   2.088 -1.4100  0.3159 -0.7692
 3830SOL    HW223124   1.803   1.611   2.102  1.9968  1.5147 -2.7075
 3831SOL     OW23125   1.709   3.043   3.729  0.4475 -0.1089 -0.4524
 3831SOL    HW123126   1.791   3.082   3.699  0.1095  0.9707  0.0374
 3831SOL    HW223127   1.643   3.108   3.706 -1.8269 -2.7045 -1.2831
 3832SOL     OW23128   3.983   2.126   5.267  0.0331 -0.5016  0.3386
 3832SOL    HW123129   4.068   2.084   5.254 -0.3560 -0.6893 -1.6662
 3832SOL    HW223130   4.006   2.213   5.300 -1.6840  0.7887 -1.8055
 3833SOL     OW23131   1.255   3.576   2.847 -0.7758  0.0203  0.2774
 3833SOL    HW123132   1.285   3.548   2.761  3.7003  3.9542  0.5823
 3833SOL    HW223133   1.179   3.631   2.828 -0.9691 -0.0777  0.7626
 3834SOL     OW23134   0.585   0.981   1.827 -0.0384  0.3359  0.4291
 3834SOL    HW123135   0.549   1.070   1.821 -0.3911  0.3219  2.1964
 3834SOL    HW223136   0.671   0.991   1.785 -0.5565 -0.2203 -0.7463
 3835SOL     OW23137   0.986   0.445   3.004  0.1239 -0.2544  0.3368
 3835SOL    HW123138   0.907   0.465   3.055 -2.1289 -2.3637 -2.2956
 3835SOL    HW223139   0.953   0.394   2.931  2.3583 -0.3521 -0.6010
 3836SOL     OW23140   3.394   2.566   3.503 -0.0848 -0.2314  0.2888
 3836SOL    HW123141   3.477   2.571   3.455 -0.2045 -1.8451 -0.0949
 3836SOL    HW223142   3.333   2.627   3.462  0.0517 -0.0771  0.3163
 3837SOL     OW23143   2.123   2.523   3.281  0.3598 -0.8123  0.1029
 3837SOL    HW123144   2.037   2.518   3.238 -0.1359 -2.0728  1.2581
 3837SOL    HW223145   2.127   2.618   3.291 -1.6222 -0.3572 -3.1066
 3838SOL     OW23146   0.427   4.668   7.878 -0.7005 -0.2731  0.5632
 3838SOL    HW123147   0.454   4.636   7.793  1.5556 -0.5307  1.3832
 3838SOL    HW223148   0.334   4.689   7.867 -0.5529  0.7028  1.1273
 3839SOL     OW23149   1.505   0.220   8.308  0.7268  0.2682 -0.1344
 3839SOL    HW123150   1.427   0.165   8.315  0.2377  0.6786 -2.3115
 3839SOL    HW223151   1.568   0.168   8.358 -1.2513 -1.3674  0.7006
 3840SOL     OW23152   1.158   2.031   0.040  0.0032  0.0725  0.2444
 3840SOL    HW123153   1.093   2.099   0.023 -1.7986 -1.5504  0.7336
 3840SOL    HW223154   1.103   1.966   0.083 -0.3463  0.4199  0.3142
 3841SOL     OW23155   4.414   4.707   6.511  0.0032  0.4784 -0.2969
 3841SOL    HW123156   4.491   4.704   6.455  0.5044  3.4604  0.2276
 3841SOL    HW223157   4.450   4.671   6.592 -1.9143 -1.7413 -0.4464
 3842SOL     OW23158   0.304   1.841  14.863  0.3643  0.0598  0.6541
 3842SOL    HW123159   0.337   1.810  14.779 -3.5817  0.3131 -0.9857
 3842SOL    HW223160   0.213   1.809  14.860  0.9208 -1.3348 -1.1201
 3843SOL     OW23161   0.039   3.330   5.274  0.0015  0.0760 -0.4543
 3843SOL    HW123162   4.701   3.278   5.250  0.9779 -0.3895 -2.6523
 3843SOL    HW223163   0.042   3.379   5.191  0.6638 -0.1242 -0.5441
 3844SOL     OW23164   3.390   2.201   3.452 -0.1439  0.7029 -0.2596
 3844SOL    HW123165   3.325   2.261   3.415  1.6850  2.6793 -0.2433
 3844SOL    HW223166   3.359   2.183   3.541 -0.1262  0.7024 -0.2536
 3845SOL     OW23167   0.669   1.950   2.259  0.5395 -0.2991  0.3659
 3845SOL    HW123168   0.659   2.018   2.326 -0.4234  0.5354 -0.6280
 3845SOL    HW223169   0.606   1.965   2.189 -0.6169 -0.1387  1.4275
 3846SOL     OW23170   4.205   1.381   9.258 -0.3993  0.5515  0.1418
 3846SOL    HW123171   4.283   1.434   9.247 -1.1275  1.4757 -0.5393
 3846SOL    HW223172   4.176   1.367   9.168  0.9374 -2.2555  0.1332
 3847SOL     OW23173   1.216   0.727   8.167 -0.4787  0.7774 -1.0940
 3847SOL    HW123174   1.131   0.766   8.190  0.7496  0.6870  3.6701
 3847SOL    HW223175   1.187   0.635   8.172 -0.7184  0.9023 -0.2640
 3848SOL     OW23176   3.981   2.724  15.601  0.0304  0.2054 -0.3781
 3848SOL    HW123177   3.987   2.792  15.535 -0.5459  0.0169 -0.6239
 3848SOL    HW223178   3.890   2.694  15.597 -0.0122  0.3156 -0.2232
 3849SOL     OW23179   1.325   1.402   7.021 -0.4569  0.0683 -0.4040
 3849SOL    HW123180   1.338   1.447   7.104  1.3402  1.6854 -1.5583
 3849SOL    HW223181   1.264   1.467   6.984  0.1532 -0.1669 -1.8189
 3850SOL     OW23182   4.359   3.641   3.060 -0.1429  0.5598  0.3299
 3850SOL    HW123183   4.310   3.581   3.004  0.5890  0.0839  0.2002
 3850SOL    HW223184   4.434   3.622   3.004  0.1919  1.6919  0.4065
 3851SOL     OW23185   1.936   3.896   6.316 -0.1163 -0.1506 -0.2708
 3851SOL    HW123186   1.854   3.899   6.366  0.3075  0.3304  0.3980
 3851SOL    HW223187   1.973   3.813   6.344  2.2683  1.7528  2.2872
 3852SOL     OW23188   2.308   1.853   5.848  0.5661 -0.2992  0.2972
 3852SOL    HW123189   2.381   1.837   5.908  0.0041 -0.4680  0.9398
 3852SOL    HW223190   2.230   1.835   5.902 -1.4093 -0.2868 -2.5293
 3853SOL     OW23191   1.800   0.814   4.713 -0.6363 -0.4944 -0.1157
 3853SOL    HW123192   1.818   0.833   4.805 -0.3067  0.4306 -0.3643
 3853SOL    HW223193   1.807   0.720   4.730  1.7515  0.1111  2.1751
 3854SOL     OW23194   3.765   4.266   9.935 -0.4165 -0.5664 -0.3469
 3854SOL    HW123195   3.743   4.358   9.953  0.6210 -0.4746  0.4682
 3854SOL    HW223196   3.859   4.267   9.955 -0.1438  1.8519 -1.6416
 3855SOL     OW23197   3.892   3.087   1.516  0.5039  0.4041  0.8455
 3855SOL    HW123198   3.890   3.125   1.429 -2.4917 -1.8988 -0.0790
 3855SOL    HW223199   3.801   3.058   1.523  0.4887  0.0591 -0.8024
 3856SOL     OW23200   3.227   1.234   0.096 -0.3098  0.3587  0.1380
 3856SOL    HW123201   3.143   1.255   0.056  0.2021  2.5579  0.1741
 3856SOL    HW223202   3.279   1.204   0.021 -0.8456  2.2167 -0.9862
 3857SOL     OW23203   0.874   2.025   5.200  0.0730 -0.1585  0.1213
 3857SOL    HW123204   0.928   2.103   5.195  0.0624 -0.1392  0.3094
 3857SOL    HW223205   0.853   2.017   5.107  4.7712 -0.4049 -0.9098
 3858SOL     OW23206   1.951   1.833   5.713 -0.6712 -0.1439  0.7534
 3858SOL    HW123207   2.040   1.866   5.725 -0.5677  0.6527 -2.1550
 3858SOL    HW223208   1.907   1.918   5.705  2.2476  1.1475 -1.6178
 3859SOL     OW23209   3.142   3.349   6.169  0.3758  0.9638 -0.1467
 3859SOL    HW123210   3.128   3.296   6.091  0.1609  0.8836 -0.0512
 3859SOL    HW223211   3.195   3.425   6.144  0.1925  1.0444 -0.2907
 3860SOL     OW23212   1.958   1.255   2.656  0.1890 -0.0471 -0.1292
 3860SOL    HW123213   1.996   1.170   2.637  1.4138  0.4022  0.3427
 3860SOL    HW223214   1.886   1.256   2.593  0.3307  0.4529 -0.2819
 3861SOL     OW23215   1.558   4.693  13.691 -0.4103 -0.3701 -0.1136
 3861SOL    HW123216   1.484   0.008  13.663 -0.4126 -0.7018 -0.7389
 3861SOL    HW223217   1.537   4.613  13.644  0.3020  0.0149 -1.0921
 3862SOL     OW23218   1.332   2.159   7.936 -0.9694 -0.0634 -0.2132
 3862SOL    HW123219   1.249   2.137   7.892 -0.1383 -1.6847 -0.9642
 3862SOL    HW223220   1.323   2.254   7.942  0.2290  0.1194 -1.1065
 3863SOL     OW23221   1.873   4.553   1.528 -0.5803  0.0074  0.0679
 3863SOL    HW123222   1.879   4.617   1.458 -0.9437  0.8070  0.7651
 3863SOL    HW223223   1.782   4.558   1.557  0.0779 -0.4029  2.2102
 3864SOL     OW23224   2.453   4.003   9.190  0.1695  0.1383 -0.0587
 3864SOL    HW123225   2.440   3.910   9.173 -1.1762 -0.0323  1.7963
 3864SOL    HW223226   2.494   4.036   9.110 -1.0872  1.6887 -0.0697
 3865SOL     OW23227   0.230   0.351   2.992  0.3107  0.4230  0.3425
 3865SOL    HW123228   0.160   0.286   2.993 -0.0207  0.7760 -0.2390
 3865SOL    HW223229   0.207   0.401   2.914 -0.2823  0.4512  0.5357
 3866SOL     OW23230   1.500   3.459   2.723  0.4075  0.0515  0.0784
 3866SOL    HW123231   1.498   3.363   2.725  1.6064  0.0038 -1.1012
 3866SOL    HW223232   1.453   3.486   2.802 -3.9664 -2.4857 -1.6810
 3867SOL     OW23233   2.710   1.985   8.187  0.3093  0.7593 -0.4760
 3867SOL    HW123234   2.729   1.917   8.251 -1.5241  0.9216  0.2307
 3867SOL    HW223235   2.616   1.986   8.206  0.0002  2.1162 -2.0733
 3868SOL     OW23236   0.248   2.439   0.059 -0.2000 -0.3690  0.3075
 3868SOL    HW123237   0.206   2.525   0.063 -1.7204 -1.1803  1.6275
 3868SOL    HW223238   0.177   2.388   0.022  0.9255 -1.1975 -0.7031
 3869SOL     OW23239   2.762   0.368   9.605  0.1645  0.0932 -0.7595
 3869SOL    HW123240   2.708   0.363   9.527  0.1949  0.2787 -0.7941
 3869SOL    HW223241   2.850   0.366   9.567  1.1210  2.8423  1.3178
 3870SOL     OW23242   3.384   0.697  10.178  0.1271  0.4214 -0.1148
 3870SOL    HW123243   3.334   0.689  10.097 -0.3139 -0.2078  0.2226
 3870SOL    HW223244   3.464   0.647  10.162 -2.5830 -3.8194 -0.2200
 3871SOL     OW23245   3.076   3.054  15.226  0.2950 -1.1986  0.2047
 3871SOL    HW123246   3.163   3.013  15.223  0.2964 -0.9305 -2.8913
 3871SOL    HW223247   3.039   3.033  15.312  1.7613 -0.0772  1.1253
 3872SOL     OW23248   0.779   0.049   2.404  0.1465  0.4046  0.1874
 3872SOL    HW123249   0.802   4.726   2.335 -0.4460  0.2196  0.1595
 3872SOL    HW223250   0.783   4.728   2.478  1.0084  0.2435  0.0038
 3873SOL     OW23251   0.716   0.421   1.505  0.1663  0.1911 -0.2910
 3873SOL    HW123252   0.767   0.434   1.426  0.1030  0.6058 -0.2596
 3873SOL    HW223253   0.759   0.483   1.563  1.1686 -2.4473  1.7930
 3874SOL     OW23254   1.824   3.178   1.984  0.2632  0.5159 -0.2522
 3874SOL    HW123255   1.886   3.249   1.966 -1.6088  2.1582 -0.2058
 3874SOL    HW223256   1.764   3.234   2.033 -1.6352 -1.1905 -0.6417
 3875SOL     OW23257   1.448   2.772   2.430 -0.5269  0.0343 -0.1914
 3875SOL    HW123258   1.411   2.704   2.486 -0.4081 -1.3680 -1.8193
 3875SOL    HW223259   1.365   2.814   2.406 -0.5406 -0.0507 -0.2928
 3876SOL     OW23260   3.239   2.138   7.009  0.4984 -0.5771 -0.1020
 3876SOL    HW123261   3.242   2.228   7.042  1.8293 -0.8086  0.3930
 3876SOL    HW223262   3.155   2.137   6.963 -0.2032 -0.2804  1.1625
 3877SOL     OW23263   4.209   0.153   1.782  0.1258 -0.0840 -0.1026
 3877SOL    HW123264   4.180   0.237   1.745 -1.1041 -1.2641 -1.8424
 3877SOL    HW223265   4.136   0.092   1.768  0.3352  0.0163 -1.6451
 3878SOL     OW23266   0.558   3.507   6.421 -0.2718 -0.4359 -0.3392
 3878SOL    HW123267   0.557   3.486   6.327  1.0606 -1.7650 -0.0579
 3878SOL    HW223268   0.510   3.429   6.449  1.7440 -2.1739 -1.7441
 3879SOL     OW23269   4.502   1.381   2.764  0.2326 -0.2955  0.0662
 3879SOL    HW123270   4.535   1.469   2.780 -0.1595 -0.3465  1.1409
 3879SOL    HW223271   4.408   1.397   2.774 -0.0491 -1.2564 -1.0555
 3880SOL     OW23272   2.293   4.338   0.644 -0.4141  0.2436 -0.4556
 3880SOL    HW123273   2.251   4.258   0.612  0.7755 -1.1509  1.4425
 3880SOL    HW223274   2.336   4.377   0.568 -2.2796 -1.6872 -2.5032
 3881SOL     OW23275   4.072   2.357   5.386 -0.6085  0.0129 -0.4269
 3881SOL    HW123276   4.044   2.393   5.302 -1.1932 -0.6858 -0.5353
 3881SOL    HW223277   4.164   2.381   5.392 -0.4799 -0.6866  0.4297
 3882SOL     OW23278   1.676   4.477  17.583  0.3930  0.4243 -0.0139
 3882SOL    HW123279   1.669   4.397  17.635 -0.4162  0.7540  0.3800
 3882SOL    HW223280   1.679   4.550  17.644 -0.2051  0.4150  0.0208
 3883SOL     OW23281   2.515   3.826   0.911  0.4949 -0.4695 -0.1197
 3883SOL    HW123282   2.552   3.852   0.996  0.8382  0.1359 -0.4529
 3883SOL    HW223283   2.435   3.879   0.918  0.4818 -0.4717 -0.2530
 3884SOL     OW23284   1.145   0.400   0.821 -0.5406 -0.6860  0.0013
 3884SOL    HW123285   1.206   0.408   0.747 -1.8450  1.7887 -0.8166
 3884SOL    HW223286   1.064   0.451   0.812 -0.3395 -0.4607 -0.5150
 3885SOL     OW23287   3.422   3.714  14.837 -0.6200  0.7622 -0.0531
 3885SOL    HW123288   3.400   3.641  14.896 -0.4579  0.3086 -0.5516
 3885SOL    HW223289   3.346   3.770  14.850 -1.7652 -0.7799 -0.0584
 3886SOL     OW23290   2.165   3.141   1.676 -0.7172 -0.1115 -0.0405
 3886SOL    HW123291   2.091   3.084   1.655  0.2989 -0.6349 -2.1785
 3886SOL    HW223292   2.122   3.190   1.746  1.0212  0.4270  0.6454
 3887SOL     OW23293   4.707   2.742  17.471 -0.4757 -0.7345  0.1946
 3887SOL    HW123294   0.019   2.662  17.456  1.9508  0.9822 -0.7160
 3887SOL    HW223295   4.735   2.797  17.398 -1.1288 -0.0101  0.4918
 3888SOL     OW23296   4.140   1.341   7.526  0.4140  0.6326 -0.0747
 3888SOL    HW123297   4.125   1.340   7.432 -0.4894 -1.5166  0.1000
 3888SOL    HW223298   4.235   1.350   7.518  0.5021 -1.1319 -0.9795
 3889SOL     OW23299   0.690   4.366   7.270  0.2308 -0.1093  0.6188
 3889SOL    HW123300   0.707   4.272   7.263 -1.4633 -0.3351 -0.5973
 3889SOL    HW223301   0.595   4.368   7.281  0.2535  2.3702  0.5213
 3890SOL     OW23302   1.114   1.452   9.890  0.0459 -0.1702  0.4717
 3890SOL    HW123303   1.102   1.479   9.981  2.1465 -0.0797  0.7060
 3890SOL    HW223304   1.105   1.358   9.907  1.0266 -0.5434 -1.1373
 3891SOL     OW23305   2.864   1.884   9.148  0.0423 -0.6469  0.1813
 3891SOL    HW123306   2.935   1.941   9.120 -0.6276  1.5288  2.9002
 3891SOL    HW223307   2.798   1.953   9.158  1.3411  0.9687 -2.2691
 3892SOL     OW23308   1.115   3.010   9.122  0.2482  0.3623 -0.3216
 3892SOL    HW123309   1.161   2.951   9.062  1.4520  0.0475  0.9179
 3892SOL    HW223310   1.059   3.063   9.065  0.9969  0.9438 -0.5202
 3893SOL     OW23311   0.738   4.226   9.245 -0.0851  0.2119  0.0574
 3893SOL    HW123312   0.677   4.281   9.294  1.6945  3.1559 -1.0402
 3893SOL    HW223313   0.815   4.283   9.249 -0.5008  0.7736 -0.0252
 3894SOL     OW23314   3.603   3.125   9.772 -0.5437  0.2704 -0.0959
 3894SOL    HW123315   3.534   3.060   9.759  0.8896 -1.5977  1.7683
 3894SOL    HW223316   3.676   3.078   9.732 -0.8842  1.0699 -1.6712
 3895SOL     OW23317   3.647   0.276   7.267  0.4605  0.6248 -0.4226
 3895SOL    HW123318   3.643   0.257   7.360  0.9574 -1.3162 -0.7980
 3895SOL    HW223319   3.590   0.208   7.230 -0.8655  0.5539  1.7686
 3896SOL     OW23320   0.881   4.659  13.100  0.5967 -0.4552  0.3497
 3896SOL    HW123321   0.844   4.727  13.043  0.0125  0.3291  1.6589
 3896SOL    HW223322   0.852   4.586  13.045 -1.2576  0.9879 -0.5942
 3897SOL     OW23323   4.640   1.733   7.316 -0.0541  0.0055 -0.0957
 3897SOL    HW123324   4.548   1.728   7.341 -0.0970  0.6130 -0.1250
 3897SOL    HW223325   4.643   1.666   7.248  1.3629  1.3225 -1.3252
 3898SOL     OW23326   0.207   2.009   7.854 -0.7460 -0.2000 -0.1989
 3898SOL    HW123327   0.111   2.017   7.852 -0.7722 -1.1307 -2.4716
 3898SOL    HW223328   0.225   2.055   7.936  0.2856 -0.3697 -0.3323
 3899SOL     OW23329   2.064   4.386   5.752  0.9008  0.6170 -0.0490
 3899SOL    HW123330   2.009   4.446   5.702  0.5265 -0.3184 -0.7558
 3899SOL    HW223331   2.144   4.388   5.700  0.6864 -2.2323 -0.4411
 3900SOL     OW23332   1.812   1.244   6.133  0.0063  0.3780 -0.5456
 3900SOL    HW123333   1.887   1.298   6.158  0.4423 -0.7073  0.5402
 3900SOL    HW223334   1.774   1.234   6.220  0.2927  2.1559 -0.2180
 3901SOL     OW23335   0.503   1.105   0.912  0.2238  0.2063 -0.0414
 3901SOL    HW123336   0.559   1.034   0.943  0.3492 -0.1802 -1.1889
 3901SOL    HW223337   0.436   1.110   0.981  0.7917 -0.5689  0.5666
 3902SOL     OW23338   0.091   1.907   2.275  0.4890 -0.3036 -0.0738
 3902SOL    HW123339   0.099   1.971   2.203 -0.4024  2.4676  2.2837
 3902SOL    HW223340   0.081   1.961   2.353 -0.5909 -2.4320  1.2272
 3903SOL     OW23341   0.495   0.390  11.588  0.3846  0.8591 -0.4495
 3903SOL    HW123342   0.535   0.363  11.671 -4.5925 -2.0823  1.0258
 3903SOL    HW223343   0.470   0.306  11.548 -0.3519  0.6867  0.3821
 3904SOL     OW23344   3.736   2.029   8.641  0.1622  0.2855 -0.1259
 3904SOL    HW123345   3.679   1.972   8.693  0.4468 -3.1199 -3.5045
 3904SOL    HW223346   3.772   1.988   8.563 -0.5491 -1.1004  0.2725
 3905SOL     OW23347   3.144   2.965  12.446  0.3118  0.6855  0.2794
 3905SOL    HW123348   3.129   2.870  12.456 -2.3502  1.0051 -0.6080
 3905SOL    HW223349   3.087   2.995  12.376  1.2098  0.2414 -0.6445
 3906SOL     OW23350   0.590   0.831  15.238 -0.0565 -0.0396 -0.4753
 3906SOL    HW123351   0.594   0.917  15.279  0.5821 -0.9757  1.4627
 3906SOL    HW223352   0.634   0.856  15.157 -0.8751  1.0056 -0.5975
 3907SOL     OW23353   3.412   2.013   5.658  0.3482  0.3742  0.2312
 3907SOL    HW123354   3.376   1.938   5.612  0.6778 -0.1306  0.8097
 3907SOL    HW223355   3.388   1.995   5.749  0.4259  0.5532  0.2895
 3908SOL     OW23356   1.867   1.914   1.998 -0.4114 -0.1858 -0.5464
 3908SOL    HW123357   1.826   2.000   1.993  2.5602  1.3433  1.2609
 3908SOL    HW223358   1.908   1.903   1.912 -0.9753 -0.7501 -0.7454
 3909SOL     OW23359   3.357   3.991   5.525  0.1584  0.1908 -0.2885
 3909SOL    HW123360   3.363   4.070   5.471  0.3830 -0.1398 -0.7460
 3909SOL    HW223361   3.437   4.004   5.577 -0.3215  2.3266 -0.0859
 3910SOL     OW23362   3.723   1.401   5.279 -0.2937  0.2396 -0.1264
 3910SOL    HW123363   3.748   1.331   5.218 -0.8156  0.2708 -0.3712
 3910SOL    HW223364   3.741   1.364   5.365  0.9705 -0.1936 -0.5601
 3911SOL     OW23365   3.153   1.476   8.247 -0.2848  0.1289 -0.4515
 3911SOL    HW123366   3.207   1.492   8.170  0.4516 -1.3137 -0.2346
 3911SOL    HW223367   3.154   1.380   8.244 -1.4853  0.0566  1.4144
 3912SOL     OW23368   2.391   2.847  14.136  0.3419 -0.0606  0.1905
 3912SOL    HW123369   2.450   2.775  14.114 -0.7737 -1.0161  0.3356
 3912SOL    HW223370   2.460   2.913  14.139  1.4047 -1.2003  0.3534
 3913SOL     OW23371   1.659   2.749  11.389  0.3100  0.5510 -0.5783
 3913SOL    HW123372   1.735   2.764  11.445  0.9936  0.3155 -1.4409
 3913SOL    HW223373   1.675   2.660  11.360 -0.1645  0.0075  0.8314
 3914SOL     OW23374   4.433   4.210   3.919  0.1237  0.1057  0.5131
 3914SOL    HW123375   4.346   4.249   3.931 -0.1006 -0.3255  0.2841
 3914SOL    HW223376   4.444   4.184   4.010  0.0179  0.1640  0.5421
 3915SOL     OW23377   4.274   1.513   7.835  0.1410  0.1414  0.0139
 3915SOL    HW123378   4.342   1.447   7.846 -0.2342  0.0729  1.9562
 3915SOL    HW223379   4.197   1.457   7.844 -0.8171  1.6464  1.3517
 3916SOL     OW23380   4.460   0.060   2.431  0.1992 -0.3392  0.2387
 3916SOL    HW123381   4.440   0.103   2.348 -0.7916  2.3405  1.8370
 3916SOL    HW223382   4.370   0.040   2.458 -0.4854  0.8548 -1.1414
 3917SOL     OW23383   1.801   4.033   2.007 -0.3454  0.1581 -0.5803
 3917SOL    HW123384   1.785   4.072   1.922 -0.2813  0.8822 -0.2572
 3917SOL    HW223385   1.724   4.056   2.059 -0.6422 -1.1736 -0.4152
 3918SOL     OW23386   2.004   4.115   9.256  0.4751  0.0211  0.2056
 3918SOL    HW123387   2.056   4.106   9.337 -0.6689 -3.1292  0.6004
 3918SOL    HW223388   2.076   4.131   9.195 -0.3374 -0.6399 -0.9205
 3919SOL     OW23389   4.188   4.142   8.212  0.1308  0.8728  0.3431
 3919SOL    HW123390   4.101   4.149   8.250  0.6293  0.9822  1.4809
 3919SOL    HW223391   4.238   4.130   8.293 -0.2507 -1.6623  0.1939
 3920SOL     OW23392   3.277   0.433   5.324 -0.3092  0.3241 -0.0180
 3920SOL    HW123393   3.202   0.475   5.283  0.4197  1.4034 -0.2502
 3920SOL    HW223394   3.269   0.345   5.287  1.4240 -0.2452  0.9201
 3921SOL     OW23395   1.958   1.198   7.816 -0.4450  0.4420 -0.5284
 3921SOL    HW123396   1.998   1.138   7.878 -2.4356 -0.7460 -0.3975
 3921SOL    HW223397   1.935   1.139   7.744  1.2630 -0.7987 -0.0468
 3922SOL     OW23398   2.181   2.030   5.457 -0.0383  0.5442  0.0398
 3922SOL    HW123399   2.089   2.046   5.436  0.0661 -0.5999 -1.2854
 3922SOL    HW223400   2.194   1.956   5.397 -1.5190  0.6566 -0.4162
 3923SOL     OW23401   0.762   1.551  10.988  0.5721  0.2377 -0.7024
 3923SOL    HW123402   0.726   1.567  10.901 -0.9180 -0.8628 -0.2988
 3923SOL    HW223403   0.776   1.456  10.989 -3.2981 -0.3521 -1.2764
 3924SOL     OW23404   1.097   3.740   6.178 -0.2105  0.2220 -0.2315
 3924SOL    HW123405   1.027   3.791   6.217  2.0017  2.8818  0.2147
 3924SOL    HW223406   1.047   3.676   6.127 -0.0702 -1.6975  1.9993
 3925SOL     OW23407   2.749   0.087   0.776 -0.1675 -0.1841 -0.2865
 3925SOL    HW123408   2.785   0.049   0.856 -1.8845 -1.8055 -0.2668
 3925SOL    HW223409   2.788   0.174   0.782 -0.9963  0.1308  0.6330
 3926SOL     OW23410   2.562   4.026   7.964 -0.8644  0.3590 -0.2283
 3926SOL    HW123411   2.607   4.019   7.879  0.0078 -0.9859  0.3363
 3926SOL    HW223412   2.578   4.118   7.985 -2.6391  0.5469  0.2506
 3927SOL     OW23413   3.881   0.348   7.162 -0.2059  0.1075 -0.2449
 3927SOL    HW123414   3.799   0.311   7.196 -0.0010  1.1220  1.3777
 3927SOL    HW223415   3.921   0.366   7.247  0.6602 -1.9711 -0.2083
 3928SOL     OW23416   0.217   2.541   1.462  0.1427 -0.0123 -0.1188
 3928SOL    HW123417   0.152   2.610   1.476  1.0024  1.1285 -1.7661
 3928SOL    HW223418   0.207   2.484   1.539 -0.5784  0.0053 -0.1953
 3929SOL     OW23419   2.662   4.312   4.316 -0.1048  0.2439  0.9197
 3929SOL    HW123420   2.694   4.398   4.286  0.7200 -0.2085  0.5086
 3929SOL    HW223421   2.696   4.253   4.249  0.3349  0.8177  0.6264
 3930SOL     OW23422   4.499   0.965   3.267  0.0890  0.1199  0.0284
 3930SOL    HW123423   4.432   0.922   3.320 -1.1217 -0.0597 -1.6301
 3930SOL    HW223424   4.549   1.016   3.331  1.4780 -0.3956 -0.6372
 3931SOL     OW23425   1.544   0.383   9.273  0.4983 -0.4574 -0.3604
 3931SOL    HW123426   1.497   0.324   9.332  1.6911  1.1255  2.1906
 3931SOL    HW223427   1.609   0.324   9.235  1.4116  1.5891 -2.0052
 3932SOL     OW23428   1.731   0.388   3.324 -0.0923  0.4800  0.2139
 3932SOL    HW123429   1.724   0.333   3.245 -2.0182  0.8980  0.0953
 3932SOL    HW223430   1.797   0.449   3.290  1.1739 -1.3193 -0.5772
 3933SOL     OW23431   0.805   0.471   5.603  0.5447  0.7226 -0.5979
 3933SOL    HW123432   0.867   0.472   5.530  2.3486  2.2101  0.9676
 3933SOL    HW223433   0.808   0.376   5.615  0.6776  0.7945 -0.0616
 3934SOL     OW23434   1.890   3.540   7.954  0.3050 -0.1776  0.2523
 3934SOL    HW123435   1.834   3.470   7.988  0.9709 -1.1723 -0.7104
 3934SOL    HW223436   1.867   3.533   7.862 -1.8089 -1.6532  0.8844
 3935SOL     OW23437   2.124   2.084   4.747 -0.0280  0.8481 -0.1796
 3935SOL    HW123438   2.121   1.999   4.793 -0.5307  0.9067 -0.0982
 3935SOL    HW223439   2.213   2.093   4.713  1.8055  1.9041  5.0382
 3936SOL     OW23440   3.171   0.349   8.275 -0.2747  0.7856  0.5879
 3936SOL    HW123441   3.182   0.288   8.201 -0.5318  1.2055  0.2038
 3936SOL    HW223442   3.078   0.337   8.292 -0.6953  0.4730 -1.8619
 3937SOL     OW23443   1.148   0.958   2.802 -0.0044 -0.2143  0.1499
 3937SOL    HW123444   1.219   1.012   2.766 -0.8672  0.8451  0.0191
 3937SOL    HW223445   1.101   0.925   2.725 -0.7306 -1.5097  1.1530
 3938SOL     OW23446   4.085   0.186   6.748  0.3561  0.1844 -0.4907
 3938SOL    HW123447   4.056   0.247   6.680  0.3986  1.3353  0.5130
 3938SOL    HW223448   4.066   0.097   6.720 -0.6730 -0.0658  1.0290
 3939SOL     OW23449   0.078   3.219   4.956 -0.5398 -0.7177 -0.2292
 3939SOL    HW123450   0.013   3.222   5.026  0.9070 -1.5729  1.1494
 3939SOL    HW223451   0.042   3.153   4.898  0.8827 -0.8423 -0.9890
 3940SOL     OW23452   1.816   2.777   9.093  0.4043  0.7971 -0.0788
 3940SOL    HW123453   1.800   2.683   9.098 -0.4113  0.9538  0.3680
 3940SOL    HW223454   1.908   2.788   9.115  0.8090 -2.0084 -0.4099
 3941SOL     OW23455   1.678   4.290   9.876  0.1372 -0.0181 -0.0999
 3941SOL    HW123456   1.710   4.211   9.834  1.4707 -0.0893  1.0626
 3941SOL    HW223457   1.758   4.342   9.873  0.0840  0.1398  1.0579
 3942SOL     OW23458   0.762   1.738   1.710  0.0939 -0.1489  0.5031
 3942SOL    HW123459   0.766   1.782   1.626  0.5704 -2.0895 -0.4947
 3942SOL    HW223460   0.723   1.653   1.687 -0.2064  0.2359 -0.3966
 3943SOL     OW23461   3.015   4.044   9.158 -0.0150 -0.2472 -0.1183
 3943SOL    HW123462   2.982   4.080   9.075  0.7796  1.4583  0.3011
 3943SOL    HW223463   2.982   4.101   9.227  1.3351 -0.2840  0.5423
 3944SOL     OW23464   3.986   4.233   8.018  0.0651 -0.0543 -0.2748
 3944SOL    HW123465   3.977   4.307   8.078 -0.9350  0.4274 -1.0111
 3944SOL    HW223466   4.049   4.172   8.056  0.3468 -0.0134 -0.6795
 3945SOL     OW23467   4.273   0.434   6.900  0.6201 -0.2990  0.2316
 3945SOL    HW123468   4.262   0.461   6.809  2.4473  1.1090  0.4416
 3945SOL    HW223469   4.306   0.519   6.926  0.7018  0.3950 -2.1216
 3946SOL     OW23470   1.784   0.008   7.287 -0.2950  0.3984 -0.3371
 3946SOL    HW123471   1.816   0.020   7.376 -0.0071 -0.6448 -0.3102
 3946SOL    HW223472   1.859   4.707   7.244  0.7422  1.6695  0.2734
 3947SOL     OW23473   0.574   1.702  11.115  0.6288  0.2968 -0.6308
 3947SOL    HW123474   0.633   1.636  11.078 -0.4330  0.1348 -2.0160
 3947SOL    HW223475   0.629   1.781  11.113 -0.1442  0.8764  1.0917
 3948SOL     OW23476   1.401   3.031  11.280  0.4733  0.2942  0.2103
 3948SOL    HW123477   1.492   3.050  11.257 -0.2308  1.3632 -1.6910
 3948SOL    HW223478   1.407   2.992  11.367  3.7483 -0.9733 -0.6131
 3949SOL     OW23479   2.314   4.249   6.690 -0.2334 -0.3782 -0.4217
 3949SOL    HW123480   2.365   4.228   6.769 -1.3439 -0.7775  0.1909
 3949SOL    HW223481   2.333   4.179   6.627 -0.1482 -0.5427 -0.2168
 3950SOL     OW23482   0.884   1.948  15.271 -0.4024  0.4685 -0.1407
 3950SOL    HW123483   0.861   1.974  15.361 -0.7549 -1.8444  0.4372
 3950SOL    HW223484   0.836   2.009  15.215 -0.5215  1.0199  0.5577
 3951SOL     OW23485   2.914   1.796   3.483 -0.0400 -0.6286 -0.9445
 3951SOL    HW123486   2.931   1.886   3.453 -1.5249 -0.2952 -0.7548
 3951SOL    HW223487   2.968   1.795   3.562 -1.8152  0.9941  0.2848
 3952SOL     OW23488   2.480   4.174  12.286 -0.5738 -0.6227  0.2322
 3952SOL    HW123489   2.429   4.094  12.294 -1.2572 -0.2560 -0.3666
 3952SOL    HW223490   2.496   4.201  12.376 -0.3302  1.1062 -0.3281
 3953SOL     OW23491   0.918   2.557   3.955 -0.3983  0.1777  0.5531
 3953SOL    HW123492   0.973   2.481   3.975 -0.2766  0.1157 -0.0339
 3953SOL    HW223493   0.885   2.545   3.866 -1.7746 -0.3435  1.1189
 3954SOL     OW23494   3.842   0.276  14.880  0.0026  0.6420 -0.3264
 3954SOL    HW123495   3.858   0.278  14.786  0.1039 -0.0094 -0.3238
 3954SOL    HW223496   3.771   0.339  14.889  0.0378  0.7524 -0.8537
 3955SOL     OW23497   0.598   2.988   2.908 -0.2236  0.0641 -0.8369
 3955SOL    HW123498   0.595   2.898   2.877 -0.7109 -1.3512  3.3677
 3955SOL    HW223499   0.587   2.960   2.999  1.2593  2.5183  0.0960
 3956SOL     OW23500   2.086   4.463  11.615 -0.2325 -0.2353 -0.2821
 3956SOL    HW123501   2.146   4.493  11.684  0.5507  2.7592 -2.2341
 3956SOL    HW223502   2.021   4.533  11.618  0.1537  0.0609  1.2270
 3957SOL     OW23503   1.079   3.205  14.538 -0.3536  0.1820 -0.3412
 3957SOL    HW123504   1.149   3.261  14.504 -0.0174  0.4890  0.8338
 3957SOL    HW223505   1.094   3.130  14.481  0.8148 -0.1731  0.4444
 3958SOL     OW23506   0.017   3.199   9.338 -0.6323  0.7056  0.4288
 3958SOL    HW123507   0.018   3.185   9.432 -2.0493 -1.5561  0.1077
 3958SOL    HW223508   4.703   3.279   9.336  0.2347  1.2975  1.8995
 3959SOL     OW23509   4.244   0.072   3.922 -0.1341 -0.2204  0.7879
 3959SOL    HW123510   4.293   0.146   3.887  0.0306 -1.0834 -0.8105
 3959SOL    HW223511   4.307   0.040   3.986  0.0802 -0.8260  0.2673
 3960SOL     OW23512   1.588   0.832   7.965  0.0895  0.4103  0.2626
 3960SOL    HW123513   1.578   0.737   7.973  0.9351  0.3366  0.4816
 3960SOL    HW223514   1.552   0.865   8.047  0.7895 -0.1877  0.8103
 3961SOL     OW23515   2.768   3.868   3.244 -0.4312 -0.3666 -0.3911
 3961SOL    HW123516   2.730   3.948   3.280 -0.7827 -0.6487 -0.1464
 3961SOL    HW223517   2.858   3.899   3.231 -1.3821  2.0255 -1.3031
 3962SOL     OW23518   1.860   0.416   4.044 -0.5009 -0.2947  0.3788
 3962SOL    HW123519   1.833   0.339   3.993 -1.8448  1.5053 -1.6072
 3962SOL    HW223520   1.937   0.438   3.991 -1.2720  0.0372 -0.6036
 3963SOL     OW23521   0.492   2.307   5.022 -0.1815  0.5314 -0.2718
 3963SOL    HW123522   0.504   2.216   4.994  0.3207  0.8406 -1.0739
 3963SOL    HW223523   0.583   2.337   5.018  0.1797 -0.6180 -0.8514
 3964SOL     OW23524   1.104   4.631   8.691  0.6354 -0.0039  0.2666
 3964SOL    HW123525   1.054   4.677   8.758 -1.7256 -1.0505 -0.8006
 3964SOL    HW223526   1.186   4.680   8.680  1.1836 -0.4686  2.3445
 3965SOL     OW23527   4.061   0.081   2.761  0.3662  0.6877 -0.1532
 3965SOL    HW123528   3.990   0.145   2.767 -2.2176 -2.1372 -0.9421
 3965SOL    HW223529   4.100   0.074   2.848 -0.0571  0.7607  0.0397
 3966SOL     OW23530   1.067   2.658   8.459 -0.1957 -0.1688  0.2682
 3966SOL    HW123531   1.053   2.688   8.370  0.1016 -2.0080 -0.4081
 3966SOL    HW223532   1.014   2.578   8.462  1.9727 -1.6048  0.6016
 3967SOL     OW23533   3.196   3.175   4.306  0.0047 -0.5614 -0.4374
 3967SOL    HW123534   3.203   3.111   4.235 -0.9766 -1.5918  0.3894
 3967SOL    HW223535   3.286   3.194   4.332 -0.9134  1.9100  0.8656
 3968SOL     OW23536   1.527   2.454   2.219 -0.6949  0.1117 -0.1981
 3968SOL    HW123537   1.523   2.446   2.123  0.1197  1.8544 -0.3775
 3968SOL    HW223538   1.609   2.501   2.203 -0.8665 -0.4036 -2.7019
 3969SOL     OW23539   3.425   1.376   2.717  0.5431  0.4350 -0.3815
 3969SOL    HW123540   3.341   1.413   2.743  0.9630 -0.2297  1.9200
 3969SOL    HW223541   3.394   1.322   2.645  0.6480 -1.2963  0.8799
 3970SOL     OW23542   0.274   2.865   2.954 -0.6698 -0.2684  0.1244
 3970SOL    HW123543   0.345   2.837   3.011 -0.4137 -1.0630 -0.5965
 3970SOL    HW223544   0.255   2.951   2.992 -2.2385 -1.1378  1.3293
 3971SOL     OW23545   3.426   3.784   5.789 -0.2556 -0.3431 -0.1349
 3971SOL    HW123546   3.359   3.850   5.807 -1.9877 -1.7039 -1.5516
 3971SOL    HW223547   3.485   3.820   5.723 -2.1707  1.8231 -0.6616
 3972SOL     OW23548   3.039   1.744   8.241  0.3588 -0.5974 -0.4484
 3972SOL    HW123549   2.974   1.753   8.171 -0.5154  0.0603  0.4387
 3972SOL    HW223550   3.026   1.652   8.263  0.2506 -0.2933  0.7740
 3973SOL     OW23551   2.974   2.503   4.158 -0.3710 -0.0866  0.3609
 3973SOL    HW123552   2.990   2.537   4.245  1.5804  0.6456 -0.2844
 3973SOL    HW223553   3.007   2.415   4.173 -0.5802 -0.8629 -3.5274
 3974SOL     OW23554   3.498   0.632   5.956 -0.0894  0.1274 -0.4626
 3974SOL    HW123555   3.431   0.624   6.024 -0.6479 -0.3289 -1.0643
 3974SOL    HW223556   3.534   0.719   5.973 -2.5500  0.4803  2.8342
 3975SOL     OW23557   2.144   3.136  12.773  0.0256 -0.0964  0.0987
 3975SOL    HW123558   2.071   3.156  12.714  0.0652 -0.5504 -0.1018
 3975SOL    HW223559   2.148   3.210  12.834  0.0870 -0.8467  1.0073
 3976SOL     OW23560   0.335   1.604   0.247 -0.8938 -0.1962 -0.2304
 3976SOL    HW123561   0.406   1.627   0.306  0.1739 -0.9137 -1.2378
 3976SOL    HW223562   0.264   1.575   0.304 -2.2826  1.0406 -1.3240
 3977SOL     OW23563   1.464   4.589   3.658 -0.3821 -0.0819 -0.2250
 3977SOL    HW123564   1.398   4.647   3.621 -0.3090 -0.7200 -1.3616
 3977SOL    HW223565   1.413   4.508   3.654 -2.9764  1.4668  1.1783
 3978SOL     OW23566   4.007   1.653   8.713 -0.5735  0.5615  0.7939
 3978SOL    HW123567   4.085   1.618   8.756 -0.9043 -0.0058  0.9273
 3978SOL    HW223568   3.965   1.700   8.785  0.3550  3.6041 -0.6414
 3979SOL     OW23569   0.394   2.010   3.545 -0.6351 -0.5636 -0.4054
 3979SOL    HW123570   0.346   1.986   3.624  1.8536 -1.0679  0.9491
 3979SOL    HW223571   0.449   2.083   3.573 -0.1504 -0.4132 -1.7239
 3980SOL     OW23572   3.192   2.882  13.346  0.4730 -0.5411  0.3408
 3980SOL    HW123573   3.279   2.900  13.310 -1.0090  2.0830 -1.8881
 3980SOL    HW223574   3.152   2.964  13.375  4.4831  1.6058 -0.2637
 3981SOL     OW23575   3.627   3.590  14.736 -0.2664 -0.5883 -0.0142
 3981SOL    HW123576   3.672   3.647  14.673 -2.9041  0.8340 -0.5954
 3981SOL    HW223577   3.555   3.649  14.760  0.5668  1.1939 -1.8957
 3982SOL     OW23578   3.515   4.338   4.679  0.2356  0.4965 -0.5508
 3982SOL    HW123579   3.469   4.421   4.669 -0.5546  0.5391  3.2951
 3982SOL    HW223580   3.561   4.356   4.761  0.2994  1.9273 -0.9122
 3983SOL     OW23581   1.564   1.636   8.119  0.0957 -0.0557 -0.0090
 3983SOL    HW123582   1.483   1.604   8.159 -0.5944 -1.4825 -2.5812
 3983SOL    HW223583   1.579   1.564   8.059  0.4618  0.1664 -0.1866
 3984SOL     OW23584   1.854   1.764   0.181  0.6952 -0.1484  0.0560
 3984SOL    HW123585   1.820   1.678   0.204  0.8326 -0.3832 -0.6238
 3984SOL    HW223586   1.809   1.783   0.098 -1.9129  1.6392  1.8922
 3985SOL     OW23587   0.463   2.637  17.163 -0.3144  0.8842  0.1567
 3985SOL    HW123588   0.551   2.608  17.189 -0.4630  0.9955  0.7749
 3985SOL    HW223589   0.425   2.665  17.246  0.4570  0.3879  0.6764
 3986SOL     OW23590   0.474   2.110  11.826  0.4114 -0.0353  0.4441
 3986SOL    HW123591   0.482   2.035  11.768  0.6445  0.1711  0.2087
 3986SOL    HW223592   0.382   2.135  11.817  0.0527 -0.9504  1.5856
 3987SOL     OW23593   4.479   4.463   9.129  0.4698  0.5066  0.6816
 3987SOL    HW123594   4.400   4.437   9.175  0.0857 -0.5826 -0.5845
 3987SOL    HW223595   4.468   4.417   9.046 -1.3484 -0.0730  1.2470
 3988SOL     OW23596   1.491   2.952   8.649 -0.7275  0.2844 -0.1236
 3988SOL    HW123597   1.573   2.965   8.602  0.4343  3.2468  2.6985
 3988SOL    HW223598   1.525   2.949   8.739  1.1202 -1.5155 -0.8666
 3989SOL     OW23599   0.279   1.410   5.444  0.1349 -0.3726 -0.0881
 3989SOL    HW123600   0.187   1.420   5.467  0.2202 -3.2540  1.5551
 3989SOL    HW223601   0.296   1.333   5.499  0.0278 -1.1616 -1.1625
 3990SOL     OW23602   3.700   3.082   1.754 -0.0480 -0.7950 -0.1815
 3990SOL    HW123603   3.780   3.057   1.800 -1.0509 -0.4786  1.7530
 3990SOL    HW223604   3.633   3.035   1.805  0.2145 -0.6433  0.3062
 3991SOL     OW23605   4.344   1.273   0.927 -0.6758 -0.1813 -0.2005
 3991SOL    HW123606   4.282   1.290   0.857  1.1147  0.7097 -1.5611
 3991SOL    HW223607   4.327   1.336   0.997  2.1822  2.3284 -1.7244
 3992SOL     OW23608   1.099   2.447   4.714  0.2037  0.3861  0.2309
 3992SOL    HW123609   1.055   2.493   4.643 -0.0041 -0.0504  0.0765
 3992SOL    HW223610   1.169   2.406   4.664 -0.0431 -0.2058  0.3746
 3993SOL     OW23611   3.524   3.371   7.036  0.0019  0.0737 -0.5366
 3993SOL    HW123612   3.591   3.323   6.986 -1.3450 -1.1327 -1.1806
 3993SOL    HW223613   3.483   3.436   6.979 -1.4382  0.7152  1.2442
 3994SOL     OW23614   3.761   3.876   8.731 -0.1458  0.4091 -0.0230
 3994SOL    HW123615   3.745   3.952   8.788 -1.0539  1.0167 -1.1005
 3994SOL    HW223616   3.669   3.856   8.716 -0.0129  0.6485 -1.1638
 3995SOL     OW23617   4.284   0.513   8.095  0.4192 -0.0339 -0.1976
 3995SOL    HW123618   4.359   0.571   8.107  0.6891 -0.4988  0.3796
 3995SOL    HW223619   4.232   0.521   8.175 -0.0464 -0.8886 -0.4263
 3996SOL     OW23620   3.663   0.618  14.309 -0.5186 -0.4028  0.9968
 3996SOL    HW123621   3.742   0.673  14.303 -0.2537 -0.9583 -0.7145
 3996SOL    HW223622   3.659   0.600  14.402 -0.6295  0.7251  1.2164
 3997SOL     OW23623   3.284   4.131   2.856  0.2226 -0.0996 -0.2621
 3997SOL    HW123624   3.311   4.041   2.838  1.1838 -0.2030  1.7625
 3997SOL    HW223625   3.347   4.180   2.803  0.3082 -1.2010 -1.1632
 3998SOL     OW23626   3.270   3.436   7.754  0.3219 -0.3108  0.3583
 3998SOL    HW123627   3.193   3.436   7.696  1.8793 -0.9841 -1.7157
 3998SOL    HW223628   3.258   3.357   7.807  2.6092 -1.0544 -0.2584
 3999SOL     OW23629   3.599   3.562  12.055 -1.3436  0.2800  0.1287
 3999SOL    HW123630   3.653   3.579  12.132 -0.7318 -2.5378  0.3103
 3999SOL    HW223631   3.615   3.468  12.051  0.7932  0.6025  0.8929
 4000SOL     OW23632   2.436   0.394  15.949 -0.2185 -0.8106  0.0820
 4000SOL    HW123633   2.450   0.397  16.043 -3.1064 -2.7936  0.5900
 4000SOL    HW223634   2.442   0.485  15.922 -0.7085  0.0603  2.9941
 4001SOL     OW23635   3.899   4.680   4.933 -0.0331  0.0845  0.4626
 4001SOL    HW123636   3.972   0.002   4.936  0.3841 -0.3082 -1.6008
 4001SOL    HW223637   3.928   4.597   4.973 -4.4008 -1.3547  0.7229
 4002SOL     OW23638   2.486   2.341   6.122  0.0266  0.3424 -0.4142
 4002SOL    HW123639   2.450   2.252   6.122 -0.1910  0.4387  0.8502
 4002SOL    HW223640   2.551   2.328   6.052  1.2771 -1.2104  1.0219
 4003SOL     OW23641   4.644   1.154  14.016  0.2383 -0.1912  0.1289
 4003SOL    HW123642   4.561   1.111  14.039  0.7087 -1.6245 -0.8500
 4003SOL    HW223643   4.684   1.178  14.099 -0.2651 -0.9991  0.6092
 4004SOL     OW23644   1.949   0.742  15.996  0.5558  0.0681  0.0061
 4004SOL    HW123645   1.873   0.707  15.950  1.7403 -2.2429 -0.2201
 4004SOL    HW223646   1.923   0.704  16.080 -4.3293 -1.9034 -2.3943
 4005SOL     OW23647   1.374   1.322   2.151  0.0261  0.0121  0.1448
 4005SOL    HW123648   1.440   1.387   2.172  1.3898 -1.4024  0.2365
 4005SOL    HW223649   1.303   1.375   2.187  0.4621  2.1948 -2.2210
 4006SOL     OW23650   3.005   1.271  14.076  0.6618  0.3092 -0.1030
 4006SOL    HW123651   3.083   1.314  14.113  1.5197 -1.1084 -0.2472
 4006SOL    HW223652   3.038   1.259  13.987 -0.2166 -1.3482 -0.1848
 4007SOL     OW23653   1.460   0.060   4.026  0.1376  0.2219  0.4967
 4007SOL    HW123654   1.381   0.051   3.973  0.1438  1.2959  0.2927
 4007SOL    HW223655   1.446   0.149   4.059  1.8011  1.2545 -1.5877
 4008SOL     OW23656   1.955   3.209   7.692  1.0035 -0.2334  0.1225
 4008SOL    HW123657   1.984   3.141   7.754 -1.7636 -0.5913  1.0417
 4008SOL    HW223658   1.946   3.286   7.747 -0.0406 -1.9604  2.4066
 4009SOL     OW23659   3.642   1.372   6.537 -0.2509 -0.2098  0.0512
 4009SOL    HW123660   3.547   1.379   6.545 -0.0761 -0.0080  1.8722
 4009SOL    HW223661   3.667   1.454   6.494  1.8088 -0.2909  1.0918
 4010SOL     OW23662   0.989   3.733  11.679  0.4207  0.0980  0.0205
 4010SOL    HW123663   0.959   3.791  11.749  2.0928 -0.3269  1.0874
 4010SOL    HW223664   1.076   3.773  11.670  0.7373 -0.5551  0.1860
 4011SOL     OW23665   0.808   0.402   6.244 -0.4931 -0.1463 -0.4298
 4011SOL    HW123666   0.897   0.432   6.264  0.6744 -1.6439 -3.3542
 4011SOL    HW223667   0.823   0.336   6.176 -0.9749 -1.1601  0.4439
 4012SOL     OW23668   1.127   0.139   6.551  0.1981  0.3458  0.0974
 4012SOL    HW123669   1.039   0.176   6.547  1.0458  1.7999 -4.7365
 4012SOL    HW223670   1.138   0.100   6.638  1.4360  0.0736 -0.1839
 4013SOL     OW23671   0.594   1.807   7.700  0.3475  0.3206  0.6213
 4013SOL    HW123672   0.512   1.824   7.746 -0.7445 -0.1459 -1.1833
 4013SOL    HW223673   0.594   1.883   7.642 -1.1700 -0.8441 -0.8716
 4014SOL     OW23674   0.275   2.339   1.276  0.0840  0.2401 -0.1305
 4014SOL    HW123675   0.281   2.419   1.329 -0.4202  0.2999 -0.1647
 4014SOL    HW223676   0.325   2.284   1.336  0.5160  0.5416 -0.2143
 4015SOL     OW23677   2.554   1.628   9.961 -0.1488 -0.3321  0.5161
 4015SOL    HW123678   2.498   1.694  10.001  1.9287  1.3240  0.6961
 4015SOL    HW223679   2.519   1.620   9.873 -0.3183  0.5891  0.5000
 4016SOL     OW23680   2.785   3.882   0.767 -0.2299 -0.2620  0.1208
 4016SOL    HW123681   2.785   3.873   0.862  3.3416  0.9120  0.2291
 4016SOL    HW223682   2.758   3.797   0.733  0.9253 -1.2457  1.6823
 4017SOL     OW23683   0.108   4.677  12.800  0.1193  0.0875  0.0065
 4017SOL    HW123684   0.081   4.603  12.854 -2.0371  0.0923 -1.0442
 4017SOL    HW223685   0.182   4.716  12.847  0.2294  0.0385 -0.1265
 4018SOL     OW23686   0.875   0.054   8.789 -0.1147 -0.2725 -0.1421
 4018SOL    HW123687   0.882   0.018   8.877 -0.5487 -0.5503 -0.2216
 4018SOL    HW223688   0.789   0.034   8.753 -0.8281 -0.1058  1.4884
 4019SOL     OW23689   0.628   1.159   8.064 -0.2327  0.7128  0.1165
 4019SOL    HW123690   0.548   1.105   8.062 -0.1773  0.5950  1.0269
 4019SOL    HW223691   0.584   1.242   8.046 -0.1835  0.9281  0.9894
 4020SOL     OW23692   0.628   2.239   0.575  0.1640  0.1318 -0.5140
 4020SOL    HW123693   0.585   2.322   0.598  0.4342  0.4479 -1.1264
 4020SOL    HW223694   0.694   2.230   0.644  0.5422  1.8801 -0.6478
 4021SOL     OW23695   1.927   0.165   4.893 -0.2221 -0.5654  0.4377
 4021SOL    HW123696   1.983   0.089   4.876  1.8549  1.1251 -0.2780
 4021SOL    HW223697   1.906   0.189   4.803  1.3088 -0.1406  0.2022
 4022SOL     OW23698   2.191   0.917  17.626  0.1626 -0.0391  0.0235
 4022SOL    HW123699   2.178   0.933  17.719  1.3458  2.3210 -0.2147
 4022SOL    HW223700   2.285   0.926  17.615  0.2290 -0.3611  0.3464
 4023SOL     OW23701   4.224   2.060  13.683 -0.5137  0.0613 -0.1463
 4023SOL    HW123702   4.171   1.983  13.662 -0.0163  0.5292 -3.1856
 4023SOL    HW223703   4.189   2.119  13.616  0.8687 -1.1891 -1.9927
 4024SOL     OW23704   4.209   4.638   2.906 -0.0152  0.1263  0.2318
 4024SOL    HW123705   4.282   4.662   2.849 -0.9136  0.2613 -0.8422
 4024SOL    HW223706   4.252   4.649   2.991 -0.8494  0.2752  0.6276
 4025SOL     OW23707   3.149   2.121   2.008 -0.2811  0.1714  0.3901
 4025SOL    HW123708   3.115   2.200   1.967  0.3996  0.2879  0.0387
 4025SOL    HW223709   3.088   2.103   2.079  0.0967 -1.8833  0.2134
 4026SOL     OW23710   0.242   3.718   4.232  0.4512  0.2238 -0.1861
 4026SOL    HW123711   0.247   3.639   4.285  0.6094 -0.4085 -1.1619
 4026SOL    HW223712   0.284   3.779   4.293 -1.0536  0.1150  0.9693
 4027SOL     OW23713   3.672   3.195   9.422  0.3006 -0.0948  0.5515
 4027SOL    HW123714   3.650   3.248   9.345 -0.8144 -0.0351  0.9237
 4027SOL    HW223715   3.738   3.131   9.394 -1.7886 -1.9979  0.0294
 4028SOL     OW23716   0.382   0.165   8.363  0.1633  0.1826  0.2179
 4028SOL    HW123717   0.417   0.083   8.327 -0.0335 -0.4819  1.5438
 4028SOL    HW223718   0.293   0.138   8.384  0.1143  0.8508  0.8679
 4029SOL     OW23719   2.157   3.300   0.107 -0.2725  0.8614 -1.4250
 4029SOL    HW123720   2.185   3.347   0.185 -0.8658  0.4723 -0.9829
 4029SOL    HW223721   2.240   3.288   0.060  0.5799 -1.5892  0.7428
 4030SOL     OW23722   3.007   3.886   3.591  0.2764  0.0244 -0.2751
 4030SOL    HW123723   2.993   3.960   3.650 -1.5459 -2.1978  2.0436
 4030SOL    HW223724   2.933   3.896   3.531  1.7740 -1.1584 -2.3606
 4031SOL     OW23725   2.525   4.256  12.011  0.0704  0.0974 -0.7271
 4031SOL    HW123726   2.471   4.198  12.066 -0.7984  0.6649 -0.9865
 4031SOL    HW223727   2.462   4.286  11.946 -0.1654  1.4157  0.1080
 4032SOL     OW23728   3.426   2.040  14.356 -0.5129  0.2874 -0.4948
 4032SOL    HW123729   3.339   2.003  14.344  0.5179 -2.1951 -0.3391
 4032SOL    HW223730   3.469   1.984  14.421 -0.5268 -0.0684 -0.7949
 4033SOL     OW23731   4.617   3.532   9.333 -0.3671  0.5703 -0.0736
 4033SOL    HW123732   4.543   3.591   9.320  0.6236  1.1484 -3.1357
 4033SOL    HW223733   4.604   3.520   9.427 -0.5040  0.1420 -0.1465
 4034SOL     OW23734   2.000   4.224   7.020 -0.0121 -0.2518 -0.2479
 4034SOL    HW123735   1.904   4.221   7.019 -0.1082  2.9005  0.0329
 4034SOL    HW223736   2.010   4.287   6.949 -0.2207  1.3053  1.1112
 4035SOL     OW23737   3.123   0.480  12.718  0.7995 -0.1009  0.1752
 4035SOL    HW123738   3.125   0.556  12.776 -0.8486  0.9227 -1.0979
 4035SOL    HW223739   3.095   0.519  12.635  1.3842  1.2129  0.5990
 4036SOL     OW23740   1.825   2.782   8.454 -0.0548  0.1410 -0.1726
 4036SOL    HW123741   1.858   2.791   8.364 -0.5028 -3.6578 -0.7586
 4036SOL    HW223742   1.766   2.708   8.438  1.4058 -0.4649 -2.8902
 4037SOL     OW23743   1.137   4.309   6.307  0.2488  0.1242  0.3497
 4037SOL    HW123744   1.180   4.392   6.287 -0.8308  0.0178 -2.3692
 4037SOL    HW223745   1.120   4.335   6.398  2.4020  0.1120  0.7674
 4038SOL     OW23746   2.280   0.647   5.992  0.9085  0.4109  0.2263
 4038SOL    HW123747   2.208   0.699   6.029  0.9884  0.1645  0.7317
 4038SOL    HW223748   2.229   0.584   5.940  1.6230  0.9853 -1.1547
 4039SOL     OW23749   4.503   2.099  10.434  0.5293 -0.1738 -0.1044
 4039SOL    HW123750   4.508   2.033  10.503  0.0089  1.1981  1.2610
 4039SOL    HW223751   4.595   2.095  10.410  0.8908  0.8454  1.1021
 4040SOL     OW23752   2.892   3.197   6.093  0.5251  0.3290 -0.2669
 4040SOL    HW123753   2.895   3.109   6.133  1.5740  1.6451  2.5814
 4040SOL    HW223754   2.965   3.231   6.145  0.8468 -0.9441  0.1199
 4041SOL     OW23755   3.178   1.160   0.692 -0.3837 -0.1240  0.3826
 4041SOL    HW123756   3.145   1.070   0.691 -0.9198  0.0955 -3.6438
 4041SOL    HW223757   3.102   1.210   0.723 -0.2610  1.1296 -1.3133
 4042SOL     OW23758   3.126   1.010  12.444 -0.2878  0.8725  0.3490
 4042SOL    HW123759   3.207   1.061  12.451 -0.6023  1.4954 -0.4853
 4042SOL    HW223760   3.072   1.066  12.388  0.9197  1.2168 -0.4834
 4043SOL     OW23761   4.442   1.910   1.664 -0.3913  0.4370  0.3672
 4043SOL    HW123762   4.529   1.883   1.636 -1.1757  0.4213 -2.0395
 4043SOL    HW223763   4.385   1.852   1.614 -0.7292  0.7667  0.3624
 4044SOL     OW23764   0.907   3.703  13.078  0.1618  0.3173 -0.2217
 4044SOL    HW123765   0.998   3.731  13.071  0.1282  1.0178  2.2142
 4044SOL    HW223766   0.906   3.619  13.033 -0.5806  0.2575 -0.1012
 4045SOL     OW23767   3.831   0.801   3.308  0.3379 -0.1333 -0.1260
 4045SOL    HW123768   3.861   0.776   3.220 -1.1684 -0.6086 -0.5068
 4045SOL    HW223769   3.751   0.851   3.290  2.2786  2.8448 -0.3888
 4046SOL     OW23770   4.206   2.608  10.115 -0.2259  0.0731 -0.2727
 4046SOL    HW123771   4.148   2.658  10.172 -0.0271 -0.9963  0.8667
 4046SOL    HW223772   4.214   2.653  10.031  1.1782  0.3683  0.0037
 4047SOL     OW23773   3.473   0.121   3.468 -0.1433 -0.1808  0.2338
 4047SOL    HW123774   3.405   0.094   3.407 -1.8433 -0.8519  2.4103
 4047SOL    HW223775   3.470   0.044   3.525 -1.4613  0.3323  0.8738
 4048SOL     OW23776   1.504   3.416   9.820 -0.0743  0.0989 -0.0240
 4048SOL    HW123777   1.567   3.439   9.752 -2.3165 -0.8010 -2.4613
 4048SOL    HW223778   1.469   3.503   9.837  4.1522  1.9567 -1.0173
 4049SOL     OW23779   4.655   1.260   4.784  0.5192 -0.0397 -0.2587
 4049SOL    HW123780   4.681   1.335   4.838 -1.2441  0.6831 -0.3933
 4049SOL    HW223781   4.587   1.292   4.724  1.7146  0.3014 -1.4221
 4050SOL     OW23782   1.577   0.967   4.786 -0.0991  0.2875  0.1674
 4050SOL    HW123783   1.613   1.055   4.796  4.6947 -1.3796 -2.5023
 4050SOL    HW223784   1.649   0.918   4.746  0.1092  0.9458 -0.2656
 4051SOL     OW23785   3.917   2.635   5.722  0.1597  0.2674  0.1273
 4051SOL    HW123786   3.913   2.708   5.784  0.4175 -0.1778  0.6710
 4051SOL    HW223787   3.956   2.682   5.649  0.2630 -1.0569 -0.6797
 4052SOL     OW23788   3.449   0.389   4.388  0.5627  0.1157  0.3377
 4052SOL    HW123789   3.501   0.468   4.374  2.0688 -1.5264 -3.2926
 4052SOL    HW223790   3.514   0.327   4.422  0.9047 -0.6209 -1.7054
 4053SOL     OW23791   3.753   0.564   9.629 -0.2709  0.2194  0.1522
 4053SOL    HW123792   3.777   0.655   9.614 -0.4626  0.0820 -0.9892
 4053SOL    HW223793   3.751   0.528   9.540 -0.4573 -0.7590  0.5555
 4054SOL     OW23794   3.475   1.502   5.687 -0.0565 -0.1128  1.0744
 4054SOL    HW123795   3.501   1.526   5.598 -1.7431  0.9115  0.8608
 4054SOL    HW223796   3.405   1.437   5.681  0.2122 -0.4032  1.0781
 4055SOL     OW23797   4.191   2.979   0.768 -0.1973  0.2589  0.5055
 4055SOL    HW123798   4.252   3.053   0.760  2.8886 -2.3115  0.1428
 4055SOL    HW223799   4.168   2.960   0.677 -0.6577 -0.1812  0.7156
 4056SOL     OW23800   1.892   0.237  13.884 -0.0646  0.9778 -0.6063
 4056SOL    HW123801   1.968   0.262  13.832  0.5744 -0.1239 -0.1948
 4056SOL    HW223802   1.901   0.308  13.948  2.7591  0.4465 -0.4121
 4057SOL     OW23803   4.041   0.068   3.195 -0.0875 -0.3438  0.2106
 4057SOL    HW123804   4.013   0.041   3.283 -2.1524  0.8310 -0.0969
 4057SOL    HW223805   4.029   4.719   3.159 -0.8679  0.0915 -0.5865
 4058SOL     OW23806   1.419   4.048   9.494  0.3604 -0.3263 -0.8352
 4058SOL    HW123807   1.413   3.974   9.434  2.2343  0.0976 -1.5480
 4058SOL    HW223808   1.328   4.077   9.500  0.4623  0.4730 -3.3281
 4059SOL     OW23809   2.752   1.826   8.611 -0.3846 -0.1323  0.3819
 4059SOL    HW123810   2.674   1.872   8.642 -2.1625 -1.9116 -1.4335
 4059SOL    HW223811   2.816   1.896   8.623 -1.8741  2.2292 -5.4236
 4060SOL     OW23812   4.045   4.574  15.524 -0.4610 -0.0835 -0.3974
 4060SOL    HW123813   4.057   4.643  15.458 -0.4111  1.5602  1.3062
 4060SOL    HW223814   3.951   4.559  15.510 -0.7139  1.0429  0.0342
 4061SOL     OW23815   1.895   3.949   4.205 -0.3390  0.3777 -0.0635
 4061SOL    HW123816   1.906   4.044   4.207 -0.2124  0.3730 -0.6305
 4061SOL    HW223817   1.807   3.939   4.168 -0.5929 -0.9442  0.8536
 4062SOL     OW23818   4.264   1.223   5.888 -0.1006 -0.4788  0.8957
 4062SOL    HW123819   4.280   1.144   5.836  1.5195 -0.2932  1.1231
 4062SOL    HW223820   4.218   1.279   5.826  0.1810  1.2205  2.2142
 4063SOL     OW23821   2.865   2.152   8.036 -0.1164 -0.2950 -0.1127
 4063SOL    HW123822   2.901   2.224   8.088  1.8898 -2.1261  1.0180
 4063SOL    HW223823   2.795   2.115   8.089  0.9613 -1.5921  0.4051
 4064SOL     OW23824   1.886   2.880   9.859 -0.1937  0.8886 -0.1487
 4064SOL    HW123825   1.865   2.937   9.785 -0.4048 -0.4960 -1.1531
 4064SOL    HW223826   1.917   2.944   9.922  1.5164  1.6024 -1.7023
 4065SOL     OW23827   4.315   4.284   5.173 -0.2903  0.4520  0.1019
 4065SOL    HW123828   4.265   4.296   5.253 -0.8447 -2.4886  0.1955
 4065SOL    HW223829   4.254   4.235   5.118 -1.2223  2.4644 -0.6563
 4066SOL     OW23830   3.646   3.276   3.516  0.3284 -0.2146  0.6908
 4066SOL    HW123831   3.551   3.264   3.519 -0.0439  2.1069 -1.6967
 4066SOL    HW223832   3.657   3.331   3.439 -0.9045 -1.2686 -0.2343
 4067SOL     OW23833   0.570   2.231   5.424  0.3090  0.3545  0.2196
 4067SOL    HW123834   0.583   2.137   5.415  0.8076  0.4057  0.3931
 4067SOL    HW223835   0.609   2.264   5.343 -1.4654  0.6541 -0.5219
 4068SOL     OW23836   3.538   1.127   7.301  0.2550  0.1265  0.1357
 4068SOL    HW123837   3.455   1.113   7.256  0.4883 -0.0566 -0.2360
 4068SOL    HW223838   3.512   1.199   7.358 -3.4392  0.1466 -1.6498
 4069SOL     OW23839   2.588   4.329   3.429 -0.4553 -0.3740  0.1975
 4069SOL    HW123840   2.648   4.394   3.466 -0.1142 -0.1343 -0.7869
 4069SOL    HW223841   2.518   4.329   3.494  0.7740  0.1353  1.5411
 4070SOL     OW23842   3.155   3.575   8.837 -0.0379 -0.6019  0.3711
 4070SOL    HW123843   3.232   3.631   8.827  0.7248 -2.0895 -2.0229
 4070SOL    HW223844   3.132   3.610   8.923  0.7364 -1.2657  0.8360
 4071SOL     OW23845   0.133   3.464   3.668 -0.0398 -0.1416 -0.0288
 4071SOL    HW123846   0.144   3.558   3.677  1.1049 -0.3307  0.5201
 4071SOL    HW223847   0.216   3.431   3.703  1.1073  0.8182 -1.8480
 4072SOL     OW23848   2.332   0.060   3.134 -0.3401  0.3194 -0.0525
 4072SOL    HW123849   2.245   0.096   3.113 -1.0424 -1.4222 -0.0922
 4072SOL    HW223850   2.317   0.003   3.209  0.1082  1.4663  0.9228
 4073SOL     OW23851   3.297   2.889   4.470  0.1063  0.0259  0.6956
 4073SOL    HW123852   3.251   2.907   4.388  0.7852  2.4258  0.8370
 4073SOL    HW223853   3.349   2.969   4.481  0.7585 -0.3095  0.0677
 4074SOL     OW23854   2.826   4.197   7.828  0.4001 -0.1126  0.0694
 4074SOL    HW123855   2.871   4.156   7.902 -0.8520 -0.3661  0.6936
 4074SOL    HW223856   2.793   4.121   7.782 -1.7321  0.8820 -0.0356
 4075SOL     OW23857   3.099   1.333   2.138 -0.0223 -0.2284 -0.2440
 4075SOL    HW123858   3.099   1.396   2.210 -0.6900 -1.3355  0.7302
 4075SOL    HW223859   3.191   1.340   2.113  0.0016 -0.0358 -0.0965
 4076SOL     OW23860   4.056   1.835   2.466  0.3298 -0.6355  0.4568
 4076SOL    HW123861   4.123   1.787   2.418 -0.5853 -0.9225 -0.5378
 4076SOL    HW223862   4.042   1.904   2.401  2.1224 -1.2147 -0.5148
 4077SOL     OW23863   2.737   3.055  13.265  0.0476 -0.5288 -0.6013
 4077SOL    HW123864   2.667   3.094  13.318  0.4498 -2.9142  1.6560
 4077SOL    HW223865   2.703   3.074  13.177  0.1907  0.6068 -0.4203
 4078SOL     OW23866   2.907   2.218   5.269  0.0300 -0.3200 -0.0723
 4078SOL    HW123867   2.962   2.250   5.341 -0.2740  0.3988 -0.1640
 4078SOL    HW223868   2.957   2.255   5.196  1.6949  2.7548  2.5999
 4079SOL     OW23869   3.917   0.408  11.113  0.3791 -0.3178 -0.0230
 4079SOL    HW123870   3.906   0.346  11.040 -0.2926  0.6894 -0.7809
 4079SOL    HW223871   3.825   0.427  11.129  0.5098  0.0013  0.3279
 4080SOL     OW23872   3.029   4.699   3.596 -0.0228 -0.5131  0.0381
 4080SOL    HW123873   3.096   4.645   3.553  2.0172  2.3315 -0.3347
 4080SOL    HW223874   3.030   4.653   3.680 -1.2616 -0.6179 -0.0073
 4081SOL     OW23875   2.240   3.282   1.085 -0.3617 -0.0005  0.0249
 4081SOL    HW123876   2.291   3.362   1.070  0.1991 -0.1926  0.8842
 4081SOL    HW223877   2.240   3.277   1.181  0.6802 -0.6306 -0.0153
 4082SOL     OW23878   4.058   1.399   7.268 -0.3029 -0.4380 -0.0798
 4082SOL    HW123879   4.121   1.470   7.260 -1.6465  0.9216  1.3846
 4082SOL    HW223880   4.031   1.409   7.177 -0.7393 -2.4904 -0.1747
 4083SOL     OW23881   1.734   1.418  15.262 -0.0178 -0.0373 -0.4212
 4083SOL    HW123882   1.679   1.343  15.284 -0.5044  0.2365 -0.7163
 4083SOL    HW223883   1.751   1.395  15.171  1.0538  0.7089 -0.4097
 4084SOL     OW23884   3.466   0.190   2.560  0.1082  0.2997  0.2563
 4084SOL    HW123885   3.501   0.179   2.472  1.2807 -0.0844  0.7636
 4084SOL    HW223886   3.538   0.179   2.622 -0.5779  0.8624  1.1417
 4085SOL     OW23887   2.477   3.331   7.353 -0.6863 -0.2508  0.1598
 4085SOL    HW123888   2.516   3.343   7.439 -1.2573 -0.2016  0.4073
 4085SOL    HW223889   2.559   3.322   7.304 -0.6864  1.0041 -0.0618
 4086SOL     OW23890   1.485   2.581   4.312 -0.4648 -0.2151  0.1883
 4086SOL    HW123891   1.410   2.551   4.261  0.0130 -0.5130 -0.3353
 4086SOL    HW223892   1.503   2.666   4.272  2.0132 -0.5553  0.6190
 4087SOL     OW23893   4.344   4.278   6.688  0.1033 -0.8277 -0.1270
 4087SOL    HW123894   4.322   4.282   6.595  2.2275 -0.9311 -0.6341
 4087SOL    HW223895   4.255   4.262   6.721 -0.3838  0.5340 -0.8137
 4088SOL     OW23896   0.129   0.902   9.716  0.3441  0.2558  0.2609
 4088SOL    HW123897   0.187   0.891   9.641  0.6809 -0.7118  0.6619
 4088SOL    HW223898   0.108   0.990   9.686 -1.3071 -0.1869  0.0888
 4089SOL     OW23899   3.990   3.884  12.622 -0.7435 -0.2698  0.8851
 4089SOL    HW123900   4.048   3.932  12.563 -1.7902  0.9158  0.8317
 4089SOL    HW223901   3.936   3.952  12.661  0.2573  2.0718 -1.8314
 4090SOL     OW23902   3.113   0.986   8.984  0.4191 -0.4939 -0.5188
 4090SOL    HW123903   3.044   1.000   9.049  2.8075  0.6615  1.7560
 4090SOL    HW223904   3.183   1.044   9.015 -1.2439 -0.1423  2.5816
 4091SOL     OW23905   2.776   4.385  11.285  0.0501  0.3782  0.1086
 4091SOL    HW123906   2.811   4.474  11.283  0.4433  0.2450  1.2510
 4091SOL    HW223907   2.690   4.409  11.320 -1.6329 -1.4524 -2.7448
 4092SOL     OW23908   4.561   1.161  11.046 -0.3568  0.4413  0.8941
 4092SOL    HW123909   4.525   1.072  11.051  0.6846  0.0179  0.9156
 4092SOL    HW223910   4.614   1.170  11.126 -0.0221 -1.7821  0.9475
 4093SOL     OW23911   4.235   2.369   2.014 -0.1087  0.0263 -0.1221
 4093SOL    HW123912   4.205   2.283   2.045  1.8089  0.3017  2.5452
 4093SOL    HW223913   4.312   2.367   2.071  0.9496  0.0970 -1.5540
 4094SOL     OW23914   0.042   3.954   2.216 -0.4220  0.2559 -0.4587
 4094SOL    HW123915   0.085   3.994   2.292  0.4556 -0.3391 -0.6478
 4094SOL    HW223916   0.102   3.969   2.142  0.7108  0.8859  0.5852
 4095SOL     OW23917   2.865   3.754   3.818  0.1726 -0.4036 -0.3149
 4095SOL    HW123918   2.934   3.781   3.759  0.5435  0.8527  0.6984
 4095SOL    HW223919   2.915   3.706   3.884 -0.1645 -0.0071  0.2329
 4096SOL     OW23920   2.271   4.553   5.372  0.4908  0.1561 -0.5629
 4096SOL    HW123921   2.349   4.592   5.411 -0.1134  0.8144 -0.0236
 4096SOL    HW223922   2.221   4.634   5.365 -0.4597 -0.4666 -0.9187
 4097SOL     OW23923   0.525   3.160   4.225  1.0446 -0.4700  0.1098
 4097SOL    HW123924   0.615   3.192   4.223  1.1933 -0.8562  0.5417
 4097SOL    HW223925   0.464   3.228   4.196  1.6337 -0.0789 -0.2181
 4098SOL     OW23926   0.359   1.258   4.839 -0.0231 -0.3519  0.0213
 4098SOL    HW123927   0.321   1.207   4.768  0.3590 -2.6622  1.4619
 4098SOL    HW223928   0.451   1.255   4.813  0.6155  0.4300  2.1736
 4099SOL     OW23929   4.640   3.723  13.641 -0.4718  0.2282 -0.6753
 4099SOL    HW123930   4.654   3.628  13.636  0.3382  0.2738  0.6776
 4099SOL    HW223931   4.591   3.746  13.562  1.9454  1.7442 -1.7413
 4100SOL     OW23932   0.178   4.074   2.421 -0.2985 -0.2684 -0.3798
 4100SOL    HW123933   0.175   4.167   2.400 -1.5852 -0.5077 -1.2693
 4100SOL    HW223934   0.187   4.083   2.516  1.3805  0.0893 -0.5786
 4101SOL     OW23935   3.326   1.837   3.650 -0.0557 -0.3052 -0.4947
 4101SOL    HW123936   3.323   1.845   3.554  0.0864  0.0328 -0.4722
 4101SOL    HW223937   3.353   1.928   3.664  1.8189 -0.7070 -1.4938
 4102SOL     OW23938   0.071   0.962  13.178 -0.0618 -0.3857 -0.3526
 4102SOL    HW123939   0.125   0.900  13.129 -1.4671  0.0613 -2.5166
 4102SOL    HW223940   0.127   0.995  13.248 -1.6184  0.6230  0.4172
 4103SOL     OW23941   2.284   4.590   4.071 -0.1024  0.1534 -0.4022
 4103SOL    HW123942   2.217   4.581   4.004 -0.3384  0.4996 -0.2163
 4103SOL    HW223943   2.237   4.652   4.128  0.2934  1.4315 -1.4886
 4104SOL     OW23944   2.350   0.347   2.830 -0.2199 -0.3755  0.2959
 4104SOL    HW123945   2.264   0.382   2.808 -0.0798 -1.5911 -2.1576
 4104SOL    HW223946   2.345   0.346   2.926  2.1123 -1.7257  0.4079
 4105SOL     OW23947   3.781   2.223  17.469 -0.3746  0.0059  0.0847
 4105SOL    HW123948   3.826   2.248  17.549  1.6457  1.3483 -1.4717
 4105SOL    HW223949   3.853   2.211  17.407 -1.6674  0.1133 -1.4455
 4106SOL     OW23950   4.616   0.298   4.010  0.1288 -0.2903  0.1659
 4106SOL    HW123951   4.577   0.210   4.011  0.3850 -0.3997  0.6797
 4106SOL    HW223952   4.619   0.313   4.105 -2.1108  0.7942  0.0665
 4107SOL     OW23953   1.682   4.515   3.515  0.2967 -0.3652 -0.2736
 4107SOL    HW123954   1.621   4.557   3.576  1.9075  0.2515  0.9113
 4107SOL    HW223955   1.627   4.457   3.463 -2.6841 -0.1297  2.6380
 4108SOL     OW23956   0.414   3.583   2.337 -0.4840  0.0782 -0.5816
 4108SOL    HW123957   0.346   3.567   2.271 -1.6274  2.8316 -0.0384
 4108SOL    HW223958   0.403   3.677   2.345 -0.2970 -0.0349  0.9241
 4109SOL     OW23959   3.809   0.679  12.589  0.6738 -0.2617 -0.3495
 4109SOL    HW123960   3.832   0.758  12.540  0.4026  0.6294  0.9609
 4109SOL    HW223961   3.766   0.625  12.523 -0.4565 -0.8793  0.8976
 4110SOL     OW23962   0.948   3.534  14.230  0.2736 -0.2333  0.0677
 4110SOL    HW123963   0.987   3.572  14.151 -0.6991 -1.3793 -0.9528
 4110SOL    HW223964   1.001   3.455  14.243  0.9410  0.2278  0.1884
 4111SOL     OW23965   3.937   3.055   3.746  0.7003  0.2861 -0.0118
 4111SOL    HW123966   3.913   3.015   3.662  2.6964 -0.1993 -0.3555
 4111SOL    HW223967   3.952   3.146   3.718  1.7731  0.4039  0.9180
 4112SOL     OW23968   2.322   0.547   2.157  0.4061  0.3500  0.1283
 4112SOL    HW123969   2.370   0.583   2.083 -1.7514  0.8323 -1.0360
 4112SOL    HW223970   2.249   0.502   2.114  0.2296  0.1902  0.5960
 4113SOL     OW23971   2.592   0.513  11.734 -0.0516  0.0351  0.5701
 4113SOL    HW123972   2.684   0.496  11.714  0.5582  1.1971  2.3660
 4113SOL    HW223973   2.587   0.515  11.830  1.1497 -0.1891  0.6365
 4114SOL     OW23974   3.448   0.425  13.793  0.6205 -0.1358 -0.2387
 4114SOL    HW123975   3.376   0.393  13.739  2.4850  1.7082 -3.8501
 4114SOL    HW223976   3.524   0.396  13.742 -0.6448 -2.3017 -0.8976
 4115SOL     OW23977   0.623   3.834   7.024 -0.5412 -0.0832 -0.2917
 4115SOL    HW123978   0.709   3.793   7.024  0.3514  1.8333  0.6771
 4115SOL    HW223979   0.570   3.754   7.035 -0.5685 -0.2603 -1.8116
 4116SOL     OW23980   4.722   3.790   6.095  0.0118 -0.2197 -0.0988
 4116SOL    HW123981   0.001   3.859   6.160 -1.5095  0.5572 -0.5009
 4116SOL    HW223982   0.072   3.760   6.078 -1.4296 -4.3388 -0.3417
 4117SOL     OW23983   1.755   2.213  11.910  0.2541 -0.0665 -0.1869
 4117SOL    HW123984   1.716   2.135  11.951  3.2226 -1.5851 -0.2435
 4117SOL    HW223985   1.707   2.279  11.961 -0.7887 -2.3155  1.7710
 4118SOL     OW23986   0.654   3.092  10.798 -0.0857  0.0768  0.2876
 4118SOL    HW123987   0.681   3.127  10.883 -0.8330 -1.9031  1.3432
 4118SOL    HW223988   0.617   3.006  10.820  1.1381 -0.6399 -0.4326
 4119SOL     OW23989   0.992   3.157   6.793 -0.3480 -0.3654 -0.0992
 4119SOL    HW123990   0.931   3.105   6.741 -0.4053  1.3285 -1.7006
 4119SOL    HW223991   1.002   3.099   6.869 -1.0867 -0.1050  0.2042
 4120SOL     OW23992   3.687   0.906   9.611  0.1760 -0.7806  0.0342
 4120SOL    HW123993   3.634   0.970   9.564  1.2092  0.4527  0.5710
 4120SOL    HW223994   3.629   0.830   9.618 -0.5278 -0.1607  1.0606
 4121SOL     OW23995   3.888   2.847   4.092  0.2294 -0.6231 -0.0046
 4121SOL    HW123996   3.972   2.875   4.128  1.9076 -1.1299 -3.4704
 4121SOL    HW223997   3.820   2.883   4.149  0.8576  0.1250  0.2773
 4122SOL     OW23998   0.185   1.191   0.353 -0.2012  0.0005 -0.2563
 4122SOL    HW123999   0.184   1.097   0.371  1.0407  0.0630  0.1212
 4122SOL    HW224000   0.171   1.240   0.434 -0.4469 -1.4481  0.5712
 4123SOL     OW24001   2.362   2.516   7.649 -0.3722  0.3748 -0.3893
 4123SOL    HW124002   2.332   2.537   7.560  1.5421  2.9838 -0.4028
 4123SOL    HW224003   2.382   2.423   7.637 -1.3208  0.1309 -0.1143
 4124SOL     OW24004   4.377   3.947  12.528  0.4194  0.1753 -0.3722
 4124SOL    HW124005   4.335   4.031  12.546 -1.1725 -1.1109  1.8598
 4124SOL    HW224006   4.374   3.908  12.615 -0.3952  1.7758  0.3345
 4125SOL     OW24007   1.639   3.434   3.759  0.2989 -0.3651  0.4983
 4125SOL    HW124008   1.678   3.502   3.814  1.1591 -1.4330  1.2237
 4125SOL    HW224009   1.680   3.465   3.679 -3.3947 -1.2641 -1.7601
 4126SOL     OW24010   1.981   0.994   7.985  0.8016 -0.3120  0.6875
 4126SOL    HW124011   1.943   0.907   7.991 -3.1464  1.4598  1.5324
 4126SOL    HW224012   2.046   0.980   8.053  0.9145 -2.8297  0.0557
 4127SOL     OW24013   1.757   4.460   8.785  0.0841 -0.6690 -0.3511
 4127SOL    HW124014   1.753   4.387   8.848 -1.3311 -0.7440 -0.5302
 4127SOL    HW224015   1.689   4.522   8.807  0.4164  0.2199 -1.8708
 4128SOL     OW24016   2.101   0.404   3.926  0.7603  0.1373 -0.2267
 4128SOL    HW124017   2.187   0.447   3.927  1.1790 -0.7297  1.6135
 4128SOL    HW224018   2.087   0.385   3.834 -1.5137 -0.6693  0.2867
 4129SOL     OW24019   1.475   2.655  15.838 -0.5641  0.4605 -0.0516
 4129SOL    HW124020   1.423   2.723  15.795  0.7355  0.9671 -0.8253
 4129SOL    HW224021   1.556   2.691  15.802 -0.4827  0.2755 -0.0533
 4130SOL     OW24022   2.321   2.182   8.128  0.4520 -0.4287  0.2621
 4130SOL    HW124023   2.372   2.116   8.176 -0.1484 -1.0955 -0.0077
 4130SOL    HW224024   2.337   2.165   8.036  0.0300  1.1051 -0.0885
 4131SOL     OW24025   1.567   1.517   2.213 -0.0887 -0.0375  0.5669
 4131SOL    HW124026   1.568   1.544   2.305  0.4981 -1.3763  0.9483
 4131SOL    HW224027   1.548   1.605   2.180  0.7108 -0.1361 -0.1607
 4132SOL     OW24028   4.346   2.163  10.232  0.3080 -0.5862 -0.0977
 4132SOL    HW124029   4.388   2.145  10.316 -0.7761  1.2545  0.8454
 4132SOL    HW224030   4.365   2.255  10.214  0.2787 -0.9417 -1.8697
 4133SOL     OW24031   0.031   1.827   8.090  0.1925 -0.1921 -0.7041
 4133SOL    HW124032   0.033   1.744   8.136 -1.9974 -0.5812 -1.2959
 4133SOL    HW224033   4.713   1.806   8.016  0.3993 -0.2862 -0.8357
 4134SOL     OW24034   4.297   1.011   5.208  0.2348 -0.5754 -0.0024
 4134SOL    HW124035   4.303   1.033   5.115 -2.0591  2.4407  0.5532
 4134SOL    HW224036   4.388   0.982   5.206  0.6647  0.8397 -1.1649
 4135SOL     OW24037   0.983   0.778   6.079  0.2853  0.2614  0.1640
 4135SOL    HW124038   0.990   0.709   6.013 -0.0411  0.1834  0.2108
 4135SOL    HW224039   0.914   0.837   6.050 -0.9372 -1.9502 -1.3867
 4136SOL     OW24040   3.578   3.126   7.461  0.6122 -0.2361  0.0929
 4136SOL    HW124041   3.588   3.104   7.368 -0.5100  0.2907 -0.1487
 4136SOL    HW224042   3.540   3.214   7.461 -1.3334 -1.0881  1.5671
 4137SOL     OW24043   4.216   0.997   3.702  0.0557 -0.1600 -0.2030
 4137SOL    HW124044   4.222   1.037   3.616  0.7546  0.2201  0.0242
 4137SOL    HW224045   4.129   1.029   3.727 -0.4482 -2.0315  0.4643
 4138SOL     OW24046   1.122   2.747   3.303  0.0573 -0.2560  0.4292
 4138SOL    HW124047   1.193   2.754   3.367  2.2306  0.6700 -2.1100
 4138SOL    HW224048   1.167   2.769   3.221 -1.2268  0.8821  0.0426
 4139SOL     OW24049   4.711   2.401  13.993  0.6991  0.7072 -0.0107
 4139SOL    HW124050   4.683   2.355  14.073 -0.6521  0.0182 -0.8746
 4139SOL    HW224051   0.020   2.333  13.946 -1.6820 -0.8201 -0.2266
 4140SOL     OW24052   2.529   3.563   2.794 -0.9927  0.1569 -1.0058
 4140SOL    HW124053   2.624   3.559   2.807 -0.7985  0.8612 -2.1573
 4140SOL    HW224054   2.524   3.520   2.708  1.0636 -0.9373 -0.5826
 4141SOL     OW24055   2.238   4.026   5.265  0.3028 -0.2529 -0.1581
 4141SOL    HW124056   2.270   3.982   5.344  1.2755 -0.7397 -0.8279
 4141SOL    HW224057   2.317   4.047   5.216  1.0645  1.5502  1.8392
 4142SOL     OW24058   2.627   1.390   3.022  0.6824 -0.0864  0.2172
 4142SOL    HW124059   2.559   1.418   3.084  1.0719  0.5091  0.3678
 4142SOL    HW224060   2.638   1.458   2.956 -1.3908  0.4596  0.4346
 4143SOL     OW24061   0.030   3.405   2.430 -0.4382  0.4217  0.6328
 4143SOL    HW124062   4.712   3.447   2.365 -1.0755 -1.2480  0.1021
 4143SOL    HW224063   4.725   3.321   2.442  1.9778 -1.1156 -1.3815
 4144SOL     OW24064   0.343   3.137   0.701 -0.5315  0.1492 -0.3611
 4144SOL    HW124065   0.371   3.091   0.780 -1.0254  0.0991 -0.2121
 4144SOL    HW224066   0.339   3.061   0.644 -0.5466 -0.9657  1.1247
 4145SOL     OW24067   3.642   3.687   7.969 -0.3225  0.5077  1.2036
 4145SOL    HW124068   3.733   3.670   7.993  0.1635  0.9212 -0.3919
 4145SOL    HW224069   3.643   3.781   7.951  0.6784  0.3917  0.6935
 4146SOL     OW24070   0.732   1.350   6.092  0.2600 -0.0114  0.7527
 4146SOL    HW124071   0.735   1.438   6.055 -1.5132 -0.5383 -0.6303
 4146SOL    HW224072   0.646   1.316   6.065  0.2266  0.8305 -0.1855
 4147SOL     OW24073   3.483   4.040   4.254 -0.1510 -0.5768  0.2774
 4147SOL    HW124074   3.392   4.015   4.266 -1.0816  2.1237 -1.1971
 4147SOL    HW224075   3.475   4.061   4.160 -1.9290  1.7559  0.9551
 4148SOL     OW24076   1.903   0.125   5.699 -0.3072  0.3257  0.0012
 4148SOL    HW124077   1.974   0.156   5.756  0.4610  1.5656 -1.6419
 4148SOL    HW224078   1.944   0.153   5.618  0.2142  0.8274  0.4415
 4149SOL     OW24079   1.818   3.968   3.831  0.2259  0.6357  0.2281
 4149SOL    HW124080   1.896   3.961   3.886  0.6839  0.1016 -0.4911
 4149SOL    HW224081   1.847   3.995   3.744 -0.9937  2.0889  0.2810
 4150SOL     OW24082   4.202   4.613   6.927 -0.0202  0.2870 -0.0375
 4150SOL    HW124083   4.118   4.657   6.931  0.0561  0.3935  0.3347
 4150SOL    HW224084   4.260   4.674   6.882 -1.5127  2.1666  0.6249
 4151SOL     OW24085   2.264   2.359   2.686 -0.0372  0.4344  0.4560
 4151SOL    HW124086   2.218   2.279   2.711 -0.0702 -0.4285 -2.3432
 4151SOL    HW224087   2.358   2.339   2.686  0.1642  1.3955 -0.1005
 4152SOL     OW24088   2.684   1.497   8.857  0.1151 -0.0175  0.4208
 4152SOL    HW124089   2.715   1.407   8.851  1.3904  0.4670 -0.1599
 4152SOL    HW224090   2.737   1.536   8.788  0.7503  1.2982  1.6503
 4153SOL     OW24091   2.899   1.340   3.849  0.3837 -0.0079 -0.0753
 4153SOL    HW124092   2.981   1.300   3.878  1.6408  2.2889 -0.4174
 4153SOL    HW224093   2.847   1.338   3.929  2.3169  0.7112  1.1887
 4154SOL     OW24094   2.381   1.375   4.357  0.0576  0.6355  0.1228
 4154SOL    HW124095   2.422   1.360   4.442  0.5352 -1.5602 -0.5083
 4154SOL    HW224096   2.361   1.468   4.367 -1.9914  0.3700 -1.3750
 4155SOL     OW24097   1.708   4.107   7.415  0.0449 -0.0813 -0.2413
 4155SOL    HW124098   1.737   4.192   7.382  2.0535  0.9264  4.1008
 4155SOL    HW224099   1.620   4.099   7.378  0.6446  0.9943 -1.8691
 4156SOL     OW24100   2.804   0.058   5.707 -0.4153 -0.2708 -0.2062
 4156SOL    HW124101   2.732   0.115   5.681 -2.1305 -1.4250  2.0070
 4156SOL    HW224102   2.842   0.091   5.789  1.3592  1.4245 -1.7176
 4157SOL     OW24103   3.180   1.735   4.974  0.7538  0.0531  0.3010
 4157SOL    HW124104   3.097   1.783   4.976  0.9710  0.4120  0.8273
 4157SOL    HW224105   3.157   1.648   4.941 -0.6788  0.9840 -1.1506
 4158SOL     OW24106   3.459   2.548  12.990  0.0118 -0.1276 -0.1974
 4158SOL    HW124107   3.475   2.605  13.065 -1.5014 -0.3372  0.2715
 4158SOL    HW224108   3.393   2.603  12.948  1.3040  1.8081  0.3032
 4159SOL     OW24109   2.703   1.871  16.526  0.1824  0.2906 -0.2059
 4159SOL    HW124110   2.785   1.848  16.482  0.4651 -0.3031  0.6370
 4159SOL    HW224111   2.685   1.789  16.573 -0.4453  1.0209  0.8071
 4160SOL     OW24112   3.649   3.830   3.814  0.1633  0.1928 -0.3573
 4160SOL    HW124113   3.718   3.842   3.749  2.8688 -1.9918  2.1489
 4160SOL    HW224114   3.586   3.886   3.769  0.1064 -1.3435 -2.1943
 4161SOL     OW24115   4.663   2.536   8.016 -0.1846  0.4763  0.4992
 4161SOL    HW124116   4.670   2.441   8.026  3.1151  0.5020 -1.8652
 4161SOL    HW224117   4.623   2.529   7.929  0.8568  2.6541 -0.1532
 4162SOL     OW24118   1.914   2.261   6.351  0.0936 -0.0816  0.0412
 4162SOL    HW124119   1.927   2.222   6.438 -0.6428 -0.5728 -0.0649
 4162SOL    HW224120   2.000   2.295   6.329  0.1702 -0.5206 -0.3396
 4163SOL     OW24121   1.417   0.775  15.066 -0.4886  0.1974  0.0764
 4163SOL    HW124122   1.377   0.693  15.036  0.0662  0.7444 -2.1636
 4163SOL    HW224123   1.447   0.803  14.980 -1.1271 -0.3981 -0.3455
 4164SOL     OW24124   4.560   3.446   2.641  0.0464 -0.1705  0.4944
 4164SOL    HW124125   4.515   3.389   2.703  1.3967  0.7551  2.3098
 4164SOL    HW224126   4.594   3.377   2.584  2.0282  0.4039  0.9873
 4165SOL     OW24127   4.689   1.417   5.773 -0.2335 -0.0899 -0.1968
 4165SOL    HW124128   0.028   1.452   5.816 -0.7288  1.3294 -0.4792
 4165SOL    HW224129   4.625   1.462   5.827 -0.8326  0.2582 -1.1968
 4166SOL     OW24130   1.435   2.791   6.170  0.3191  0.0990  0.3126
 4166SOL    HW124131   1.441   2.717   6.110  1.5863  0.8904 -0.5396
 4166SOL    HW224132   1.469   2.858   6.110 -4.7652  0.7987 -1.7760
 4167SOL     OW24133   1.950   4.715   7.060  0.0503 -0.1592 -0.0026
 4167SOL    HW124134   2.039   4.693   7.033  0.0602  0.1819 -0.2486
 4167SOL    HW224135   1.919   4.739   6.973  0.1123 -1.9890 -0.5314
 4168SOL     OW24136   1.747   0.564  14.707  0.1579 -0.7228  0.8464
 4168SOL    HW124137   1.836   0.552  14.673 -0.2973 -0.4867 -0.4357
 4168SOL    HW224138   1.721   0.475  14.730  1.3127 -1.7223 -1.6802
 4169SOL     OW24139   2.721   1.488   0.658 -0.3829 -0.7185 -0.0093
 4169SOL    HW124140   2.689   1.530   0.738  1.6181 -0.6482  0.7621
 4169SOL    HW224141   2.648   1.438   0.621 -0.3821 -1.9941  1.6914
 4170SOL     OW24142   4.249   1.156  15.248  0.1427  0.4127  0.0454
 4170SOL    HW124143   4.227   1.147  15.341  1.1245 -0.7889  0.1656
 4170SOL    HW224144   4.333   1.200  15.255 -0.3626  0.8479  3.5295
 4171SOL     OW24145   0.394   3.435   3.728  0.0833  0.3131  0.3252
 4171SOL    HW124146   0.458   3.378   3.685 -0.8113 -1.2857  1.0769
 4171SOL    HW224147   0.443   3.515   3.712 -1.7093  0.9284 -2.1344
 4172SOL     OW24148   2.708   4.494   4.890 -0.5911  0.8930 -0.4203
 4172SOL    HW124149   2.627   4.531   4.927 -0.6050 -0.7435  1.1795
 4172SOL    HW224150   2.736   4.419   4.942 -2.3823 -0.6506 -1.7155
 4173SOL     OW24151   0.721   4.106   0.211 -0.0212 -0.0873 -0.0986
 4173SOL    HW124152   0.775   4.113   0.289 -0.0975 -1.2875  0.0531
 4173SOL    HW224153   0.648   4.162   0.236  0.8515  1.0907 -0.1865
 4174SOL     OW24154   2.391   4.390   7.443 -0.0133  0.3554  0.4339
 4174SOL    HW124155   2.454   4.439   7.495  0.5476 -2.0565  2.0105
 4174SOL    HW224156   2.325   4.375   7.511  0.5577 -1.7983  0.5178
 4175SOL     OW24157   2.149   3.216  15.944 -0.8574 -0.0202 -0.0968
 4175SOL    HW124158   2.177   3.266  16.021  0.8312 -0.0347 -0.7118
 4175SOL    HW224159   2.216   3.252  15.886 -1.0422 -1.2834 -1.0768
 4176SOL     OW24160   2.781   3.182  10.555  0.5432 -0.1978 -1.0057
 4176SOL    HW124161   2.730   3.198  10.476  0.1842  0.9968 -0.5428
 4176SOL    HW224162   2.788   3.276  10.574  2.2827 -0.5969  0.3451
 4177SOL     OW24163   1.654   0.927   9.303  0.5986  0.6163  0.0059
 4177SOL    HW124164   1.596   0.857   9.272 -0.8877  1.8547 -0.0448
 4177SOL    HW224165   1.721   0.871   9.341 -0.7578 -0.6100  0.5858
 4178SOL     OW24166   4.293   1.737   3.979 -0.7029  1.3678 -0.5044
 4178SOL    HW124167   4.236   1.715   4.053 -0.1658 -1.9927 -1.0482
 4178SOL    HW224168   4.289   1.832   3.975 -0.8928  1.2581 -2.9036
 4179SOL     OW24169   1.733   1.227  14.270 -0.0817 -0.0089 -1.0022
 4179SOL    HW124170   1.802   1.248  14.207  0.2270  0.5774 -0.4750
 4179SOL    HW224171   1.665   1.289  14.242  1.3116  1.6116 -0.8393
 4180SOL     OW24172   3.121   3.479   3.342  0.3003 -0.2422 -0.3294
 4180SOL    HW124173   3.104   3.478   3.436 -2.0153  0.1293 -0.7397
 4180SOL    HW224174   3.167   3.563   3.332 -0.7597  0.6435  2.3726
 4181SOL     OW24175   1.680   2.419   8.178  0.3908 -0.3174  0.2388
 4181SOL    HW124176   1.667   2.326   8.197 -1.1505  0.4912  3.1889
 4181SOL    HW224177   1.748   2.402   8.112 -1.5277 -1.6281 -1.3841
 4182SOL     OW24178   1.873   4.536   9.541 -0.4078 -0.4161  0.2027
 4182SOL    HW124179   1.788   4.578   9.545 -0.5486 -0.8411  1.7862
 4182SOL    HW224180   1.840   4.451   9.512  0.9301 -0.8268 -0.1320
 4183SOL     OW24181   1.700   1.029  10.758  0.6383 -0.2271  0.2529
 4183SOL    HW124182   1.742   0.985  10.685 -1.7702 -3.1017  0.6437
 4183SOL    HW224183   1.666   1.108  10.715  1.1278 -0.0192  0.2461
 4184SOL     OW24184   0.743   1.391   8.196  0.1801 -0.0628 -0.2600
 4184SOL    HW124185   0.735   1.298   8.172  1.3042 -0.8209  2.2983
 4184SOL    HW224186   0.651   1.417   8.186 -0.4208 -1.2424  2.3307
 4185SOL     OW24187   1.227   0.331   1.092  0.2033  0.0523  0.2371
 4185SOL    HW124188   1.224   0.235   1.092 -0.1733  0.0672 -0.5481
 4185SOL    HW224189   1.237   0.348   0.998  0.2880  1.9121  0.5751
 4186SOL     OW24190   2.546   1.869   5.981  0.0145  0.6775 -0.5075
 4186SOL    HW124191   2.562   1.878   6.075 -0.4418  1.9284 -0.5441
 4186SOL    HW224192   2.638   1.865   5.953 -0.3367  0.8685 -1.7044
 4187SOL     OW24193   3.111   1.106  15.622 -0.2803  0.4329  0.1250
 4187SOL    HW124194   3.190   1.144  15.661 -0.9676  0.5950  1.3573
 4187SOL    HW224195   3.142   1.046  15.554  0.1152 -1.3654  1.8801
 4188SOL     OW24196   2.029   2.331   4.663  0.1368  0.3567  0.3485
 4188SOL    HW124197   2.044   2.251   4.714  1.5086  0.3684 -0.0475
 4188SOL    HW224198   1.958   2.320   4.600  0.2296 -1.2960  0.5419
 4189SOL     OW24199   0.168   3.595  12.607 -0.2311  0.5179 -0.1213
 4189SOL    HW124200   0.211   3.632  12.684  2.1892 -1.2765 -0.5935
 4189SOL    HW224201   0.200   3.657  12.541 -0.4373  1.4646  0.6663
 4190SOL     OW24202   3.878   4.409   7.660 -0.3198 -0.2315  0.3089
 4190SOL    HW124203   3.871   4.369   7.747  2.1609 -2.0916 -0.3489
 4190SOL    HW224204   3.797   4.460   7.658 -2.1619 -3.1503 -0.5146
 4191SOL     OW24205   4.444   2.772   4.953 -0.1785 -0.0116  0.2101
 4191SOL    HW124206   4.362   2.752   4.998  0.4157 -0.4152  1.1087
 4191SOL    HW224207   4.499   2.735   5.021  3.5668  1.2772 -2.1237
 4192SOL     OW24208   3.414   3.042   2.194  0.0318  0.7749 -0.2106
 4192SOL    HW124209   3.367   3.119   2.226 -0.9653  0.4516 -0.8895
 4192SOL    HW224210   3.493   3.084   2.159  0.7978  1.0258  1.8227
 4193SOL     OW24211   2.055   1.372   1.359 -0.1628  0.5603 -0.0513
 4193SOL    HW124212   2.143   1.365   1.324 -0.6075 -2.0235 -0.6517
 4193SOL    HW224213   2.071   1.433   1.431  2.1289 -0.2063  0.0852
 4194SOL     OW24214   3.127   4.116  17.160  0.1760 -0.3766 -0.5288
 4194SOL    HW124215   3.053   4.058  17.177  1.4677 -2.1419 -0.9800
 4194SOL    HW224216   3.089   4.194  17.200 -2.0649 -1.2678 -0.9366
 4195SOL     OW24217   1.783   1.493   6.300  0.5102 -0.7495 -0.0719
 4195SOL    HW124218   1.869   1.503   6.259  0.2607 -1.1595 -0.6934
 4195SOL    HW224219   1.729   1.526   6.229  2.4500 -2.6484 -2.4384
 4196SOL     OW24220   0.787   3.609   2.767  0.7370 -0.3296 -0.0947
 4196SOL    HW124221   0.757   3.583   2.855  0.3420  0.3940 -0.0148
 4196SOL    HW224222   0.798   3.704   2.768 -3.4216  0.1798  1.1807
 4197SOL     OW24223   2.690   1.171   6.581  0.2033  0.6076  0.1987
 4197SOL    HW124224   2.736   1.143   6.502 -0.3744  0.3263 -0.0370
 4197SOL    HW224225   2.596   1.159   6.571  0.1772  1.5953 -0.7062
 4198SOL     OW24226   4.489   1.624   0.040  0.5553 -0.4468 -0.0043
 4198SOL    HW124227   4.584   1.622   0.043  0.6231  1.8585 -0.4948
 4198SOL    HW224228   4.460   1.637  17.703 -0.0382 -0.5761  0.1627
 4199SOL     OW24229   1.086   0.048   6.843  0.1224  0.4434 -0.3071
 4199SOL    HW124230   1.121   4.704   6.878  0.5723  1.2911  1.2681
 4199SOL    HW224231   0.992   0.034   6.851  0.2053  0.1360  0.1587
 4200SOL     OW24232   2.343   2.986  12.872  0.3954 -0.7048 -0.0769
 4200SOL    HW124233   2.288   3.040  12.815  1.2015 -0.9586 -1.0994
 4200SOL    HW224234   2.338   2.898  12.834  1.9958 -1.1573  0.7515
 4201SOL     OW24235   4.430   3.430   7.565  0.6028 -0.1373 -0.0772
 4201SOL    HW124236   4.455   3.476   7.485 -1.1355 -0.5547 -0.8584
 4201SOL    HW224237   4.483   3.478   7.629 -0.7852  0.3189  0.7065
 4202SOL     OW24238   3.581   4.341   6.021  0.1566  0.0783 -0.1471
 4202SOL    HW124239   3.553   4.381   6.103  2.8308 -0.8438  1.1804
 4202SOL    HW224240   3.564   4.247   6.033  0.8243  0.0316  0.3847
 4203SOL     OW24241   0.155   0.729   7.862 -0.2734  0.4809  0.0882
 4203SOL    HW124242   0.222   0.796   7.848 -2.0346  1.6328 -2.7672
 4203SOL    HW224243   0.100   0.774   7.926  1.0599  0.1844  1.4589
 4204SOL     OW24244   3.806   3.088   7.819  0.6693  0.7196 -0.1061
 4204SOL    HW124245   3.875   3.101   7.884  0.1487 -1.5824  0.9018
 4204SOL    HW224246   3.860   3.079   7.740 -0.2348 -0.4808 -0.5908
 4205SOL     OW24247   4.414   3.555   5.130  0.5141  0.1760 -0.6617
 4205SOL    HW124248   4.473   3.584   5.200  0.9863 -0.6963 -0.6946
 4205SOL    HW224249   4.394   3.641   5.092 -1.6180 -0.3401 -0.7133
 4206SOL     OW24250   1.199   0.548   5.933 -0.2031  0.2780  0.3414
 4206SOL    HW124251   1.243   0.615   5.985  1.3607  0.0573 -0.6984
 4206SOL    HW224252   1.117   0.586   5.902 -0.2450 -0.3463 -0.3143
 4207SOL     OW24253   1.957   3.052   0.751  0.1458  0.4571 -0.2787
 4207SOL    HW124254   2.042   3.079   0.787 -0.0982  1.7238 -0.6444
 4207SOL    HW224255   1.953   3.119   0.682 -1.1775 -1.8398 -2.4086
 4208SOL     OW24256   3.157   2.857   3.747  0.2052  0.1334  0.1447
 4208SOL    HW124257   3.155   2.938   3.798  2.1462 -0.2431  0.8333
 4208SOL    HW224258   3.180   2.800   3.820 -0.6940  1.4024  1.4340
 4209SOL     OW24259   0.902   2.237   8.585  0.3034 -0.1785 -0.1550
 4209SOL    HW124260   0.811   2.263   8.598  1.0590  0.8163  3.0476
 4209SOL    HW224261   0.909   2.146   8.616 -0.4096 -0.2484 -0.2065
 4210SOL     OW24262   2.838   2.981   2.816 -0.5772 -0.1817 -0.4604
 4210SOL    HW124263   2.847   2.949   2.726 -1.3061 -0.4137 -0.4544
 4210SOL    HW224264   2.929   2.991   2.842 -1.5428  3.0506  1.6784
 4211SOL     OW24265   4.722   2.595   6.886  0.3404 -0.1142  0.6473
 4211SOL    HW124266   4.674   2.602   6.969  0.5750 -2.4630  0.9903
 4211SOL    HW224267   0.002   2.501   6.888 -0.0121 -0.1807  0.8836
 4212SOL     OW24268   0.355   1.137   0.673  0.3813 -0.1336 -0.1190
 4212SOL    HW124269   0.383   1.179   0.754  2.9955 -3.5904  0.7435
 4212SOL    HW224270   0.274   1.100   0.709 -0.1392  0.5960 -0.5232
 4213SOL     OW24271   4.137   2.013   9.145  0.1513 -0.2405 -0.0495
 4213SOL    HW124272   4.089   1.971   9.216 -0.4570  1.1672  0.3860
 4213SOL    HW224273   4.140   2.104   9.175 -0.8064 -0.4889  0.7841
 4214SOL     OW24274   3.809   3.345   9.639 -0.5332 -0.3147  0.5508
 4214SOL    HW124275   3.791   3.292   9.561  0.3224  1.1271 -0.6184
 4214SOL    HW224276   3.721   3.360   9.674 -1.1366 -0.1364 -1.0092
 4215SOL     OW24277   2.434   1.303   0.866 -0.4464  0.0403  0.0223
 4215SOL    HW124278   2.386   1.386   0.858  0.6741  0.7816  0.8914
 4215SOL    HW224279   2.460   1.295   0.775 -2.1375 -2.2094 -0.2538
 4216SOL     OW24280   4.340   1.080   3.058 -0.2954  0.3477 -0.6701
 4216SOL    HW124281   4.341   0.988   3.032 -0.2602 -0.1351  1.0170
 4216SOL    HW224282   4.358   1.080   3.152  0.8241  0.5045 -0.8823
 4217SOL     OW24283   3.747   4.120  13.606 -0.6269 -0.0093 -0.1961
 4217SOL    HW124284   3.669   4.149  13.559  1.3097  2.2011 -1.9674
 4217SOL    HW224285   3.783   4.185  13.667 -0.6375  1.0635 -1.3461
 4218SOL     OW24286   1.901   3.291  15.950 -0.4071 -0.1473  0.1331
 4218SOL    HW124287   1.994   3.269  15.955  0.0240  1.9850  1.2227
 4218SOL    HW224288   1.892   3.356  16.019  1.0809  0.1638  0.0311
 4219SOL     OW24289   3.067   4.679   6.881 -0.3252 -0.3499 -0.0834
 4219SOL    HW124290   3.047   0.034   6.878  4.7591  0.7073 -0.7664
 4219SOL    HW224291   3.087   4.677   6.975 -1.5871  1.8849  0.2391
 4220SOL     OW24292   3.569   2.774   4.784  0.0974  0.0571  0.5991
 4220SOL    HW124293   3.523   2.715   4.725 -1.8702  1.6673  0.5480
 4220SOL    HW224294   3.492   2.815   4.822 -0.6231 -1.3664  0.6851
 4221SOL     OW24295   2.083   3.865   3.511  0.3910  0.0691  0.0621
 4221SOL    HW124296   2.173   3.898   3.512  1.2438 -2.4032  2.2873
 4221SOL    HW224297   2.089   3.785   3.458  1.7938 -2.4458  4.0300
 4222SOL     OW24298   0.293   1.440   6.278  0.5466 -0.5392 -0.0178
 4222SOL    HW124299   0.211   1.480   6.307 -1.6792 -3.7214 -1.8642
 4222SOL    HW224300   0.358   1.506   6.303 -0.3767 -0.5184  2.3436
 4223SOL     OW24301   3.719   2.339  17.089 -0.0600  0.3411  0.3585
 4223SOL    HW124302   3.797   2.332  17.143 -0.2161  0.1858  0.5587
 4223SOL    HW224303   3.731   2.260  17.037 -1.0598 -0.0394  0.7067
 4224SOL     OW24304   3.525   4.474   9.739  0.1562 -0.1996  0.1375
 4224SOL    HW124305   3.435   4.502   9.757  0.0834  0.0606 -0.6161
 4224SOL    HW224306   3.562   4.486   9.826 -1.2065  0.8622  0.5834
 4225SOL     OW24307   0.364   3.753   4.877 -0.5368  0.5019  0.4424
 4225SOL    HW124308   0.323   3.734   4.793  1.0815 -0.3613 -0.1644
 4225SOL    HW224309   0.288   3.773   4.931  0.4084  1.4394  1.4324
 4226SOL     OW24310   0.356   2.714  17.416  0.0564  0.2283  0.4522
 4226SOL    HW124311   0.268   2.677  17.414  0.6376 -1.1908  1.3972
 4226SOL    HW224312   0.393   2.673  17.494  0.9244  0.1090 -0.0232
 4227SOL     OW24313   3.756   4.229  11.447  0.1919 -0.1112 -0.0251
 4227SOL    HW124314   3.802   4.210  11.366  1.2168  2.0074  0.0685
 4227SOL    HW224315   3.741   4.323  11.441  1.2910  0.0451 -0.3404
 4228SOL     OW24316   0.848   1.108   7.926 -0.8558 -0.1147  0.1401
 4228SOL    HW124317   0.807   1.083   7.843 -0.5658  1.5931 -0.5189
 4228SOL    HW224318   0.775   1.131   7.983 -1.0027  1.4569 -0.6770
 4229SOL     OW24319   4.287   4.610  16.110  0.2221  0.4592 -0.0727
 4229SOL    HW124320   4.295   4.694  16.155 -1.6183 -0.2955  1.6894
 4229SOL    HW224321   4.368   4.566  16.132  0.8653  1.2009 -0.9500
 4230SOL     OW24322   4.376   2.850   5.640  0.4124 -0.1369 -0.3271
 4230SOL    HW124323   4.470   2.836   5.643  0.2495 -1.0857  0.6648
 4230SOL    HW224324   4.373   2.946   5.637 -0.5376 -0.0693  1.9062
 4231SOL     OW24325   2.736   3.325  14.706 -0.8859  0.2469 -0.1654
 4231SOL    HW124326   2.727   3.416  14.677 -0.6201 -0.0364 -1.1424
 4231SOL    HW224327   2.790   3.290  14.635 -0.5068  0.6152 -0.0570
 4232SOL     OW24328   1.943   4.479   3.614 -1.0018  0.0836 -0.0444
 4232SOL    HW124329   1.854   4.466   3.581 -1.2011 -0.4599  0.6936
 4232SOL    HW224330   1.942   4.571   3.638  0.7296 -0.0537  0.5438
 4233SOL     OW24331   2.244   2.932  15.766 -0.3591  0.9331  0.5421
 4233SOL    HW124332   2.166   2.987  15.764 -0.3136  0.9415 -0.8429
 4233SOL    HW224333   2.304   2.976  15.706  2.2361 -1.1433  1.5910
 4234SOL     OW24334   0.804   3.567   4.681  0.3659 -0.4124 -0.4627
 4234SOL    HW124335   0.874   3.505   4.701  0.1786 -0.7407 -0.8088
 4234SOL    HW224336   0.839   3.641   4.730 -0.7201  2.6145 -4.2757
 4235SOL     OW24337   0.707   4.328   6.873  0.2257  0.2175 -0.3776
 4235SOL    HW124338   0.693   4.269   6.799  1.6406 -0.8178  0.1932
 4235SOL    HW224339   0.676   4.265   6.939 -0.6133  1.4514  0.4071
 4236SOL     OW24340   4.094   4.108  16.696  0.1998  0.2110  0.6414
 4236SOL    HW124341   4.006   4.118  16.661 -0.3631  0.6896  2.1724
 4236SOL    HW224342   4.080   4.073  16.784 -3.1426  2.5125  1.0257
 4237SOL     OW24343   3.097   3.003   9.957  0.0066 -0.7533  0.8035
 4237SOL    HW124344   3.187   3.025   9.979 -0.0644 -0.6358  0.9751
 4237SOL    HW224345   3.115   2.949   9.879 -2.1799 -3.3466  2.0987
 4238SOL     OW24346   0.904   4.020   2.566 -0.6335  0.0065  0.1293
 4238SOL    HW124347   0.973   4.086   2.567 -0.2440 -0.3502 -2.9452
 4238SOL    HW224348   0.846   4.055   2.498 -0.5969  1.4130  0.8345
 4239SOL     OW24349   3.411   0.632   4.664  0.5716 -0.2120 -0.2477
 4239SOL    HW124350   3.366   0.567   4.610  1.6818 -0.6958 -0.6032
 4239SOL    HW224351   3.470   0.583   4.722  0.7850 -0.0372 -0.3174
 4240SOL     OW24352   1.478   3.141   9.843 -0.4568  0.5901  0.1842
 4240SOL    HW124353   1.456   3.107   9.756 -2.3656  2.5043 -0.0906
 4240SOL    HW224354   1.468   3.235   9.824 -0.7062  0.3421 -0.9505
 4241SOL     OW24355   3.930   4.289  11.232 -0.2979 -0.0097  0.1169
 4241SOL    HW124356   3.941   4.359  11.167  0.6940 -0.0004  0.2864
 4241SOL    HW224357   3.989   4.220  11.202 -0.1667 -0.0017  0.3562
 4242SOL     OW24358   1.352   3.541   5.609 -0.3714  0.0118  0.1660
 4242SOL    HW124359   1.400   3.619   5.635  1.4266 -1.4915  1.3339
 4242SOL    HW224360   1.385   3.470   5.665 -1.9954  0.8625  2.2402
 4243SOL     OW24361   1.301   0.826   5.062 -0.0638  0.5064  0.1287
 4243SOL    HW124362   1.231   0.831   5.126  0.2031 -0.4730  0.5019
 4243SOL    HW224363   1.376   0.843   5.120  0.4967  1.4229 -0.8581
 4244SOL     OW24364   1.212   4.150   4.413  0.0575 -0.2141  0.1257
 4244SOL    HW124365   1.295   4.198   4.415  1.6821 -3.0824  0.9928
 4244SOL    HW224366   1.164   4.190   4.486 -0.6975  1.6187 -1.3873
 4245SOL     OW24367   1.643   1.372  12.982 -0.2476 -0.4750  0.2619
 4245SOL    HW124368   1.732   1.406  12.990 -0.3046 -0.2278 -0.1274
 4245SOL    HW224369   1.589   1.430  13.036 -2.0575 -0.2129 -1.7994
 4246SOL     OW24370   1.001   0.637   0.673 -0.0647 -0.2892  0.0017
 4246SOL    HW124371   0.934   0.634   0.604 -0.0281 -4.5365  0.1562
 4246SOL    HW224372   1.081   0.623   0.622  0.1525 -2.6830  1.0362
 4247SOL     OW24373   3.334   0.116   4.655 -0.3233  0.1614  0.1515
 4247SOL    HW124374   3.424   0.138   4.631 -0.8208  1.1177 -0.8436
 4247SOL    HW224375   3.303   0.073   4.575  0.9559 -0.3065 -0.0930
 4248SOL     OW24376   0.525   3.753   8.010  0.2097  0.4883 -0.0440
 4248SOL    HW124377   0.538   3.813   7.938  0.8657 -0.2530 -0.5417
 4248SOL    HW224378   0.461   3.697   7.965 -0.8900 -0.5249  2.7664
 4249SOL     OW24379   4.234   0.151   7.515 -0.0701 -0.2754  0.0224
 4249SOL    HW124380   4.265   0.098   7.442  0.4742 -0.8483  0.6682
 4249SOL    HW224381   4.172   0.103   7.569  0.2270  0.6072  1.1547
 4250SOL     OW24382   0.021   0.327   1.265  0.1801  0.3252 -0.5190
 4250SOL    HW124383   0.068   0.411   1.261 -1.3608  1.1731 -0.8628
 4250SOL    HW224384   0.090   0.262   1.275  2.0787  2.6139  1.2909
 4251SOL     OW24385   1.813   3.867   7.510  0.8529  0.1247  0.0429
 4251SOL    HW124386   1.789   3.959   7.499  0.2130 -0.2111 -1.3544
 4251SOL    HW224387   1.901   3.883   7.546  1.5383  0.8825 -1.9548
 4252SOL     OW24388   2.188   1.484   4.784 -0.0315 -0.0406  0.5059
 4252SOL    HW124389   2.167   1.498   4.692  0.4351  3.6574  0.9965
 4252SOL    HW224390   2.104   1.476   4.829 -0.7673  2.8236 -0.3924
 4253SOL     OW24391   1.003   3.665   8.627 -0.2780  0.1290 -0.3805
 4253SOL    HW124392   1.085   3.671   8.576  0.3001  0.1120  0.5532
 4253SOL    HW224393   0.944   3.729   8.587 -1.4928 -1.1847 -0.6743
 4254SOL     OW24394   1.790   4.565   6.077  0.5793 -0.1077 -0.2577
 4254SOL    HW124395   1.872   4.560   6.027  0.2998 -0.0340 -0.7270
 4254SOL    HW224396   1.830   4.605   6.153 -0.0788  0.1393 -0.0438
 4255SOL     OW24397   0.562   0.758  15.577 -0.4740 -0.1090  0.4362
 4255SOL    HW124398   0.592   0.832  15.524  1.5970 -0.3271  1.3152
 4255SOL    HW224399   0.508   0.805  15.641 -1.8473  0.4586 -1.1578
 4256SOL     OW24400   1.064   4.609   8.408  0.0105  0.1091 -0.1900
 4256SOL    HW124401   1.080   4.610   8.503 -2.3167  0.5498  0.1906
 4256SOL    HW224402   0.977   4.575   8.390  0.0375 -0.1117  0.0970
 4257SOL     OW24403   2.303   3.267   7.151 -0.6222 -0.5771  0.0349
 4257SOL    HW124404   2.366   3.291   7.220 -1.3336 -1.3071  0.9402
 4257SOL    HW224405   2.233   3.332   7.166 -0.1973 -0.3191  0.9161
 4258SOL     OW24406   0.860   1.950   7.819 -0.2029 -0.1778  0.0443
 4258SOL    HW124407   0.787   1.933   7.760 -1.4015 -1.7813  2.0027
 4258SOL    HW224408   0.930   1.895   7.783 -0.0513 -0.6963  1.1444
 4259SOL     OW24409   1.307   3.651  14.112  0.0773 -0.3946 -0.4112
 4259SOL    HW124410   1.262   3.694  14.184 -0.0944 -0.6979 -0.3359
 4259SOL    HW224411   1.303   3.562  14.148 -0.6262  0.2797  1.1926
 4260SOL     OW24412   1.215   4.463   5.401  0.4676 -0.0485  0.4818
 4260SOL    HW124413   1.192   4.461   5.494  1.1306 -0.2532  0.6427
 4260SOL    HW224414   1.298   4.510   5.413 -0.3583  1.6304 -0.4809
 4261SOL     OW24415   3.230   4.405   1.600 -0.0841 -0.3790  0.3340
 4261SOL    HW124416   3.207   4.411   1.693  0.7099  0.8681  0.4478
 4261SOL    HW224417   3.210   4.493   1.568 -0.3008 -0.1594  1.0779
 4262SOL     OW24418   0.904   0.817  12.301 -0.8864  0.3793 -0.1931
 4262SOL    HW124419   0.890   0.773  12.385 -0.4831 -0.7617 -0.7218
 4262SOL    HW224420   0.965   0.882  12.334 -1.3834 -0.9725  3.3977
 4263SOL     OW24421   3.326   1.360   0.525  0.2484 -0.5284 -0.2186
 4263SOL    HW124422   3.293   1.282   0.569 -1.9826  0.5776  0.0429
 4263SOL    HW224423   3.267   1.425   0.564 -0.0857 -0.6657 -0.5050
 4264SOL     OW24424   2.552   1.588   7.861  1.1381 -0.4504  0.0357
 4264SOL    HW124425   2.518   1.567   7.948 -0.2619 -1.4223 -0.7375
 4264SOL    HW224426   2.566   1.681   7.878  1.3735 -0.4584 -0.1188
 4265SOL     OW24427   0.815   2.788  10.594  0.2813 -0.6163 -0.1192
 4265SOL    HW124428   0.748   2.810  10.529  0.9991  0.3528 -0.5273
 4265SOL    HW224429   0.801   2.694  10.602  0.8856 -0.6066  1.0811
 4266SOL     OW24430   1.183   1.298  11.483 -0.0758  0.0894 -0.3789
 4266SOL    HW124431   1.090   1.279  11.475  0.8450 -3.3948 -3.0017
 4266SOL    HW224432   1.184   1.351  11.562  0.5669  0.1739 -0.4378
 4267SOL     OW24433   3.878   3.656   8.800 -0.1964 -0.2026 -0.0975
 4267SOL    HW124434   3.827   3.738   8.792  2.2734  1.2349 -1.1263
 4267SOL    HW224435   3.965   3.689   8.776 -0.1284  0.1538  0.6523
 4268SOL     OW24436   3.391   2.414  16.560  0.6039  0.3242  0.7237
 4268SOL    HW124437   3.420   2.324  16.571 -0.7559 -0.2409 -0.2604
 4268SOL    HW224438   3.348   2.426  16.645 -3.0728 -0.4484 -1.0461
 4269SOL     OW24439   2.894   0.393   5.597 -0.3312  0.5377 -0.1233
 4269SOL    HW124440   2.964   0.457   5.603  0.3203 -0.2276  0.3494
 4269SOL    HW224441   2.860   0.406   5.685 -3.0368  1.5187 -1.2884
 4270SOL     OW24442   4.400   1.340   6.554  0.1693 -0.1581 -0.0191
 4270SOL    HW124443   4.446   1.263   6.587 -0.3783 -0.7907 -0.7291
 4270SOL    HW224444   4.342   1.296   6.492  0.2189 -0.7277  0.3430
 4271SOL     OW24445   0.319   2.572   7.304  0.0605  0.3099 -0.1692
 4271SOL    HW124446   0.281   2.605   7.385  3.1043 -2.5129  2.3702
 4271SOL    HW224447   0.243   2.562   7.246  0.8005  0.8113 -1.2381
 4272SOL     OW24448   1.505   0.182   0.120 -0.0941  0.2020  0.3935
 4272SOL    HW124449   1.529   0.263   0.074 -0.0506 -0.0288  0.0033
 4272SOL    HW224450   1.410   0.189   0.117 -0.1007 -0.7140 -2.2234
 4273SOL     OW24451   4.118   4.054  15.741 -0.2661  0.3044 -0.6987
 4273SOL    HW124452   4.134   4.143  15.712  0.4630  0.7505  1.0552
 4273SOL    HW224453   4.206   4.030  15.770 -0.1478 -0.0936 -1.3957
 4274SOL     OW24454   3.551   0.105   8.157 -0.0081 -0.1524  0.1837
 4274SOL    HW124455   3.580   0.160   8.230  0.5151 -1.0259  0.6287
 4274SOL    HW224456   3.488   0.165   8.118  1.3439  0.2048 -1.4648
 4275SOL     OW24457   3.512   3.371   9.245 -0.1495 -0.1232  0.5775
 4275SOL    HW124458   3.453   3.382   9.319 -0.6906 -1.7210  0.3758
 4275SOL    HW224459   3.450   3.312   9.201 -1.5963 -0.0971  2.6124
 4276SOL     OW24460   0.376   1.154   4.125  0.6113 -0.3183 -0.3376
 4276SOL    HW124461   0.421   1.163   4.041 -1.8932 -1.1828 -1.7800
 4276SOL    HW224462   0.412   1.075   4.164 -0.4653 -1.2990 -1.3006
 4277SOL     OW24463   4.311   2.589   9.137  0.0145  0.0058 -0.2901
 4277SOL    HW124464   4.362   2.662   9.173 -0.8646  1.8129 -2.6937
 4277SOL    HW224465   4.233   2.602   9.192 -0.2691  0.5661 -0.8225
 4278SOL     OW24466   3.877   3.938   6.489 -0.1583  0.5967  0.2691
 4278SOL    HW124467   3.843   3.868   6.433  1.6957 -0.5632  0.5901
 4278SOL    HW224468   3.856   4.014   6.435  1.6059  1.3970  0.7045
 4279SOL     OW24469   4.541   2.500  15.406 -0.1099 -0.2725  0.1107
 4279SOL    HW124470   4.545   2.489  15.311 -2.3248  0.9270 -0.1263
 4279SOL    HW224471   4.635   2.512  15.415 -0.3870  1.3984  0.7266
 4280SOL     OW24472   3.817   2.630   8.578 -0.0416  0.0082  0.1637
 4280SOL    HW124473   3.740   2.651   8.526  0.4859 -0.0969 -0.6474
 4280SOL    HW224474   3.884   2.646   8.512  0.4171 -2.2350  0.0936
 4281SOL     OW24475   4.170   2.758  12.289 -0.2524  0.0201 -0.5224
 4281SOL    HW124476   4.235   2.771  12.359 -2.5894 -2.5083  2.1136
 4281SOL    HW224477   4.096   2.813  12.315  0.8087  1.8369 -1.3099
 4282SOL     OW24478   0.882   0.031   5.802 -0.5340 -0.1555 -0.0444
 4282SOL    HW124479   0.969   0.034   5.761  0.2241 -1.2348  1.5001
 4282SOL    HW224480   0.897   4.706   5.871 -1.5419 -1.6586 -1.2253
 4283SOL     OW24481   3.240   1.662   6.225  0.0128 -0.2518 -0.2468
 4283SOL    HW124482   3.197   1.610   6.293 -0.3041  2.4099  1.5772
 4283SOL    HW224483   3.330   1.634   6.247 -0.4656 -0.6136  1.2927
 4284SOL     OW24484   1.158   0.730   6.704  0.6168 -0.6224 -0.5017
 4284SOL    HW124485   1.205   0.651   6.677 -0.8435 -1.9571  0.9192
 4284SOL    HW224486   1.078   0.696   6.745 -0.0951 -0.5646 -1.8344
 4285SOL     OW24487   3.556   1.450   4.645  0.0553 -0.1708  0.2473
 4285SOL    HW124488   3.467   1.482   4.659  0.3314  1.1901 -1.0638
 4285SOL    HW224489   3.610   1.510   4.697  0.0997  0.2385 -0.2704
 4286SOL     OW24490   1.460   0.376  13.959  0.0157 -0.2592 -0.5268
 4286SOL    HW124491   1.405   0.317  14.010  2.8432 -1.9202  0.6013
 4286SOL    HW224492   1.514   0.319  13.904 -0.0177 -1.0180  0.2339
 4287SOL     OW24493   0.954   1.706   5.283 -0.0979  0.1692  0.1379
 4287SOL    HW124494   0.864   1.673   5.272 -0.3955  0.5987  1.2296
 4287SOL    HW224495   0.929   1.798   5.271  0.4543  0.6123  2.3825
 4288SOL     OW24496   1.585   0.414   4.889  0.3045  0.2517  0.0546
 4288SOL    HW124497   1.543   0.487   4.935  0.5653  0.5245 -0.1387
 4288SOL    HW224498   1.551   0.337   4.934  2.0269  0.3768  1.5273
 4289SOL     OW24499   2.246   0.312   6.455  0.1214  0.1649 -0.5681
 4289SOL    HW124500   2.228   0.398   6.417  0.4022 -0.1146 -1.3298
 4289SOL    HW224501   2.319   0.289   6.398 -0.7010 -4.0253  0.0574
 4290SOL     OW24502   0.994   2.648  15.928 -0.0776 -0.6688  0.3702
 4290SOL    HW124503   0.977   2.623  15.838  1.1945 -0.3847  0.0502
 4290SOL    HW224504   1.065   2.712  15.933 -1.0918  0.4493  0.4094
 4291SOL     OW24505   4.146   4.405  16.258 -0.3523 -1.1446  0.0792
 4291SOL    HW124506   4.194   4.457  16.194 -0.8318  0.4235  1.0130
 4291SOL    HW224507   4.056   4.437  16.249  0.8437  1.3999 -2.8966
 4292SOL     OW24508   2.530   2.975   9.513  0.1439 -0.0993 -0.3205
 4292SOL    HW124509   2.510   2.887   9.544  2.9340 -0.6083 -0.0300
 4292SOL    HW224510   2.600   3.019   9.562  1.2492 -1.3431 -0.8088
 4293SOL     OW24511   4.295   1.108   9.155  0.9864 -0.4653  0.0146
 4293SOL    HW124512   4.219   1.153   9.191  0.4725 -2.0276  0.8587
 4293SOL    HW224513   4.358   1.180   9.151 -3.0483  3.0906  0.6636
 4294SOL     OW24514   4.212   0.035   9.392  0.0059  0.2836 -0.2796
 4294SOL    HW124515   4.239   0.126   9.402  0.2225  0.1283  0.5388
 4294SOL    HW224516   4.193   0.005   9.481 -0.9532  0.4879 -0.4209
 4295SOL     OW24517   3.494   3.334   2.042 -0.4043 -0.4129  0.0691
 4295SOL    HW124518   3.417   3.309   2.093 -0.3275 -1.0124 -0.1135
 4295SOL    HW224519   3.453   3.344   1.956 -1.4067 -3.2174  0.2235
 4296SOL     OW24520   0.215   2.541   6.106  0.2219  0.0352 -0.2546
 4296SOL    HW124521   0.287   2.603   6.117  0.8819 -0.9295  0.8897
 4296SOL    HW224522   0.262   2.458   6.116  0.1779  0.4264  2.9739
 4297SOL     OW24523   1.119   0.243   6.214  0.2297  0.0133  0.1276
 4297SOL    HW124524   1.128   0.336   6.232 -1.7370 -0.3319  2.8908
 4297SOL    HW224525   1.199   0.199   6.243  0.3504 -0.3204 -0.6836
 4298SOL     OW24526   3.021   1.716   6.049  0.2008  0.6067 -0.2077
 4298SOL    HW124527   3.101   1.730   6.101  0.6776 -1.0364 -0.5029
 4298SOL    HW224528   3.016   1.621   6.050  0.5036  0.5932  0.2138
 4299SOL     OW24529   0.973   0.721   3.656  0.0190  0.1613 -0.5419
 4299SOL    HW124530   0.888   0.677   3.652  0.0430  0.1448 -0.8131
 4299SOL    HW224531   1.033   0.650   3.677 -1.6415 -1.1493 -0.1957
 4300SOL     OW24532   3.225   1.637   5.326  0.2253 -0.4238  0.0030
 4300SOL    HW124533   3.298   1.583   5.294  2.2468  1.0100  2.2156
 4300SOL    HW224534   3.207   1.694   5.251 -0.4615  0.7381  1.0509
 4301SOL     OW24535   1.897   4.344  13.340 -0.7327 -0.3629  0.3376
 4301SOL    HW124536   1.950   4.371  13.265  0.7392  0.8560  1.8206
 4301SOL    HW224537   1.924   4.403  13.410  3.9220 -1.0848 -0.8711
 4302SOL     OW24538   1.655   4.714  12.190 -0.0532  0.2956  0.1522
 4302SOL    HW124539   1.686   0.065  12.181 -2.8421  1.1236 -1.0504
 4302SOL    HW224540   1.706   4.679  12.263  0.2099 -1.8071 -1.0654
 4303SOL     OW24541   3.252   1.277   8.509 -0.1735 -0.3272 -0.8189
 4303SOL    HW124542   3.160   1.261   8.492  0.2627 -3.1627 -0.5270
 4303SOL    HW224543   3.277   1.340   8.441 -0.1091 -0.1269 -0.6110
 4304SOL     OW24544   1.213   3.419   6.920 -0.3030  0.3115  0.0429
 4304SOL    HW124545   1.171   3.355   6.979  0.1472  0.8757  0.9706
 4304SOL    HW224546   1.215   3.493   6.981 -0.8162 -0.3260  0.8438
 4305SOL     OW24547   2.832   2.252   3.547  0.1651  0.2452  0.0548
 4305SOL    HW124548   2.917   2.295   3.544  0.5508 -0.2514  3.4516
 4305SOL    HW224549   2.799   2.262   3.637 -1.0361 -2.0712 -0.1364
 4306SOL     OW24550   0.076   0.575   1.866 -0.0810  0.6510 -0.0624
 4306SOL    HW124551   0.155   0.540   1.825 -0.3701 -1.6332  1.2925
 4306SOL    HW224552   0.033   0.489   1.869  0.5791  0.3556  0.9007
 4307SOL     OW24553   3.898   0.397   8.490 -0.0879  0.0442  0.5048
 4307SOL    HW124554   3.950   0.378   8.568 -0.1849  0.7310  0.7420
 4307SOL    HW224555   3.854   0.481   8.501  0.7897  0.9376 -2.6946
 4308SOL     OW24556   2.999   3.209   7.404 -0.2988 -0.1131 -0.3950
 4308SOL    HW124557   3.081   3.164   7.424 -0.8590 -0.4078  1.1996
 4308SOL    HW224558   2.933   3.147   7.374 -1.5757  1.7230 -1.4128
 4309SOL     OW24559   0.749   3.478   1.402 -0.2093 -0.0164 -0.1378
 4309SOL    HW124560   0.733   3.569   1.429 -5.9467 -1.4702  1.4021
 4309SOL    HW224561   0.669   3.426   1.394  2.3022 -3.5634 -1.9689
 4310SOL     OW24562   1.346   4.523   6.209  0.1664  0.0490 -0.5161
 4310SOL    HW124563   1.408   4.589   6.176 -0.9950  1.3008 -0.2029
 4310SOL    HW224564   1.402   4.445   6.204  0.7538  0.4743 -0.6918
 4311SOL     OW24565   2.194   3.790  12.503  0.1414  0.6329  0.1267
 4311SOL    HW124566   2.192   3.877  12.542  0.5039  1.2399 -1.2127
 4311SOL    HW224567   2.102   3.769  12.485  0.0230  1.0034  0.2944
 4312SOL     OW24568   0.463   2.201   1.430 -1.1400  0.1175 -0.5239
 4312SOL    HW124569   0.467   2.137   1.359 -3.0995 -1.5804  0.8836
 4312SOL    HW224570   0.551   2.188   1.465 -1.3396  1.1004  0.3439
 4313SOL     OW24571   2.755   2.777   8.462  0.3612  0.1533 -0.4617
 4313SOL    HW124572   2.732   2.810   8.549 -1.7809  2.5824 -1.9333
 4313SOL    HW224573   2.778   2.858   8.417 -0.0820 -0.0295 -1.0271
 4314SOL     OW24574   0.729   4.656   3.854 -0.0835 -0.1129 -0.2291
 4314SOL    HW124575   0.680   4.635   3.934 -0.4090 -1.4551 -0.7780
 4314SOL    HW224576   0.755   0.004   3.886 -1.3006 -0.1452  0.8442
 4315SOL     OW24577   4.396   1.237   8.390 -0.1135  0.2043 -0.6242
 4315SOL    HW124578   4.432   1.237   8.479  1.9409  0.8854 -1.4663
 4315SOL    HW224579   4.398   1.145   8.363 -0.1456  0.3914 -1.2645
 4316SOL     OW24580   0.842   4.376  15.599 -0.0224  0.2644 -0.0988
 4316SOL    HW124581   0.812   4.432  15.527 -1.4354 -2.3407 -1.5526
 4316SOL    HW224582   0.934   4.400  15.589 -0.3429  0.8554 -1.7105
 4317SOL     OW24583   3.889   2.353  12.713 -0.3133  0.1569 -0.0117
 4317SOL    HW124584   3.833   2.389  12.782 -1.4708  0.9767 -1.3737
 4317SOL    HW224585   3.830   2.371  12.640 -0.9228  0.8426  0.6439
 4318SOL     OW24586   1.882   0.994   8.814  0.3582 -0.7690 -0.3044
 4318SOL    HW124587   1.808   1.010   8.872 -0.2454 -1.1007 -0.9732
 4318SOL    HW224588   1.875   0.898   8.820 -1.5643 -0.5683  0.6974
 4319SOL     OW24589   4.183   3.309  10.077  0.0963  0.3078 -0.1559
 4319SOL    HW124590   4.231   3.388  10.101  1.3753 -0.0262 -1.5678
 4319SOL    HW224591   4.120   3.336  10.010 -1.1370 -0.4891  0.6872
 4320SOL     OW24592   2.842   3.443   4.466 -0.2350  0.4048  0.3820
 4320SOL    HW124593   2.824   3.360   4.509 -1.4366 -0.2119 -1.2859
 4320SOL    HW224594   2.837   3.420   4.373  1.7990 -0.6246  0.5286
 4321SOL     OW24595   3.477   1.218   5.879  0.1191  0.7035  0.3221
 4321SOL    HW124596   3.407   1.262   5.831  0.1964  0.2620 -0.2057
 4321SOL    HW224597   3.516   1.168   5.806 -0.0453  0.0692  0.6643
 4322SOL     OW24598   2.460   2.399   7.298  0.2591 -0.7287  0.2486
 4322SOL    HW124599   2.385   2.405   7.356 -0.6812  3.3027 -1.4102
 4322SOL    HW224600   2.489   2.308   7.297 -2.0476 -1.4725  1.0143
 4323SOL     OW24601   0.704   4.333   5.540 -0.2789  0.2321  0.3705
 4323SOL    HW124602   0.783   4.353   5.489  0.0057  0.9209  1.0665
 4323SOL    HW224603   0.734   4.264   5.599  0.5573 -0.7732 -1.2285
 4324SOL     OW24604   1.121   2.161  15.440 -0.4112  0.7647 -0.3135
 4324SOL    HW124605   1.120   2.136  15.532 -0.0992  0.6466 -0.3434
 4324SOL    HW224606   1.205   2.208  15.440  0.7779 -1.3517  1.0855
 4325SOL     OW24607   2.367   4.253   1.961 -0.2140 -0.2128 -0.1379
 4325SOL    HW124608   2.451   4.221   1.930  0.2181  0.6655  0.1189
 4325SOL    HW224609   2.371   4.207   2.045 -1.0823  0.6992  0.4117
 4326SOL     OW24610   3.892   1.160   9.471 -0.3259  0.3867  0.3535
 4326SOL    HW124611   3.797   1.153   9.480 -0.5983 -0.6147 -3.5259
 4326SOL    HW224612   3.896   1.249   9.507 -3.2547 -0.3723  2.5185
 4327SOL     OW24613   2.308   2.767  13.227 -0.4863 -0.7533  0.8511
 4327SOL    HW124614   2.360   2.844  13.249  0.5642 -1.3082  0.2824
 4327SOL    HW224615   2.351   2.710  13.290  0.7210 -2.7526 -1.8083
 4328SOL     OW24616   3.568   3.067  16.960 -0.0986 -0.0924  0.4793
 4328SOL    HW124617   3.476   3.041  16.953  0.3190 -1.6747  0.9651
 4328SOL    HW224618   3.564   3.098  17.050 -0.4806  2.0170 -0.2641
 4329SOL     OW24619   0.723   2.815  15.346 -0.1601  0.0707  0.5657
 4329SOL    HW124620   0.767   2.895  15.373  2.1932 -1.3600  0.9662
 4329SOL    HW224621   0.674   2.839  15.267  1.8522 -2.9139 -1.5805
 4330SOL     OW24622   3.169   0.519  11.007 -0.0872 -0.1077  0.8223
 4330SOL    HW124623   3.244   0.572  10.980  0.0843  0.0284  1.5772
 4330SOL    HW224624   3.121   0.511  10.924  0.7528  0.9874  0.2264
 4331SOL     OW24625   4.268   0.726   9.166 -0.0605  0.5603  0.0188
 4331SOL    HW124626   4.345   0.749   9.114 -0.5404  2.3267  0.1032
 4331SOL    HW224627   4.298   0.766   9.248 -0.1452  0.3041  0.1744
 4332SOL     OW24628   2.752   2.399   4.045 -0.3547  0.1004  0.2903
 4332SOL    HW124629   2.825   2.453   4.075 -1.0655  0.8454  0.6812
 4332SOL    HW224630   2.803   2.334   3.996  0.4137  0.3371  0.7838
 4333SOL     OW24631   4.715   0.612  13.124  0.2567  0.5211  0.1964
 4333SOL    HW124632   4.725   0.517  13.133 -0.6397  0.0657 -3.5378
 4333SOL    HW224633   4.731   0.646  13.212  0.3263  0.7108  0.1102
 4334SOL     OW24634   2.724   0.834   5.139 -0.0486 -0.1619  0.2627
 4334SOL    HW124635   2.648   0.840   5.197 -0.7435 -1.3675 -0.5269
 4334SOL    HW224636   2.709   0.760   5.080  0.1799  0.3833 -0.4769
 4335SOL     OW24637   1.732   3.238   5.281  0.0877  0.4048 -0.4358
 4335SOL    HW124638   1.669   3.308   5.299  2.8803  2.7452  0.2628
 4335SOL    HW224639   1.804   3.270   5.335 -0.2815  0.7987 -0.1713
 4336SOL     OW24640   2.480   2.840   4.578  0.3982 -0.4101  0.2107
 4336SOL    HW124641   2.488   2.834   4.673 -1.1571 -1.4150  0.2876
 4336SOL    HW224642   2.414   2.773   4.559 -1.3723  1.2063  0.6680
 4337SOL     OW24643   0.415   0.743   0.347 -0.4128 -0.3121  0.2402
 4337SOL    HW124644   0.382   0.653   0.347 -0.1959 -0.4076 -1.6625
 4337SOL    HW224645   0.470   0.749   0.269  2.1805 -0.3917  2.0739
 4338SOL     OW24646   0.287   3.616   4.633  0.3485  0.1289 -0.8001
 4338SOL    HW124647   0.202   3.604   4.675  0.5846  3.0423  0.4819
 4338SOL    HW224648   0.281   3.555   4.559 -1.9539 -1.7452  0.9707
 4339SOL     OW24649   2.557   3.938   1.844  0.0583  0.4537 -0.0422
 4339SOL    HW124650   2.587   4.028   1.834 -0.2220  0.7234  1.4662
 4339SOL    HW224651   2.464   3.952   1.827 -0.2486  1.2286  2.1781
 4340SOL     OW24652   1.885   3.533   2.526 -0.0837  0.7821 -0.1598
 4340SOL    HW124653   1.944   3.557   2.598 -0.7850  0.0594  0.6574
 4340SOL    HW224654   1.807   3.540   2.581 -1.0443  2.7865 -1.8167
 4341SOL     OW24655   4.635   0.655   6.829 -0.6351 -0.0033  0.0478
 4341SOL    HW124656   4.648   0.619   6.917 -0.1374  0.3264  0.1081
 4341SOL    HW224657   4.630   0.574   6.779 -0.0809  1.2896 -2.0965
 4342SOL     OW24658   0.600   4.664  10.216 -0.4011 -0.3276 -0.2777
 4342SOL    HW124659   0.595   0.002  10.273 -3.2657 -0.4188 -0.4185
 4342SOL    HW224660   0.626   4.606  10.287  0.5269 -0.4085 -0.6927
 4343SOL     OW24661   3.199   3.580   7.977 -0.0664 -0.1245  0.6291
 4343SOL    HW124662   3.247   3.522   7.917  1.6428  0.9986  0.8998
 4343SOL    HW224663   3.177   3.515   8.044 -0.3308 -1.7800 -1.0585
 4344SOL     OW24664   0.243   1.222   8.169 -0.0658 -0.0092 -0.0906
 4344SOL    HW124665   0.216   1.253   8.082  2.2910 -1.4066 -1.3261
 4344SOL    HW224666   0.306   1.152   8.151 -0.0807 -0.3581  1.2307
 4345SOL     OW24667   0.517   4.115   2.543 -0.9413 -0.7173 -0.1493
 4345SOL    HW124668   0.499   4.025   2.569  0.7651 -1.0341 -0.0606
 4345SOL    HW224669   0.488   4.161   2.621 -0.5468  0.3078 -0.6047
 4346SOL     OW24670   0.511   4.606   3.345  0.3792 -0.0807 -0.0014
 4346SOL    HW124671   0.512   4.614   3.441 -0.1392  0.3070 -0.0293
 4346SOL    HW224672   0.449   4.678   3.333  0.0305 -0.2203  0.9653
 4347SOL     OW24673   4.200   1.140  17.339  0.2706  0.2102  0.0885
 4347SOL    HW124674   4.240   1.173  17.259  1.4038 -2.1101 -0.2948
 4347SOL    HW224675   4.218   1.206  17.406  0.2544 -0.3228  0.6118
 4348SOL     OW24676   0.658   0.702   5.560  0.1011  0.5209  0.2908
 4348SOL    HW124677   0.716   0.629   5.580 -0.0877  0.5464  0.9478
 4348SOL    HW224678   0.584   0.659   5.519  0.4077  0.3356 -0.0583
 4349SOL     OW24679   1.878   4.553   5.635 -0.0872 -0.1621  0.2273
 4349SOL    HW124680   1.864   4.562   5.540  0.1389 -1.0522  0.1139
 4349SOL    HW224681   1.803   4.578   5.689 -0.5986  0.6900 -0.8579
 4350SOL     OW24682   1.378   1.128  13.717 -0.2095 -0.1206  0.0838
 4350SOL    HW124683   1.332   1.196  13.668 -0.0966  1.0429  1.5949
 4350SOL    HW224684   1.363   1.147  13.809 -3.0467 -1.4197 -0.1223
 4351SOL     OW24685   1.570   3.433   5.347  0.4758  0.4313  0.4006
 4351SOL    HW124686   1.550   3.517   5.388 -2.5750 -0.0172 -0.1492
 4351SOL    HW224687   1.529   3.444   5.261 -0.4221  2.8516  1.1477
 4352SOL     OW24688   3.178   0.737   1.111 -0.1371  0.9238 -0.3464
 4352SOL    HW124689   3.244   0.798   1.077  1.8946 -2.0459 -1.6955
 4352SOL    HW224690   3.127   0.722   1.031  1.1462  0.4233 -1.0670
 4353SOL     OW24691   2.253   0.632   1.030 -0.3277  0.1056  0.1349
 4353SOL    HW124692   2.188   0.593   1.088  1.1649 -1.2895  0.8444
 4353SOL    HW224693   2.227   0.724   1.036  0.4146  0.4847 -2.3148
 4354SOL     OW24694   3.549   1.167   2.399 -0.1140  0.3011  0.6373
 4354SOL    HW124695   3.602   1.238   2.434  0.3265 -0.0127  0.6003
 4354SOL    HW224696   3.599   1.092   2.430  1.1114 -0.2791 -2.8067
 4355SOL     OW24697   4.253   3.974   4.860 -0.2322 -0.5076  0.8143
 4355SOL    HW124698   4.303   4.047   4.825  1.9371 -2.0726  0.6253
 4355SOL    HW224699   4.205   4.025   4.925  0.6465 -0.2703  1.2731
 4356SOL     OW24700   4.631   2.461   0.244 -0.7735  0.3431 -0.3887
 4356SOL    HW124701   4.566   2.484   0.311 -0.7183 -0.7556  0.0434
 4356SOL    HW224702   4.625   2.367   0.260 -1.4545  0.3528 -0.5839
 4357SOL     OW24703   0.571   4.396  10.893 -0.4524  0.3850  0.7333
 4357SOL    HW124704   0.550   4.390  10.986  1.1751  1.4225  1.1703
 4357SOL    HW224705   0.547   4.486  10.875  2.0463  0.8516 -0.2578
 4358SOL     OW24706   1.688   3.047   0.754 -0.4386 -0.2803  0.4890
 4358SOL    HW124707   1.782   3.042   0.739 -0.4766 -1.1962  0.5960
 4358SOL    HW224708   1.652   2.965   0.722  0.7396 -1.9550  3.4226
 4359SOL     OW24709   1.349   0.214   2.670 -0.1640 -0.3884  0.1080
 4359SOL    HW124710   1.353   0.227   2.765  0.1169  0.6619 -0.0389
 4359SOL    HW224711   1.393   0.130   2.665  1.2493  0.2128  2.0059
 4360SOL     OW24712   2.325   1.013   2.426 -0.4816 -0.1100 -0.4246
 4360SOL    HW124713   2.416   1.038   2.442 -0.3095 -1.2876  0.4510
 4360SOL    HW224714   2.330   0.959   2.347 -0.9398 -0.5469 -0.1627
 4361SOL     OW24715   1.336   0.622   4.325 -0.6775 -0.0257 -0.6094
 4361SOL    HW124716   1.280   0.639   4.249 -2.1790 -0.2292  0.4559
 4361SOL    HW224717   1.283   0.660   4.394 -0.7607 -1.3620  0.0592
 4362SOL     OW24718   2.273   3.090   6.649 -0.6467 -0.6999  0.1003
 4362SOL    HW124719   2.295   3.126   6.563 -3.3570  0.4303 -0.1106
 4362SOL    HW224720   2.286   2.996   6.650  0.3293 -0.5679 -0.1212
 4363SOL     OW24721   0.520   1.926   6.437 -0.1455  0.4912  0.5869
 4363SOL    HW124722   0.539   2.020   6.436  2.0419  0.0358 -1.0746
 4363SOL    HW224723   0.498   1.906   6.346  0.7455  1.8276  0.0712
 4364SOL     OW24724   0.512   2.485   6.540  0.2456  0.1941 -0.4677
 4364SOL    HW124725   0.487   2.486   6.632 -1.7100  0.1863 -1.0026
 4364SOL    HW224726   0.597   2.443   6.552  0.2002  0.6133  1.3755
 4365SOL     OW24727   3.779   0.059   5.194 -0.9968  0.2237 -0.2267
 4365SOL    HW124728   3.797   4.730   5.129  2.7669  1.5503 -0.5168
 4365SOL    HW224729   3.862   0.101   5.214 -0.7208 -1.0693  1.3528
 4366SOL     OW24730   1.025   1.045  17.371  0.1314  0.0639  0.5467
 4366SOL    HW124731   1.074   1.121  17.341  0.6324 -0.8728 -1.0423
 4366SOL    HW224732   1.008   1.063  17.463 -2.9866 -1.9646  0.3784
 4367SOL     OW24733   2.528   4.521  11.339  0.1979 -0.2345  0.0677
 4367SOL    HW124734   2.450   4.479  11.302 -1.9754  3.1697  0.8739
 4367SOL    HW224735   2.491   4.606  11.361 -0.9793 -0.8118  0.3347
 4368SOL     OW24736   1.492   3.822   3.479  0.7768  0.3183  0.5288
 4368SOL    HW124737   1.473   3.805   3.387 -0.8190  2.7868  0.4205
 4368SOL    HW224738   1.584   3.797   3.483  0.9580  0.7499 -1.0122
 4369SOL     OW24739   1.425   1.413   0.167  0.4297  0.2367  0.1741
 4369SOL    HW124740   1.444   1.502   0.137  0.9108  0.0544 -0.0518
 4369SOL    HW224741   1.364   1.438   0.237 -0.6990  0.0812 -0.7569
 4370SOL     OW24742   3.590   1.206   7.874 -0.1735 -0.1906  0.0173
 4370SOL    HW124743   3.637   1.186   7.955 -0.0854  1.0966  0.2912
 4370SOL    HW224744   3.548   1.121   7.860  1.4308 -1.4055  2.6080
 4371SOL     OW24745   0.146   3.558   5.754 -0.0288 -0.3484 -0.0570
 4371SOL    HW124746   0.230   3.513   5.764 -0.1362 -0.0223  2.3298
 4371SOL    HW224747   0.137   3.574   5.660 -2.9768  1.7344  0.5849
 4372SOL     OW24748   0.264   1.590   8.687  0.8453  0.3919  0.1244
 4372SOL    HW124749   0.337   1.551   8.735 -0.3915 -1.9428  0.0992
 4372SOL    HW224750   0.320   1.645   8.632  1.6544 -1.0322 -0.4854
 4373SOL     OW24751   3.612   3.058   5.141  0.6595 -0.6767 -0.4417
 4373SOL    HW124752   3.584   3.021   5.225 -0.8820 -0.1248 -0.7159
 4373SOL    HW224753   3.675   3.121   5.175 -0.0900 -0.9602  1.4750
 4374SOL     OW24754   0.366   2.795   4.909 -0.4054  0.2833 -0.0098
 4374SOL    HW124755   0.379   2.863   4.843 -2.6979  1.8620  1.1562
 4374SOL    HW224756   0.277   2.770   4.887 -1.1007  1.3635  1.5520
 4375SOL     OW24757   3.738   2.309  15.813 -0.2505  0.6649  0.4926
 4375SOL    HW124758   3.822   2.264  15.805 -0.7058  0.2494 -1.8234
 4375SOL    HW224759   3.753   2.393  15.770  1.3576  1.6837  3.0233
 4376SOL     OW24760   2.485   1.747   5.190  0.2494  0.0571 -0.5723
 4376SOL    HW124761   2.516   1.829   5.151 -1.5079  0.2979 -1.4899
 4376SOL    HW224762   2.450   1.691   5.120 -1.4182  0.6029 -0.1843
 4377SOL     OW24763   0.525   3.685   9.982  0.3723 -0.4355 -0.2576
 4377SOL    HW124764   0.436   3.675   9.949  0.5304  1.3903 -1.2105
 4377SOL    HW224765   0.505   3.661  10.072 -0.8778 -1.4854 -0.8213
 4378SOL     OW24766   1.930   0.382   8.891 -0.2236  0.0616  0.3142
 4378SOL    HW124767   1.954   0.385   8.799 -0.3077  1.1633  0.3220
 4378SOL    HW224768   2.015   0.415   8.921 -0.5648 -0.0173  1.3686
 4379SOL     OW24769   2.761   2.184   6.514  0.9799 -0.6192  0.3779
 4379SOL    HW124770   2.743   2.260   6.569  0.4633 -1.9035  1.9867
 4379SOL    HW224771   2.855   2.187   6.529  0.9912  0.7731  0.0381
 4380SOL     OW24772   3.185   2.377   3.334  0.2319  0.3317 -0.3721
 4380SOL    HW124773   3.103   2.363   3.287  0.6067  1.3160 -1.3127
 4380SOL    HW224774   3.160   2.422   3.415 -1.0896 -1.1024  0.0093
 4381SOL     OW24775   3.425   0.353   3.233 -0.3842  0.4439  0.3337
 4381SOL    HW124776   3.385   0.274   3.197  3.1055 -0.7221 -0.9738
 4381SOL    HW224777   3.357   0.421   3.231 -0.3745  0.4152 -0.9246
 4382SOL     OW24778   2.460   3.125   5.142 -0.0672 -0.4380  0.1675
 4382SOL    HW124779   2.510   3.055   5.184 -0.4027 -0.6919  0.1401
 4382SOL    HW224780   2.408   3.163   5.212  2.4592  2.5190  0.4500
 4383SOL     OW24781   0.907   4.282   9.711  0.2420 -0.2560 -0.5906
 4383SOL    HW124782   0.979   4.268   9.772  0.3097 -0.7680 -0.7880
 4383SOL    HW224783   0.852   4.204   9.716 -0.9221  0.7356  2.2863
 4384SOL     OW24784   0.312   3.085   6.740 -0.9153  0.0424  0.3349
 4384SOL    HW124785   0.405   3.069   6.755 -0.8395 -0.9755 -1.1920
 4384SOL    HW224786   0.288   3.119   6.826  2.1836 -0.8609  1.5683
 4385SOL     OW24787   2.303   3.701   1.205  0.1196 -0.7889  0.1948
 4385SOL    HW124788   2.278   3.688   1.113  0.1730  1.2826 -0.1169
 4385SOL    HW224789   2.344   3.618   1.229  0.5073 -0.7392 -0.2765
 4386SOL     OW24790   4.639   1.493   8.413  0.1326  0.2628 -0.0268
 4386SOL    HW124791   4.579   1.555   8.372  0.4875  0.8896  0.4018
 4386SOL    HW224792   4.719   1.515   8.366 -0.1429  0.7115 -0.2811
 4387SOL     OW24793   1.054   0.492   6.314  0.1277 -0.2469  0.1728
 4387SOL    HW124794   1.036   0.579   6.351  0.7400  0.1055 -0.3603
 4387SOL    HW224795   1.108   0.524   6.241 -0.7239 -1.0496 -0.7913
 4388SOL     OW24796   0.013   2.059   3.813  0.2372  0.2911  0.0159
 4388SOL    HW124797   4.691   2.097   3.749  0.4978  1.2973  0.3552
 4388SOL    HW224798   0.004   2.127   3.880  0.9885 -0.3008  0.7127
 4389SOL     OW24799   2.554   3.908   5.770  0.2796  0.3798  0.3642
 4389SOL    HW124800   2.648   3.893   5.756  0.3725  1.4800 -0.2196
 4389SOL    HW224801   2.526   3.860   5.692  0.2209  0.8634  0.0909
 4390SOL     OW24802   2.003   1.596   5.059  0.2305 -0.8606  0.0775
 4390SOL    HW124803   1.966   1.552   4.983  0.1904 -0.9203  0.1315
 4390SOL    HW224804   1.972   1.540   5.131 -1.3115 -0.8760 -0.6134
 4391SOL     OW24805   3.755   3.520  12.329 -0.1406 -0.2377  0.3439
 4391SOL    HW124806   3.790   3.433  12.312  1.0068  0.1445  0.7479
 4391SOL    HW224807   3.814   3.556  12.395  0.9776  1.8284 -1.7800
 4392SOL     OW24808   4.237   1.456  17.336 -0.8510 -0.3026 -0.4294
 4392SOL    HW124809   4.293   1.409  17.275 -1.3838  0.1532 -1.2672
 4392SOL    HW224810   4.276   1.425  17.418 -0.2872 -0.3665 -0.7244
 4393SOL     OW24811   1.538   3.731   7.539 -0.4101  0.0002  0.6101
 4393SOL    HW124812   1.624   3.729   7.497  0.0013 -1.9408  1.5318
 4393SOL    HW224813   1.542   3.814   7.585 -1.4010  0.3015  0.1527
 4394SOL     OW24814   1.412   4.386  15.072  0.0523  0.2901  0.1342
 4394SOL    HW124815   1.408   4.307  15.125  1.4828  0.2568  0.1917
 4394SOL    HW224816   1.455   4.351  14.994  0.4339 -2.6660  1.6604
 4395SOL     OW24817   3.656   0.834   0.789 -0.7100  0.3979 -0.4406
 4395SOL    HW124818   3.562   0.838   0.773 -0.6006  3.4484 -0.2415
 4395SOL    HW224819   3.689   0.921   0.767  0.7009 -0.0734 -0.1637
 4396SOL     OW24820   2.228   1.879   2.576 -0.0656  0.2941 -0.5173
 4396SOL    HW124821   2.253   1.846   2.490  0.2673 -2.6995  0.7096
 4396SOL    HW224822   2.210   1.967   2.544 -0.8743  0.8226  1.3858
 4397SOL     OW24823   4.162   3.596  17.237  0.0607 -0.5905 -0.7899
 4397SOL    HW124824   4.127   3.584  17.326  0.0404  1.7206 -0.4886
 4397SOL    HW224825   4.169   3.691  17.229 -0.2069 -0.5349 -0.3882
 4398SOL     OW24826   2.923   1.712  16.381  0.2515 -0.7748  0.6671
 4398SOL    HW124827   2.895   1.675  16.297 -3.0154  1.0347  0.9795
 4398SOL    HW224828   3.016   1.731  16.370 -0.1922  1.5970  1.0416
 4399SOL     OW24829   2.098   0.608   8.654 -0.2719 -0.5035 -0.4896
 4399SOL    HW124830   2.124   0.693   8.689 -1.5317 -0.4741  0.4027
 4399SOL    HW224831   2.180   0.561   8.664 -1.4284 -1.9325  2.2851
 4400SOL     OW24832   3.749   0.193   8.369  0.1594  0.0922  0.9013
 4400SOL    HW124833   3.826   0.137   8.367  0.1022  0.0365  0.2185
 4400SOL    HW224834   3.782   0.276   8.404  1.2035  0.3678 -0.6802
 4401SOL     OW24835   2.583   2.138  12.465  0.4977 -0.1898  0.0198
 4401SOL    HW124836   2.570   2.208  12.401 -1.9882 -0.5969  0.0763
 4401SOL    HW224837   2.626   2.067  12.417 -0.0797 -0.0086 -0.7636
 4402SOL     OW24838   1.855   0.885  14.467 -0.2845  0.0850  0.1465
 4402SOL    HW124839   1.809   0.815  14.421  0.0940 -0.0642 -0.0110
 4402SOL    HW224840   1.787   0.951  14.479  0.2219  0.1416  2.7255
 4403SOL     OW24841   4.670   3.864   4.290 -0.0600 -0.2908 -0.3460
 4403SOL    HW124842   4.678   3.788   4.232  0.9435  0.3133 -1.0009
 4403SOL    HW224843   4.584   3.863   4.333  0.5925  1.6843  1.0190
 4404SOL     OW24844   3.858   1.138   6.315  0.6539  0.0209 -0.0677
 4404SOL    HW124845   3.785   1.126   6.376 -0.1555  2.5420 -0.5081
 4404SOL    HW224846   3.924   1.123   6.382 -0.6184  0.8570  1.3672
 4405SOL     OW24847   2.101   3.942   6.113 -0.2828  0.2682  0.0882
 4405SOL    HW124848   2.110   4.038   6.119 -0.8037  0.5042 -2.8514
 4405SOL    HW224849   2.047   3.930   6.192 -1.1570  1.3625 -0.3404
 4406SOL     OW24850   0.318   0.707  16.851  0.6928  0.3406 -0.6047
 4406SOL    HW124851   0.288   0.782  16.901 -1.4935  0.6335 -2.3704
 4406SOL    HW224852   0.400   0.681  16.893  0.1501 -0.5975 -0.1226
 4407SOL     OW24853   3.741   2.044  12.849  0.0540  0.0380 -0.1576
 4407SOL    HW124854   3.734   1.953  12.878 -0.7196  0.6622  1.6332
 4407SOL    HW224855   3.775   2.030  12.761  0.5875 -0.0076  0.0563
 4408SOL     OW24856   4.566   2.143   4.972 -0.5303 -0.8806  0.1072
 4408SOL    HW124857   4.524   2.229   4.978  0.5897 -0.3024 -0.3757
 4408SOL    HW224858   4.635   2.167   4.911 -2.0355  0.0949 -1.1894
 4409SOL     OW24859   1.347   0.178  11.731  0.1405  0.2990 -0.0099
 4409SOL    HW124860   1.313   0.185  11.820  1.4501 -1.2082  0.6018
 4409SOL    HW224861   1.427   0.230  11.740 -0.2064  0.8821 -0.2883
 4410SOL     OW24862   2.952   0.942   5.982  0.1198  0.1055  0.2784
 4410SOL    HW124863   2.934   0.852   5.954 -1.0346  0.2929  0.4004
 4410SOL    HW224864   3.038   0.957   5.943  0.4169 -0.1970  0.8320
 4411SOL     OW24865   1.105   3.157   6.510 -0.1330  0.1930 -0.4182
 4411SOL    HW124866   1.080   3.233   6.564 -1.6942 -0.3245 -0.4078
 4411SOL    HW224867   1.071   3.179   6.423 -0.4809  0.9674 -0.0939
 4412SOL     OW24868   1.262   0.304   0.022  0.0442 -0.2725 -0.2761
 4412SOL    HW124869   1.176   0.263   0.013  0.3934 -0.4189 -2.9614
 4412SOL    HW224870   1.257   0.364  17.701 -0.0167 -1.0275 -0.8807
 4413SOL     OW24871   0.197   3.797   9.004 -0.0729 -0.2853  0.1461
 4413SOL    HW124872   0.221   3.846   9.083  0.3457 -2.1698  1.1799
 4413SOL    HW224873   0.233   3.850   8.932 -1.9924 -1.3672 -1.6048
 4414SOL     OW24874   3.527   4.592  10.808  0.1664 -0.1610 -0.7246
 4414SOL    HW124875   3.441   4.579  10.768 -0.4838 -1.4307  1.0961
 4414SOL    HW224876   3.529   4.688  10.816  0.7860 -0.1734 -0.7767
 4415SOL     OW24877   4.459   0.544   2.719  0.1319  0.2813 -0.4531
 4415SOL    HW124878   4.452   0.630   2.760 -0.1309 -0.2542  0.6152
 4415SOL    HW224879   4.369   0.511   2.712 -0.2212  0.7459  1.9699
 4416SOL     OW24880   1.376   1.884   7.346 -0.1257  0.3357 -0.0949
 4416SOL    HW124881   1.466   1.852   7.339 -0.1415 -0.1685  1.9479
 4416SOL    HW224882   1.373   1.964   7.294 -0.7914  0.2880 -0.1369
 4417SOL     OW24883   2.920   2.754   0.417 -0.2747  0.4076 -0.5762
 4417SOL    HW124884   2.881   2.730   0.501 -0.8618  0.4076 -0.8484
 4417SOL    HW224885   2.878   2.681   0.372  0.8750  0.0471 -1.0573
 4418SOL     OW24886   1.891   0.670   0.957 -0.2684 -0.1832  0.1019
 4418SOL    HW124887   1.936   0.679   1.041  1.3256  1.8557 -0.9589
 4418SOL    HW224888   1.854   0.756   0.937 -0.9868 -0.5447 -0.1061
 4419SOL     OW24889   3.076   1.464  14.988  0.2958  0.0432  0.4854
 4419SOL    HW124890   3.170   1.460  14.969  0.3031  1.7421  0.2233
 4419SOL    HW224891   3.057   1.374  14.961 -1.4181 -0.0481  2.0112
 4420SOL     OW24892   0.334   1.961   5.534  0.3054  0.3162  0.4402
 4420SOL    HW124893   0.327   1.981   5.440 -2.8264  2.2217  1.0837
 4420SOL    HW224894   0.271   1.890   5.543  0.5395  0.2106  1.2476
 4421SOL     OW24895   0.182   3.736   0.226  0.8992  0.5767  0.1601
 4421SOL    HW124896   0.252   3.722   0.162  0.0741 -0.9640 -0.3955
 4421SOL    HW224897   0.188   3.663   0.287  3.4712  0.3092 -0.4102
 4422SOL     OW24898   0.471   4.668  10.850  0.0924 -0.5712  0.1012
 4422SOL    HW124899   0.403   4.629  10.904  1.8768 -2.2331  1.1571
 4422SOL    HW224900   0.424   0.004  10.813 -1.0874 -0.8763  1.0113
 4423SOL     OW24901   3.084   0.864  10.185 -0.1143 -0.7202 -0.0041
 4423SOL    HW124902   3.000   0.821  10.170 -0.1686  0.0130 -1.8359
 4423SOL    HW224903   3.067   0.905  10.269  0.7588 -0.2589 -0.0554
 4424SOL     OW24904   4.219   0.911   8.623 -0.1568  0.3002  0.1248
 4424SOL    HW124905   4.248   0.936   8.711 -0.8325  1.4206  0.0256
 4424SOL    HW224906   4.297   0.925   8.570 -0.6361  3.0069  0.1654
 4425SOL     OW24907   4.128   2.152   4.514  0.0930  0.4089  0.0226
 4425SOL    HW124908   4.123   2.130   4.607 -1.7521 -0.3903 -0.2653
 4425SOL    HW224909   4.042   2.192   4.503  0.5481  1.9421  2.0491
 4426SOL     OW24910   1.574   3.458   6.214 -0.0289  0.0702 -0.2334
 4426SOL    HW124911   1.489   3.486   6.249  0.1046 -1.2359  1.1107
 4426SOL    HW224912   1.567   3.470   6.119 -1.0029 -1.2978 -0.3369
 4427SOL     OW24913   3.033   2.989   0.392 -0.0375 -0.1921  0.1175
 4427SOL    HW124914   3.112   2.959   0.436  0.6362 -0.7750 -1.5070
 4427SOL    HW224915   2.976   2.913   0.403 -0.5357  0.3313  1.1451
 4428SOL     OW24916   4.664   2.693   7.678 -0.2703  0.1105  0.1284
 4428SOL    HW124917   4.589   2.708   7.621 -3.1013 -1.2974  3.5053
 4428SOL    HW224918   4.633   2.626   7.738 -0.7569 -0.8188 -1.1645
 4429SOL     OW24919   4.244   2.161  17.624 -0.0944 -0.0859  0.8636
 4429SOL    HW124920   4.336   2.186  17.614 -0.8054  1.8956 -0.8141
 4429SOL    HW224921   4.253   2.074  17.662  2.0308 -0.0332  0.4880
 4430SOL     OW24922   4.442   4.255  13.753  0.0726 -0.2451  0.0203
 4430SOL    HW124923   4.383   4.299  13.691  0.2972 -0.8411 -0.6150
 4430SOL    HW224924   4.456   4.171  13.710  0.9365 -0.3602  0.5313
 4431SOL     OW24925   1.590   3.638   3.984  0.1209 -0.1212 -0.1963
 4431SOL    HW124926   1.498   3.616   3.966 -0.3909 -2.1058  5.0501
 4431SOL    HW224927   1.624   3.557   4.021 -1.1557 -0.4396  0.2924
 4432SOL     OW24928   2.383   0.673  15.637  0.5082 -0.4940 -0.3140
 4432SOL    HW124929   2.310   0.656  15.697  0.3766  0.8654 -0.1027
 4432SOL    HW224930   2.455   0.634  15.688 -0.9581 -2.5067  0.2014
 4433SOL     OW24931   1.782   0.784   5.748 -0.1902  0.2343  0.4410
 4433SOL    HW124932   1.723   0.859   5.747  1.2884  1.4252  0.9404
 4433SOL    HW224933   1.728   0.737   5.812 -1.0679 -3.1198 -2.8121
 4434SOL     OW24934   3.970   1.480  12.722 -0.2499 -0.9357 -0.5812
 4434SOL    HW124935   4.040   1.546  12.727 -0.9733 -0.0432 -2.2385
 4434SOL    HW224936   3.910   1.529  12.778  0.1082 -0.6533 -0.4415
 4435SOL     OW24937   1.239   1.473   1.818  0.0407 -1.1574 -0.0282
 4435SOL    HW124938   1.238   1.459   1.723  0.2981  2.0118 -0.4743
 4435SOL    HW224939   1.181   1.548   1.829  1.8208  0.3832 -1.1077
 4436SOL     OW24940   3.459   2.314  16.056  0.3934  0.0712 -0.2084
 4436SOL    HW124941   3.489   2.404  16.039  1.3380 -0.3076 -0.5066
 4436SOL    HW224942   3.367   2.339  16.062  0.1249 -1.1142  0.5798
 4437SOL     OW24943   1.808   2.212   3.176  0.3987  0.0493  0.1973
 4437SOL    HW124944   1.777   2.270   3.246 -0.1135  3.8120 -3.1546
 4437SOL    HW224945   1.815   2.273   3.103  3.0493 -1.6979 -0.9661
 4438SOL     OW24946   1.470   1.341   7.335  0.6800  0.1064  0.5152
 4438SOL    HW124947   1.412   1.411   7.366  0.5885 -0.2262  1.0898
 4438SOL    HW224948   1.476   1.288   7.414 -0.1647  0.9353  1.1462
 4439SOL     OW24949   2.904   3.970   6.141  0.0269  0.0502 -0.0523
 4439SOL    HW124950   2.876   3.881   6.162 -0.6014  0.2762  0.0532
 4439SOL    HW224951   2.988   3.970   6.188 -0.7740 -0.0508  1.3870
 4440SOL     OW24952   3.403   0.576   1.024  0.3596 -0.3680 -0.0096
 4440SOL    HW124953   3.375   0.611   1.109 -1.0973 -0.4142 -0.4656
 4440SOL    HW224954   3.330   0.527   0.985  1.4552 -2.3592  0.4435
 4441SOL     OW24955   0.365   4.231   7.103  0.2608  0.1017  0.0204
 4441SOL    HW124956   0.371   4.291   7.177 -0.5002 -2.6369  2.3175
 4441SOL    HW224957   0.400   4.154   7.149 -2.0494 -1.1917 -0.3816
 4442SOL     OW24958   3.224   3.109   3.352 -0.0898 -0.4707  0.3665
 4442SOL    HW124959   3.314   3.143   3.355  0.2071 -1.3677  1.3529
 4442SOL    HW224960   3.230   3.023   3.392  1.3127  0.1186  1.4407
 4443SOL     OW24961   0.996   1.184   6.012  0.1697 -0.2839  0.7565
 4443SOL    HW124962   0.926   1.226   6.062 -0.3795 -0.7671  0.3916
 4443SOL    HW224963   0.972   1.193   5.920  0.8954  1.9442  0.7806
 4444SOL     OW24964   2.107   2.004   6.076 -0.1474  0.1836  0.7348
 4444SOL    HW124965   2.026   1.955   6.087  0.0978 -0.6002 -0.9016
 4444SOL    HW224966   2.081   2.078   6.021  1.6616 -0.6331 -1.2433
 4445SOL     OW24967   1.855   1.517   2.364 -0.8202 -0.0663  0.1490
 4445SOL    HW124968   1.886   1.587   2.421  0.3052  0.3526 -0.9638
 4445SOL    HW224969   1.834   1.574   2.290  1.4915  0.2111 -0.3060
 4446SOL     OW24970   4.678   2.191   7.390  0.3355  0.0358  0.1148
 4446SOL    HW124971   4.646   2.121   7.447 -1.0245 -0.2533 -1.0194
 4446SOL    HW224972   4.665   2.141   7.309 -1.7858 -1.3970  1.3475
 4447SOL     OW24973   1.810   1.509   1.700  0.7673  0.7979  0.5020
 4447SOL    HW124974   1.716   1.504   1.713  0.6808 -2.8413 -1.3766
 4447SOL    HW224975   1.837   1.417   1.698  1.6488  1.0726 -0.5655
 4448SOL     OW24976   1.600   3.173   2.285  0.1139  0.0095  0.2518
 4448SOL    HW124977   1.533   3.140   2.226 -0.4553  0.5496  0.6023
 4448SOL    HW224978   1.667   3.104   2.286 -1.1147 -1.1908 -0.7330
 4449SOL     OW24979   1.486   1.475  14.832 -0.1352  0.0752 -0.1130
 4449SOL    HW124980   1.575   1.499  14.804  0.0644 -1.1518 -0.5161
 4449SOL    HW224981   1.463   1.549  14.888 -1.5244  0.7847 -1.6527
 4450SOL     OW24982   1.971   1.776  12.217  0.1511  0.1810  0.1972
 4450SOL    HW124983   1.945   1.714  12.286 -1.5901  1.0638  0.3417
 4450SOL    HW224984   2.049   1.729  12.189  0.8807  0.0817  2.3684
 4451SOL     OW24985   2.646   4.304   4.598  0.1350 -0.4507 -0.0286
 4451SOL    HW124986   2.593   4.382   4.615  1.4677  0.5063 -0.2244
 4451SOL    HW224987   2.654   4.304   4.503 -1.4659  2.5930 -0.1934
 4452SOL     OW24988   4.342   1.274  10.895 -0.0077  0.2761  0.4516
 4452SOL    HW124989   4.409   1.244  10.956 -1.6475 -2.1984  1.0475
 4452SOL    HW224990   4.401   1.319  10.834  0.9275 -0.9778  0.4218
 4453SOL     OW24991   1.171   3.973   6.444  0.2240 -0.2393  0.1590
 4453SOL    HW124992   1.251   3.957   6.393  0.9573  2.2178  0.5236
 4453SOL    HW224993   1.110   3.906   6.413 -0.9461  0.1495  1.6097
 4454SOL     OW24994   1.664   0.407   4.275  0.0598 -0.1988  0.1520
 4454SOL    HW124995   1.702   0.327   4.311  0.2870 -0.7088 -1.1895
 4454SOL    HW224996   1.738   0.431   4.219 -0.0750  1.2947  0.6119
 4455SOL     OW24997   3.174   3.669   5.304  0.3234  0.0165 -0.0786
 4455SOL    HW124998   3.143   3.624   5.383 -0.8280 -0.8251 -0.9975
 4455SOL    HW224999   3.190   3.591   5.251 -0.1802 -0.1477  0.0057
 4456SOL     OW25000   4.640   3.192   7.763  0.3999 -0.1944 -0.1850
 4456SOL    HW125001   4.704   3.238   7.708 -0.3062 -1.3788 -1.9872
 4456SOL    HW225002   4.655   3.235   7.847 -0.2810 -0.3635  0.0189
 4457SOL     OW25003   4.667   0.226   1.012  0.3857  0.0065 -0.0742
 4457SOL    HW125004   4.681   0.279   1.091 -0.8951 -0.0582  0.2011
 4457SOL    HW225005   4.725   0.152   1.028  1.3308 -0.0114 -3.5779
 4458SOL     OW25006   0.755   1.888   5.896  0.1781  0.1705 -0.1107
 4458SOL    HW125007   0.766   1.889   5.801 -0.6369 -2.0684 -0.2235
 4458SOL    HW225008   0.666   1.917   5.914  0.1593 -0.1418  0.3025
 4459SOL     OW25009   3.943   4.276   4.885  0.2627  0.2840  0.2869
 4459SOL    HW125010   3.990   4.324   4.817  1.7678 -1.6834 -0.0577
 4459SOL    HW225011   3.852   4.283   4.856  0.1063  0.8665  0.9314
 4460SOL     OW25012   2.580   1.388   2.508  0.2884 -0.2738 -0.4345
 4460SOL    HW125013   2.620   1.378   2.421 -1.0296  0.6561 -1.1455
 4460SOL    HW225014   2.625   1.465   2.542  0.0135  0.0776 -0.8675
 4461SOL     OW25015   1.664   0.031   7.733  0.2106  0.0387  0.3460
 4461SOL    HW125016   1.588   0.089   7.722 -0.1487  0.1234  3.2595
 4461SOL    HW225017   1.723   0.071   7.670 -0.2330  2.2097  1.2923
 4462SOL     OW25018   2.408   0.701   8.976 -0.2659 -0.0049  0.1089
 4462SOL    HW125019   2.477   0.644   9.009  0.4503  0.8719  0.1212
 4462SOL    HW225020   2.403   0.770   9.043 -2.3414 -0.3871  0.3602
 4463SOL     OW25021   1.806   1.668   3.174 -0.2999  0.3010  0.7164
 4463SOL    HW125022   1.858   1.613   3.233  0.9615  0.2288 -0.4688
 4463SOL    HW225023   1.719   1.658   3.211 -0.6248 -1.1000 -0.4360
 4464SOL     OW25024   2.459   0.853   8.146 -0.0473  0.6538 -0.2313
 4464SOL    HW125025   2.490   0.859   8.237  1.5782 -0.4192 -0.7286
 4464SOL    HW225026   2.476   0.938   8.106  0.6761  0.0078 -1.2941
 4465SOL     OW25027   1.874   3.546   8.267 -0.2098 -0.5193  0.0656
 4465SOL    HW125028   1.900   3.529   8.357 -0.2103  1.3088  0.4107
 4465SOL    HW225029   1.822   3.469   8.243 -1.7182  0.3169  0.6062
 4466SOL     OW25030   0.517   1.600   2.369  0.1312 -0.0326  0.1829
 4466SOL    HW125031   0.513   1.595   2.274  1.6098 -1.4343  0.1922
 4466SOL    HW225032   0.427   1.588   2.401  1.3120 -1.2062  3.0789
 4467SOL     OW25033   4.394   3.263   1.891 -0.2197 -0.3949 -0.2395
 4467SOL    HW125034   4.353   3.301   1.814 -0.7038 -0.5307 -0.0492
 4467SOL    HW225035   4.329   3.196   1.910 -0.6475  1.0819  3.5139
 4468SOL     OW25036   4.735   3.615   4.141  0.3808  0.3252 -0.3122
 4468SOL    HW125037   0.082   3.646   4.170  0.3469  1.0849 -1.0452
 4468SOL    HW225038   4.694   3.568   4.214  0.8534  0.0750 -0.2114
 4469SOL     OW25039   2.848   2.168   6.943 -0.3196 -0.1570  0.0803
 4469SOL    HW125040   2.851   2.225   7.019 -0.6872 -0.3160  0.2167
 4469SOL    HW225041   2.768   2.120   6.963 -1.2697  0.5482 -1.9627
 4470SOL     OW25042   1.679   2.945  11.188 -0.1372 -0.2986  0.0596
 4470SOL    HW125043   1.706   2.997  11.264  4.2943 -3.4251  0.6197
 4470SOL    HW225044   1.657   2.859  11.223  0.7478  0.1278  1.6825
 4471SOL     OW25045   2.778   0.667   7.839 -0.0313  0.3701  0.3183
 4471SOL    HW125046   2.834   0.614   7.783 -0.5608 -1.3979  1.4725
 4471SOL    HW225047   2.711   0.686   7.774 -0.1000 -0.6547  0.0985
 4472SOL     OW25048   0.998   2.215  12.064  0.3293  0.5913 -0.6201
 4472SOL    HW125049   1.046   2.182  11.989  0.9207 -0.3506  0.1693
 4472SOL    HW225050   0.908   2.186  12.053  0.2943  0.9994 -1.3623
 4473SOL     OW25051   1.223   3.546   4.200 -0.0674 -0.7417  0.3019
 4473SOL    HW125052   1.284   3.612   4.233 -0.1756 -0.4681 -0.0424
 4473SOL    HW225053   1.262   3.528   4.114  1.8041  1.5257  0.6881
 4474SOL     OW25054   3.311   2.210   0.277 -0.5703 -1.1147  0.3298
 4474SOL    HW125055   3.362   2.239   0.202 -0.5301 -0.4596  0.6074
 4474SOL    HW225056   3.311   2.288   0.334  1.4194 -0.7054 -0.2211
 4475SOL     OW25057   3.429   0.606  14.082  0.2080  0.3858 -0.4954
 4475SOL    HW125058   3.502   0.668  14.093 -0.6079  1.4913 -1.2610
 4475SOL    HW225059   3.368   0.679  14.091 -0.0376  0.2362 -0.9173
 4476SOL     OW25060   3.239   1.447   9.647 -0.5549  0.1110  0.2665
 4476SOL    HW125061   3.166   1.476   9.592  0.0361  2.3820  0.6951
 4476SOL    HW225062   3.305   1.512   9.623 -2.0332  1.3930 -0.3368
 4477SOL     OW25063   2.324   4.270   7.202 -0.2351 -0.2569  0.4730
 4477SOL    HW125064   2.396   4.311   7.248  0.1385 -1.2519  0.7812
 4477SOL    HW225065   2.257   4.263   7.271  0.4500  0.8674  1.2412
 4478SOL     OW25066   1.731   1.064   3.630 -0.0347  0.5045 -0.1924
 4478SOL    HW125067   1.636   1.059   3.638  0.0377 -0.9448 -0.3005
 4478SOL    HW225068   1.746   0.975   3.662  0.9822  0.6061 -0.3758
 4479SOL     OW25069   4.630   4.565   5.611 -0.0129  0.2798  0.3679
 4479SOL    HW125070   4.653   4.498   5.675 -0.4876 -2.0740 -1.8860
 4479SOL    HW225071   4.651   4.638   5.668 -0.4697  2.4640 -2.2307
 4480SOL     OW25072   1.172   2.008   1.410 -0.1872  0.3802  0.0498
 4480SOL    HW125073   1.134   1.936   1.360 -0.0723 -0.4844  1.1969
 4480SOL    HW225074   1.093   2.062   1.416 -1.1473 -1.0780  0.6928
 4481SOL     OW25075   3.891   4.063   5.245 -0.5074 -0.3036 -0.1523
 4481SOL    HW125076   3.900   4.062   5.340 -1.9812 -1.1692 -0.0391
 4481SOL    HW225077   3.903   3.972   5.220  1.1264 -0.1736  0.1203
 4482SOL     OW25078   1.658   0.528   2.583 -0.3981  0.4531  0.0029
 4482SOL    HW125079   1.579   0.529   2.637  0.5758 -1.7236  1.4881
 4482SOL    HW225080   1.702   0.607   2.612  2.6350 -1.1960 -0.1498
 4483SOL     OW25081   1.006   1.633   6.712 -0.0055 -0.2841 -0.1450
 4483SOL    HW125082   0.918   1.599   6.700 -1.4647  3.1441  0.8742
 4483SOL    HW225083   1.029   1.640   6.619 -0.9027  1.7355 -0.2228
 4484SOL     OW25084   0.355   3.790   3.697  0.0740 -0.4446 -0.1136
 4484SOL    HW125085   0.373   3.801   3.790 -1.6959 -0.6628  0.2625
 4484SOL    HW225086   0.376   3.878   3.668 -0.9668  0.2216  1.1857
 4485SOL     OW25087   2.937   2.923  10.169 -0.1559  0.3494 -0.8813
 4485SOL    HW125088   2.966   2.836  10.143 -0.1489  0.4282 -1.1285
 4485SOL    HW225089   2.973   2.970  10.094  1.6380  0.4297  0.0344
 4486SOL     OW25090   4.438   3.191   9.455 -0.4970  0.3950  0.0909
 4486SOL    HW125091   4.533   3.198   9.461 -0.3478  0.4025 -2.5479
 4486SOL    HW225092   4.410   3.282   9.446 -0.2242  0.7222  2.4875
 4487SOL     OW25093   3.470   3.786   6.705  0.0370  0.5411 -0.4826
 4487SOL    HW125094   3.540   3.733   6.669 -0.7503 -0.5840 -0.3493
 4487SOL    HW225095   3.431   3.737   6.777  3.4798 -0.0906  0.9638
 4488SOL     OW25096   4.378   3.675   9.083  0.5970  0.0548 -0.5644
 4488SOL    HW125097   4.390   3.730   9.160 -0.7267  1.5838 -1.4213
 4488SOL    HW225098   4.401   3.729   9.007 -1.6903  0.4810 -0.9642
 4489SOL     OW25099   3.744   1.906   0.726  0.5211  0.3116 -0.0004
 4489SOL    HW125100   3.707   1.859   0.801 -0.4306 -1.4665 -1.5873
 4489SOL    HW225101   3.708   1.850   0.657  2.8584 -0.0625 -0.8953
 4490SOL     OW25102   3.703   0.542   2.273  0.3357 -0.4467 -0.1797
 4490SOL    HW125103   3.758   0.556   2.195 -0.2312  0.6089 -0.3833
 4490SOL    HW225104   3.624   0.509   2.230  0.8919  0.8613 -2.1825
 4491SOL     OW25105   1.222   4.568  15.340 -0.2323 -0.3482  0.0175
 4491SOL    HW125106   1.234   4.652  15.384  0.2278 -0.5066  0.1894
 4491SOL    HW225107   1.148   4.532  15.389  0.1265 -0.5953  0.3798
 4492SOL     OW25108   0.312   2.272  15.026  0.1238  0.3236 -0.4513
 4492SOL    HW125109   0.375   2.342  15.012 -1.1780  1.5288 -0.3221
 4492SOL    HW225110   0.354   2.213  15.088  0.7151  0.4344 -0.7450
 4493SOL     OW25111   3.520   4.173   9.882 -0.5646 -0.8985  0.0925
 4493SOL    HW125112   3.605   4.208   9.910 -0.5904  0.2596 -1.2951
 4493SOL    HW225113   3.493   4.243   9.823 -0.1423 -0.2980  0.6117
 4494SOL     OW25114   4.583   3.020   6.294  0.1190 -0.4474  0.3102
 4494SOL    HW125115   4.548   3.091   6.240  0.3739  0.3904  1.2698
 4494SOL    HW225116   4.533   2.943   6.266  1.4209 -1.2926  0.3032
 4495SOL     OW25117   0.761   0.231   5.185 -0.4857  0.5770 -0.2288
 4495SOL    HW125118   0.841   0.211   5.136  0.3824  0.7933  1.0731
 4495SOL    HW225119   0.781   0.324   5.184 -2.2527  0.9231 -2.1534
 4496SOL     OW25120   1.385   1.983   8.642  0.9605  0.2001  0.1725
 4496SOL    HW125121   1.457   2.027   8.688 -0.3377  1.8293  0.6504
 4496SOL    HW225122   1.313   2.046   8.642 -1.4742 -2.6208  1.1715
 4497SOL     OW25123   1.841   4.281   9.397 -0.1253 -0.4213  0.1964
 4497SOL    HW125124   1.782   4.209   9.418  0.2743 -1.0643 -0.8968
 4497SOL    HW225125   1.906   4.241   9.339  1.1532  0.4439  1.0257
 4498SOL     OW25126   0.433   2.487   5.202  0.0349 -0.6614 -0.3767
 4498SOL    HW125127   0.365   2.428   5.235 -0.0807  1.0280  2.4068
 4498SOL    HW225128   0.486   2.425   5.152  1.0321  0.5049 -0.7648
 4499SOL     OW25129   4.462   1.221   0.570  0.3814 -0.7269  0.1535
 4499SOL    HW125130   4.399   1.150   0.581 -1.3362  0.8789  0.4892
 4499SOL    HW225131   4.405   1.253   0.501  0.7401  0.9504  0.6448
 4500SOL     OW25132   4.525   2.294   2.577 -0.9536  0.2343  0.2250
 4500SOL    HW125133   4.561   2.365   2.630 -1.7047  1.3166 -0.7002
 4500SOL    HW225134   4.432   2.298   2.599 -0.6582 -0.0876  1.5222
 4501SOL     OW25135   2.906   1.285   8.745 -0.1646 -0.7431 -0.0006
 4501SOL    HW125136   2.946   1.254   8.664 -0.0276 -0.6894  0.0458
 4501SOL    HW225137   2.886   1.368   8.703  2.3531  0.7881  1.7648
 4502SOL     OW25138   4.538   3.534   3.491 -0.3872  0.5845 -0.0206
 4502SOL    HW125139   4.537   3.551   3.585  2.9385  0.9256 -0.0763
 4502SOL    HW225140   4.628   3.565   3.478 -0.6517  0.5037 -2.1607
 4503SOL     OW25141   2.117   4.248   1.820  0.1043  0.4125 -0.3115
 4503SOL    HW125142   2.203   4.261   1.861  0.6976 -0.0499 -1.3865
 4503SOL    HW225143   2.070   4.209   1.893  2.1750 -1.3465  0.0856
 4504SOL     OW25144   1.134   0.569   1.200 -0.1552  0.3651 -0.1679
 4504SOL    HW125145   1.133   0.589   1.107  0.7353 -2.4732 -0.7836
 4504SOL    HW225146   1.174   0.483   1.186  0.2856  0.5969 -0.3202
 4505SOL     OW25147   2.917   2.897   8.898  0.3376 -0.9098  0.0990
 4505SOL    HW125148   2.845   2.902   8.836  0.7521  1.0650 -0.2165
 4505SOL    HW225149   2.875   2.940   8.972 -0.7686  0.3510 -1.2775
 4506SOL     OW25150   4.390   2.814   6.260  0.1268 -0.5268  0.1422
 4506SOL    HW125151   4.301   2.836   6.232 -0.9575 -1.8430  2.5362
 4506SOL    HW225152   4.370   2.764   6.339 -1.3620 -2.9706 -1.7770
 4507SOL     OW25153   2.454   0.374   7.115 -0.5271 -0.1617  0.1087
 4507SOL    HW125154   2.376   0.365   7.170 -1.0947 -0.5064 -0.7526
 4507SOL    HW225155   2.522   0.326   7.164  2.0941  2.1151 -1.2920
 4508SOL     OW25156   3.196   3.857   7.384  0.8831 -0.1852 -0.1080
 4508SOL    HW125157   3.236   3.861   7.471 -1.5171 -1.2284  1.0367
 4508SOL    HW225158   3.126   3.917   7.409  1.5679  0.0326  1.2770
 4509SOL     OW25159   1.224   4.172   9.193 -0.4589  0.5426  0.5431
 4509SOL    HW125160   1.300   4.213   9.235 -0.2998 -0.3637  1.1321
 4509SOL    HW225161   1.192   4.248   9.144  0.3933  0.1205 -0.6596
 4510SOL     OW25162   0.773   4.193   8.256 -0.1412 -0.4988  0.7452
 4510SOL    HW125163   0.841   4.160   8.314  0.0172  3.4798  2.8045
 4510SOL    HW225164   0.711   4.120   8.263 -1.9262  0.8223 -1.2118
 4511SOL     OW25165   0.632   1.118  15.244  0.4340 -1.2324 -0.6316
 4511SOL    HW125166   0.713   1.168  15.236  0.6449 -1.4332  0.2473
 4511SOL    HW225167   0.572   1.163  15.184  1.4091  1.2961  0.2830
 4512SOL     OW25168   2.831   2.735  17.410 -0.1174 -0.1414 -0.3105
 4512SOL    HW125169   2.831   2.808  17.348 -3.8268 -0.1325 -0.2919
 4512SOL    HW225170   2.840   2.783  17.492 -0.0381  0.2955 -0.5747
 4513SOL     OW25171   1.288   3.665   8.584 -0.3702 -0.0239 -0.3965
 4513SOL    HW125172   1.368   3.614   8.568 -0.8972 -0.7447 -0.7315
 4513SOL    HW225173   1.276   3.719   8.507  1.3707  1.1240  0.1485
 4514SOL     OW25174   3.254   3.183   3.084 -0.5475  0.3822 -0.0747
 4514SOL    HW125175   3.349   3.171   3.090 -0.4237  1.1342 -0.5455
 4514SOL    HW225176   3.228   3.153   3.171 -1.2535  1.0548 -0.0516
 4515SOL     OW25177   2.818   0.733   9.217 -0.7248  0.5528 -0.4968
 4515SOL    HW125178   2.900   0.736   9.168 -0.0985 -1.7054  0.3910
 4515SOL    HW225179   2.834   0.716   9.310 -1.9453  0.9550 -0.2208
 4516SOL     OW25180   4.630   3.828  12.537  0.1779  0.2866 -0.4531
 4516SOL    HW125181   4.544   3.870  12.545  0.2816  1.1322 -3.9050
 4516SOL    HW225182   4.675   3.858  12.616 -1.0433 -2.7331  1.3788
 4517SOL     OW25183   3.654   2.194   5.700  0.1071  0.2794 -0.1204
 4517SOL    HW125184   3.644   2.223   5.610 -1.0862  1.5538  0.4374
 4517SOL    HW225185   3.583   2.130   5.711  0.5426  0.3113  2.7969
 4518SOL     OW25186   1.637   1.014   5.495  0.2023  0.1508 -0.0502
 4518SOL    HW125187   1.637   1.026   5.590  2.0011 -1.8842  0.2149
 4518SOL    HW225188   1.612   0.922   5.485  0.7778  0.3607 -3.5069
 4519SOL     OW25189   0.314   0.439   3.440 -0.7414 -0.0530  0.5503
 4519SOL    HW125190   0.223   0.420   3.416  0.0214 -1.7588 -0.9829
 4519SOL    HW225191   0.331   0.525   3.402  0.6292 -0.0497  1.1572
 4520SOL     OW25192   0.629   2.041   3.100 -0.2659 -0.6396 -0.2147
 4520SOL    HW125193   0.600   2.131   3.086 -1.0756 -0.8137  0.3850
 4520SOL    HW225194   0.723   2.046   3.084 -0.2031  2.0071  1.0170
 4521SOL     OW25195   0.382   1.235   1.757 -0.1415 -0.0763  0.2133
 4521SOL    HW125196   0.472   1.236   1.723 -0.3474 -0.3126 -0.3316
 4521SOL    HW225197   0.386   1.309   1.818 -1.2478  0.7260 -0.6854
 4522SOL     OW25198   0.542   3.563  17.082  0.3395  0.0874  0.4761
 4522SOL    HW125199   0.496   3.629  17.029 -0.3500  1.3734  2.6668
 4522SOL    HW225200   0.632   3.594  17.081 -0.6101  2.8149 -0.3302
 4523SOL     OW25201   3.884   0.668  15.594  0.3006  0.3687  0.2822
 4523SOL    HW125202   3.934   0.734  15.642 -1.0633  1.2632  0.4785
 4523SOL    HW225203   3.939   0.590  15.583  0.7778  1.0748 -2.3565
 4524SOL     OW25204   0.105   0.551   4.275 -0.1622  0.2778 -0.0161
 4524SOL    HW125205   0.132   0.574   4.186  1.9473 -0.5342  0.4193
 4524SOL    HW225206   0.056   0.631   4.295 -2.2955 -1.5560  2.1188
 4525SOL     OW25207   0.427   2.026  12.125  0.3983  0.4899  0.0300
 4525SOL    HW125208   0.463   2.039  12.037  0.9717  0.0360  0.1937
 4525SOL    HW225209   0.332   2.030  12.116  0.3339 -1.6989 -0.2523
 4526SOL     OW25210   1.005   4.158  12.346  0.0243  0.0193 -0.8109
 4526SOL    HW125211   0.913   4.176  12.327 -0.7908 -2.5388  0.8409
 4526SOL    HW225212   1.030   4.097  12.276  1.6884 -1.2615  0.9098
 4527SOL     OW25213   0.692   4.437   8.976 -0.1089  0.4545 -0.2293
 4527SOL    HW125214   0.730   4.448   9.063 -0.3775 -0.3202 -0.0187
 4527SOL    HW225215   0.667   4.527   8.955 -1.2658  0.2348  0.2275
 4528SOL     OW25216   1.554   0.658  11.603  0.5174 -0.0523  0.2539
 4528SOL    HW125217   1.496   0.583  11.601  0.7458 -0.2916  2.4364
 4528SOL    HW225218   1.570   0.674  11.510  0.4268 -3.1894 -0.2872
 4529SOL     OW25219   4.651   4.665   6.325 -0.0572  0.6514  0.2741
 4529SOL    HW125220   4.625   4.694   6.238 -0.4159 -0.1403  0.1175
 4529SOL    HW225221   0.007   4.680   6.321  0.2632 -0.8915  2.2014
 4530SOL     OW25222   1.456   2.563  12.185 -0.7763  0.5827  0.2460
 4530SOL    HW125223   1.397   2.637  12.199 -0.2798  0.9234  0.4983
 4530SOL    HW225224   1.433   2.503  12.257 -0.9017 -0.0713 -0.3371
 4531SOL     OW25225   2.390   2.353   1.252 -0.2068 -0.3229  0.1166
 4531SOL    HW125226   2.441   2.409   1.311 -1.8924  1.8375 -0.4967
 4531SOL    HW225227   2.361   2.280   1.307  0.3289 -1.7756 -1.5113
 4532SOL     OW25228   0.347   1.675  10.650 -0.0518 -0.1216  0.1036
 4532SOL    HW125229   0.290   1.602  10.676 -1.1832  0.3580 -1.0295
 4532SOL    HW225230   0.308   1.713  10.571  1.4582  0.7470 -0.2283
 4533SOL     OW25231   3.609   0.656   5.531  0.6416  0.8674  0.2160
 4533SOL    HW125232   3.648   0.588   5.476 -1.7497 -0.4675  0.1359
 4533SOL    HW225233   3.684   0.696   5.575  0.7933 -1.5181  2.1027
 4534SOL     OW25234   4.611   3.570   8.445 -0.0007  0.3003 -0.1910
 4534SOL    HW125235   4.560   3.641   8.484  1.9790  2.1454 -1.0058
 4534SOL    HW225236   4.694   3.588   8.489  0.6545 -0.4479 -1.1304
 4535SOL     OW25237   1.866   1.761   9.959  0.2317  0.0928 -0.2173
 4535SOL    HW125238   1.913   1.744  10.041  1.8653  0.8418 -1.0033
 4535SOL    HW225239   1.845   1.854   9.973 -1.0528 -0.3095  0.4584
 4536SOL     OW25240   4.408   3.834   2.189  0.2707  0.2645  0.5228
 4536SOL    HW125241   4.361   3.755   2.162  0.0653  1.0540 -1.3756
 4536SOL    HW225242   4.455   3.799   2.265  1.2913 -1.0475 -0.7180
 4537SOL     OW25243   4.287   3.903   9.556  0.1065  0.8649 -0.2345
 4537SOL    HW125244   4.299   3.991   9.521 -0.5320  0.8142 -0.5953
 4537SOL    HW225245   4.226   3.938   9.621 -0.4591 -1.8453  0.7020
 4538SOL     OW25246   2.207   2.343  14.427 -0.0545  0.3517  0.0173
 4538SOL    HW125247   2.187   2.362  14.518 -1.7921  0.3553 -0.3585
 4538SOL    HW225248   2.248   2.421  14.390  0.1810  0.5714  0.7467
 4539SOL     OW25249   2.518   4.539   4.650  0.0866 -0.1043 -0.1572
 4539SOL    HW125250   2.499   4.549   4.743 -2.3525  1.0538 -0.7713
 4539SOL    HW225251   2.445   4.582   4.606 -1.2605 -2.7667 -0.5156
 4540SOL     OW25252   3.371   3.367   3.529 -0.0717 -0.5387  0.4391
 4540SOL    HW125253   3.356   3.421   3.452 -0.1675 -2.0008 -0.5577
 4540SOL    HW225254   3.348   3.425   3.601 -0.0810 -1.9360  1.5752
 4541SOL     OW25255   3.999   2.667   6.756  0.4433  0.1693 -0.3730
 4541SOL    HW125256   4.041   2.723   6.692 -3.0463  0.5917 -2.3051
 4541SOL    HW225257   4.072   2.647   6.814  1.3633 -0.3946 -1.7329
 4542SOL     OW25258   0.307   3.444  13.405 -0.5035  0.1102  0.4958
 4542SOL    HW125259   0.379   3.439  13.469 -2.1561 -1.2243  2.2409
 4542SOL    HW225260   0.347   3.492  13.333 -0.9559  0.0883  0.2321
 4543SOL     OW25261   0.004   2.315   6.842  0.8476 -0.0112  0.6997
 4543SOL    HW125262   0.028   2.239   6.895  0.0348 -0.6878  0.0913
 4543SOL    HW225263   0.061   2.310   6.765 -0.5224 -0.6955 -0.2639
 4544SOL     OW25264   0.503   3.753   8.605  0.5913  0.0625 -0.3079
 4544SOL    HW125265   0.422   3.801   8.589 -1.0818 -3.0062 -1.0193
 4544SOL    HW225266   0.550   3.768   8.523 -1.4272  0.0669 -1.4460
 4545SOL     OW25267   3.550   4.585   1.025  0.2928 -0.0219 -0.1987
 4545SOL    HW125268   3.498   4.581   1.105  1.3218  2.1380  0.5868
 4545SOL    HW225269   3.636   4.598   1.064 -0.5922 -0.5244  1.8923
 4546SOL     OW25270   4.337   3.603  10.463 -0.1743  0.5235 -0.4452
 4546SOL    HW125271   4.394   3.571  10.392 -1.5640 -0.1083 -1.2704
 4546SOL    HW225272   4.389   3.678  10.493  0.0902  0.3272 -0.4093
 4547SOL     OW25273   3.206   3.422  11.536 -0.0402 -0.3666 -0.2901
 4547SOL    HW125274   3.172   3.462  11.616  1.0709 -0.7430  0.3602
 4547SOL    HW225275   3.261   3.496  11.509 -0.6666  0.5267  0.8809
 4548SOL     OW25276   1.404   4.467   8.976  1.1024 -0.6195 -0.3554
 4548SOL    HW125277   1.458   4.506   9.046  1.5670 -0.0970 -0.9978
 4548SOL    HW225278   1.455   4.388   8.958  1.2899 -0.1788 -1.8208
 4549SOL     OW25279   2.158   0.721   5.518 -0.0190  0.3367 -0.3354
 4549SOL    HW125280   2.070   0.745   5.546  0.4112  0.8907  0.5580
 4549SOL    HW225281   2.139   0.646   5.462 -0.3626  0.3337 -0.2123
 4550SOL     OW25282   2.613   0.560   0.139  0.4079  0.3002 -0.0238
 4550SOL    HW125283   2.649   0.512   0.213 -0.0276  0.7248  0.4603
 4550SOL    HW225284   2.693   0.606   0.114  1.1358 -0.6539  0.5682
 4551SOL     OW25285   4.156   1.730   4.240  0.4004 -0.9507  0.1293
 4551SOL    HW125286   4.089   1.757   4.177  1.9079 -1.8975 -1.8629
 4551SOL    HW225287   4.157   1.806   4.298 -0.6053 -1.5421  0.9306
 4552SOL     OW25288   4.410   2.776   2.492 -0.1933 -0.3658  0.3474
 4552SOL    HW125289   4.380   2.697   2.447  0.4312 -0.0894 -0.5642
 4552SOL    HW225290   4.340   2.792   2.555 -1.1393 -2.9260 -0.0249
 4553SOL     OW25291   3.899   0.359  14.628  0.1576 -0.6157 -0.6355
 4553SOL    HW125292   3.959   0.347  14.554  2.1792 -0.5976  1.0048
 4553SOL    HW225293   3.837   0.420  14.588 -0.7300 -1.8804 -1.1799
 4554SOL     OW25294   0.668   1.976   5.400  0.0125 -0.1559 -0.0644
 4554SOL    HW125295   0.732   2.005   5.335 -0.4923  1.2128  0.0380
 4554SOL    HW225296   0.717   1.917   5.457 -2.1563 -1.6302  0.2551
 4555SOL     OW25297   0.322   3.801  10.723  0.0771 -0.7303  0.0868
 4555SOL    HW125298   0.325   3.765  10.635 -0.9211  0.1872 -0.3189
 4555SOL    HW225299   0.338   3.718  10.767  1.1935  0.1555  1.3528
 4556SOL     OW25300   4.310   0.152  15.811  0.5621  0.3225  0.0050
 4556SOL    HW125301   4.301   0.219  15.743  0.1760  0.5765  0.3049
 4556SOL    HW225302   4.221   0.118  15.807  0.8059 -0.5515  2.2176
 4557SOL     OW25303   2.476   4.401   9.200 -1.1575  0.1745  0.6846
 4557SOL    HW125304   2.496   4.340   9.270 -1.6996 -1.4583 -0.5739
 4557SOL    HW225305   2.531   4.476   9.221 -1.2051  0.1941  0.7388
 4558SOL     OW25306   0.976   0.566   7.532 -0.0626  0.2051 -0.1148
 4558SOL    HW125307   1.001   0.476   7.511  1.2296  0.1763  1.5656
 4558SOL    HW225308   1.055   0.581   7.584  0.2454  0.6514 -0.7150
 4559SOL     OW25309   0.250   1.201   5.622  0.2182 -0.6752 -0.6897
 4559SOL    HW125310   0.206   1.121   5.593  1.8779 -1.5509 -0.7559
 4559SOL    HW225311   0.200   1.212   5.703  0.7562  0.0138 -0.4483
 4560SOL     OW25312   2.957   4.721   3.326  0.3758 -0.1101  0.1837
 4560SOL    HW125313   3.039   4.676   3.305 -0.2495  0.2589 -3.2088
 4560SOL    HW225314   2.977   4.707   3.418  3.5366  1.1658 -0.3310
 4561SOL     OW25315   2.957   0.203  10.874 -0.3313 -0.4972 -0.3248
 4561SOL    HW125316   2.903   0.271  10.835  1.0251  1.2478  0.8571
 4561SOL    HW225317   3.018   0.202  10.801 -1.8574 -0.7475 -1.6044
 4562SOL     OW25318   3.993   1.893   3.114  0.2245 -0.0248 -0.0616
 4562SOL    HW125319   3.944   1.816   3.142 -0.3694  0.9936  1.7105
 4562SOL    HW225320   3.981   1.947   3.192  0.8114 -0.9918  0.6914
 4563SOL     OW25321   4.475   2.988  14.164  0.3897  0.4681  0.5439
 4563SOL    HW125322   4.565   2.957  14.158  0.1070 -0.0632 -0.9994
 4563SOL    HW225323   4.458   3.018  14.074  2.1133  1.0659  0.4197
 4564SOL     OW25324   4.070   0.308  14.002  0.4699  0.2327 -0.0253
 4564SOL    HW125325   4.131   0.245  13.964  0.6915  0.1950  0.3951
 4564SOL    HW225326   4.015   0.241  14.044 -0.9136  0.0272 -2.1426
 4565SOL     OW25327   2.622   4.331   1.572 -0.2135  0.0546 -0.3680
 4565SOL    HW125328   2.539   4.374   1.590  1.1691  2.4846  0.3066
 4565SOL    HW225329   2.598   4.262   1.510 -2.3514  0.7666 -0.3270
 4566SOL     OW25330   1.405   1.916   2.279 -0.1566 -0.3403  0.0923
 4566SOL    HW125331   1.405   1.862   2.200 -0.9728 -0.1178 -0.0618
 4566SOL    HW225332   1.496   1.898   2.302  0.2744  1.9215  0.1214
 4567SOL     OW25333   2.973   3.844   2.717  0.4046 -0.3465  0.6336
 4567SOL    HW125334   2.932   3.887   2.642 -0.3634 -0.4893  0.9774
 4567SOL    HW225335   3.026   3.920   2.742 -1.5764  1.2903 -0.1589
 4568SOL     OW25336   2.940   1.238  14.757 -0.3301  0.5703  0.1986
 4568SOL    HW125337   2.939   1.226  14.852  0.6764 -2.6817 -0.1843
 4568SOL    HW225338   3.026   1.269  14.729 -0.3761 -0.9405 -1.5788
 4569SOL     OW25339   3.249   3.195   2.749 -0.3346  0.2814 -0.2554
 4569SOL    HW125340   3.257   3.128   2.681 -0.4658 -2.6967  2.6919
 4569SOL    HW225341   3.180   3.154   2.800  0.5103  0.5986  1.1249
 4570SOL     OW25342   2.694   3.368   3.618  0.1284  0.2842 -0.0679
 4570SOL    HW125343   2.690   3.273   3.611 -0.3695  0.3804 -1.0447
 4570SOL    HW225344   2.717   3.397   3.529  0.3932  0.5916  0.1013
 4571SOL     OW25345   2.220   2.777   6.212  0.0105  0.7949 -0.0903
 4571SOL    HW125346   2.243   2.773   6.304  1.8303  0.6754 -0.5572
 4571SOL    HW225347   2.273   2.710   6.168  0.4412  1.2400 -0.2411
 4572SOL     OW25348   4.093   3.320   8.377 -0.0242 -0.6072 -0.1582
 4572SOL    HW125349   4.151   3.358   8.444 -0.6557 -2.7496  1.5888
 4572SOL    HW225350   4.108   3.227   8.391 -0.7681 -0.7634 -0.4097
 4573SOL     OW25351   2.469   1.924  16.403 -0.1200  0.2093 -0.2456
 4573SOL    HW125352   2.537   1.881  16.456 -0.6896  0.0283  0.3396
 4573SOL    HW225353   2.507   2.009  16.383 -1.4172  0.4311 -1.7146
 4574SOL     OW25354   3.541   2.235  12.739 -0.4342  0.0143 -0.1061
 4574SOL    HW125355   3.588   2.160  12.776 -2.5990 -1.4138 -0.2933
 4574SOL    HW225356   3.506   2.204  12.655  1.0672  3.1205 -1.8960
 4575SOL     OW25357   0.046   0.037   0.688 -0.4458 -0.3817 -0.4882
 4575SOL    HW125358   0.095   0.107   0.730  0.4020 -1.5730  0.5017
 4575SOL    HW225359   0.113   4.709   0.700 -0.6765 -0.9588 -2.4354
 4576SOL     OW25360   1.703   0.568  16.575  0.2081 -0.3116  0.5088
 4576SOL    HW125361   1.748   0.652  16.579  1.2007 -0.6636 -3.0324
 4576SOL    HW225362   1.762   0.512  16.525 -2.0088  0.2038 -2.6652
 4577SOL     OW25363   2.208   2.253   6.338 -0.0849  0.5111  0.3720
 4577SOL    HW125364   2.253   2.188   6.283 -2.3310  0.8335 -1.8480
 4577SOL    HW225365   2.214   2.211   6.424  0.5410  0.9617  0.5495
 4578SOL     OW25366   3.551   0.639   9.348  0.0491  0.2123 -0.5318
 4578SOL    HW125367   3.509   0.624   9.264  0.0268  1.1066 -0.6771
 4578SOL    HW225368   3.490   0.695   9.396 -0.1078 -0.8465  0.5080
 4579SOL     OW25369   3.416   2.126   1.891  0.2021 -0.1959  0.3948
 4579SOL    HW125370   3.321   2.129   1.893  0.2199  0.0027  0.8679
 4579SOL    HW225371   3.435   2.220   1.898  0.2166 -0.0074 -2.2022
 4580SOL     OW25372   4.397   2.835   9.218 -0.2132 -0.2701  0.1213
 4580SOL    HW125373   4.471   2.893   9.200  0.4248 -1.2139 -0.3538
 4580SOL    HW225374   4.341   2.882   9.279  0.2284  3.1202 -2.1156
 4581SOL     OW25375   3.017   3.421   3.623 -0.0639  0.8657  0.4582
 4581SOL    HW125376   3.052   3.361   3.689 -1.7765  0.4714  0.9979
 4581SOL    HW225377   2.933   3.438   3.664  0.5851  1.3876  1.5862
 4582SOL     OW25378   1.432   4.368  16.936  0.3080 -0.1934 -0.6901
 4582SOL    HW125379   1.395   4.415  16.861  1.1366 -1.1072 -1.6576
 4582SOL    HW225380   1.364   4.381  17.002 -0.2829 -3.1082 -0.7419
 4583SOL     OW25381   3.693   0.143   3.124  0.2854  0.3731  0.2687
 4583SOL    HW125382   3.722   0.209   3.186  2.2966 -0.1231 -0.1553
 4583SOL    HW225383   3.734   0.070   3.171  1.6143 -0.6729 -2.4990
 4584SOL     OW25384   4.190   3.749  15.922 -0.1634 -0.2245  0.5223
 4584SOL    HW125385   4.243   3.673  15.947 -0.6346  0.1236  2.6000
 4584SOL    HW225386   4.136   3.751  16.001  0.6463  0.5430  1.0673
 4585SOL     OW25387   0.235   3.727   3.469  0.9852  0.4180  0.0079
 4585SOL    HW125388   0.271   3.655   3.417 -0.6503  0.1262 -0.7168
 4585SOL    HW225389   0.305   3.744   3.532 -0.8920  1.3577  1.8549
 4586SOL     OW25390   2.538   2.930   3.369  0.5840  0.8771  0.1234
 4586SOL    HW125391   2.580   2.845   3.380 -0.0276  0.2803 -2.1747
 4586SOL    HW225392   2.448   2.921   3.400  0.2141  1.5419 -0.7429
 4587SOL     OW25393   0.504   3.249   0.964  0.2653  0.1346  0.0532
 4587SOL    HW125394   0.597   3.264   0.979  0.3360 -0.4015  0.1582
 4587SOL    HW225395   0.511   3.158   0.934  0.5652 -0.7256  2.6722
 4588SOL     OW25396   2.401   0.633  10.694 -0.5770  0.6098  0.3199
 4588SOL    HW125397   2.472   0.583  10.733 -0.4685  1.1400  0.8015
 4588SOL    HW225398   2.326   0.581  10.724 -0.0591 -0.4885 -0.2849
 4589SOL     OW25399   2.364   1.540   5.971  0.0751  0.9468 -0.7366
 4589SOL    HW125400   2.288   1.516   5.917 -2.0409  0.6111  2.4057
 4589SOL    HW225401   2.384   1.628   5.939 -2.0459  0.6849 -2.8147
 4590SOL     OW25402   3.022   2.648  10.030  0.5982 -0.0589  0.6563
 4590SOL    HW125403   2.963   2.587  10.073 -4.7341  2.8450 -2.4221
 4590SOL    HW225404   2.963   2.694   9.970  1.4759 -0.4286 -0.4790
 4591SOL     OW25405   1.151   4.706   5.635 -0.8513 -0.2595 -0.2306
 4591SOL    HW125406   1.116   4.618   5.627  0.9998 -1.0289  0.2409
 4591SOL    HW225407   1.137   0.003   5.547 -2.7434 -0.3580  0.0132
 4592SOL     OW25408   4.308   1.485  12.744 -0.3844 -0.3530  0.1678
 4592SOL    HW125409   4.299   1.392  12.724  1.3947 -0.4610 -0.1889
 4592SOL    HW225410   4.255   1.483  12.824  0.9271  2.1467  1.0956
 4593SOL     OW25411   3.875   2.632   7.562 -0.4710  0.1383  0.1276
 4593SOL    HW125412   3.951   2.655   7.617 -1.2244  0.3508  1.0786
 4593SOL    HW225413   3.882   2.715   7.515 -1.3773 -0.4509 -1.0344
 4594SOL     OW25414   0.003   1.827   4.398  0.2795 -0.2395  0.7413
 4594SOL    HW125415   4.696   1.876   4.466 -2.0960 -0.9697 -0.3280
 4594SOL    HW225416   0.072   1.788   4.451 -0.2654  1.0969  2.4216
 4595SOL     OW25417   1.727   3.679   3.304 -0.0967  0.1466 -0.1607
 4595SOL    HW125418   1.719   3.622   3.228 -2.3698  0.2205  0.0316
 4595SOL    HW225419   1.799   3.736   3.277 -0.0733 -0.9630 -2.4195
 4596SOL     OW25420   1.653   1.049   1.956 -0.6364  0.0014  0.6759
 4596SOL    HW125421   1.624   1.109   2.025 -1.1533 -0.8922  1.2236
 4596SOL    HW225422   1.574   1.043   1.902 -1.7503 -1.3885  2.4555
 4597SOL     OW25423   3.162   1.255  13.484  0.5036 -0.3629 -0.0122
 4597SOL    HW125424   3.119   1.340  13.493  0.0483 -0.4504 -1.3980
 4597SOL    HW225425   3.254   1.281  13.496  1.0048 -1.5796 -1.2288
 4598SOL     OW25426   0.789   4.709   2.911  0.0240  0.5679  0.1065
 4598SOL    HW125427   0.755   0.044   2.860  2.3457  0.6133 -1.4201
 4598SOL    HW225428   0.723   4.699   2.979  1.4621 -2.3272  1.0619
 4599SOL     OW25429   2.264   1.618   7.764  0.1004 -0.1484  0.8305
 4599SOL    HW125430   2.169   1.622   7.772 -0.0961 -0.8461 -1.1731
 4599SOL    HW225431   2.284   1.603   7.856  4.2818 -0.8905 -0.2005
 4600SOL     OW25432   2.786   2.157   4.323  0.3352 -0.2490 -0.6273
 4600SOL    HW125433   2.712   2.217   4.336  1.3230  0.8653 -0.1744
 4600SOL    HW225434   2.819   2.160   4.413  2.2430  0.3910 -1.3446
 4601SOL     OW25435   4.363   1.278  17.138  0.2372 -0.3963  0.0468
 4601SOL    HW125436   4.442   1.297  17.086  0.4992 -1.0273  0.2069
 4601SOL    HW225437   4.305   1.237  17.074  0.8544 -2.0597  0.5488
 4602SOL     OW25438   1.841   1.053   4.544  0.2363 -0.4992  0.1794
 4602SOL    HW125439   1.887   1.068   4.627 -1.0337 -1.2327  1.0019
 4602SOL    HW225440   1.786   0.978   4.565 -0.6490  0.2515  0.5172
 4603SOL     OW25441   1.098   2.739   5.840 -0.0332  0.0387 -0.1397
 4603SOL    HW125442   1.184   2.734   5.798  0.0362 -1.1809  0.1538
 4603SOL    HW225443   1.084   2.651   5.873  1.2011 -0.4505 -0.9130
 4604SOL     OW25444   2.539   0.865   1.726  0.2244  0.4616 -0.6430
 4604SOL    HW125445   2.547   0.774   1.696  0.7462 -0.2379  1.5959
 4604SOL    HW225446   2.556   0.923   1.652  2.9717 -0.7547 -0.9966
 4605SOL     OW25447   3.561   4.592   4.351  0.2444  0.3064 -0.5630
 4605SOL    HW125448   3.477   4.547   4.368 -0.2660  0.5743 -2.4128
 4605SOL    HW225449   3.620   4.517   4.347 -2.4633 -1.8168 -0.8448
 4606SOL     OW25450   0.349   0.768  14.941 -0.2501  0.8022  0.0119
 4606SOL    HW125451   0.413   0.720  14.887 -0.3932  2.9415 -2.0716
 4606SOL    HW225452   0.406   0.843  14.955  0.1103 -0.2656  4.2758
 4607SOL     OW25453   1.786   4.621   5.377  0.1989 -0.2241 -0.3593
 4607SOL    HW125454   1.833   4.593   5.299  1.6381 -0.1183  0.4666
 4607SOL    HW225455   1.777   4.716   5.369  0.0140  0.1230  3.9101
 4608SOL     OW25456   3.762   2.581   4.467  0.5988 -0.2921  0.2986
 4608SOL    HW125457   3.678   2.615   4.434  1.2331  0.0147 -0.9773
 4608SOL    HW225458   3.744   2.494   4.502  0.9569 -0.4510  0.0823
 4609SOL     OW25459   1.510   1.040  16.535  0.4661  0.2146  0.0139
 4609SOL    HW125460   1.600   1.074  16.531  0.8704 -0.7443  0.9766
 4609SOL    HW225461   1.507   1.002  16.447 -0.9288  0.3465  0.0078
 4610SOL     OW25462   1.131   3.842   3.605 -0.4592 -0.2428  0.2171
 4610SOL    HW125463   1.171   3.868   3.688  0.8546  0.2412 -0.5825
 4610SOL    HW225464   1.058   3.904   3.597  0.6802  1.3637  2.2455
 4611SOL     OW25465   4.659   0.796   8.383 -0.1478 -0.0843  0.3962
 4611SOL    HW125466   4.705   0.878   8.366  0.0322  0.1893  2.2389
 4611SOL    HW225467   4.609   0.816   8.462  0.3684  1.4301  0.3318
 4612SOL     OW25468   3.963   0.817  17.042  0.0499 -0.4548 -0.0754
 4612SOL    HW125469   3.966   0.822  17.138 -2.6985  0.7847 -0.0547
 4612SOL    HW225470   3.940   0.726  17.027 -1.9203  0.0812 -0.2844
 4613SOL     OW25471   4.696   4.677  16.252 -0.4268  0.1686 -0.4887
 4613SOL    HW125472   4.653   4.595  16.275 -0.8982  1.1993  2.3458
 4613SOL    HW225473   0.018   4.690  16.324  0.2274 -1.3336 -0.7860
 4614SOL     OW25474   1.745   3.797   4.545  0.0297 -0.4553  0.2504
 4614SOL    HW125475   1.739   3.750   4.462  2.2691 -0.5783  0.1443
 4614SOL    HW225476   1.657   3.815   4.576  0.3464  0.7607  0.4274
 4615SOL     OW25477   4.618   4.650   9.341  0.2012 -0.3644  0.1213
 4615SOL    HW125478   4.578   4.731   9.373  1.6623  0.5952 -0.4680
 4615SOL    HW225479   4.586   4.663   9.252 -1.5816  4.0644  1.3875
 4616SOL     OW25480   3.746   4.420   9.440 -0.5114 -0.0135  0.5317
 4616SOL    HW125481   3.761   4.326   9.428  2.3760  0.1231  3.1930
 4616SOL    HW225482   3.718   4.426   9.532 -1.4597 -1.2503  0.3293
 4617SOL     OW25483   4.559   3.602   2.908  0.1915 -0.4528 -0.1738
 4617SOL    HW125484   4.598   3.674   2.858  1.1012 -2.6488 -2.6557
 4617SOL    HW225485   4.568   3.529   2.846  0.5191 -0.0946 -0.5435
 4618SOL     OW25486   1.522   2.362  17.282 -0.4793  0.0254  0.4159
 4618SOL    HW125487   1.502   2.297  17.214 -0.1703 -1.3097  1.6066
 4618SOL    HW225488   1.516   2.303  17.357  1.0650 -1.3114 -0.5232
 4619SOL     OW25489   2.903   0.539  14.829  0.2762 -0.1192  0.7078
 4619SOL    HW125490   2.909   0.560  14.923  2.8112 -3.6690  1.3430
 4619SOL    HW225491   2.903   0.629  14.796  0.5798 -0.6706 -0.7586
 4620SOL     OW25492   1.062   0.804   5.218  0.1568 -0.5699 -0.3149
 4620SOL    HW125493   0.987   0.758   5.180  0.4737 -0.2845 -1.3101
 4620SOL    HW225494   1.019   0.814   5.303 -0.5426 -2.8539 -0.4026
 4621SOL     OW25495   0.283   0.518   8.677 -0.3005  0.5309  0.6513
 4621SOL    HW125496   0.351   0.452   8.688  1.6116  2.1898 -0.9719
 4621SOL    HW225497   0.237   0.487   8.598 -0.9957  2.0704  0.4454
 4622SOL     OW25498   1.870   0.883   1.948 -0.0216  0.4231  0.2265
 4622SOL    HW125499   1.920   0.932   2.013 -2.9843 -2.3811  4.6498
 4622SOL    HW225500   1.793   0.939   1.944 -0.0819  0.4680  1.9570
 4623SOL     OW25501   4.190   1.511   9.676 -0.1036 -0.0069 -0.0939
 4623SOL    HW125502   4.132   1.530   9.603  0.5810 -1.6153 -1.0646
 4623SOL    HW225503   4.167   1.418   9.680  1.7818 -0.4213  1.3167
 4624SOL     OW25504   0.101   2.346  17.273 -0.0739 -0.1919  0.1318
 4624SOL    HW125505   0.014   2.336  17.312  0.0381 -0.9982  0.1697
 4624SOL    HW225506   0.107   2.441  17.282  3.1013 -0.5735  2.1697
 4625SOL     OW25507   0.437   3.417   4.156 -0.2684  0.5782 -0.2174
 4625SOL    HW125508   0.527   3.441   4.132  0.1194 -2.0779 -1.4550
 4625SOL    HW225509   0.384   3.456   4.086  1.4305 -1.8505 -2.8600
 4626SOL     OW25510   2.110   3.780   4.654 -0.0183 -0.2021  0.2858
 4626SOL    HW125511   2.158   3.863   4.657 -0.8786  0.3402 -1.2935
 4626SOL    HW225512   2.159   3.739   4.583 -1.2755  1.2637 -1.3849
 4627SOL     OW25513   0.672   3.832   4.100  0.1637 -0.1434  0.1053
 4627SOL    HW125514   0.650   3.811   4.191 -2.0333 -2.7386 -1.0111
 4627SOL    HW225515   0.768   3.831   4.106  0.1140 -0.4245  0.7755
 4628SOL     OW25516   1.328   2.503   0.106 -0.3553 -0.4766  0.0947
 4628SOL    HW125517   1.383   2.425   0.101 -1.9292 -1.5454 -0.3470
 4628SOL    HW225518   1.375   2.561   0.047 -0.8543  1.1694  1.2931
 4629SOL     OW25519   4.385   0.134  13.391  0.4278 -0.2341 -0.6910
 4629SOL    HW125520   4.406   0.057  13.443  0.8901 -0.5170 -1.2890
 4629SOL    HW225521   4.354   0.093  13.310 -1.4260  2.0214 -1.1104
 4630SOL     OW25522   1.070   2.958  11.211  0.2359 -0.4416 -0.7414
 4630SOL    HW125523   1.032   2.910  11.137  0.1482  1.8263 -2.1854
 4630SOL    HW225524   1.105   3.035  11.167  0.4725 -0.6064 -0.8392
 4631SOL     OW25525   3.580   3.439   8.280 -0.4086  0.3250  0.4766
 4631SOL    HW125526   3.650   3.434   8.346  1.7505  0.5971 -1.7910
 4631SOL    HW225527   3.622   3.396   8.206 -1.9647 -0.2773 -0.0603
 4632SOL     OW25528   0.071   0.898   7.064 -0.1901  0.6138  0.3131
 4632SOL    HW125529   0.008   0.957   7.107 -1.1828  0.0860 -0.4126
 4632SOL    HW225530   0.127   0.948   7.005 -1.2565 -0.9754 -2.0333
 4633SOL     OW25531   0.410   1.050  10.960 -0.4140  0.1897  0.3543
 4633SOL    HW125532   0.320   1.065  10.987  0.0059 -0.6063  2.1573
 4633SOL    HW225533   0.448   1.017  11.041 -0.8053  0.5635  0.6912
 4634SOL     OW25534   2.610   2.554   3.068 -0.5881  0.3230 -0.0325
 4634SOL    HW125535   2.563   2.633   3.093  0.3066  0.8604 -0.0278
 4634SOL    HW225536   2.667   2.541   3.144 -0.0962  0.2361 -0.4165
 4635SOL     OW25537   1.208   3.359   9.735 -0.0154  0.4912  0.9807
 4635SOL    HW125538   1.270   3.360   9.662  0.1916 -0.1556  1.1489
 4635SOL    HW225539   1.186   3.269   9.762 -0.6062  0.4345  0.3013
 4636SOL     OW25540   3.467   3.291  11.580 -0.5438  0.3137  0.1946
 4636SOL    HW125541   3.380   3.326  11.562  0.1666  1.4493 -1.0362
 4636SOL    HW225542   3.500   3.319  11.666 -0.1439 -3.0173  1.1404
 4637SOL     OW25543   3.054   1.636   1.432  0.6880 -0.1217 -0.0961
 4637SOL    HW125544   3.066   1.673   1.344 -1.5678 -3.7094 -1.9176
 4637SOL    HW225545   3.062   1.711   1.491 -1.8906 -0.4531  0.6920
 4638SOL     OW25546   1.350   1.472   8.774  0.0733  0.0770  0.2756
 4638SOL    HW125547   1.324   1.385   8.744  1.0958  0.2736 -1.1268
 4638SOL    HW225548   1.445   1.461   8.774 -0.0640 -1.0466 -1.8539
 4639SOL     OW25549   3.069   4.252   9.572  0.1975  0.2643  0.9094
 4639SOL    HW125550   3.160   4.280   9.568  0.0056  0.7576 -0.0165
 4639SOL    HW225551   3.077   4.201   9.653  1.0970 -0.6382  0.2418
 4640SOL     OW25552   4.525   1.968  17.711 -0.6328  0.1769  0.3693
 4640SOL    HW125553   4.592   1.937   0.019 -1.4563  0.6592  1.5190
 4640SOL    HW225554   4.500   1.886  17.670  1.1637 -1.0373  1.6771
 4641SOL     OW25555   3.660   4.273   5.306  0.4361 -0.0132 -0.1443
 4641SOL    HW125556   3.665   4.236   5.218 -0.6144  1.5605 -0.8725
 4641SOL    HW225557   3.731   4.232   5.356  0.7166  0.4910 -0.1218
 4642SOL     OW25558   1.848   0.166  15.676  0.2864  0.0095 -0.1979
 4642SOL    HW125559   1.942   0.180  15.665  0.5136  0.2263  1.9335
 4642SOL    HW225560   1.815   0.174  15.586  1.3683  1.1405 -0.4979
 4643SOL     OW25561   2.367   2.994   1.861  0.0335  0.2131 -0.3486
 4643SOL    HW125562   2.308   2.919   1.848  0.1808  0.0926 -0.3223
 4643SOL    HW225563   2.308   3.066   1.838 -0.6389  0.5206  2.3508
 4644SOL     OW25564   0.283   1.816  11.321 -0.4371 -0.4851  0.6228
 4644SOL    HW125565   0.324   1.859  11.245 -0.2760 -0.0517  0.9545
 4644SOL    HW225566   0.352   1.811  11.387  0.0320  0.1305  0.1775
 4645SOL     OW25567   2.595   2.567  14.390  0.2459 -0.1727 -0.1519
 4645SOL    HW125568   2.601   2.520  14.307  2.4545  0.7181 -0.4902
 4645SOL    HW225569   2.515   2.618  14.376 -0.2219 -1.5309 -2.3412
 4646SOL     OW25570   4.426   3.284  15.391 -0.0176  0.2941 -0.4394
 4646SOL    HW125571   4.406   3.333  15.470  0.2218  0.1935 -0.3167
 4646SOL    HW225572   4.502   3.233  15.418 -0.0655  0.0368 -0.7920
 4647SOL     OW25573   4.169   2.914   6.130 -0.1455 -0.2695 -0.0101
 4647SOL    HW125574   4.190   2.968   6.053  1.0983  0.4554  0.8261
 4647SOL    HW225575   4.154   2.979   6.199  2.2463  1.1533 -0.8150
 4648SOL     OW25576   4.369   3.944  15.845 -0.0450  0.2484 -0.3084
 4648SOL    HW125577   4.367   4.013  15.912 -0.8866  1.1704 -1.2879
 4648SOL    HW225578   4.313   3.871  15.869  2.4252 -1.9020 -1.0660
 4649SOL     OW25579   1.451   3.286   3.362 -0.4491  0.4124  0.2933
 4649SOL    HW125580   1.371   3.245   3.396 -0.5987 -0.6609 -1.3767
 4649SOL    HW225581   1.403   3.348   3.308 -1.1091  0.5268  1.0067
 4650SOL     OW25582   3.010   2.219   4.539 -0.0571 -0.1193 -0.5148
 4650SOL    HW125583   2.979   2.303   4.572  0.6801  0.7811 -2.1205
 4650SOL    HW225584   3.104   2.229   4.526 -0.1634 -0.0395 -1.2480
 4651SOL     OW25585   0.851   3.868   2.788  0.1627  0.5903  0.4970
 4651SOL    HW125586   0.823   3.919   2.864  0.0822  1.2138  0.0567
 4651SOL    HW225587   0.835   3.929   2.715  0.0736 -0.5067 -0.3965
 4652SOL     OW25588   3.248   0.970  15.061 -0.2198  0.0096 -0.4270
 4652SOL    HW125589   3.302   0.926  15.127 -1.2251  1.1363  1.1382
 4652SOL    HW225590   3.295   1.051  15.042 -1.7879  0.7823 -1.0824
 4653SOL     OW25591   0.156   0.398   2.643  0.1842  0.1280  0.2716
 4653SOL    HW125592   0.121   0.487   2.650 -2.7749 -1.0132 -0.2430
 4653SOL    HW225593   0.133   0.371   2.554  0.2947 -2.0543  0.9108
 4654SOL     OW25594   4.402   2.031   4.647 -0.2763 -0.3393 -0.3618
 4654SOL    HW125595   4.493   2.039   4.619 -0.0389 -2.9229 -0.4007
 4654SOL    HW225596   4.389   2.123   4.667 -0.4647 -0.7249  1.3721
 4655SOL     OW25597   3.101   0.380   2.747 -0.3555  0.2915 -0.3116
 4655SOL    HW125598   3.017   0.351   2.712 -0.9799 -0.2914  1.7193
 4655SOL    HW225599   3.074   0.403   2.836  0.4161  0.9898 -0.2553
 4656SOL     OW25600   3.487   0.992   6.249  0.5632  0.4638 -0.2797
 4656SOL    HW125601   3.514   1.082   6.232  0.3756  1.0296  2.4021
 4656SOL    HW225602   3.500   0.992   6.344  1.6797 -0.1594 -0.4353
 4657SOL     OW25603   1.344   0.871   1.932  0.2063 -0.4453 -0.1930
 4657SOL    HW125604   1.308   0.899   1.847  0.4117  1.9211  0.5097
 4657SOL    HW225605   1.400   0.800   1.900 -1.1374 -0.3652 -2.7648
 4658SOL     OW25606   2.386   1.828   0.071 -0.4107 -0.3603  0.3197
 4658SOL    HW125607   2.331   1.890   0.120 -0.2835 -0.5861  0.7438
 4658SOL    HW225608   2.335   1.821  17.743 -0.6969 -0.2468  0.4861
 4659SOL     OW25609   0.190   0.287  12.604  0.7951 -0.3725  0.3825
 4659SOL    HW125610   0.152   0.354  12.660 -0.5015 -1.0101  0.2528
 4659SOL    HW225611   0.273   0.268  12.649  1.1610 -1.2092 -0.6485
 4660SOL     OW25612   4.246   2.912  17.658  0.1200 -0.5759  0.4192
 4660SOL    HW125613   4.332   2.874  17.638 -0.1692 -1.5397  1.0212
 4660SOL    HW225614   4.196   2.877  17.583 -1.2126  0.3532  0.8789
 4661SOL     OW25615   4.480   4.073  16.864  0.4197  0.4372  0.6790
 4661SOL    HW125616   4.465   4.032  16.949  0.9691 -0.6391  0.2519
 4661SOL    HW225617   4.515   4.161  16.879  3.5922 -0.4812 -1.3835
 4662SOL     OW25618   4.437   0.427   6.530 -0.6432  0.0292  0.3142
 4662SOL    HW125619   4.507   0.440   6.594 -0.5113  1.2464 -0.0804
 4662SOL    HW225620   4.479   0.480   6.462 -0.7070 -1.6613 -1.0212
 4663SOL     OW25621   2.790   4.710   2.739  0.1013 -0.1069  0.0995
 4663SOL    HW125622   2.728   0.044   2.739  1.8350  1.3731  1.0672
 4663SOL    HW225623   2.818   4.714   2.648  1.7243 -0.1052  0.5913
 4664SOL     OW25624   1.899   1.593   6.579 -0.3878 -0.9362  0.0925
 4664SOL    HW125625   1.967   1.660   6.590  1.3886 -2.6000 -0.7086
 4664SOL    HW225626   1.948   1.529   6.527 -3.0638 -2.2503 -0.7825
 4665SOL     OW25627   1.408   1.757  11.000 -0.2187  0.2617  0.1308
 4665SOL    HW125628   1.419   1.662  11.006  2.1132  0.6038  1.4539
 4665SOL    HW225629   1.471   1.776  11.070 -2.4455  1.6451  1.7800
 4666SOL     OW25630   1.073   1.413  17.097  0.0126 -0.2674  0.6119
 4666SOL    HW125631   1.113   1.390  17.180  0.5236 -0.6719  0.2582
 4666SOL    HW225632   0.982   1.392  17.119 -0.2920 -0.9997 -1.3241
 4667SOL     OW25633   0.795   4.194   3.634  0.0455  0.4746 -0.3042
 4667SOL    HW125634   0.843   4.113   3.620 -0.6192  0.0047  0.1387
 4667SOL    HW225635   0.860   4.262   3.647  0.7438 -0.6160  1.8480
 4668SOL     OW25636   4.110   4.008   9.704 -0.0198 -0.3605 -0.1183
 4668SOL    HW125637   4.056   3.973   9.775 -2.4902  0.3605 -1.6436
 4668SOL    HW225638   4.052   4.079   9.676  0.2083  0.5415  1.6350
 4669SOL     OW25639   1.065   4.220   2.640  0.0417  0.2225  0.4051
 4669SOL    HW125640   1.122   4.290   2.608 -0.1115  0.7928  1.3501
 4669SOL    HW225641   0.976   4.255   2.643 -0.5951 -1.3876 -0.2540
 4670SOL     OW25642   1.198   2.251  12.274  0.1710 -0.2052 -0.0017
 4670SOL    HW125643   1.123   2.245  12.215  0.3733  1.8522 -0.4596
 4670SOL    HW225644   1.164   2.225  12.360  0.2407 -1.8575 -0.4827
 4671SOL     OW25645   4.282   0.712   9.584 -0.9617  0.1492  0.4247
 4671SOL    HW125646   4.343   0.786   9.589 -0.1255 -0.4890 -0.6839
 4671SOL    HW225647   4.209   0.739   9.640  0.4597  0.0126  2.3420
 4672SOL     OW25648   4.195   3.552   9.724 -0.0790 -0.5562 -0.3186
 4672SOL    HW125649   4.112   3.575   9.766 -0.1147 -0.1188 -0.6403
 4672SOL    HW225650   4.158   3.522   9.641 -0.2957 -2.2763  0.3982
 4673SOL     OW25651   1.863   0.720   7.721 -0.1713 -0.3687 -0.7977
 4673SOL    HW125652   1.770   0.736   7.704 -0.7499 -2.8930  0.0411
 4673SOL    HW225653   1.855   0.713   7.816  0.5472  0.7546 -0.6541
 4674SOL     OW25654   4.125   3.950   6.591 -0.3663 -0.2145  0.6152
 4674SOL    HW125655   4.173   3.992   6.519 -2.9319  2.2264  0.3339
 4674SOL    HW225656   4.041   3.931   6.551 -1.2877  1.5167  1.7341
 4675SOL     OW25657   3.515   1.352   8.324  0.1936 -0.0290 -1.1056
 4675SOL    HW125658   3.601   1.335   8.286  0.2146  0.0631 -1.0999
 4675SOL    HW225659   3.496   1.270   8.369 -0.9964  0.4396 -0.7550
 4676SOL     OW25660   2.745   0.299   3.121 -0.0061  0.6148  0.1649
 4676SOL    HW125661   2.729   0.268   3.032 -3.4183  2.1730  0.2187
 4676SOL    HW225662   2.754   0.211   3.159  0.4035  0.8829  0.7016
 4677SOL     OW25663   2.654   4.220   2.151  0.2303  0.1063  0.3067
 4677SOL    HW125664   2.669   4.301   2.201  1.4180  0.3800 -0.5180
 4677SOL    HW225665   2.701   4.248   2.073 -0.1331 -0.7879 -0.2244
 4678SOL     OW25666   1.498   1.769   7.047 -0.2794  0.5445  0.2615
 4678SOL    HW125667   1.458   1.852   7.073  0.4090  0.7158  0.7967
 4678SOL    HW225668   1.565   1.761   7.115 -1.7437  0.2750  1.6640
 4679SOL     OW25669   1.847   2.722   7.515  0.3410  0.3038  0.2025
 4679SOL    HW125670   1.868   2.660   7.445  1.7996  1.4170 -0.3347
 4679SOL    HW225671   1.802   2.796   7.475 -1.4542  0.2665  2.1116
 4680SOL     OW25672   1.926   3.791   6.850 -0.1804  0.2107  0.2745
 4680SOL    HW125673   2.013   3.759   6.874  0.4804  0.8113 -1.2762
 4680SOL    HW225674   1.909   3.722   6.785 -0.3090  0.4336  0.0704
 4681SOL     OW25675   1.998   0.453   4.866  0.0863  0.2181 -0.7233
 4681SOL    HW125676   1.968   0.373   4.910 -3.0788  0.2277 -2.8555
 4681SOL    HW225677   1.964   0.525   4.919 -0.7299 -1.2265  0.7377
 4682SOL     OW25678   1.481   2.411   4.860 -0.2657  0.3083  0.2508
 4682SOL    HW125679   1.471   2.326   4.817 -1.2837  0.6202 -0.1288
 4682SOL    HW225680   1.494   2.461   4.779  2.3984 -1.8862 -0.6735
 4683SOL     OW25681   4.201   2.157  11.039 -0.5589 -0.0506  0.3573
 4683SOL    HW125682   4.169   2.240  11.005 -2.7634 -0.8998  0.3749
 4683SOL    HW225683   4.242   2.191  11.119  1.5000 -0.6714 -0.4323
 4684SOL     OW25684   2.993   3.800  15.329  0.6987  0.1173  0.2970
 4684SOL    HW125685   2.916   3.750  15.357  0.1028  0.5167 -0.6351
 4684SOL    HW225686   3.034   3.833  15.409 -0.0268  3.2500 -0.6311
 4685SOL     OW25687   3.062   4.284   1.389 -0.1017  0.0263  0.4093
 4685SOL    HW125688   3.104   4.325   1.464  0.6834 -0.6497  0.3354
 4685SOL    HW225689   2.977   4.327   1.381  0.2538  0.3984 -1.5814
 4686SOL     OW25690   0.176   0.224   5.787 -0.1896 -0.3166 -0.2003
 4686SOL    HW125691   0.239   0.295   5.801  1.1282 -1.3701 -0.7908
 4686SOL    HW225692   0.102   0.266   5.742  0.2819  0.5674 -0.1575
 4687SOL     OW25693   0.657   0.651   2.761 -0.6200 -0.1736 -0.0058
 4687SOL    HW125694   0.581   0.593   2.762  0.1498 -1.1593  0.0006
 4687SOL    HW225695   0.674   0.655   2.667 -2.4826 -2.2083 -0.4353
 4688SOL     OW25696   2.458   1.646   2.028  0.0438  0.0285  0.3234
 4688SOL    HW125697   2.511   1.573   1.996 -2.7685 -1.9172  0.0832
 4688SOL    HW225698   2.497   1.670   2.111 -0.2025  1.4471  0.0283
 4689SOL     OW25699   0.174   0.916  16.957  0.8208  0.1837 -0.0776
 4689SOL    HW125700   0.081   0.932  16.970  0.6049 -1.5497  0.5261
 4689SOL    HW225701   0.184   0.957  16.871 -4.0962 -1.8934 -1.5823
 4690SOL     OW25702   3.730   0.935   2.291  0.0027  0.2525 -0.1261
 4690SOL    HW125703   3.803   0.920   2.351 -0.8224 -0.7312  0.6286
 4690SOL    HW225704   3.671   0.867   2.322 -0.9190  0.4602 -1.4527
 4691SOL     OW25705   2.900   1.673   5.631  0.0169  0.2618 -0.3536
 4691SOL    HW125706   2.978   1.667   5.686  0.3835  0.9730 -0.8036
 4691SOL    HW225707   2.912   1.759   5.591  0.3661 -0.0878 -1.0122
 4692SOL     OW25708   0.451   4.430   3.148 -0.2557 -0.4662  0.1032
 4692SOL    HW125709   0.411   4.376   3.216  1.2937  0.8760  2.0954
 4692SOL    HW225710   0.470   4.507   3.202  0.4882  1.0046 -2.2459
 4693SOL     OW25711   1.096   4.473  10.922 -0.2801 -0.0955  0.3082
 4693SOL    HW125712   1.152   4.395  10.921 -2.4605 -1.6450  0.2306
 4693SOL    HW225713   1.132   4.521  10.847 -1.1678 -0.7235 -0.5153
 4694SOL     OW25714   4.570   2.516   8.471  0.1818  0.3953  0.2330
 4694SOL    HW125715   4.495   2.492   8.416  0.3010 -0.3238  0.3829
 4694SOL    HW225716   4.645   2.491   8.417  1.5523  0.1924  2.2462
 4695SOL     OW25717   3.659   1.342  10.971  0.4869  0.3256 -0.0213
 4695SOL    HW125718   3.690   1.298  10.892 -0.1346 -1.2888  0.6428
 4695SOL    HW225719   3.685   1.433  10.957  1.7437 -0.0438 -0.0857
 4696SOL     OW25720   2.523   1.976   5.359  0.3799  0.0862 -0.4831
 4696SOL    HW125721   2.533   1.996   5.452 -2.1619 -0.9644  0.0152
 4696SOL    HW225722   2.536   1.881   5.356 -0.6066 -0.1239  1.6568
 4697SOL     OW25723   2.684   0.929   4.319  0.2854  0.3712  0.2001
 4697SOL    HW125724   2.664   0.836   4.309 -1.5464  0.7341  0.5130
 4697SOL    HW225725   2.622   0.979   4.266  0.0125  0.4857  0.6313
 4698SOL     OW25726   0.477   3.291   6.571 -0.0552  0.0311  0.3944
 4698SOL    HW125727   0.505   3.226   6.637 -2.7919 -0.0862  1.4342
 4698SOL    HW225728   0.485   3.240   6.491  0.7934  2.4444 -1.0442
 4699SOL     OW25729   3.671   0.938  12.389 -0.0536  0.3436 -0.2137
 4699SOL    HW125730   3.589   0.978  12.418  0.4867  1.8440 -0.7262
 4699SOL    HW225731   3.735   1.001  12.423 -0.9885  1.4286 -0.4467
 4700SOL     OW25732   2.364   3.592  15.797 -0.0659  0.5249  0.1050
 4700SOL    HW125733   2.458   3.593  15.779 -0.0487  1.2536  0.2232
 4700SOL    HW225734   2.336   3.650  15.726 -0.8254 -2.3851 -1.9475
 4701SOL     OW25735   2.501   1.869   4.518 -0.1599  0.1143  0.2203
 4701SOL    HW125736   2.419   1.834   4.552 -1.2053  1.4164 -0.9405
 4701SOL    HW225737   2.495   1.960   4.546 -1.5057  0.8798 -2.5439
 4702SOL     OW25738   2.919   2.722   7.182  0.1596 -0.2062 -0.3707
 4702SOL    HW125739   2.888   2.738   7.092 -1.8329 -0.0535  0.3459
 4702SOL    HW225740   2.841   2.751   7.229  0.6436 -1.0436  0.9298
 4703SOL     OW25741   2.859   3.544   9.502 -0.0298 -0.4226 -0.1985
 4703SOL    HW125742   2.866   3.639   9.514 -1.2490 -0.2772 -0.6289
 4703SOL    HW225743   2.905   3.535   9.419 -2.0272  2.1395 -1.6083
 4704SOL     OW25744   2.728   4.188   6.058 -0.2791 -0.8524 -0.2652
 4704SOL    HW125745   2.807   4.241   6.068 -1.8235  1.3498  0.3904
 4704SOL    HW225746   2.756   4.103   6.091 -0.5496 -1.3162 -1.2066
 4705SOL     OW25747   1.481   4.242   3.092 -0.0778  0.0680  0.1742
 4705SOL    HW125748   1.408   4.265   3.151 -1.2789  0.4447 -1.4478
 4705SOL    HW225749   1.448   4.279   3.010  0.7299  1.7397  0.5931
 4706SOL     OW25750   0.930   0.335   6.874 -0.2681 -0.3298 -0.1036
 4706SOL    HW125751   0.888   0.269   6.929 -2.6913  0.9987 -0.3419
 4706SOL    HW225752   0.871   0.337   6.799 -3.2306  0.0763  2.2573
 4707SOL     OW25753   2.298   3.735   7.092  0.1184  0.3371  0.9944
 4707SOL    HW125754   2.379   3.713   7.047 -0.9624  1.3245 -1.4396
 4707SOL    HW225755   2.241   3.665   7.060 -0.4865  2.1783 -1.9975
 4708SOL     OW25756   4.136   3.493   6.640 -0.3299 -0.0690 -0.1621
 4708SOL    HW125757   4.087   3.479   6.720  0.4877 -0.6347  0.2371
 4708SOL    HW225758   4.221   3.499   6.682 -1.1958 -2.3059  1.9113
 4709SOL     OW25759   0.448   1.597   6.719 -0.2261 -0.0985  0.2137
 4709SOL    HW125760   0.373   1.607   6.660 -2.0504  0.9011  2.7562
 4709SOL    HW225761   0.481   1.686   6.722  2.0662 -0.8709 -1.4416
 4710SOL     OW25762   4.368   1.584   4.991 -0.5115 -0.4431  0.1203
 4710SOL    HW125763   4.456   1.599   4.955 -1.1988  0.0197 -1.3458
 4710SOL    HW225764   4.326   1.561   4.908  0.3244 -0.4629 -0.2980
 4711SOL     OW25765   1.963   2.623   6.641 -0.0192 -0.5393  0.3595
 4711SOL    HW125766   1.912   2.549   6.673 -3.5595  0.9593 -1.7314
 4711SOL    HW225767   1.897   2.672   6.591  0.1118  0.8992  1.5812
 4712SOL     OW25768   1.821   3.240   4.169  0.1909  0.1276 -0.0619
 4712SOL    HW125769   1.817   3.178   4.096 -3.1463  1.0979 -0.6842
 4712SOL    HW225770   1.841   3.185   4.245 -1.3379  0.9301  0.9003
 4713SOL     OW25771   3.988   2.601   7.190 -0.8343 -0.3884 -0.5086
 4713SOL    HW125772   4.000   2.526   7.132 -0.0743  1.7134 -3.0975
 4713SOL    HW225773   4.080   2.628   7.194 -1.1514  0.9851 -2.4039
 4714SOL     OW25774   4.618   4.148   5.876 -0.0296 -0.1879 -0.6836
 4714SOL    HW125775   4.525   4.166   5.885  0.6138  2.2770  1.2067
 4714SOL    HW225776   4.648   4.148   5.967 -0.4250  3.3013 -0.5793
 4715SOL     OW25777   1.727   3.123  11.770  0.4117 -0.3265  0.6206
 4715SOL    HW125778   1.702   3.033  11.749 -0.9597  0.3617 -0.6851
 4715SOL    HW225779   1.646   3.171  11.751  0.5667 -0.0774  0.5819
 4716SOL     OW25780   3.355   2.003  11.544 -0.3299 -0.1657 -0.3314
 4716SOL    HW125781   3.332   1.980  11.634  3.0320  0.7749  0.7351
 4716SOL    HW225782   3.442   2.038  11.561  0.2826 -1.4921 -0.7385
 4717SOL     OW25783   4.246   1.577   7.194 -0.0115  0.2323 -0.5212
 4717SOL    HW125784   4.223   1.607   7.106  1.8933 -0.7789 -1.3750
 4717SOL    HW225785   4.317   1.518   7.169 -0.4520 -0.3019 -0.5134
 4718SOL     OW25786   4.737   3.604  10.339 -0.1824  0.0909  0.4963
 4718SOL    HW125787   0.060   3.599  10.411 -1.2366 -0.1807  1.3866
 4718SOL    HW225788   0.057   3.628  10.268 -1.4118  1.7089  0.0023
 4719SOL     OW25789   3.914   3.306   0.779 -0.3397 -0.1510 -0.6255
 4719SOL    HW125790   3.917   3.399   0.758 -2.0645  0.2457  0.8768
 4719SOL    HW225791   4.007   3.303   0.798  0.0929  0.6685 -2.6209
 4720SOL     OW25792   4.175   4.022   3.373 -0.6528 -0.6570  0.1714
 4720SOL    HW125793   4.196   3.941   3.418  2.6035  0.5236  0.8034
 4720SOL    HW225794   4.095   4.010   3.323 -0.8022  0.5133  0.1300
 4721SOL     OW25795   0.673   1.539   7.876  0.0328 -0.5922 -0.3607
 4721SOL    HW125796   0.768   1.527   7.890 -0.2335  1.3563  3.0637
 4721SOL    HW225797   0.659   1.630   7.900 -2.5880 -0.4431 -2.5229
 4722SOL     OW25798   3.544   1.420   7.160 -0.2300  0.0754  0.6551
 4722SOL    HW125799   3.484   1.407   7.233  1.8032  1.8084  2.6508
 4722SOL    HW225800   3.623   1.447   7.208  1.0888 -0.7925 -1.0374
 4723SOL     OW25801   2.080   3.369  15.489 -0.5510  0.3582 -0.3232
 4723SOL    HW125802   2.029   3.416  15.555 -0.4829  0.1717 -0.1357
 4723SOL    HW225803   2.154   3.332  15.538 -2.4409 -3.3897 -0.2906
 4724SOL     OW25804   4.540   1.889   5.019  0.3456  0.6284  0.4367
 4724SOL    HW125805   4.542   1.982   4.997  1.2556  0.5395  0.1325
 4724SOL    HW225806   4.582   1.899   5.105  0.3529  0.3623  0.4627
 4725SOL     OW25807   1.246   4.503   9.433 -0.6799 -0.0349  0.1046
 4725SOL    HW125808   1.312   4.442   9.399 -0.0800  1.5728 -1.6337
 4725SOL    HW225809   1.189   4.445   9.484 -1.9869 -1.1489 -2.6273
 4726SOL     OW25810   2.091   0.469   4.392  0.1690 -0.2939  0.2654
 4726SOL    HW125811   2.077   0.550   4.343 -2.6960 -0.4360  0.8374
 4726SOL    HW225812   2.049   0.496   4.474 -0.6956 -0.9865  0.0593
 4727SOL     OW25813   4.000   3.782   7.083 -0.6909 -0.1251 -0.2361
 4727SOL    HW125814   4.028   3.848   7.147  0.9757  2.2051 -3.3866
 4727SOL    HW225815   4.053   3.794   7.005  0.6027 -1.4985  0.4490
 4728SOL     OW25816   0.289   0.761   2.782 -0.6399 -0.2127  0.4835
 4728SOL    HW125817   0.227   0.756   2.709  0.8052 -1.2208 -0.6979
 4728SOL    HW225818   0.333   0.842   2.754  0.9541 -0.2698  2.8252
 4729SOL     OW25819   0.280   2.805  16.959 -0.0757 -0.5553  0.2485
 4729SOL    HW125820   0.246   2.868  17.023 -0.0315 -1.3041  1.0122
 4729SOL    HW225821   0.219   2.807  16.885 -1.0774  0.8982  1.1089
 4730SOL     OW25822   2.645   0.119   1.829  0.7039 -0.0258 -0.2356
 4730SOL    HW125823   2.739   0.102   1.831  0.4869 -1.1147  0.4701
 4730SOL    HW225824   2.612   0.030   1.819 -2.2252  0.8689  1.3634
 4731SOL     OW25825   0.630   3.492   2.996  0.1197 -0.1977  0.3326
 4731SOL    HW125826   0.535   3.501   2.987  0.4304  1.9771 -0.7052
 4731SOL    HW225827   0.637   3.397   2.981 -2.6660 -0.3041 -0.2442
 4732SOL     OW25828   4.487   1.639  12.997  0.1683 -0.3909 -0.4416
 4732SOL    HW125829   4.439   1.665  13.076  1.7507  0.5888  0.2013
 4732SOL    HW225830   4.445   1.555  12.978 -2.3283  1.1339 -1.6847
 4733SOL     OW25831   0.560   1.441  17.653 -0.1824  0.4517 -0.7782
 4733SOL    HW125832   0.488   1.385  17.625 -0.7373 -0.3277  2.2322
 4733SOL    HW225833   0.538   1.527  17.617  0.1414  0.0278 -2.0012
 4734SOL     OW25834   2.952   2.459   4.645 -0.5211 -0.5723  0.1109
 4734SOL    HW125835   2.999   2.446   4.727 -0.6684  0.8541  0.4263
 4734SOL    HW225836   2.889   2.525   4.674 -0.3395 -0.5727  0.5055
 4735SOL     OW25837   3.693   0.568  14.598  0.3039 -0.6415  0.1433
 4735SOL    HW125838   3.711   0.619  14.678  1.8341 -0.6799 -0.1660
 4735SOL    HW225839   3.598   0.565  14.587  0.1149 -0.2331  1.6165
 4736SOL     OW25840   3.338   1.598  14.565 -0.1339 -0.3490  0.1118
 4736SOL    HW125841   3.403   1.560  14.625  0.3644 -1.1070 -0.8964
 4736SOL    HW225842   3.390   1.677  14.550  0.8795 -1.0724 -0.2412
 4737SOL     OW25843   4.085   2.720   3.360 -0.2838  0.2915  0.0530
 4737SOL    HW125844   4.149   2.767   3.308  0.6497  0.5772  1.4779
 4737SOL    HW225845   4.025   2.684   3.294 -2.4058  1.9595  1.0581
 4738SOL     OW25846   1.589   2.416   6.545 -0.0213 -0.4434 -0.1564
 4738SOL    HW125847   1.647   2.423   6.469  1.3714  2.7299  1.1777
 4738SOL    HW225848   1.553   2.505   6.539  0.0717 -0.4588 -0.9893
 4739SOL     OW25849   0.778   1.107   5.514  0.1889  0.0614 -0.1757
 4739SOL    HW125850   0.682   1.111   5.511  0.3304  3.1484 -0.6133
 4739SOL    HW225851   0.799   1.111   5.421  0.9045  0.5864  0.0150
 4740SOL     OW25852   3.268   0.336   9.269  0.3898 -0.1424 -0.1281
 4740SOL    HW125853   3.330   0.269   9.297  1.5355  0.7864 -0.4034
 4740SOL    HW225854   3.216   0.294   9.201  1.4232  0.4196 -1.2764
 4741SOL     OW25855   1.316   1.603   0.922  0.4467  0.3611 -0.6386
 4741SOL    HW125856   1.328   1.518   0.879 -1.8366  0.3624 -1.2898
 4741SOL    HW225857   1.259   1.655   0.865 -0.5858  2.4679  2.3028
 4742SOL     OW25858   3.857   0.674  12.853  0.0328 -0.2097  0.2952
 4742SOL    HW125859   3.773   0.651  12.892 -0.8166  0.6099 -1.0496
 4742SOL    HW225860   3.842   0.664  12.759  1.2637 -0.1252  0.0874
 4743SOL     OW25861   3.636   3.376   2.429 -0.4481  0.2385  0.1738
 4743SOL    HW125862   3.685   3.407   2.353 -1.9211  0.3739 -0.7161
 4743SOL    HW225863   3.582   3.452   2.447 -1.7190 -0.6367  0.0178
 4744SOL     OW25864   4.374   0.973   4.027  0.2039 -0.3922 -0.0731
 4744SOL    HW125865   4.330   1.050   4.061  0.9159  0.8616 -1.9904
 4744SOL    HW225866   4.301   0.913   4.017 -0.3758  0.6501 -2.1114
 4745SOL     OW25867   0.059   0.980   6.515 -0.1425 -0.0222  0.3096
 4745SOL    HW125868   0.039   0.946   6.603 -0.8453  2.6439  1.1964
 4745SOL    HW225869   4.708   0.985   6.481  0.8745 -0.8607 -2.4453
 4746SOL     OW25870   3.275   2.494   4.478 -0.2914 -0.0290  0.0018
 4746SOL    HW125871   3.319   2.410   4.493  3.2224  2.1512  1.9975
 4746SOL    HW225872   3.302   2.542   4.557 -0.5744 -3.3391  2.1071
 4747SOL     OW25873   2.575   0.338   7.914 -0.0879  0.0778 -0.4238
 4747SOL    HW125874   2.490   0.324   7.956  0.6583 -0.0141  1.0531
 4747SOL    HW225875   2.579   0.432   7.929  0.0052  0.3757 -2.2805
 4748SOL     OW25876   3.046   3.980  15.960 -0.2780 -0.0246 -0.1028
 4748SOL    HW125877   3.116   3.962  16.022 -0.2667  0.3724  0.0024
 4748SOL    HW225878   3.096   4.026  15.893  0.4229 -1.4341 -0.5451
 4749SOL     OW25879   0.148   4.143   5.070  0.2176  0.1445 -0.1454
 4749SOL    HW125880   0.214   4.171   5.132  0.1788  0.9172 -0.4501
 4749SOL    HW225881   0.139   4.224   5.020  2.5792 -0.4408 -1.5313
 4750SOL     OW25882   4.072   3.581  11.895 -0.0253 -0.3663 -0.0068
 4750SOL    HW125883   3.990   3.628  11.884 -0.2460 -0.2955  1.9807
 4750SOL    HW225884   4.133   3.653  11.910 -0.3313  0.3975 -2.4011
 4751SOL     OW25885   4.388   1.008   5.476  0.1956  0.8949  0.0292
 4751SOL    HW125886   4.448   1.073   5.439  0.4649 -0.0468 -1.1735
 4751SOL    HW225887   4.341   0.973   5.400  1.1478  0.4604 -0.3612
 4752SOL     OW25888   2.755   1.111   6.289  0.0368  0.2368  0.5091
 4752SOL    HW125889   2.827   1.137   6.231  0.5825 -0.8803  0.6898
 4752SOL    HW225890   2.719   1.038   6.239  2.8542  0.6994 -2.1893
 4753SOL     OW25891   1.759   4.361   7.322  0.4376 -0.0282 -0.1175
 4753SOL    HW125892   1.672   4.400   7.313  1.0419  1.3764  0.1836
 4753SOL    HW225893   1.804   4.390   7.242  0.8697  1.0610  0.5242
 4754SOL     OW25894   3.716   0.570   8.257  0.3392  0.2004  0.3609
 4754SOL    HW125895   3.785   0.592   8.320  1.6307  0.6797 -1.2194
 4754SOL    HW225896   3.692   0.657   8.227 -2.3870 -0.3896  0.8052
 4755SOL     OW25897   4.512   2.049   6.618  0.6050 -0.3192  0.2918
 4755SOL    HW125898   4.461   2.127   6.596  3.1184  1.0095 -0.7757
 4755SOL    HW225899   4.463   2.030   6.698 -0.2469 -0.5274 -0.2734
 4756SOL     OW25900   4.153   1.364   8.981 -0.2435 -0.0552  0.1124
 4756SOL    HW125901   4.207   1.313   8.921 -2.2058 -0.0647 -1.6423
 4756SOL    HW225902   4.153   1.450   8.940  2.7690 -0.3144 -0.4596
 4757SOL     OW25903   2.525   0.577  12.367 -0.0121  0.0202  0.7177
 4757SOL    HW125904   2.470   0.618  12.301 -0.9115 -2.9275 -0.3684
 4757SOL    HW225905   2.535   0.645  12.433 -0.2154 -1.1042  1.9212
 4758SOL     OW25906   0.162   2.259   0.453  0.0609  0.1586 -0.5549
 4758SOL    HW125907   0.174   2.349   0.483 -1.2340  0.1612 -0.0459
 4758SOL    HW225908   0.238   2.258   0.394  0.6691 -2.4957  0.2410
 4759SOL     OW25909   0.931   0.351  16.413 -0.5651  0.0459 -0.0066
 4759SOL    HW125910   0.871   0.405  16.362  0.0531 -0.2366 -1.0140
 4759SOL    HW225911   0.887   0.348  16.498  0.5422 -2.8925  0.4442
 4760SOL     OW25912   2.956   1.315   7.706  0.1694 -0.4257 -0.6998
 4760SOL    HW125913   2.926   1.402   7.680 -0.9052  0.0301  2.1732
 4760SOL    HW225914   2.892   1.301   7.775  0.8167  0.3086  0.0400
 4761SOL     OW25915   3.498   2.935   7.624 -0.1523  0.1961 -0.0704
 4761SOL    HW125916   3.530   3.017   7.587  2.7959  0.4771  3.1093
 4761SOL    HW225917   3.536   2.934   7.712  1.4625 -3.9204 -0.7963
 4762SOL     OW25918   2.442   0.283   3.750 -0.0806  0.5116 -0.5977
 4762SOL    HW125919   2.507   0.344   3.714  1.1989 -1.4359 -1.6029
 4762SOL    HW225920   2.373   0.346   3.769  0.1962  1.6740 -3.5307
 4763SOL     OW25921   4.249   4.443  10.388 -0.1855  0.0581  0.5109
 4763SOL    HW125922   4.236   4.446  10.483  1.5226  2.0856  0.6697
 4763SOL    HW225923   4.340   4.412  10.379  0.5595  2.2209  0.5684
 4764SOL     OW25924   4.608   0.401   5.369  0.0121  0.0488  0.2906
 4764SOL    HW125925   4.659   0.391   5.449  0.0310  0.7382  0.3603
 4764SOL    HW225926   4.517   0.416   5.396 -0.6600 -2.9325 -0.2316
 4765SOL     OW25927   2.167   0.663   2.955  0.3074 -0.1018 -0.2453
 4765SOL    HW125928   2.212   0.731   2.905 -0.0470  1.8713  2.1924
 4765SOL    HW225929   2.159   0.616   2.871  0.5509 -3.2825  1.5018
 4766SOL     OW25930   1.330   0.855   2.220 -0.4435 -0.0951  0.3826
 4766SOL    HW125931   1.407   0.810   2.253 -1.1441 -2.3618 -1.0829
 4766SOL    HW225932   1.339   0.837   2.127 -0.0588 -1.2322  0.6419
 4767SOL     OW25933   0.050   1.220   7.684 -0.3758  0.7312  0.5152
 4767SOL    HW125934   0.003   1.159   7.741 -0.1339  1.0828  1.0865
 4767SOL    HW225935   0.084   1.151   7.628 -1.7365 -0.3800  1.0637
 4768SOL     OW25936   4.386   2.854  12.431  0.3402  0.6648  0.0703
 4768SOL    HW125937   4.419   2.770  12.464 -0.1857  1.4658  2.6695
 4768SOL    HW225938   4.463   2.889  12.388  0.6190 -0.5624 -0.4246
 4769SOL     OW25939   1.956   3.748   4.911 -0.0508 -0.0626  0.0353
 4769SOL    HW125940   1.940   3.796   4.829 -0.5660  1.0614  0.7965
 4769SOL    HW225941   1.999   3.814   4.966  1.8613 -0.3984 -1.0476
 4770SOL     OW25942   4.307   3.910   8.379 -0.4494  0.1401  0.5438
 4770SOL    HW125943   4.316   3.912   8.474  0.0409  0.6066  0.4836
 4770SOL    HW225944   4.320   3.815   8.372  2.8495  0.6303  0.4826
 4771SOL     OW25945   0.206   3.125   6.338 -0.8617 -0.0863 -0.1203
 4771SOL    HW125946   0.116   3.152   6.322 -0.8968  0.6978  1.4152
 4771SOL    HW225947   0.199   3.088   6.426 -0.0786  1.6508  0.6755
 4772SOL     OW25948   2.799   3.404   5.271 -0.7243 -0.2539 -0.2284
 4772SOL    HW125949   2.829   3.421   5.361 -2.3471 -1.3734  0.5305
 4772SOL    HW225950   2.839   3.465   5.209  0.6146 -0.9270 -0.0091
 4773SOL     OW25951   2.347   3.200   6.387 -1.1382  0.1268  0.3462
 4773SOL    HW125952   2.382   3.288   6.405  0.3003 -0.0698 -1.5054
 4773SOL    HW225953   2.303   3.201   6.302 -3.6572  2.3260  1.6744
 4774SOL     OW25954   2.343   0.222   9.747  0.1482 -0.7199 -0.1140
 4774SOL    HW125955   2.313   0.253   9.832 -0.5836 -1.7341  0.0032
 4774SOL    HW225956   2.395   0.144   9.769 -1.4895 -1.5070  0.9411
 4775SOL     OW25957   4.152   3.686   6.021 -0.5390  0.0419  0.2700
 4775SOL    HW125958   4.181   3.777   6.026  1.0075 -0.4717  0.6328
 4775SOL    HW225959   4.235   3.656   6.059  0.8710  1.5665 -1.5870
 4776SOL     OW25960   4.296   3.236   1.303  0.2577  0.3425  0.4444
 4776SOL    HW125961   4.285   3.193   1.388 -0.9140 -2.5790 -1.1903
 4776SOL    HW225962   4.306   3.170   1.235  1.2517  0.4440  0.4979
 4777SOL     OW25963   0.787   1.292   4.959 -0.0679 -1.1264  0.5484
 4777SOL    HW125964   0.845   1.217   4.967  1.3391 -0.1044 -0.1042
 4777SOL    HW225965   0.731   1.273   4.884  0.1950  1.5912 -0.3525
 4778SOL     OW25966   3.589   4.241  16.936 -0.3009 -0.6168  0.1363
 4778SOL    HW125967   3.557   4.329  16.917  2.2119  0.2715  0.0841
 4778SOL    HW225968   3.517   4.198  16.984 -0.5636 -0.0648  0.2380
 4779SOL     OW25969   4.005   0.493  13.677 -0.3578 -1.0067 -0.1318
 4779SOL    HW125970   4.050   0.409  13.667 -1.5620 -1.5688 -0.9160
 4779SOL    HW225971   4.007   0.528  13.588 -1.0149  0.6767  0.5198
 4780SOL     OW25972   0.261   2.394   4.909  0.7185  0.3056  0.3787
 4780SOL    HW125973   0.305   2.414   4.826  0.3749 -3.7622 -0.7953
 4780SOL    HW225974   0.337   2.355   4.951  1.1637  1.0239  0.2337
 4781SOL     OW25975   4.705   2.894   2.652  0.4376 -0.0937  0.6103
 4781SOL    HW125976   0.027   2.825   2.624 -1.6655 -0.7072 -2.4390
 4781SOL    HW225977   4.677   2.917   2.564  3.6956  0.0543 -0.4024
 4782SOL     OW25978   4.167   0.852   8.164  0.2614  0.2108  0.1252
 4782SOL    HW125979   4.152   0.940   8.199  0.9213  0.5949 -0.5665
 4782SOL    HW225980   4.198   0.815   8.247 -0.9866  0.9437  0.9178
 4783SOL     OW25981   3.780   1.788  15.081 -0.5195 -0.5782 -0.1309
 4783SOL    HW125982   3.845   1.858  15.087 -0.1013 -0.9233 -0.6063
 4783SOL    HW225983   3.704   1.827  15.124  0.1611  2.0555 -1.3249
 4784SOL     OW25984   1.453   1.380  15.493 -0.1067 -0.1519 -0.3097
 4784SOL    HW125985   1.472   1.315  15.426 -1.3974 -1.7417  0.8791
 4784SOL    HW225986   1.514   1.454  15.486 -0.3242 -0.0148 -0.8203
 4785SOL     OW25987   1.770   0.832   5.003 -0.1976  0.1503  0.0167
 4785SOL    HW125988   1.759   0.914   5.051 -0.8390 -0.0116  0.1492
 4785SOL    HW225989   1.848   0.794   5.045 -0.7280 -1.9075 -0.8460
 4786SOL     OW25990   1.247   3.569   5.194  0.4688 -0.0211 -0.3850
 4786SOL    HW125991   1.211   3.492   5.151  2.9968 -0.7035 -1.3139
 4786SOL    HW225992   1.332   3.561   5.150  0.5105 -2.0424  0.0843
 4787SOL     OW25993   2.064   1.451   5.694  0.0854 -0.2299 -0.0736
 4787SOL    HW125994   2.111   1.463   5.611 -0.9529  0.6769 -0.5163
 4787SOL    HW225995   2.049   1.356   5.688  0.1308 -0.2155 -0.4300
 4788SOL     OW25996   4.273   1.799  11.068  0.5475 -0.9309 -0.5857
 4788SOL    HW125997   4.297   1.709  11.047 -1.4334 -1.2545 -1.4831
 4788SOL    HW225998   4.267   1.796  11.163  1.3958  0.0583 -0.5090
 4789SOL     OW25999   1.123   1.435   0.791  0.5746  0.3019  0.2947
 4789SOL    HW126000   1.103   1.453   0.884 -0.6242 -1.2183  0.3283
 4789SOL    HW226001   1.099   1.516   0.746  1.4477  0.7012  0.5445
 4790SOL     OW26002   1.152   2.105  15.736 -0.1673 -0.0844 -0.3859
 4790SOL    HW126003   1.234   2.067  15.705  1.5714  1.9069  1.7781
 4790SOL    HW226004   1.172   2.185  15.785 -1.1925  0.7132 -1.2678
 4791SOL     OW26005   2.430   4.632   7.119 -0.5195  0.0537  0.0163
 4791SOL    HW126006   2.453   4.709   7.067 -1.5506  0.2774 -0.0987
 4791SOL    HW226007   2.508   4.577   7.111 -1.1453 -0.7227 -0.6674
 4792SOL     OW26008   3.222   1.428   3.559 -0.0604  0.0439 -0.0073
 4792SOL    HW126009   3.305   1.468   3.583  0.4049 -0.4998 -0.7244
 4792SOL    HW226010   3.182   1.497   3.507 -0.5115 -0.6480 -0.5796
 4793SOL     OW26011   2.674   2.068   0.378 -0.3571 -0.7752  0.4621
 4793SOL    HW126012   2.700   2.160   0.380  0.8237 -1.0560 -2.2700
 4793SOL    HW226013   2.754   2.017   0.390  0.3627  0.1793 -0.3344
 4794SOL     OW26014   1.579   3.242   8.864  0.3225 -0.5425 -0.2221
 4794SOL    HW126015   1.621   3.213   8.945 -0.7120  0.8440  0.8100
 4794SOL    HW226016   1.578   3.336   8.848 -2.6480 -0.4147  0.6713
 4795SOL     OW26017   3.421   0.628   2.947 -0.0051  0.0377  0.2494
 4795SOL    HW126018   3.512   0.652   2.964 -0.7305  2.4474  0.7915
 4795SOL    HW226019   3.388   0.710   2.910  1.6907  0.1791 -0.9124
 4796SOL     OW26020   4.475   4.143  16.085  0.0918 -0.1555  0.3867
 4796SOL    HW126021   4.402   4.111  16.137  0.9083  1.3995  2.4959
 4796SOL    HW226022   4.537   4.073  16.107  0.5261 -0.2737 -1.2257
 4797SOL     OW26023   1.748   0.075   4.080 -0.4000 -0.0862 -0.4198
 4797SOL    HW126024   1.784   0.107   3.997  1.3016 -0.7379  0.0618
 4797SOL    HW226025   1.659   0.056   4.051 -1.1299  0.2769  1.6089
 4798SOL     OW26026   0.772   2.771   6.447  0.4196 -0.3983  0.2057
 4798SOL    HW126027   0.838   2.767   6.378  0.3217  2.7226 -0.0684
 4798SOL    HW226028   0.812   2.717   6.516  0.2337 -3.0159 -1.7427
 4799SOL     OW26029   2.639   0.624   2.883 -0.2543 -0.0255  0.1146
 4799SOL    HW126030   2.607   0.578   2.961 -1.3276  1.7225  0.7163
 4799SOL    HW226031   2.727   0.587   2.891  0.1040  0.9285  0.6856
 4800SOL     OW26032   4.022   0.949  12.306 -0.1449  0.7321  0.3959
 4800SOL    HW126033   4.037   0.856  12.294 -0.9316  0.5592  0.7798
 4800SOL    HW226034   3.968   0.963  12.228  0.7890  1.6676 -0.0755
 4801SOL     OW26035   1.152   4.688   5.080 -0.4603 -0.1264  0.3130
 4801SOL    HW126036   1.125   4.602   5.047 -0.9279  0.1598 -0.0546
 4801SOL    HW226037   1.244   4.671   5.099 -0.8487 -0.9888  1.4678
 4802SOL     OW26038   1.020   4.419   2.299  0.5259 -0.5262  0.0454
 4802SOL    HW126039   1.051   4.396   2.387 -1.6719  2.0962  1.4856
 4802SOL    HW226040   0.969   4.339   2.283  0.3529 -0.6365  1.1389
 4803SOL     OW26041   4.709   3.302   3.179 -0.2580 -0.1758  0.3826
 4803SOL    HW126042   4.639   3.328   3.119  0.9669  0.3847 -0.8192
 4803SOL    HW226043   0.022   3.383   3.181  1.0612 -1.0496  1.0279
 4804SOL     OW26044   1.548   4.144  16.889  0.3038  0.1293 -0.3641
 4804SOL    HW126045   1.618   4.206  16.907  0.4157  0.1626 -0.9118
 4804SOL    HW226046   1.476   4.207  16.899 -0.3755 -0.8218  0.6496
 4805SOL     OW26047   2.767   3.042  15.723 -0.3460  0.5661  0.1483
 4805SOL    HW126048   2.678   3.007  15.733 -0.4218 -0.0244 -2.6429
 4805SOL    HW226049   2.800   3.029  15.812  0.9406  1.5243 -0.1860
 4806SOL     OW26050   0.658   3.953   8.278 -0.3206 -0.2581 -0.2104
 4806SOL    HW126051   0.672   3.955   8.372 -0.8116 -0.4778 -0.1349
 4806SOL    HW226052   0.687   3.864   8.254 -1.9389 -0.3420 -1.8641
 4807SOL     OW26053   4.011   0.223   1.958  0.5057 -0.2972 -0.0554
 4807SOL    HW126054   4.092   0.200   1.914  0.3369 -1.4365  0.2252
 4807SOL    HW226055   4.013   0.151   2.022  0.8033 -1.9507 -1.9316
 4808SOL     OW26056   2.276   3.831   8.428 -0.1606  0.3597  0.3146
 4808SOL    HW126057   2.328   3.771   8.375  0.3473  1.2781 -0.2230
 4808SOL    HW226058   2.198   3.841   8.373  0.0391  2.6017  0.4325
 4809SOL     OW26059   3.960   3.591   3.939  0.1308  0.3509  0.1392
 4809SOL    HW126060   3.974   3.679   3.974  3.9639  0.0920 -0.7379
 4809SOL    HW226061   3.908   3.620   3.863 -0.7691  2.5096  1.5788
 4810SOL     OW26062   3.531   0.739   4.966 -0.7786  0.4879 -0.1562
 4810SOL    HW126063   3.571   0.753   5.052 -0.8225  1.5007 -0.2978
 4810SOL    HW226064   3.460   0.803   4.960 -0.2098  0.9183 -2.4181
 4811SOL     OW26065   2.867   1.686   2.226 -0.1024  0.7256 -0.0490
 4811SOL    HW126066   2.920   1.728   2.294  0.6995  2.7748 -1.9540
 4811SOL    HW226067   2.933   1.670   2.159  1.2529  0.7365  1.2928
 4812SOL     OW26068   0.965   1.334  14.554 -0.1264 -0.3069  0.2824
 4812SOL    HW126069   1.045   1.358  14.507 -0.4659 -1.0850 -0.6910
 4812SOL    HW226070   0.995   1.258  14.604 -0.6473 -1.3615 -1.0063
 4813SOL     OW26071   0.920   2.108   2.586  0.1391  0.1321 -0.3704
 4813SOL    HW126072   0.825   2.116   2.596  0.1063  1.5060 -1.8673
 4813SOL    HW226073   0.919   2.161   2.507 -0.1933  0.8955  0.1429
 4814SOL     OW26074   0.108   2.886   8.373 -0.5991 -0.1804  0.0266
 4814SOL    HW126075   0.102   2.822   8.443  0.5315  0.4291  0.6977
 4814SOL    HW226076   0.013   2.892   8.367 -0.2977  1.8488 -2.7163
 4815SOL     OW26077   2.026   1.175   3.068  1.0925 -0.6376  0.7385
 4815SOL    HW126078   2.122   1.167   3.064  1.1697  1.1016 -0.7195
 4815SOL    HW226079   2.004   1.238   3.000 -2.0605 -2.3039  0.2118
 4816SOL     OW26080   2.101   4.644   6.601 -0.2910  0.5456  0.4210
 4816SOL    HW126081   2.078   4.734   6.579 -1.4547 -0.3632 -2.0150
 4816SOL    HW226082   2.182   4.622   6.556 -0.0419  0.4737  0.9054
 4817SOL     OW26083   3.464   1.736  16.784 -0.1239  0.4954 -0.0095
 4817SOL    HW126084   3.370   1.722  16.774  0.0438  0.1284 -1.1082
 4817SOL    HW226085   3.467   1.830  16.797  1.4399  0.1738  1.9333
 4818SOL     OW26086   3.905   1.628   5.273 -0.1983 -0.7481 -0.3239
 4818SOL    HW126087   3.844   1.556   5.257 -1.6855  0.2193  0.9738
 4818SOL    HW226088   3.960   1.582   5.336  1.6345  0.2136 -1.2221
 4819SOL     OW26089   2.924   3.740   7.696 -0.1808 -0.0787  0.7337
 4819SOL    HW126090   2.982   3.683   7.645  1.1046  1.6282  0.2639
 4819SOL    HW226091   2.853   3.687   7.731 -2.1620  1.3453 -1.1208
 4820SOL     OW26092   2.305   4.651   7.344  0.6298  0.2273  0.4607
 4820SOL    HW126093   2.353   4.640   7.262 -0.8182 -1.4989 -0.1349
 4820SOL    HW226094   2.313   4.561   7.374  2.8372  0.7121  1.3206
 4821SOL     OW26095   2.011   1.407  15.055 -0.4478  0.4335 -0.8225
 4821SOL    HW126096   2.077   1.471  15.081  0.5394 -0.8518 -0.1511
 4821SOL    HW226097   2.054   1.329  15.091 -2.7119 -0.2988  0.2801
 4822SOL     OW26098   3.400   1.865   9.095 -0.2961 -0.3495  0.3428
 4822SOL    HW126099   3.388   1.955   9.124  1.2364  0.3793 -1.3174
 4822SOL    HW226100   3.331   1.867   9.028  0.3943 -1.9305 -0.4329
 4823SOL     OW26101   3.283   0.386   0.042 -0.2520  0.3775 -0.2617
 4823SOL    HW126102   3.248   0.379   0.131  1.1496 -0.2571  0.2454
 4823SOL    HW226103   3.226   0.453   0.003  1.9093  1.1038 -2.2184
 4824SOL     OW26104   1.110   3.142  13.770 -0.0171  0.6449 -0.4849
 4824SOL    HW126105   1.015   3.144  13.773 -0.0551 -0.2531 -1.1438
 4824SOL    HW226106   1.128   3.236  13.767  1.3757  0.5163  3.4269
 4825SOL     OW26107   2.834   2.606  14.466  0.4469 -0.1739 -0.3693
 4825SOL    HW126108   2.846   2.522  14.510  1.0412 -0.1172 -0.4209
 4825SOL    HW226109   2.741   2.600  14.444  0.7303  2.0595 -2.1587
 4826SOL     OW26110   1.845   1.150  17.713  0.1605  0.1488 -0.6661
 4826SOL    HW126111   1.882   1.108  17.636  0.5653  0.2371 -0.5241
 4826SOL    HW226112   1.884   1.091   0.024 -0.6452  0.8157  0.4424
 4827SOL     OW26113   4.527   0.953  13.135  0.2576 -0.2148  0.4039
 4827SOL    HW126114   4.529   0.877  13.076  1.2304  2.4395 -2.9817
 4827SOL    HW226115   4.618   0.953  13.164  1.3006  2.2758 -2.9467
 4828SOL     OW26116   1.485   4.476   9.745  0.2094 -0.1691 -0.2635
 4828SOL    HW126117   1.531   4.417   9.805 -0.0550 -0.1897 -0.0832
 4828SOL    HW226118   1.407   4.423   9.730  0.2119 -0.4324  0.6800
 4829SOL     OW26119   1.555   4.590  13.957 -0.2810  0.2623  0.4625
 4829SOL    HW126120   1.553   4.649  13.881 -0.9940 -0.6604 -0.2419
 4829SOL    HW226121   1.579   4.506  13.918  0.3260  0.8171 -0.3822
 4830SOL     OW26122   2.990   0.509  10.776  0.0005  0.3738 -0.6474
 4830SOL    HW126123   2.915   0.459  10.809  2.0187 -1.8401  0.6078
 4830SOL    HW226124   2.953   0.586  10.732  0.0226  0.3028 -0.7885
 4831SOL     OW26125   2.613   0.336   9.386  0.0802  0.2845  0.3692
 4831SOL    HW126126   2.519   0.322   9.373 -0.3273  1.8281  1.7267
 4831SOL    HW226127   2.658   0.327   9.302 -2.7782 -2.6100 -0.8861
 4832SOL     OW26128   4.208   0.298   4.914  0.1229  0.2500 -0.5341
 4832SOL    HW126129   4.280   0.245   4.881 -0.6374 -0.4834 -1.0309
 4832SOL    HW226130   4.246   0.379   4.947 -0.3088  0.1111  0.3163
 4833SOL     OW26131   1.878   3.779   8.105  0.6796  1.2104 -0.0892
 4833SOL    HW126132   1.842   3.727   8.177  1.4489 -0.2658 -0.7666
 4833SOL    HW226133   1.872   3.727   8.024 -1.9223  0.2427  0.7264
 4834SOL     OW26134   2.956   0.606   1.994  0.2927  0.4324  0.0804
 4834SOL    HW126135   2.868   0.591   2.029 -0.1249 -0.2961 -1.2940
 4834SOL    HW226136   2.946   0.686   1.943 -0.4305 -0.9552 -1.9514
 4835SOL     OW26137   3.530   0.246   9.202  0.1453  0.4060  0.3768
 4835SOL    HW126138   3.579   0.164   9.203 -3.4804 -1.7463 -0.1590
 4835SOL    HW226139   3.565   0.271   9.117  1.5130 -2.2108  0.1668
 4836SOL     OW26140   1.530   3.984   7.644 -0.0417 -0.0570 -0.3744
 4836SOL    HW126141   1.622   3.964   7.629  0.0839 -1.3761  2.2550
 4836SOL    HW226142   1.489   4.004   7.559  3.9694  1.6736 -1.8822
 4837SOL     OW26143   3.844   3.788  15.536  0.1280 -0.2973  0.2258
 4837SOL    HW126144   3.845   3.807  15.443 -1.3141  0.1324  0.2939
 4837SOL    HW226145   3.916   3.725  15.538 -0.4111 -1.0305 -3.9574
 4838SOL     OW26146   0.518   3.242  15.800  0.8696 -0.3824  0.4323
 4838SOL    HW126147   0.488   3.151  15.806 -3.7186  1.0308 -0.9159
 4838SOL    HW226148   0.487   3.267  15.713 -1.4882  0.5561  1.5215
 4839SOL     OW26149   3.353   0.801   4.106  0.4997 -0.0361  0.2897
 4839SOL    HW126150   3.400   0.810   4.188  1.9707  1.1055 -0.6726
 4839SOL    HW226151   3.406   0.853   4.045  0.6920 -2.0801 -1.2847
 4840SOL     OW26152   0.087   0.689  16.690  0.0277  0.2112 -0.7172
 4840SOL    HW126153   0.171   0.678  16.734 -0.8257 -0.1697  0.7983
 4840SOL    HW226154   0.073   0.783  16.685  1.0706  0.4697  1.2440
 4841SOL     OW26155   2.680   1.032   9.225  0.9848 -0.5187  0.0935
 4841SOL    HW126156   2.717   0.962   9.280  1.5747 -0.5255 -0.3122
 4841SOL    HW226157   2.629   1.082   9.289  0.4716 -1.8501  0.7248
 4842SOL     OW26158   2.409   1.330  13.056  0.4335  0.3474  0.4503
 4842SOL    HW126159   2.355   1.273  13.001  0.6123  1.9430 -1.3833
 4842SOL    HW226160   2.403   1.411  13.005  1.9130 -0.0461 -0.3633
 4843SOL     OW26161   0.205   3.607  10.501  0.0177 -0.3268  0.7849
 4843SOL    HW126162   0.235   3.518  10.518 -0.4518 -0.4375  1.0319
 4843SOL    HW226163   0.140   3.616  10.570  0.1176 -1.8199  1.0607
 4844SOL     OW26164   2.946   4.407   2.281 -0.2049 -0.1351  0.0159
 4844SOL    HW126165   2.955   4.312   2.289  0.2500 -0.0387  0.5981
 4844SOL    HW226166   2.851   4.416   2.269 -0.0623  1.6301  0.2194
 4845SOL     OW26167   1.507   1.738   8.565 -0.2677  0.3869 -0.2176
 4845SOL    HW126168   1.528   1.681   8.639 -1.5159  0.5318  0.2403
 4845SOL    HW226169   1.483   1.819   8.610  0.2261 -0.7215  2.0713
 4846SOL     OW26170   0.911   3.244   4.404  0.1825  0.4577 -0.3914
 4846SOL    HW126171   0.850   3.253   4.477  1.9003 -0.5273  1.1895
 4846SOL    HW226172   0.972   3.316   4.422 -0.4801  0.2199  2.8979
 4847SOL     OW26173   2.609   3.066   5.740 -0.3652 -0.2326 -0.9055
 4847SOL    HW126174   2.615   3.090   5.833  1.8930  0.1175 -1.1456
 4847SOL    HW226175   2.548   3.132   5.707  1.4880  2.1561  0.4744
 4848SOL     OW26176   1.777   0.693   4.124 -0.1751 -0.1591 -0.1833
 4848SOL    HW126177   1.840   0.624   4.102 -0.2760  0.4346 -2.3808
 4848SOL    HW226178   1.802   0.712   4.214  1.4544  0.9129 -0.8704
 4849SOL     OW26179   4.315   3.447   2.453  0.0929  0.2084 -0.1036
 4849SOL    HW126180   4.274   3.383   2.511  2.7035 -0.9444  0.4997
 4849SOL    HW226181   4.404   3.445   2.488 -0.8372  0.7048  2.2970
 4850SOL     OW26182   2.678   1.436  13.699 -0.5001  0.2057 -0.0584
 4850SOL    HW126183   2.691   1.523  13.663 -0.6536  0.5586  0.7505
 4850SOL    HW226184   2.746   1.382  13.659  1.9619  1.5329  2.3409
 4851SOL     OW26185   0.841   2.793   4.322 -1.0957  0.0213  0.1706
 4851SOL    HW126186   0.805   2.853   4.387  3.1893  1.5557  1.1495
 4851SOL    HW226187   0.847   2.851   4.246 -1.8682  0.8354  0.7271
 4852SOL     OW26188   2.233   3.225   1.358 -0.1784  0.5309  0.3924
 4852SOL    HW126189   2.184   3.143   1.364  1.3440 -0.4931 -0.9201
 4852SOL    HW226190   2.301   3.212   1.425  2.0687 -1.6344 -2.2819
 4853SOL     OW26191   2.507   0.399   5.281  0.0466  0.4258 -0.0689
 4853SOL    HW126192   2.508   0.347   5.362 -0.3202 -1.9324 -1.5668
 4853SOL    HW226193   2.517   0.327   5.218 -1.3232  1.8480 -1.9134
 4854SOL     OW26194   1.878   4.268   4.182 -0.0707  0.8273 -0.0946
 4854SOL    HW126195   1.959   4.320   4.181  0.1963  0.3782 -0.9805
 4854SOL    HW226196   1.850   4.269   4.091 -1.3477 -0.9356  0.3081
 4855SOL     OW26197   0.156   2.699   8.991  0.3709  0.1045 -0.0713
 4855SOL    HW126198   0.250   2.712   8.982  0.1741  0.4273 -1.6630
 4855SOL    HW226199   0.131   2.788   8.967 -1.6874 -0.3379  0.4472
 4856SOL     OW26200   4.555   0.789   7.293  0.9734 -0.1744  0.1432
 4856SOL    HW126201   4.509   0.711   7.263  1.0625  0.0695 -0.6084
 4856SOL    HW226202   4.490   0.858   7.302  1.0165  0.0737 -1.5927
 4857SOL     OW26203   4.429   2.718   6.728 -0.1013  0.2564  0.1725
 4857SOL    HW126204   4.465   2.798   6.690 -0.1936  1.8870  3.5886
 4857SOL    HW226205   4.511   2.668   6.734 -0.7248 -1.0187 -1.7372
 4858SOL     OW26206   3.332   2.222   7.684 -0.1936  0.7779  0.1074
 4858SOL    HW126207   3.426   2.206   7.682 -0.5190 -1.0670  0.3649
 4858SOL    HW226208   3.316   2.128   7.682 -0.2133  0.7828  0.0180
 4859SOL     OW26209   0.070   0.745  10.113 -0.0665 -0.2459  0.2942
 4859SOL    HW126210   4.716   0.728  10.130 -0.3338 -0.5985 -1.5560
 4859SOL    HW226211   0.105   0.657  10.128 -1.6197 -0.5662  2.0040
 4860SOL     OW26212   1.221   0.929   6.858  0.0151 -0.3774 -0.6101
 4860SOL    HW126213   1.216   0.840   6.824  0.1067 -0.7111  0.2569
 4860SOL    HW226214   1.299   0.961   6.813  0.7471 -0.0187  0.9080
 4861SOL     OW26215   2.323   0.006   8.494 -0.2053  0.1257 -0.2696
 4861SOL    HW126216   2.239   4.706   8.519 -0.0100 -0.7501 -0.9555
 4861SOL    HW226217   2.308   0.100   8.488 -1.1291 -0.1142 -1.7211
 4862SOL     OW26218   2.734   3.835   8.394 -0.3300 -0.6266 -0.4138
 4862SOL    HW126219   2.675   3.761   8.379  0.2175 -1.6935  2.6943
 4862SOL    HW226220   2.763   3.843   8.303  0.8711  2.3851  0.2354
 4863SOL     OW26221   3.276   0.662  16.833 -0.4740  0.0928 -0.1535
 4863SOL    HW126222   3.191   0.690  16.867 -0.4499 -0.9397  0.7307
 4863SOL    HW226223   3.286   0.737  16.774  2.3556  1.1269  1.6720
 4864SOL     OW26224   3.925   3.011   4.396  0.0115  0.3452  0.3656
 4864SOL    HW126225   3.921   3.063   4.476  1.2819 -1.1349  1.3915
 4864SOL    HW226226   3.965   3.080   4.344  3.8929 -1.0437  1.4735
 4865SOL     OW26227   3.560   0.738   6.962  0.0773 -0.3959  0.2391
 4865SOL    HW126228   3.612   0.742   6.882  0.0317  0.2098  0.2434
 4865SOL    HW226229   3.621   0.716   7.032 -1.1966 -0.0832  1.4415
 4866SOL     OW26230   1.471   1.056   6.803  0.0589 -0.6900  0.4487
 4866SOL    HW126231   1.550   1.041   6.855 -1.0509 -1.7238  1.8502
 4866SOL    HW226232   1.495   1.146   6.785 -0.8337 -0.4059  0.7091
 4867SOL     OW26233   2.096   1.347   3.694  0.4061 -0.3475 -0.5931
 4867SOL    HW126234   2.101   1.410   3.621 -2.6009  0.0903 -0.4167
 4867SOL    HW226235   2.078   1.265   3.649 -2.1428 -1.4431  2.4712
 4868SOL     OW26236   2.956   2.903   5.608  1.1678 -0.8377  0.0749
 4868SOL    HW126237   2.863   2.883   5.608  0.9016  0.4208  1.0559
 4868SOL    HW226238   2.981   2.898   5.516 -0.2373 -2.8020 -0.2010
 4869SOL     OW26239   4.115   0.457   9.713 -0.3678 -0.1250  0.0671
 4869SOL    HW126240   4.085   0.547   9.725  0.2946  0.2088 -0.7578
 4869SOL    HW226241   4.174   0.473   9.639 -0.4115 -0.1757  0.0214
 4870SOL     OW26242   1.631   1.705  15.859  0.4941  0.4972  0.1259
 4870SOL    HW126243   1.633   1.743  15.946  1.7583 -0.7796  0.6496
 4870SOL    HW226244   1.574   1.631  15.878  2.1793 -1.0308 -0.7052
 4871SOL     OW26245   3.706   3.435  11.781 -0.5533  0.0045 -0.2606
 4871SOL    HW126246   3.776   3.444  11.717  1.5867  1.7593  2.2986
 4871SOL    HW226247   3.661   3.520  11.773 -1.4816 -0.5645 -1.0913
 4872SOL     OW26248   2.243   1.220  12.882  0.1835  0.2795  0.1737
 4872SOL    HW126249   2.195   1.148  12.842 -1.3830  1.4302 -0.0229
 4872SOL    HW226250   2.267   1.252  12.795 -1.1374 -0.6325 -0.5268
 4873SOL     OW26251   4.621   2.550   7.138 -0.0625 -0.3529  0.3398
 4873SOL    HW126252   4.692   2.487   7.150 -1.2771 -1.4338  1.8060
 4873SOL    HW226253   4.541   2.511   7.174 -1.5624  1.1434 -1.3338
 4874SOL     OW26254   1.322   2.140   8.880 -0.5103  0.4402 -0.1179
 4874SOL    HW126255   1.249   2.161   8.822 -0.4274 -2.2798 -1.2271
 4874SOL    HW226256   1.321   2.045   8.893 -0.0634  0.5705  0.8604
 4875SOL     OW26257   3.302   1.122   6.504 -0.3360 -0.2064  0.0791
 4875SOL    HW126258   3.237   1.177   6.550 -1.1996 -0.0972 -1.2812
 4875SOL    HW226259   3.334   1.174   6.431  1.1839 -0.5748  0.4823
 4876SOL     OW26260   4.701   2.410   1.177 -0.2220  0.1697 -0.4292
 4876SOL    HW126261   4.654   2.339   1.133 -3.3221  1.4935  0.7703
 4876SOL    HW226262   0.051   2.390   1.150 -0.4366  0.3922 -1.2799
 4877SOL     OW26263   2.374   3.398  10.490  0.5256  0.3613  0.4801
 4877SOL    HW126264   2.362   3.341  10.566  0.1690 -0.4139 -0.1528
 4877SOL    HW226265   2.284   3.396  10.457  0.5838 -1.0390  0.4153
 4878SOL     OW26266   3.904   1.931   6.687 -0.1330 -0.1215  0.7248
 4878SOL    HW126267   3.896   1.976   6.603 -2.1893 -0.7969  0.5594
 4878SOL    HW226268   3.875   2.004   6.742  0.7401  1.2599 -0.6450
 4879SOL     OW26269   1.531   4.038   6.077  0.7426  0.2314  0.6021
 4879SOL    HW126270   1.617   4.007   6.106  0.9636 -1.2418 -1.6014
 4879SOL    HW226271   1.480   3.959   6.098  2.7775 -0.5355  2.7125
 4880SOL     OW26272   0.530   2.016   4.506 -0.1330 -0.1168 -0.6217
 4880SOL    HW126273   0.531   1.969   4.422  1.4681  2.5079 -2.0785
 4880SOL    HW226274   0.603   2.076   4.491  1.1946 -1.8207 -0.8372
 4881SOL     OW26275   1.262   2.770   8.683  0.4245  0.1978  0.1140
 4881SOL    HW126276   1.170   2.797   8.678  0.4710 -0.2478 -2.8639
 4881SOL    HW226277   1.310   2.847   8.651  0.6925  0.0273  0.1020
 4882SOL     OW26278   4.714   2.702   7.341  0.0588 -0.0507 -0.1077
 4882SOL    HW126279   4.681   2.792   7.347 -0.1256 -0.2102  1.2416
 4882SOL    HW226280   4.695   2.682   7.250  0.9485  0.4459 -0.4022
 4883SOL     OW26281   0.193   0.670  13.571  0.1691 -0.3289 -0.5086
 4883SOL    HW126282   0.131   0.691  13.501  0.9094  2.4062 -0.3653
 4883SOL    HW226283   0.136   0.650  13.645 -0.2091  0.3163 -0.6210
 4884SOL     OW26284   4.706   3.160  11.647 -0.2192 -0.6622  0.0095
 4884SOL    HW126285   4.669   3.198  11.727  1.1499  0.6425  0.0147
 4884SOL    HW226286   4.708   3.066  11.663 -1.3070 -0.5381  0.8673
 4885SOL     OW26287   1.809   2.789   3.415 -0.0812  0.2785 -0.0648
 4885SOL    HW126288   1.745   2.843   3.370  0.3432  0.1121 -0.8767
 4885SOL    HW226289   1.758   2.754   3.488  0.7154  0.4071  0.5489
 4886SOL     OW26290   1.795   2.106   5.642  0.1710 -0.0234 -0.4252
 4886SOL    HW126291   1.782   2.171   5.572  1.7555  0.7235 -0.0149
 4886SOL    HW226292   1.743   2.032   5.612  0.2965  0.2265 -1.2531
 4887SOL     OW26293   0.261   1.941   3.770 -0.1818 -0.1874 -0.1478
 4887SOL    HW126294   0.238   1.903   3.854 -0.0257  2.2037  0.9700
 4887SOL    HW226295   0.198   2.013   3.769  1.2165  1.0795  1.8381
 4888SOL     OW26296   3.519   3.962   7.351  0.3998 -0.5036  0.1738
 4888SOL    HW126297   3.597   4.006   7.384 -1.3244  1.5875  1.4469
 4888SOL    HW226298   3.524   3.965   7.255  0.3532 -0.5524  0.1699
 4889SOL     OW26299   3.849   4.114  16.580  1.0050  0.3426 -0.0804
 4889SOL    HW126300   3.786   4.076  16.641 -0.6268 -0.7762 -2.4730
 4889SOL    HW226301   3.830   4.206  16.595 -1.6774 -0.1888 -0.3055
 4890SOL     OW26302   1.368   2.261  10.400 -0.0321 -0.4505 -0.1658
 4890SOL    HW126303   1.436   2.198  10.377  1.0345  0.8659 -0.5886
 4890SOL    HW226304   1.417   2.344  10.404  1.2224 -1.2177  0.4988
 4891SOL     OW26305   2.189   1.476   8.759 -0.1399  0.0095  0.5050
 4891SOL    HW126306   2.175   1.560   8.803 -2.5838 -0.5012  0.7318
 4891SOL    HW226307   2.279   1.465   8.788  0.5787  1.2236 -1.2541
 4892SOL     OW26308   1.209   0.497  12.536 -0.2119 -0.0144 -0.0084
 4892SOL    HW126309   1.240   0.578  12.575 -2.9560  1.8018 -1.6120
 4892SOL    HW226310   1.246   0.431  12.595 -0.1771 -2.3808 -2.6715
 4893SOL     OW26311   0.670   1.723   4.348  0.4173  0.4183 -0.3698
 4893SOL    HW126312   0.579   1.703   4.370 -0.0231  1.7938 -0.9360
 4893SOL    HW226313   0.669   1.810   4.308  1.1159  0.4281 -0.3632
 4894SOL     OW26314   0.786   3.589   4.397  0.7789 -0.3909  0.0222
 4894SOL    HW126315   0.769   3.565   4.488 -1.6020  0.4537 -0.1826
 4894SOL    HW226316   0.874   3.554   4.401  1.6583  1.7685 -0.4990
 4895SOL     OW26317   3.068   4.593   8.600  0.0711  0.5643 -0.4765
 4895SOL    HW126318   3.062   4.550   8.685 -1.5111 -2.5152 -2.1380
 4895SOL    HW226319   3.099   4.522   8.543  2.6690  0.3881  1.1915
 4896SOL     OW26320   0.208   2.853   5.531  0.2251  0.0404  0.3311
 4896SOL    HW126321   0.287   2.806   5.557 -0.8382 -0.8245  2.0068
 4896SOL    HW226322   0.198   2.914   5.604  0.4655  0.4424  0.0250
 4897SOL     OW26323   0.593   0.962   4.617  0.3406 -0.4298 -0.0100
 4897SOL    HW126324   0.620   0.871   4.609 -1.9569 -1.2684  1.7371
 4897SOL    HW226325   0.519   0.967   4.556  1.5265 -1.6561 -1.5248
 4898SOL     OW26326   4.466   2.642   8.180 -0.0068  0.4842  0.0077
 4898SOL    HW126327   4.392   2.633   8.120 -0.5170  1.4616  0.4890
 4898SOL    HW226328   4.541   2.611   8.129 -0.7434  0.1219 -0.8500
 4899SOL     OW26329   1.308   0.234  14.140  0.2732  0.9349  0.3209
 4899SOL    HW126330   1.276   0.321  14.163  0.7077  0.7669  1.5574
 4899SOL    HW226331   1.310   0.202  14.230  0.6988 -0.3470 -0.1498
 4900SOL     OW26332   0.324   1.918   9.990  0.0467  0.0819  0.9712
 4900SOL    HW126333   0.392   1.965   9.942 -0.0942 -1.2432 -0.5279
 4900SOL    HW226334   0.283   1.877   9.915  0.5322 -1.8668  1.7592
 4901SOL     OW26335   3.238   2.205   6.558  0.2178  0.3422 -0.9591
 4901SOL    HW126336   3.221   2.120   6.518 -1.2856  0.4286 -0.5023
 4901SOL    HW226337   3.179   2.201   6.633 -0.5688 -1.3725 -1.6535
 4902SOL     OW26338   0.801   1.748   0.930  0.0079 -0.1473  0.4850
 4902SOL    HW126339   0.822   1.825   0.878 -3.4143  0.7837  0.4720
 4902SOL    HW226340   0.716   1.777   0.961 -0.8463 -1.7931 -0.3223
 4903SOL     OW26341   1.469   3.363  11.177  0.1894 -0.2187  0.1817
 4903SOL    HW126342   1.537   3.402  11.232  0.4997 -0.0678 -0.3033
 4903SOL    HW226343   1.528   3.351  11.102 -0.3673 -3.3126  0.2649
 4904SOL     OW26344   4.159   1.202  16.930 -0.0309  0.2524  0.3528
 4904SOL    HW126345   4.076   1.156  16.934 -1.0149  1.9126 -0.8438
 4904SOL    HW226346   4.195   1.173  16.846 -2.3329  0.0816 -0.5531
 4905SOL     OW26347   0.015   3.036   7.371 -0.9524 -0.7960 -0.0669
 4905SOL    HW126348   4.674   3.082   7.394 -0.9009 -1.3072  1.1539
 4905SOL    HW226349   0.028   2.983   7.450 -0.0187  1.0493  0.9960
 4906SOL     OW26350   1.217   1.442  14.445 -0.4104 -0.2391  0.3272
 4906SOL    HW126351   1.242   1.353  14.470 -0.1621 -0.3270 -0.2476
 4906SOL    HW226352   1.290   1.472  14.391  0.0065  0.2837  1.1612
 4907SOL     OW26353   4.446   3.075  12.158  0.0515 -0.1174  0.3208
 4907SOL    HW126354   4.378   3.135  12.127 -0.2846 -0.4222  0.4608
 4907SOL    HW226355   4.410   2.991  12.130 -1.4110  1.6684 -3.0661
 4908SOL     OW26356   4.235   4.181   7.519  0.0377 -0.2847 -0.7541
 4908SOL    HW126357   4.206   4.095   7.487  2.8345 -1.1853 -0.8051
 4908SOL    HW226358   4.330   4.172   7.520  0.1822  1.0430 -2.0164
 4909SOL     OW26359   0.706   0.681   4.439  1.0725  0.0998  0.0468
 4909SOL    HW126360   0.662   0.685   4.523 -0.5685  2.5302 -0.9127
 4909SOL    HW226361   0.754   0.598   4.438 -1.2515 -1.2313 -2.2217
 4910SOL     OW26362   3.693   4.445  12.200  0.8586 -0.5896 -0.4960
 4910SOL    HW126363   3.624   4.476  12.141  2.2160  1.9248 -0.7519
 4910SOL    HW226364   3.714   4.356  12.171  0.5156 -0.1666 -2.0759
 4911SOL     OW26365   1.261   0.348   7.982  0.2999 -0.3116 -0.0688
 4911SOL    HW126366   1.203   0.273   7.997 -0.3043  0.4488  1.3489
 4911SOL    HW226367   1.225   0.410   8.045 -0.5940 -1.9471  1.0352
 4912SOL     OW26368   0.454   0.183   3.585  0.0433  0.0925 -0.1944
 4912SOL    HW126369   0.454   0.180   3.490  0.3538 -2.2650 -0.1254
 4912SOL    HW226370   0.462   0.277   3.605  0.8613  0.0588 -0.3507
 4913SOL     OW26371   3.747   0.464  16.800 -0.2721 -0.1128  0.3416
 4913SOL    HW126372   3.696   0.467  16.881  1.1316 -0.2858  1.2192
 4913SOL    HW226373   3.743   0.370  16.781  0.5548  0.4078 -2.3774
 4914SOL     OW26374   4.730   3.299   5.652 -0.3293  0.2904  0.3658
 4914SOL    HW126375   0.061   3.238   5.675  1.1665  2.2464  0.9804
 4914SOL    HW226376   0.004   3.359   5.725  0.8564 -0.9553  1.1677
 4915SOL     OW26377   1.305   3.952   2.540  0.1937 -0.0963  0.1984
 4915SOL    HW126378   1.234   3.888   2.548  0.3406 -0.1977  0.6659
 4915SOL    HW226379   1.334   3.930   2.451 -1.3965 -0.1402 -0.3127
 4916SOL     OW26380   2.823   1.466   5.810  0.5441  0.7655 -0.3224
 4916SOL    HW126381   2.880   1.481   5.885  0.9464 -2.3339 -0.0038
 4916SOL    HW226382   2.858   1.525   5.743  2.4142 -1.8360 -1.6290
 4917SOL     OW26383   2.482   1.730   8.112  0.1266  0.0386  0.1187
 4917SOL    HW126384   2.401   1.680   8.111 -0.1568  0.5150 -1.1260
 4917SOL    HW226385   2.480   1.752   8.205 -0.4637  1.5981 -0.2633
 4918SOL     OW26386   4.522   1.686  14.317  0.2475 -0.2974 -0.3799
 4918SOL    HW126387   4.435   1.718  14.340  0.5142 -1.2896  1.9598
 4918SOL    HW226388   4.513   1.594  14.339 -0.2325 -0.3725 -0.8845
 4919SOL     OW26389   4.096   0.524  12.487 -0.4067  0.0603 -0.0725
 4919SOL    HW126390   4.003   0.508  12.502 -0.5993  2.0756  0.9072
 4919SOL    HW226391   4.088   0.570  12.403  1.4561 -0.9285 -0.7989
 4920SOL     OW26392   3.254   2.894   1.408  0.4838 -0.3622  0.4028
 4920SOL    HW126393   3.332   2.914   1.356 -0.0158 -1.1612 -0.6607
 4920SOL    HW226394   3.188   2.926   1.348 -0.0205 -0.2035  1.0417
 4921SOL     OW26395   2.396   0.829   0.829 -0.1002 -0.1102  0.1213
 4921SOL    HW126396   2.354   0.748   0.802  0.1265 -0.2064  0.0512
 4921SOL    HW226397   2.439   0.862   0.750 -0.5726  0.4035  0.0869
 4922SOL     OW26398   4.109   1.939   8.391  0.1114  0.2190 -0.4521
 4922SOL    HW126399   4.131   1.882   8.464  0.9928  0.7628 -0.2841
 4922SOL    HW226400   4.024   1.912   8.356 -0.5101 -0.1569  1.3719
 4923SOL     OW26401   2.094   4.588  15.391  0.3184 -0.2015  0.2803
 4923SOL    HW126402   2.170   4.555  15.439 -0.0712  1.3998  2.0163
 4923SOL    HW226403   2.019   4.533  15.413  0.8929 -0.1820  2.3346
 4924SOL     OW26404   1.272   1.794   1.554  0.8735  0.2520 -0.3464
 4924SOL    HW126405   1.229   1.856   1.496 -0.3123  1.0766  1.4110
 4924SOL    HW226406   1.214   1.794   1.630  1.9564 -0.0228  0.4937
 4925SOL     OW26407   0.270   0.043   1.798  0.0968  0.7557 -0.8133
 4925SOL    HW126408   0.306   4.737   1.722 -0.0944  1.9005 -1.5803
 4925SOL    HW226409   0.210   4.709   1.817 -0.5354  2.0268  2.0714
 4926SOL     OW26410   3.961   4.682   8.485 -0.3618 -0.3960  0.4131
 4926SOL    HW126411   3.914   4.602   8.462 -1.4902  0.0889  1.0318
 4926SOL    HW226412   4.051   4.655   8.467 -0.0392 -0.0154  1.4861
 4927SOL     OW26413   3.194   3.035   9.208 -0.3674  0.0021 -0.8019
 4927SOL    HW126414   3.220   3.075   9.125 -0.2906 -0.1104 -0.8325
 4927SOL    HW226415   3.238   2.950   9.205  0.0873  0.2820 -1.9260
 4928SOL     OW26416   4.584   1.338  16.997  0.5173  0.6943  0.4271
 4928SOL    HW126417   4.652   1.331  16.931 -0.9178  0.3683 -1.0242
 4928SOL    HW226418   4.610   1.418  17.043  1.7265  1.0674 -0.9285
 4929SOL     OW26419   3.984   0.242   5.314 -0.3568  0.0955 -0.5216
 4929SOL    HW126420   3.906   0.252   5.369 -1.1432  1.5751 -1.9087
 4929SOL    HW226421   4.026   0.325   5.335 -1.5061  0.6803 -0.4897
 4930SOL     OW26422   4.257   2.550   1.234 -0.3020 -0.4372 -0.6209
 4930SOL    HW126423   4.220   2.518   1.317  1.1011  1.9214  0.9056
 4930SOL    HW226424   4.282   2.471   1.186  0.2392 -0.3585 -0.4702
 4931SOL     OW26425   4.344   2.038   3.121 -0.4058  0.1830  0.4281
 4931SOL    HW126426   4.295   2.061   3.042  2.4860  3.1482 -0.5343
 4931SOL    HW226427   4.292   1.965   3.154  1.8421 -0.3826  2.7912
 4932SOL     OW26428   0.045   0.185   2.425 -0.6376  0.5182  0.1238
 4932SOL    HW126429   0.084   0.171   2.511  0.5270 -0.5116 -0.5827
 4932SOL    HW226430   4.709   0.244   2.437  0.3180  1.8625 -0.4654
 4933SOL     OW26431   1.998   3.304   5.743 -0.6451 -0.4455  0.5594
 4933SOL    HW126432   2.052   3.225   5.738  0.0850  0.1545 -0.9606
 4933SOL    HW226433   2.031   3.336   5.827 -1.3452 -0.1763  0.7327
 4934SOL     OW26434   1.349   1.439   8.134 -0.3184 -0.1707  0.2545
 4934SOL    HW126435   1.282   1.456   8.201 -0.2669 -1.1673  0.5590
 4934SOL    HW226436   1.364   1.346   8.149 -3.2209 -0.8341 -0.9049
 4935SOL     OW26437   3.421   1.176   3.514  0.0342 -0.2882  0.5655
 4935SOL    HW126438   3.406   1.214   3.428  0.7923 -1.1694  0.0401
 4935SOL    HW226439   3.334   1.173   3.556 -0.6316 -2.5386 -0.9698
 4936SOL     OW26440   2.473   3.336   1.608 -0.1587 -0.1729 -0.9069
 4936SOL    HW126441   2.480   3.241   1.595  4.1221 -0.1735  1.2494
 4936SOL    HW226442   2.567   3.353   1.605 -0.6437  2.8219  1.5162
 4937SOL     OW26443   3.213   1.854   6.814  0.9142 -0.1528 -0.3570
 4937SOL    HW126444   3.155   1.893   6.749  0.2720 -0.9205 -0.2501
 4937SOL    HW226445   3.235   1.764   6.791  2.4198  0.7780 -2.5704
 4938SOL     OW26446   1.140   1.045   7.192  0.2212  0.0713 -0.1315
 4938SOL    HW126447   1.128   1.041   7.287  1.4450  0.0497  0.0191
 4938SOL    HW226448   1.235   1.040   7.196  0.3384  0.8211 -1.9200
 4939SOL     OW26449   2.396   2.681  16.761 -0.1725 -0.1818 -0.2126
 4939SOL    HW126450   2.472   2.639  16.722  2.5822  1.6821  3.1469
 4939SOL    HW226451   2.352   2.716  16.684  1.3523  0.9401 -0.5735
 4940SOL     OW26452   1.393   1.014  15.470  0.3804 -0.1155 -0.2951
 4940SOL    HW126453   1.300   0.998  15.453 -0.0262  1.7916  0.1043
 4940SOL    HW226454   1.399   0.980  15.559  2.5860 -1.7364 -1.0682
 4941SOL     OW26455   3.823   2.078   8.031  0.3186 -0.3640 -0.3913
 4941SOL    HW126456   3.831   2.069   7.936  1.3544 -1.1639 -0.2204
 4941SOL    HW226457   3.743   2.026   8.043 -0.8371  1.2083 -1.2178
 4942SOL     OW26458   1.405   4.047   6.908 -0.2493  0.3565 -0.2673
 4942SOL    HW126459   1.413   4.069   6.815  3.0907  0.6026  0.0630
 4942SOL    HW226460   1.352   3.968   6.903  0.2121  0.1123 -1.2638
 4943SOL     OW26461   3.851   0.474   6.257 -0.4627  0.4771 -0.1991
 4943SOL    HW126462   3.889   0.486   6.170 -0.7975  1.8107 -0.1625
 4943SOL    HW226463   3.902   0.534   6.312 -0.9608 -0.0470  0.8370
 4944SOL     OW26464   1.578   4.378   0.797 -0.0137 -0.6216  0.5772
 4944SOL    HW126465   1.663   4.362   0.840 -0.0764 -0.5145  0.7442
 4944SOL    HW226466   1.599   4.440   0.727 -1.0090  0.7268  1.4750
 4945SOL     OW26467   0.204   1.562   4.133 -0.4118  1.0392 -0.0407
 4945SOL    HW126468   0.202   1.545   4.039 -0.7541 -0.6397  0.2577
 4945SOL    HW226469   0.117   1.595   4.156 -0.6667 -0.0781  0.6110
 4946SOL     OW26470   4.588   4.072   4.128  0.2687 -0.0341  0.3516
 4946SOL    HW126471   4.638   4.148   4.157 -0.3443  0.4776  0.0751
 4946SOL    HW226472   4.622   4.007   4.190 -0.9397 -1.7568 -0.7882
 4947SOL     OW26473   2.139   2.495   2.477  0.2979  0.0342 -0.2560
 4947SOL    HW126474   2.215   2.549   2.455  0.7344 -0.2766  0.4667
 4947SOL    HW226475   2.160   2.448   2.558 -0.2487 -1.0872 -0.7587
 4948SOL     OW26476   4.095   1.084   8.246  0.0419  0.3510 -0.8230
 4948SOL    HW126477   4.014   1.110   8.291  1.6311  1.0095  1.6766
 4948SOL    HW226478   4.149   1.156   8.216  0.1843  0.2064 -0.9125
 4949SOL     OW26479   3.390   0.851   0.716 -0.5238 -0.1013  0.0502
 4949SOL    HW126480   3.345   0.769   0.697 -2.6775  1.4958 -1.6930
 4949SOL    HW226481   3.382   0.899   0.634  1.6171 -0.7369 -0.5271
 4950SOL     OW26482   4.139   3.750   3.773 -0.0979  0.1686  0.2802
 4950SOL    HW126483   4.214   3.770   3.830  0.7619 -1.1931 -0.3862
 4950SOL    HW226484   4.127   3.660   3.802  1.0104 -0.2062 -0.4220
 4951SOL     OW26485   3.608   4.148   4.520  0.3355 -0.5232  0.0921
 4951SOL    HW126486   3.527   4.129   4.473 -0.1909 -0.1434  0.8452
 4951SOL    HW226487   3.574   4.205   4.589  1.2845  0.5152 -0.2854
 4952SOL     OW26488   2.825   2.115  15.756 -0.2592 -0.1969 -0.1806
 4952SOL    HW126489   2.865   2.167  15.826 -0.8783  2.3494 -1.7213
 4952SOL    HW226490   2.750   2.164  15.724  0.9954  1.6294 -0.3598
 4953SOL     OW26491   2.697   2.355   5.435 -0.2019  0.1633 -1.0939
 4953SOL    HW126492   2.769   2.334   5.377 -0.4007  0.1458 -1.3352
 4953SOL    HW226493   2.700   2.294   5.509 -0.3759  0.2081 -1.0488
 4954SOL     OW26494   0.804   0.941   6.871  0.3883 -0.1963 -0.5854
 4954SOL    HW126495   0.750   0.981   6.939  0.4266  1.1186 -1.3191
 4954SOL    HW226496   0.780   0.848   6.875 -1.8884  0.4345  0.5492
 4955SOL     OW26497   0.689   2.030  15.058  0.4122 -0.0449  0.1895
 4955SOL    HW126498   0.720   1.993  14.976 -0.8454  0.2112 -0.4048
 4955SOL    HW226499   0.605   1.986  15.066  0.6023 -0.4004  0.2127
 4956SOL     OW26500   2.205   3.251   4.168  0.1763  0.4475 -0.1355
 4956SOL    HW126501   2.206   3.343   4.140 -0.2324  0.1178 -1.2287
 4956SOL    HW226502   2.167   3.208   4.091 -2.3009  1.0654  0.7615
 4957SOL     OW26503   1.605   2.566  15.031  0.2227  0.5501 -0.2626
 4957SOL    HW126504   1.574   2.567  14.941 -1.5362  2.0851  0.3637
 4957SOL    HW226505   1.602   2.474  15.058  2.9936  0.4471 -0.2678
 4958SOL     OW26506   2.480   1.145   9.355 -0.4812 -0.3334 -0.4109
 4958SOL    HW126507   2.515   1.174   9.439 -1.7413  3.0606 -1.0278
 4958SOL    HW226508   2.391   1.180   9.364  0.3717  0.7789  3.6256
 4959SOL     OW26509   2.754   4.155   5.440  0.0132  0.4114 -0.5712
 4959SOL    HW126510   2.833   4.196   5.406  1.2018  0.0602  1.7569
 4959SOL    HW226511   2.778   4.132   5.530  0.5115 -0.9489 -1.0528
 4960SOL     OW26512   0.614   1.820   3.271  0.5304 -0.2568 -0.2510
 4960SOL    HW126513   0.686   1.827   3.333  1.5781 -1.7541 -1.3001
 4960SOL    HW226514   0.635   1.896   3.217 -0.9946  1.9781  2.2952
 4961SOL     OW26515   1.461   0.374   7.314  0.1912 -0.1112 -0.5285
 4961SOL    HW126516   1.379   0.424   7.308  1.4964  2.0350 -0.6255
 4961SOL    HW226517   1.509   0.428   7.377  0.6234  0.1414 -1.0823
 4962SOL     OW26518   4.114   1.475   5.426  0.5178  0.4055 -0.3679
 4962SOL    HW126519   4.159   1.472   5.342  1.1239 -1.6432  0.0182
 4962SOL    HW226520   4.073   1.389   5.434  0.5107  0.2984 -1.5593
 4963SOL     OW26521   4.493   1.462   3.297 -0.2025 -0.1665 -0.0169
 4963SOL    HW126522   4.484   1.518   3.220 -1.3035  0.6583  0.7141
 4963SOL    HW226523   4.570   1.410   3.274 -2.2014 -2.2314 -2.0209
 4964SOL     OW26524   4.393   2.664   8.674  0.2874  0.4882 -0.2701
 4964SOL    HW126525   4.385   2.586   8.728 -0.1990  0.6177 -0.1604
 4964SOL    HW226526   4.408   2.635   8.584 -3.0008 -0.1514 -0.6105
 4965SOL     OW26527   3.387   3.228   4.030  0.3438  0.1088  0.4909
 4965SOL    HW126528   3.368   3.309   3.983  0.5905  0.0433  0.2839
 4965SOL    HW226529   3.311   3.175   4.005  1.7518 -0.3451 -2.7889
 4966SOL     OW26530   3.312   4.078   3.267 -0.3423 -0.9039 -0.7268
 4966SOL    HW126531   3.404   4.083   3.291 -0.2486  0.2972 -1.3679
 4966SOL    HW226532   3.312   4.145   3.199  0.3972  0.1621  0.3408
 4967SOL     OW26533   2.919   1.411   1.891  0.3254 -0.0084 -0.2045
 4967SOL    HW126534   2.976   1.420   1.967 -1.5999 -1.2422  1.3664
 4967SOL    HW226535   2.911   1.317   1.875 -0.1683 -0.0255  0.1840
 4968SOL     OW26536   3.644   3.635   4.187  0.7086  0.3890 -0.0775
 4968SOL    HW126537   3.695   3.564   4.149  0.3915  0.1152  0.0152
 4968SOL    HW226538   3.573   3.645   4.124 -0.6718  0.4963  1.5168
 4969SOL     OW26539   2.637   0.599   9.071 -0.3252  0.3660 -0.7543
 4969SOL    HW126540   2.692   0.664   9.115 -0.3465  0.7106 -1.2400
 4969SOL    HW226541   2.669   0.517   9.110 -1.6980  0.3070  0.2609
 4970SOL     OW26542   3.372   1.694   9.310  0.9900 -0.8460 -0.0817
 4970SOL    HW126543   3.299   1.655   9.262  1.0662 -0.3125 -0.6390
 4970SOL    HW226544   3.394   1.764   9.249 -1.0060  0.2112  0.4038
 4971SOL     OW26545   4.519   0.510   1.876  0.3782 -0.3240 -0.5414
 4971SOL    HW126546   4.445   0.570   1.881 -0.2082 -1.1876  0.8582
 4971SOL    HW226547   4.561   0.542   1.795  1.8877  0.7322  0.6633
 4972SOL     OW26548   2.056   3.664   6.405  0.4308 -0.3029  0.7613
 4972SOL    HW126549   2.043   3.637   6.496 -0.4136 -1.0250  0.4294
 4972SOL    HW226550   2.049   3.579   6.361  1.0589  0.1171 -0.1586
 4973SOL     OW26551   4.550   0.325  17.502  0.0321  0.3033  0.0424
 4973SOL    HW126552   4.580   0.257  17.441  1.7528  0.3581  0.8193
 4973SOL    HW226553   4.548   0.394  17.436  1.8647  1.9322  1.7070
 4974SOL     OW26554   0.054   3.416   6.917  0.5123 -0.1333  0.0773
 4974SOL    HW126555   4.699   3.401   6.903  0.3015 -0.0849  1.4407
 4974SOL    HW226556   0.082   3.324   6.920  1.3484  0.0907 -0.9318
 4975SOL     OW26557   3.142   1.837   0.547 -0.1930 -0.2139 -0.4020
 4975SOL    HW126558   3.048   1.853   0.549  0.3109  2.2705  2.7576
 4975SOL    HW226559   3.153   1.812   0.455  1.9831 -0.6270 -0.0279
 4976SOL     OW26560   1.334   0.837   5.786 -0.1206  0.2010 -0.1875
 4976SOL    HW126561   1.248   0.863   5.820 -1.3944 -1.1802 -2.3871
 4976SOL    HW226562   1.313   0.804   5.699  2.3385 -2.1236  0.0807
 4977SOL     OW26563   2.381   1.003   5.045  0.3963 -0.0110  0.2738
 4977SOL    HW126564   2.303   1.045   5.080 -0.6844  0.8757 -3.2255
 4977SOL    HW226565   2.338   0.942   4.985 -1.2715 -0.5044  1.9355
 4978SOL     OW26566   2.796   3.870   1.975 -0.4331 -0.3853  0.1805
 4978SOL    HW126567   2.727   3.866   1.909 -0.4144 -0.7271  0.1809
 4978SOL    HW226568   2.745   3.894   2.052  2.1205  0.3809  1.6341
 4979SOL     OW26569   4.041   4.471   5.081  0.4585 -0.0284  0.4526
 4979SOL    HW126570   4.021   4.389   5.035 -2.2479 -0.3027  2.1056
 4979SOL    HW226571   3.974   4.465   5.149  1.7184  0.7697  1.7571
 4980SOL     OW26572   3.640   2.854   3.219  0.3517 -0.5563  0.3487
 4980SOL    HW126573   3.639   2.770   3.264  2.1283 -0.8853 -0.2538
 4980SOL    HW226574   3.675   2.912   3.287 -0.4956 -0.2725  0.5423
 4981SOL     OW26575   3.499   4.653   7.840 -0.4846  0.2767 -0.2030
 4981SOL    HW126576   3.509   0.009   7.833 -2.7169  0.6679  1.8626
 4981SOL    HW226577   3.580   4.627   7.885  0.4481  3.4107 -0.0828
 4982SOL     OW26578   2.670   4.093   6.741 -1.1461 -0.5374  0.1574
 4982SOL    HW126579   2.694   4.108   6.649  0.3676  0.6690  0.7464
 4982SOL    HW226580   2.739   4.033   6.769 -2.0060 -1.6674 -0.1348
 4983SOL     OW26581   1.020   0.760   9.483  0.5339  0.7120 -0.1930
 4983SOL    HW126582   1.094   0.716   9.443 -0.0286 -0.1124 -0.3139
 4983SOL    HW226583   1.072   0.817   9.541  2.2851 -0.4404 -0.6654
 4984SOL     OW26584   3.272   2.435   2.661 -0.1193  0.1654 -0.2557
 4984SOL    HW126585   3.354   2.480   2.680  0.5793 -0.9607 -0.5346
 4984SOL    HW226586   3.217   2.478   2.727 -0.8405 -1.2485  0.0697
 4985SOL     OW26587   0.940   3.742   7.036  0.2370 -0.5037  0.2057
 4985SOL    HW126588   1.035   3.727   7.035  0.1445 -1.0777  0.0446
 4985SOL    HW226589   0.906   3.653   7.051 -0.1789 -0.5184 -0.8239
 4986SOL     OW26590   0.813   4.587   2.229  0.4092  0.3148  0.2010
 4986SOL    HW126591   0.889   4.536   2.258 -0.6003 -2.7713 -2.5344
 4986SOL    HW226592   0.763   4.521   2.182  0.7261  0.0736  0.1999
 4987SOL     OW26593   0.729   3.062   6.462 -1.0525 -0.4624 -0.1202
 4987SOL    HW126594   0.793   3.042   6.530 -1.5770 -0.3862  0.4011
 4987SOL    HW226595   0.693   2.975   6.446 -1.7618 -0.5302  1.8457
 4988SOL     OW26596   3.116   2.957   8.430  0.1608  0.1503  0.0633
 4988SOL    HW126597   3.023   2.980   8.421 -0.3178 -1.8003  0.1070
 4988SOL    HW226598   3.117   2.958   8.526 -1.0956 -2.1571  0.0797
 4989SOL     OW26599   1.893   2.814   6.258 -0.6129 -0.0605  0.3836
 4989SOL    HW126600   1.926   2.733   6.218 -2.4173 -0.5880 -0.0478
 4989SOL    HW226601   1.955   2.876   6.220 -0.3689  0.7816  2.1912
 4990SOL     OW26602   3.949   2.784   4.533 -0.3452  0.3289 -0.3825
 4990SOL    HW126603   3.927   2.858   4.477  0.8245  0.8893 -0.0932
 4990SOL    HW226604   3.883   2.720   4.506  0.8069 -1.5739  1.3178
 4991SOL     OW26605   3.852   1.775   2.877  0.2589  0.0865 -0.3175
 4991SOL    HW126606   3.920   1.760   2.812  0.2722  1.4595 -0.6214
 4991SOL    HW226607   3.900   1.822   2.945  0.3621  0.4322 -0.6307
 4992SOL     OW26608   2.161   1.146   7.293  0.5074 -0.9604  0.2805
 4992SOL    HW126609   2.087   1.086   7.279  1.7159 -2.4567  0.3302
 4992SOL    HW226610   2.169   1.158   7.388 -0.9315  2.7102 -0.0343
 4993SOL     OW26611   1.279   2.518   8.781 -0.2587  0.0692  0.3291
 4993SOL    HW126612   1.186   2.497   8.790 -0.2057 -0.3501 -0.0842
 4993SOL    HW226613   1.271   2.606   8.744  0.3254 -1.0234 -2.3663
 4994SOL     OW26614   2.015   0.554   6.660 -0.1299  0.4090  0.6201
 4994SOL    HW126615   2.070   0.603   6.720  2.1793 -1.2750 -0.0938
 4994SOL    HW226616   2.014   0.461   6.685  0.7165 -0.2431 -1.7647
 4995SOL     OW26617   1.470   0.670   4.000  0.0879 -0.2493 -0.0233
 4995SOL    HW126618   1.516   0.719   4.068 -0.6112 -0.4049  0.5667
 4995SOL    HW226619   1.439   0.745   3.948 -0.6884  0.2049  1.0904
 4996SOL     OW26620   3.654   0.647   8.857 -0.1726  0.2930 -0.5593
 4996SOL    HW126621   3.575   0.637   8.805  0.0152 -2.5827 -0.2814
 4996SOL    HW226622   3.655   0.555   8.885  1.7954  0.9277  1.4598
 4997SOL     OW26623   3.839   1.018   0.071 -0.2150 -0.0658  0.3905
 4997SOL    HW126624   3.928   1.032   0.037 -1.6953  1.1521 -2.9527
 4997SOL    HW226625   3.840   1.080   0.144  0.2830 -0.7625  0.9767
 4998SOL     OW26626   4.256   1.352  14.210 -0.2067  0.1685 -0.0556
 4998SOL    HW126627   4.303   1.379  14.131 -0.6760 -1.7028 -0.9807
 4998SOL    HW226628   4.223   1.267  14.180  2.7056 -0.3934 -1.7218
 4999SOL     OW26629   1.053   4.491   8.087 -0.0748 -0.5655 -0.2798
 4999SOL    HW126630   1.045   4.406   8.045  2.1679  0.4540 -2.7454
 4999SOL    HW226631   0.992   4.481   8.160  1.2086 -3.2824  0.4168
 5000SOL     OW26632   3.239   1.444   7.250  0.6360 -0.4626  0.7488
 5000SOL    HW126633   3.202   1.449   7.162  3.5373 -0.1578 -0.4577
 5000SOL    HW226634   3.231   1.537   7.274  0.2404 -0.1826 -0.4619
 5001SOL     OW26635   3.621   1.086   5.474  0.4419 -0.3870  0.2168
 5001SOL    HW126636   3.675   1.165   5.480  0.5687 -0.4263 -0.3727
 5001SOL    HW226637   3.658   1.035   5.401  1.0246  1.4112 -0.7561
 5002SOL     OW26638   3.960   2.740  15.210  0.4971 -0.3046  0.5552
 5002SOL    HW126639   3.868   2.763  15.217  0.5165 -0.0689  0.0253
 5002SOL    HW226640   3.998   2.804  15.270  0.9274 -0.4110  0.3985
 5003SOL     OW26641   4.545   4.275   8.609  0.5865 -0.4243  0.4773
 5003SOL    HW126642   4.633   4.302   8.584  0.2063  0.5003  0.1308
 5003SOL    HW226643   4.492   4.326   8.548  0.5492  0.0804  0.9388
 5004SOL     OW26644   0.608   2.998   3.182  0.3200 -0.2312 -0.2762
 5004SOL    HW126645   0.610   2.953   3.266 -4.4380  0.7528  0.3560
 5004SOL    HW226646   0.521   3.039   3.184  0.7284  0.5611  1.3252
 5005SOL     OW26647   3.578   4.032   9.362  0.4934  0.2535  0.0632
 5005SOL    HW126648   3.629   3.963   9.320 -2.8581 -0.8153 -2.2769
 5005SOL    HW226649   3.651   4.092   9.380  1.7745 -1.3502  0.1614
 5006SOL     OW26650   3.756   1.449   1.955  0.5563  0.3336  0.5273
 5006SOL    HW126651   3.736   1.536   1.921 -0.4590  0.3965  1.2961
 5006SOL    HW226652   3.684   1.401   1.912  0.2690  2.7649 -1.6897
 5007SOL     OW26653   3.430   0.517   9.108 -0.7128 -0.0517  0.6482
 5007SOL    HW126654   3.486   0.451   9.067 -2.4012 -0.5642 -0.8405
 5007SOL    HW226655   3.376   0.467   9.170 -2.0788 -2.1175 -2.1698
 5008SOL     OW26656   3.849   2.468   6.693  0.1415  0.4408  0.5092
 5008SOL    HW126657   3.771   2.499   6.646 -0.5075 -3.1492 -0.7539
 5008SOL    HW226658   3.896   2.548   6.716 -0.7175  1.3505 -0.8715
 5009SOL     OW26659   4.500   0.032   9.079 -0.2369  0.5795 -0.1027
 5009SOL    HW126660   4.424   4.714   9.096 -1.1528  1.7514 -0.2880
 5009SOL    HW226661   4.472   0.123   9.090 -1.4128  0.3336 -1.0436
 5010SOL     OW26662   0.133   1.618   2.031  0.1045  0.2155 -0.3709
 5010SOL    HW126663   0.075   1.584   1.964  3.0999 -0.9241 -2.3803
 5010SOL    HW226664   0.091   1.594   2.114 -0.8743  0.6074 -0.7466
 5011SOL     OW26665   0.879   1.907   6.355 -0.2813 -0.2208 -0.3115
 5011SOL    HW126666   0.910   1.827   6.311  1.8171  0.3806  0.0832
 5011SOL    HW226667   0.877   1.893   6.449 -0.1747  1.2407 -0.1000
 5012SOL     OW26668   2.959   1.539   5.024 -0.7231  0.3601 -0.0516
 5012SOL    HW126669   2.876   1.521   4.981  0.3325 -3.6526 -0.4180
 5012SOL    HW226670   2.945   1.632   5.045  0.1257  0.3329  0.6462
 5013SOL     OW26671   2.460   1.021  11.783 -0.2166  0.1661  0.7341
 5013SOL    HW126672   2.432   0.982  11.866 -3.3348  4.2982  1.5857
 5013SOL    HW226673   2.550   0.988  11.780 -0.4926 -0.4906 -0.9324
 5014SOL     OW26674   1.978   2.409  15.249 -0.1808  0.1861  0.5107
 5014SOL    HW126675   1.945   2.321  15.270 -0.6787  0.6982  1.9434
 5014SOL    HW226676   1.982   2.453  15.334  0.5987  2.5815 -0.7643
 5015SOL     OW26677   2.458   3.976   8.876 -0.2427 -0.4544 -0.2245
 5015SOL    HW126678   2.426   3.905   8.932 -3.6416  1.0728 -0.2080
 5015SOL    HW226679   2.386   3.969   8.813  0.8656  1.1702 -1.6667
 5016SOL     OW26680   2.110   1.498   6.445  0.3467  0.0346 -0.1529
 5016SOL    HW126681   2.200   1.514   6.417  0.4775  2.0537  1.3484
 5016SOL    HW226682   2.073   1.464   6.364  0.2475  2.4418 -1.1255
 5017SOL     OW26683   2.355   2.678   8.047  0.8629 -0.0241  0.3331
 5017SOL    HW126684   2.446   2.677   8.016  1.3253 -0.4503  1.6625
 5017SOL    HW226685   2.314   2.608   7.996  0.8183  1.2234 -1.3294
 5018SOL     OW26686   3.221   3.928   4.290 -0.4091 -0.1323 -0.1597
 5018SOL    HW126687   3.206   3.853   4.232 -0.9355  0.0628 -0.2833
 5018SOL    HW226688   3.141   3.936   4.342 -0.2317  0.9042 -0.0534
 5019SOL     OW26689   2.926   3.392   2.870 -0.5958 -0.1252  0.0640
 5019SOL    HW126690   2.853   3.341   2.836 -0.4081 -1.0518  1.0426
 5019SOL    HW226691   2.913   3.383   2.965 -2.9117  0.5636 -0.1760
 5020SOL     OW26692   3.420   3.690   2.435 -0.6207  0.5111 -0.0043
 5020SOL    HW126693   3.338   3.736   2.451 -1.7481 -0.8673 -1.7362
 5020SOL    HW226694   3.428   3.700   2.340 -2.4801 -0.2652 -0.2323
 5021SOL     OW26695   1.775   1.842   4.814 -0.2497  0.3257 -0.2708
 5021SOL    HW126696   1.694   1.803   4.781 -1.8435  2.3587  1.2563
 5021SOL    HW226697   1.741   1.896   4.885  0.5641  1.2011 -0.5567
 5022SOL     OW26698   2.687   4.550  16.756 -0.5743 -0.5525  0.2811
 5022SOL    HW126699   2.662   4.604  16.830 -2.0840  1.0412 -1.3853
 5022SOL    HW226700   2.605   4.557  16.707 -0.1051  0.8996 -0.3196
 5023SOL     OW26701   3.650   1.229  15.330 -0.0606 -0.0260  0.6216
 5023SOL    HW126702   3.675   1.149  15.377 -1.1508 -0.3777  0.5938
 5023SOL    HW226703   3.691   1.294  15.386  1.2740  0.0337 -0.4198
 5024SOL     OW26704   2.779   4.268   5.053  0.4082  0.2015 -0.8714
 5024SOL    HW126705   2.836   4.307   5.119  0.1576  0.0420 -0.5624
 5024SOL    HW226706   2.784   4.176   5.077  0.8109 -0.0118 -1.7508
 5025SOL     OW26707   1.043   2.814   4.566 -0.1252 -0.2146 -0.1234
 5025SOL    HW126708   1.081   2.772   4.488 -0.5037 -1.1716  0.2170
 5025SOL    HW226709   0.954   2.834   4.538  0.3921  1.8136 -0.3561
 5026SOL     OW26710   4.723   2.838   4.396 -0.2343 -0.3265 -0.0855
 5026SOL    HW126711   0.022   2.810   4.312  0.1203 -1.5370  0.4809
 5026SOL    HW226712   4.693   2.926   4.373 -0.4463 -1.0554 -2.6069
 5027SOL     OW26713   1.226   4.105   7.167 -0.1123 -0.0878  0.1812
 5027SOL    HW126714   1.164   4.067   7.105 -0.7659  0.9599  0.1772
 5027SOL    HW226715   1.182   4.097   7.252  0.0726  0.8184  0.3602
 5028SOL     OW26716   3.796   3.056   6.726  0.4720 -0.2462 -0.7884
 5028SOL    HW126717   3.738   3.103   6.666  1.1988  1.2360 -0.3231
 5028SOL    HW226718   3.765   2.966   6.725 -0.6262  0.0829  1.7915
 5029SOL     OW26719   3.053   4.052   4.896  0.1458 -0.7037  0.0250
 5029SOL    HW126720   3.079   3.962   4.912 -1.0386 -1.4616 -2.2302
 5029SOL    HW226721   2.976   4.031   4.843  0.5687  1.8150 -1.6260
 5030SOL     OW26722   1.223   1.899  17.170  0.0336  0.0205 -0.8505
 5030SOL    HW126723   1.146   1.869  17.123  0.9913  0.3209 -2.6337
 5030SOL    HW226724   1.198   1.978  17.218 -0.1438  1.4368 -3.2714
 5031SOL     OW26725   2.213   4.101  10.838  0.4887 -0.0498  0.6703
 5031SOL    HW126726   2.225   4.007  10.852 -0.4085 -0.4413 -1.2724
 5031SOL    HW226727   2.277   4.139  10.898  0.5945 -2.4091  2.0680
 5032SOL     OW26728   2.497   4.203   7.712 -0.3567  1.1340 -0.3182
 5032SOL    HW126729   2.589   4.196   7.737 -0.6546 -0.6137  0.2753
 5032SOL    HW226730   2.497   4.182   7.619  1.5473  0.4981 -0.1595
 5033SOL     OW26731   0.521   4.233   4.328 -0.0904 -0.1954  0.1295
 5033SOL    HW126732   0.607   4.226   4.286 -0.1071 -2.0223  0.3986
 5033SOL    HW226733   0.490   4.301   4.268  1.7118 -0.8000 -1.5058
 5034SOL     OW26734   3.580   2.878   6.979  0.1111  0.0505 -0.1743
 5034SOL    HW126735   3.608   2.811   7.043  1.5682 -0.0205 -0.8822
 5034SOL    HW226736   3.608   2.843   6.895 -0.4123  1.2429 -0.8369
 5035SOL     OW26737   4.102   3.759   7.512 -0.4422 -0.3783 -0.0022
 5035SOL    HW126738   4.145   3.778   7.595 -0.3072 -0.8461  0.0306
 5035SOL    HW226739   4.031   3.824   7.519 -3.3188 -3.2712 -2.3839
 5036SOL     OW26740   1.143   1.286   5.670 -0.6333  0.0495 -0.3815
 5036SOL    HW126741   1.135   1.241   5.586 -2.1117  0.1683 -0.3091
 5036SOL    HW226742   1.052   1.280   5.701  0.5028 -0.0970  2.9455
 5037SOL     OW26743   3.160   1.158   7.857 -0.1455  0.5717 -0.4692
 5037SOL    HW126744   3.111   1.210   7.795 -0.1388 -0.4957 -1.3664
 5037SOL    HW226745   3.185   1.224   7.922  1.6183  0.3613 -0.9411
 5038SOL     OW26746   4.208   4.724   5.427  0.0904  0.2218  0.1485
 5038SOL    HW126747   4.164   0.002   5.344  0.5431 -0.4122 -0.2186
 5038SOL    HW226748   4.280   4.668   5.398 -0.0430  0.9509 -1.5831
 5039SOL     OW26749   3.353   3.716   7.197 -0.0889  0.1845  0.3081
 5039SOL    HW126750   3.317   3.776   7.262 -1.8851 -0.0034 -0.5327
 5039SOL    HW226751   3.408   3.664   7.256 -0.7873 -2.0781 -1.0683
 5040SOL     OW26752   1.901   4.223   1.555 -0.1677 -0.3806  0.2214
 5040SOL    HW126753   1.945   4.166   1.618 -1.4482  0.0342  1.4772
 5040SOL    HW226754   1.841   4.261   1.619 -1.7489 -1.0447 -0.8668
 5041SOL     OW26755   0.188   0.385   8.447  0.5079  0.0874  0.2658
 5041SOL    HW126756   0.255   0.366   8.382  0.6234  0.3680  0.3033
 5041SOL    HW226757   0.121   0.438   8.403  1.8632  1.2650 -0.3643
 5042SOL     OW26758   3.886   4.176   3.968 -1.2045 -0.3443  0.3179
 5042SOL    HW126759   3.959   4.114   3.970 -0.9348 -0.0513 -0.3325
 5042SOL    HW226760   3.914   4.239   4.033  1.0903  1.8221 -2.7556
 5043SOL     OW26761   2.702   0.688   3.277 -0.3529 -0.1367  0.2763
 5043SOL    HW126762   2.618   0.666   3.238 -0.5663 -2.4899  2.1061
 5043SOL    HW226763   2.688   0.780   3.298  0.5389  0.1574 -0.4022
 5044SOL     OW26764   2.111   4.109   3.146 -0.0046  0.0184 -0.3676
 5044SOL    HW126765   2.084   4.038   3.088  0.6101 -0.3796 -0.1655
 5044SOL    HW226766   2.185   4.145   3.097 -0.1321  1.5791  0.5977
 5045SOL     OW26767   1.052   2.006   6.843  0.2491  0.2713  0.6305
 5045SOL    HW126768   1.091   2.050   6.918  0.1504  0.8872  0.3217
 5045SOL    HW226769   1.124   1.955   6.806  0.1031  0.7980 -0.3827
 5046SOL     OW26770   0.714   2.948  17.033 -0.2628  0.0749  0.1466
 5046SOL    HW126771   0.662   2.903  16.966 -0.3538  0.3997 -0.0009
 5046SOL    HW226772   0.801   2.909  17.030 -0.1068  0.3303  1.4282
 5047SOL     OW26773   3.308   4.289   8.205  0.0946  0.5145  0.5292
 5047SOL    HW126774   3.218   4.258   8.213  0.3072 -0.0570  0.7110
 5047SOL    HW226775   3.302   4.357   8.138 -1.0597 -1.4490 -1.3445
 5048SOL     OW26776   4.667   1.997   7.162 -0.3543  0.0331  1.1172
 5048SOL    HW126777   4.658   1.923   7.221 -0.8993 -0.4013  0.4746
 5048SOL    HW226778   4.696   1.949   7.085 -0.9145  1.1863  0.1930
 5049SOL     OW26779   1.124   1.107  10.255 -0.1287 -0.4048 -0.1900
 5049SOL    HW126780   1.033   1.084  10.275  0.5191 -0.9815  2.0765
 5049SOL    HW226781   1.147   1.151  10.337  0.5943  1.4380 -1.3726
 5050SOL     OW26782   3.317   3.558   6.478 -0.1777 -0.7480  0.3987
 5050SOL    HW126783   3.396   3.529   6.432 -1.3519 -1.2027 -1.3168
 5050SOL    HW226784   3.374   3.612   6.534  1.6480 -2.1323 -0.1244
 5051SOL     OW26785   0.407   0.707   6.779 -0.0412 -0.0431  0.0358
 5051SOL    HW126786   0.361   0.755   6.710  0.3915  0.7990  0.3254
 5051SOL    HW226787   0.419   0.625   6.732 -0.5544 -0.6915  1.0617
 5052SOL     OW26788   4.708   1.290   3.188 -0.2913 -0.1624  0.2339
 5052SOL    HW126789   4.650   1.255   3.120 -0.6201  1.6145 -0.3909
 5052SOL    HW226790   0.017   1.346   3.128  0.5155 -0.2771  0.7739
 5053SOL     OW26791   2.688   3.086   3.597  0.1662  0.9655 -0.4176
 5053SOL    HW126792   2.761   3.084   3.535 -1.7801  0.3626 -2.7233
 5053SOL    HW226793   2.637   3.019   3.551  0.1851  0.8965 -0.3379
 5054SOL     OW26794   0.345   1.368   7.407  0.0922  0.0801  0.8680
 5054SOL    HW126795   0.441   1.375   7.409  0.0796  0.5534 -0.5031
 5054SOL    HW226796   0.312   1.458   7.401 -2.4872 -0.8588  1.3416
 5055SOL     OW26797   3.451   0.977   6.693  0.2525 -0.4604 -0.6874
 5055SOL    HW126798   3.480   0.893   6.658  3.1623  0.6512 -0.9275
 5055SOL    HW226799   3.398   1.009   6.621  1.1376  2.8128  0.1154
 5056SOL     OW26800   1.633   4.351  12.744  0.0268  0.0176 -0.2975
 5056SOL    HW126801   1.568   4.420  12.749  1.0399  1.1095 -2.1376
 5056SOL    HW226802   1.716   4.382  12.780  0.4350 -2.4515  0.8675
 5057SOL     OW26803   1.834   1.238   5.516  0.4262 -0.1779 -0.2236
 5057SOL    HW126804   1.788   1.154   5.514 -2.6845  1.4789  1.7583
 5057SOL    HW226805   1.763   1.302   5.520 -1.8295 -2.5974 -1.5048
 5058SOL     OW26806   4.663   1.208   5.397 -0.2486  0.7358  0.2391
 5058SOL    HW126807   4.699   1.291   5.429  2.3727 -0.4233  0.2761
 5058SOL    HW226808   4.575   1.240   5.376 -1.0304 -0.8435  1.0950
 5059SOL     OW26809   0.201   1.877  15.688 -0.0389  0.2539  0.6785
 5059SOL    HW126810   0.137   1.810  15.665  1.3856  0.0624 -2.6841
 5059SOL    HW226811   0.277   1.826  15.659  0.2023  1.9525 -1.6523
 5060SOL     OW26812   1.324   2.443   4.131 -0.1617  0.3515  0.5694
 5060SOL    HW126813   1.234   2.414   4.118  0.4757 -0.5948 -1.7153
 5060SOL    HW226814   1.366   2.450   4.045  2.6199 -0.7400  1.8195
 5061SOL     OW26815   2.272   4.106   0.476  0.0294 -0.3413  0.4830
 5061SOL    HW126816   2.273   4.142   0.387  0.4677  1.9488  1.4251
 5061SOL    HW226817   2.361   4.071   0.482 -0.7971 -2.7304 -1.3352
 5062SOL     OW26818   0.843   3.272   5.077 -0.1630 -0.3052 -0.2940
 5062SOL    HW126819   0.835   3.179   5.059  3.6854 -0.9141  1.0917
 5062SOL    HW226820   0.819   3.262   5.169 -3.8495  1.9652 -1.0162
 5063SOL     OW26821   0.328   2.559   3.182 -0.0230 -0.2656  0.0430
 5063SOL    HW126822   0.380   2.480   3.197 -0.1786 -0.5426 -0.9440
 5063SOL    HW226823   0.252   2.524   3.137  1.1492 -0.0849 -2.0410
 5064SOL     OW26824   3.307   4.257  12.306  0.0823 -0.3033  0.3511
 5064SOL    HW126825   3.339   4.344  12.284 -1.4604  0.1735 -0.0148
 5064SOL    HW226826   3.310   4.205  12.226 -1.9773 -0.2616  0.2430
 5065SOL     OW26827   0.181   3.953   4.113  0.7751 -0.4246 -0.7656
 5065SOL    HW126828   0.197   3.878   4.170 -2.3369 -1.9219 -1.8814
 5065SOL    HW226829   0.105   3.919   4.067  0.0641  0.2326 -0.0823
 5066SOL     OW26830   0.410   0.573  10.420  0.6028  0.0765 -0.0512
 5066SOL    HW126831   0.448   0.623  10.492 -1.8842  2.9169 -0.7412
 5066SOL    HW226832   0.495   0.545  10.385  1.2227  0.7389  0.9202
 5067SOL     OW26833   3.579   1.540   8.867 -0.1412 -0.3414  0.2579
 5067SOL    HW126834   3.661   1.580   8.894 -2.1887  4.2394 -0.2834
 5067SOL    HW226835   3.595   1.527   8.774  0.1420 -0.9478  0.3946
 5068SOL     OW26836   3.615   3.859  16.415  0.1081  0.3536 -0.1112
 5068SOL    HW126837   3.537   3.911  16.432 -0.7053 -1.2796  1.1080
 5068SOL    HW226838   3.602   3.830  16.325 -2.3460  0.9678  0.0408
 5069SOL     OW26839   1.348   3.134   8.209  0.6316 -0.4199 -0.0250
 5069SOL    HW126840   1.329   3.067   8.275  4.0804 -1.9549 -0.5817
 5069SOL    HW226841   1.282   3.120   8.141  0.7169 -0.5758 -0.0763
 5070SOL     OW26842   3.594   1.477  16.724 -0.1428  0.3035 -0.5009
 5070SOL    HW126843   3.674   1.507  16.680 -0.2817  1.4992  0.0569
 5070SOL    HW226844   3.544   1.557  16.742  0.1981 -0.2852  3.0155
 5071SOL     OW26845   2.379   3.332   3.813 -0.3377 -0.0660 -0.0907
 5071SOL    HW126846   2.285   3.336   3.798 -0.2148  1.5349 -0.4880
 5071SOL    HW226847   2.386   3.421   3.850 -0.3146  1.0908 -2.8692
 5072SOL     OW26848   2.128   0.678   6.898  0.4404  0.9923 -0.3409
 5072SOL    HW126849   2.205   0.655   6.949 -1.0718  0.7057  1.8381
 5072SOL    HW226850   2.144   0.771   6.883 -3.1735  1.2220 -2.8842
 5073SOL     OW26851   1.009   0.151  13.630 -0.6005  0.5502 -0.4491
 5073SOL    HW126852   0.956   0.157  13.709 -0.4596 -0.7630 -0.2594
 5073SOL    HW226853   1.084   0.203  13.660  0.7702 -0.0228 -2.7920
 5074SOL     OW26854   1.029   2.755   8.201 -0.3347  0.7265  0.1340
 5074SOL    HW126855   0.980   2.725   8.124 -0.7883  1.0244  0.3049
 5074SOL    HW226856   1.116   2.763   8.161 -1.2745  1.2610 -1.8275
 5075SOL     OW26857   0.187   3.542   2.797 -0.4908 -0.7513 -0.4083
 5075SOL    HW126858   0.155   3.468   2.746  0.6956 -2.2766  1.0573
 5075SOL    HW226859   0.163   3.616   2.741  0.7628  0.6476  0.8838
 5076SOL     OW26860   0.346   0.949   5.777  0.2018  0.1085  0.3643
 5076SOL    HW126861   0.320   0.949   5.685  0.2759 -0.6430  0.3453
 5076SOL    HW226862   0.439   0.927   5.768 -0.1830 -1.4809  0.2786
 5077SOL     OW26863   4.137   0.867   0.432 -0.2060 -0.0845  0.0391
 5077SOL    HW126864   4.155   0.807   0.360 -1.3841 -1.3086  0.7710
 5077SOL    HW226865   4.130   0.804   0.504 -0.7747  2.3250  2.0810
 5078SOL     OW26866   2.808   2.274   2.288  0.2791 -0.1979  0.2308
 5078SOL    HW126867   2.847   2.206   2.343  1.9578 -1.8638 -3.0754
 5078SOL    HW226868   2.864   2.351   2.290  0.7300 -0.5186 -0.3965
 5079SOL     OW26869   2.624   1.137   5.103 -0.2638 -0.1396 -0.0519
 5079SOL    HW126870   2.539   1.093   5.093  0.9498 -2.2794 -1.0045
 5079SOL    HW226871   2.680   1.059   5.103 -0.6924 -0.4475  1.1103
 5080SOL     OW26872   3.211   4.135   3.671  0.2986  0.1420 -0.1910
 5080SOL    HW126873   3.238   4.043   3.674  2.6469  0.7757 -2.1742
 5080SOL    HW226874   3.116   4.141   3.678  0.1610  0.1640 -1.9271
 5081SOL     OW26875   3.980   1.624   7.550 -0.4372  0.3353 -0.6053
 5081SOL    HW126876   3.964   1.530   7.541  0.1154 -0.2609  4.8116
 5081SOL    HW226877   3.896   1.660   7.576 -1.0677  0.0971 -2.3121
 5082SOL     OW26878   1.368   1.078  14.800  0.1763 -0.1129 -1.2099
 5082SOL    HW126879   1.416   1.021  14.860 -0.2210  0.2904 -0.4982
 5082SOL    HW226880   1.307   1.016  14.760  1.9285 -1.0069 -2.5144
 5083SOL     OW26881   2.172   2.850   4.932 -0.1423 -0.4372  0.3873
 5083SOL    HW126882   2.104   2.888   4.987  2.0143 -0.0240  2.7647
 5083SOL    HW226883   2.130   2.791   4.870 -0.7418  0.6476 -0.2492
 5084SOL     OW26884   4.046   4.143   2.069  0.0580 -0.5516 -0.3803
 5084SOL    HW126885   4.085   4.120   2.153  4.3352 -0.5796 -2.3599
 5084SOL    HW226886   4.113   4.184   2.014  2.8099  0.5836  3.8153
 5085SOL     OW26887   0.817   1.462   2.661 -0.4453 -0.2793  1.0272
 5085SOL    HW126888   0.848   1.553   2.667  2.9869 -1.3190 -1.3162
 5085SOL    HW226889   0.840   1.452   2.569 -0.4490 -0.2517  1.0231
 5086SOL     OW26890   1.307   4.326  10.977 -0.2161 -0.3740  0.4113
 5086SOL    HW126891   1.313   4.237  11.012 -0.0489 -0.2772  0.6313
 5086SOL    HW226892   1.369   4.374  11.031  2.0219  1.1091 -3.4939
 5087SOL     OW26893   2.567   1.892   7.937 -0.5491 -0.2779  0.6492
 5087SOL    HW126894   2.480   1.931   7.925 -0.0894  0.8855  1.0814
 5087SOL    HW226895   2.557   1.831   8.010  2.2195 -2.0191 -0.4449
 5088SOL     OW26896   2.057   1.539   4.551 -0.3156 -0.8187  0.3532
 5088SOL    HW126897   2.020   1.617   4.593  1.0406  0.5138 -0.9518
 5088SOL    HW226898   2.029   1.538   4.460  0.8511 -0.2925 -0.0112
 5089SOL     OW26899   1.850   0.758   2.680  0.6827 -0.1319  0.2379
 5089SOL    HW126900   1.803   0.842   2.677  1.1754  0.1446  0.3108
 5089SOL    HW226901   1.933   0.778   2.637 -0.6743  0.5836 -2.0670
 5090SOL     OW26902   3.463   1.251  14.698 -0.5492  0.1257 -0.0788
 5090SOL    HW126903   3.495   1.198  14.624 -0.8419  0.1618 -0.2324
 5090SOL    HW226904   3.547   1.254  14.743  0.6737 -0.7007 -2.2603
 5091SOL     OW26905   1.465   2.362   7.669 -1.1400  0.0571  0.6974
 5091SOL    HW126906   1.375   2.394   7.682 -0.8684  0.1321  2.4518
 5091SOL    HW226907   1.520   2.434   7.699  0.7551 -1.5362  1.0867
 5092SOL     OW26908   4.088   4.208   6.692  0.3557  0.1937 -0.0160
 5092SOL    HW126909   4.036   4.202   6.772  0.9867 -1.9156  0.2342
 5092SOL    HW226910   4.075   4.119   6.657  2.2247 -0.9389  2.1587
 5093SOL     OW26911   3.543   2.220   8.027  0.5827  0.4266  0.0334
 5093SOL    HW126912   3.521   2.126   8.025 -0.4180  0.6632 -0.2402
 5093SOL    HW226913   3.503   2.251   8.109  1.2350 -0.3846  0.6547
 5094SOL     OW26914   2.907   1.998  15.374  0.3240  0.0928 -0.4620
 5094SOL    HW126915   2.928   1.916  15.329  2.4716  1.1362 -1.3551
 5094SOL    HW226916   2.904   1.952  15.458  0.4757 -0.9103 -0.9978
 5095SOL     OW26917   1.665   3.604   0.334  0.2154 -0.3777 -0.3625
 5095SOL    HW126918   1.666   3.695   0.363 -1.2808 -0.2403 -0.7258
 5095SOL    HW226919   1.589   3.615   0.276  1.2382  0.4163 -1.5362
 5096SOL     OW26920   0.690   2.261   9.387  0.0903 -0.6371 -0.3147
 5096SOL    HW126921   0.733   2.183   9.425  0.7018 -1.3728 -2.5480
 5096SOL    HW226922   0.598   2.237   9.375  0.5235 -0.4136 -3.9578
 5097SOL     OW26923   2.876   2.811   3.603  0.7947  0.5957 -0.3224
 5097SOL    HW126924   2.965   2.826   3.634  0.3326  1.3702  0.6498
 5097SOL    HW226925   2.838   2.859   3.677  0.9968  1.5429 -0.8318
 5098SOL     OW26926   3.702   2.460   6.173 -0.0041 -0.2882  0.3710
 5098SOL    HW126927   3.797   2.456   6.164 -0.1636 -2.0750 -0.5388
 5098SOL    HW226928   3.683   2.366   6.173 -0.6158 -0.1659  0.7934
 5099SOL     OW26929   2.928   2.285   3.883 -0.7907 -0.2131 -0.5410
 5099SOL    HW126930   2.987   2.354   3.850 -0.3055 -0.2710  0.2057
 5099SOL    HW226931   2.988   2.214   3.903 -0.4665 -0.0321 -0.8461
 5100SOL     OW26932   2.958   0.851   3.357 -0.9013  0.2264  0.3100
 5100SOL    HW126933   3.040   0.805   3.377 -0.6888 -0.3841 -1.9671
 5100SOL    HW226934   2.945   0.856   3.263 -0.6330 -1.3073  0.1877
 5101SOL     OW26935   1.738   0.218  10.551 -0.3512 -0.1828 -0.2443
 5101SOL    HW126936   1.682   0.188  10.479 -1.3810 -1.0865  0.9541
 5101SOL    HW226937   1.736   0.312  10.536  1.2205  0.0502  1.0304
 5102SOL     OW26938   3.317   4.063   9.234  0.3262 -0.7040  0.2998
 5102SOL    HW126939   3.393   4.033   9.284  0.1090 -0.4336  0.7956
 5102SOL    HW226940   3.252   4.043   9.301  0.2634  0.7824  0.6795
 5103SOL     OW26941   1.447   2.178   4.705 -0.7930  0.8363 -0.0209
 5103SOL    HW126942   1.502   2.176   4.628 -0.3010  2.8375  0.2600
 5103SOL    HW226943   1.401   2.094   4.700 -1.2242  1.1631 -1.4181
 5104SOL     OW26944   0.788   2.276   0.770 -0.3684 -0.8074  0.1374
 5104SOL    HW126945   0.864   2.219   0.779 -0.7189 -1.3786 -0.5275
 5104SOL    HW226946   0.762   2.302   0.858 -0.3527  0.2025 -0.1627
 5105SOL     OW26947   0.272   2.681   3.994 -0.4526 -0.1980  0.0483
 5105SOL    HW126948   0.261   2.768   4.032 -3.2779 -1.2192  1.5443
 5105SOL    HW226949   0.363   2.685   3.964 -1.4609  2.4505 -2.6937
 5106SOL     OW26950   2.950   4.607  16.984  0.3446 -0.3165  0.0084
 5106SOL    HW126951   2.970   4.678  17.045  0.1709 -0.6113  0.4038
 5106SOL    HW226952   2.904   4.542  17.037  1.4293 -1.6326 -0.6926
 5107SOL     OW26953   3.598   0.779   8.521  0.4541 -0.3443 -0.0584
 5107SOL    HW126954   3.587   0.809   8.431  2.3709 -0.7485 -0.4276
 5107SOL    HW226955   3.538   0.840   8.564 -1.5073 -0.4715 -2.6256
 5108SOL     OW26956   3.360   0.398   2.836  0.0179 -0.2677 -0.1347
 5108SOL    HW126957   3.283   0.423   2.785  0.5433 -1.4962 -1.5272
 5108SOL    HW226958   3.367   0.476   2.891 -1.7569 -2.2278  2.9344
 5109SOL     OW26959   3.235   2.495   7.696  0.6985  0.6267  0.6518
 5109SOL    HW126960   3.281   2.411   7.701  0.5770  0.5948  1.2622
 5109SOL    HW226961   3.304   2.560   7.709  0.6795  0.6927  0.4114
 5110SOL     OW26962   2.089   3.685   3.900 -0.6789  0.1322  0.1510
 5110SOL    HW126963   2.044   3.654   3.979 -1.8605 -0.5969 -0.7969
 5110SOL    HW226964   2.070   3.778   3.909  0.0575  0.2048  0.8667
 5111SOL     OW26965   0.606   2.813  17.503  0.0626  0.1534 -0.4663
 5111SOL    HW126966   0.537   2.789  17.440 -1.1085  1.1655  0.4185
 5111SOL    HW226967   0.675   2.830  17.439  2.0729 -1.2404  1.3701
 5112SOL     OW26968   3.379   1.478  10.343  0.2638  0.3126  0.0017
 5112SOL    HW126969   3.394   1.447  10.254 -0.1781 -0.3916  0.1698
 5112SOL    HW226970   3.385   1.395  10.391  3.4071  0.1952 -0.5946
 5113SOL     OW26971   2.845   4.589   1.693 -0.2145 -0.7457 -0.4251
 5113SOL    HW126972   2.872   4.583   1.785 -3.2689 -0.6646  0.4768
 5113SOL    HW226973   2.752   4.573   1.703 -0.5508  1.1758 -0.4707
 5114SOL     OW26974   3.736   4.351   2.445  0.2435 -0.3979  0.6096
 5114SOL    HW126975   3.815   4.333   2.496  2.4253 -1.2910 -3.0640
 5114SOL    HW226976   3.750   4.432   2.396  1.3279 -0.3429  1.0117
 5115SOL     OW26977   3.768   1.281  17.681 -0.3503  0.2643 -0.1228
 5115SOL    HW126978   3.843   1.316  17.633  0.1009  1.1097  1.2073
 5115SOL    HW226979   3.743   1.206  17.628 -1.6861  1.4054 -1.1210
 5116SOL     OW26980   0.108   2.351   1.642 -0.8421 -0.6684  0.4527
 5116SOL    HW126981   0.109   2.360   1.737  1.7399 -1.2213  0.4707
 5116SOL    HW226982   0.150   2.265   1.638  0.4095  0.0410 -1.6918
 5117SOL     OW26983   1.624   4.088   3.521 -0.1414 -0.7351  0.3685
 5117SOL    HW126984   1.692   4.077   3.454 -0.9859  3.1421 -1.1353
 5117SOL    HW226985   1.571   4.012   3.497  0.3263 -1.5661  1.9607
 5118SOL     OW26986   3.660   1.839   9.013  0.0781 -0.1367 -0.5026
 5118SOL    HW126987   3.695   1.797   9.092 -1.3313 -2.0074 -0.8909
 5118SOL    HW226988   3.565   1.838   9.026  0.2386 -1.3674  0.5941
 5119SOL     OW26989   4.423   1.621   6.133 -0.0694 -0.7351 -0.2499
 5119SOL    HW126990   4.328   1.620   6.118  0.0272 -0.7252 -0.8724
 5119SOL    HW226991   4.421   1.637   6.227  2.3737 -1.7896 -0.0300
 5120SOL     OW26992   1.902   3.165  13.074 -0.3049  0.4041  0.3132
 5120SOL    HW126993   1.810   3.138  13.063  0.3279 -0.4520 -2.9035
 5120SOL    HW226994   1.898   3.256  13.046 -0.1121  0.6141  0.9664
 5121SOL     OW26995   1.699   1.719   6.709 -0.2846 -0.2760  0.1193
 5121SOL    HW126996   1.630   1.654   6.698 -2.2839  2.0054 -0.6915
 5121SOL    HW226997   1.777   1.667   6.689  1.2839  2.5474 -1.0898
 5122SOL     OW26998   1.040   3.186   8.942 -0.6193 -0.1984 -0.5808
 5122SOL    HW126999   0.987   3.208   8.865 -0.6034  2.1320  0.0868
 5122SOL    HW227000   1.119   3.238   8.924 -0.6246  0.1923  0.5679
 5123SOL     OW27001   1.104   1.196   9.982  0.4779  0.0595  0.2914
 5123SOL    HW127002   1.089   1.178  10.074 -2.1895 -0.0086 -0.1701
 5123SOL    HW227003   1.025   1.156   9.945 -1.1121  0.7603  2.9886
 5124SOL     OW27004   1.910   0.038   6.800 -0.2519  0.3257  0.3070
 5124SOL    HW127005   1.832   4.728   6.827  1.1500 -1.3957  1.2468
 5124SOL    HW227006   1.951   4.720   6.735 -0.0145  1.9155 -0.9289
 5125SOL     OW27007   0.700   2.282  12.175 -0.3062  0.5547 -0.5386
 5125SOL    HW127008   0.688   2.203  12.122 -1.7778 -1.2445  2.4752
 5125SOL    HW227009   0.633   2.331  12.127 -3.2049 -0.0225  2.9232
 5126SOL     OW27010   1.077   0.810   0.878  0.2564  0.5023 -0.4371
 5126SOL    HW127011   1.017   0.755   0.927 -0.1196  0.9020 -0.4517
 5126SOL    HW227012   1.080   0.760   0.796 -1.6386 -1.0144  0.4373
 5127SOL     OW27013   1.475   4.373   8.667 -0.2714  0.1176 -0.8673
 5127SOL    HW127014   1.447   4.282   8.676  0.9104  0.0059  1.6876
 5127SOL    HW227015   1.506   4.367   8.577  0.8207  4.0249 -0.7653
 5128SOL     OW27016   3.892   1.529  15.444  0.3421 -0.3424 -0.4796
 5128SOL    HW127017   3.861   1.585  15.515 -0.2783  2.0283 -2.6192
 5128SOL    HW227018   3.985   1.517  15.465  0.3589  1.7195  0.6263
 5129SOL     OW27019   0.215   0.052   3.215 -0.2372 -0.6746 -0.4792
 5129SOL    HW127020   0.216   4.717   3.275 -0.4783 -0.3184 -0.0395
 5129SOL    HW227021   0.245   0.017   3.131  1.5877  1.9324 -0.9260
 5130SOL     OW27022   4.704   2.608   1.598 -0.4352  0.0842  0.3187
 5130SOL    HW127023   0.005   2.521   1.611 -4.3760 -1.5551  1.3760
 5130SOL    HW227024   4.612   2.586   1.583 -0.2116 -0.3433 -0.4456
 5131SOL     OW27025   3.054   3.450   6.472 -0.1891  0.1822 -0.5809
 5131SOL    HW127026   3.041   3.501   6.392 -1.5526  2.5308  1.1406
 5131SOL    HW227027   3.145   3.474   6.491 -0.2391  1.4798 -2.0434
 5132SOL     OW27028   3.067   4.274  12.473  0.1523 -0.5321 -0.4428
 5132SOL    HW127029   3.107   4.358  12.497 -2.2951  0.6625 -0.6556
 5132SOL    HW227030   3.141   4.238  12.424 -1.0911 -1.4164 -1.6450
 5133SOL     OW27031   1.551   0.544   7.566  0.3003 -0.0222  0.9399
 5133SOL    HW127032   1.530   0.528   7.658  1.8503  0.8345  1.4470
 5133SOL    HW227033   1.555   0.639   7.570  1.6875 -0.1340  2.5732
 5134SOL     OW27034   0.094   0.790   8.814 -0.0026  0.1405 -0.0029
 5134SOL    HW127035   0.075   0.704   8.852 -1.6132  0.0649 -0.9771
 5134SOL    HW227036   0.073   0.846   8.889 -1.3219  0.4416 -0.5971
 5135SOL     OW27037   2.712   0.727   6.745 -0.4843 -0.3361 -0.2328
 5135SOL    HW127038   2.665   0.751   6.665  0.3604 -0.0567 -0.6462
 5135SOL    HW227039   2.678   0.792   6.807 -1.8575 -1.5508  0.2978
 5136SOL     OW27040   2.240   3.510  12.608  0.1032  0.2734  0.1301
 5136SOL    HW127041   2.226   3.462  12.527 -1.8477  1.7765 -0.4071
 5136SOL    HW227042   2.205   3.594  12.581  1.6129 -0.5672 -4.4989
 5137SOL     OW27043   4.052   3.499   7.422  0.2461  0.1690 -0.6381
 5137SOL    HW127044   4.070   3.583   7.465  2.3432 -0.4796 -0.3104
 5137SOL    HW227045   4.002   3.459   7.493 -0.1260 -1.9394 -2.0834
 5138SOL     OW27046   3.858   1.387   9.620 -0.1978 -0.1626 -0.3925
 5138SOL    HW127047   3.889   1.432   9.699  0.3723  0.3090 -0.8900
 5138SOL    HW227048   3.777   1.433   9.599  0.1056  0.0455 -1.0892
 5139SOL     OW27049   0.432   1.930  10.487  0.0923  0.4497  0.4784
 5139SOL    HW127050   0.466   2.001  10.431 -0.2794 -0.5719 -1.0274
 5139SOL    HW227051   0.514   1.895  10.523 -0.0381  0.3849  0.7066
 5140SOL     OW27052   0.499   0.663   8.223 -0.1731  1.1757 -0.0191
 5140SOL    HW127053   0.405   0.663   8.204 -0.0769 -0.0240 -0.5125
 5140SOL    HW227054   0.511   0.584   8.276 -0.2308  1.6863  0.7466
 5141SOL     OW27055   4.227   4.557  15.265 -0.2262  0.2846  0.5418
 5141SOL    HW127056   4.138   4.536  15.237 -0.9439  0.6610  2.5920
 5141SOL    HW227057   4.235   4.650  15.287  0.5144  0.3115  0.1873
 5142SOL     OW27058   0.265   3.887   8.489  0.3977  0.0380  0.2436
 5142SOL    HW127059   0.218   3.960   8.448  2.1692  0.7281 -0.5608
 5142SOL    HW227060   0.313   3.844   8.418  1.7189  0.9159  0.6095
 5143SOL     OW27061   0.241   4.222   2.063  0.1425  0.0364 -0.2293
 5143SOL    HW127062   0.334   4.246   2.062  0.8309 -2.5920  1.2431
 5143SOL    HW227063   0.227   4.227   2.157 -0.3029  0.6557 -0.3293
 5144SOL     OW27064   2.890   0.382  12.787 -0.4559  0.6473  0.1894
 5144SOL    HW127065   2.858   0.337  12.709  1.1028 -0.5411  0.2336
 5144SOL    HW227066   2.979   0.399  12.756 -0.8039 -1.0658 -1.6936
 5145SOL     OW27067   0.220   0.327   6.403 -0.2493 -0.4393 -0.2892
 5145SOL    HW127068   0.195   0.317   6.495  0.7303  0.7423  0.1080
 5145SOL    HW227069   0.281   0.257   6.383 -1.2306 -1.2140 -0.5753
 5146SOL     OW27070   0.928   4.026   0.021 -0.0942  0.1512  0.4093
 5146SOL    HW127071   0.967   3.975   0.092  0.2350  1.6899  1.3461
 5146SOL    HW227072   0.896   3.952  17.722 -1.4706 -0.5175  2.1937
 5147SOL     OW27073   0.001   3.898  12.788 -0.4114  0.3654  0.3884
 5147SOL    HW127074   0.051   3.977  12.768 -0.2123  1.0549  3.7087
 5147SOL    HW227075   0.077   3.845  12.812  1.0152  0.4713 -3.8885
 5148SOL     OW27076   0.703   3.813   6.544 -0.8945 -0.6003 -0.4982
 5148SOL    HW127077   0.712   3.819   6.639  1.1829  4.0060 -0.9552
 5148SOL    HW227078   0.745   3.728   6.540  0.8793  0.2651 -0.4799
 5149SOL     OW27079   1.071   2.388   6.413 -0.0749 -0.3859  0.4803
 5149SOL    HW127080   1.112   2.467   6.379  0.8050 -1.4969 -1.0720
 5149SOL    HW227081   1.142   2.324   6.417 -0.2438 -0.5913  0.1644
 5150SOL     OW27082   2.965   2.153  14.415  0.3676  0.6938 -0.4716
 5150SOL    HW127083   2.982   2.216  14.485  2.2791 -0.7487  0.3711
 5150SOL    HW227084   2.874   2.129  14.430  1.5665 -2.4397  1.6840
 5151SOL     OW27085   2.250   4.090  14.332 -0.0960  0.2521  0.0226
 5151SOL    HW127086   2.243   4.164  14.273  1.8959 -2.0818 -3.1560
 5151SOL    HW227087   2.294   4.026  14.276  0.2238 -0.4381  1.0423
 5152SOL     OW27088   2.200   1.559  12.196 -0.0307 -0.3288  0.2799
 5152SOL    HW127089   2.243   1.613  12.129  0.7740  0.5979  1.5302
 5152SOL    HW227090   2.232   1.471  12.178  0.7420 -0.1425  0.7402
 5153SOL     OW27091   4.436   3.884   6.926  0.9254 -0.0774 -0.2147
 5153SOL    HW127092   4.365   3.820   6.923 -0.3382  1.2523  1.2468
 5153SOL    HW227093   4.482   3.862   6.845  0.2997  1.3583 -0.9551
 5154SOL     OW27094   2.426   0.686   6.580  0.0369  0.7217  0.4428
 5154SOL    HW127095   2.505   0.672   6.527  0.6426  1.1760  1.2322
 5154SOL    HW227096   2.391   0.597   6.586  2.6909 -0.3500  0.1597
 5155SOL     OW27097   3.074   3.283   7.153 -0.1710  0.4720 -0.0270
 5155SOL    HW127098   3.047   3.258   7.241  0.6173  1.8566  0.6122
 5155SOL    HW227099   3.166   3.258   7.152 -1.0197 -2.5319 -0.7808
 5156SOL     OW27100   4.306   1.655   0.226  0.3282 -0.1810  0.2440
 5156SOL    HW127101   4.360   1.618   0.157 -2.9578  0.1818 -2.4940
 5156SOL    HW227102   4.354   1.738   0.232  0.4364 -0.1888 -0.5067
 5157SOL     OW27103   3.926   2.615   8.309 -0.0946  0.2030  0.5751
 5157SOL    HW127104   3.948   2.535   8.261  1.1998  0.7773  0.2044
 5157SOL    HW227105   3.856   2.653   8.256  2.0141  2.6708 -0.4499
 5158SOL     OW27106   0.476   0.111   2.409  0.2010  0.4257 -0.4738
 5158SOL    HW127107   0.445   0.141   2.494  0.6197  0.6086 -0.3851
 5158SOL    HW227108   0.563   0.072   2.422  1.1586  1.3792 -4.0098
 5159SOL     OW27109   3.763   1.804   1.075  0.2420  0.3248  0.0491
 5159SOL    HW127110   3.836   1.747   1.051 -0.7329 -0.8762 -0.1078
 5159SOL    HW227111   3.698   1.774   1.012 -0.5172  1.5644  0.2447
 5160SOL     OW27112   3.029   0.704   2.642  0.0052 -0.1625 -0.3230
 5160SOL    HW127113   3.023   0.790   2.683  2.0498 -0.6307  0.9870
 5160SOL    HW227114   3.121   0.686   2.664 -0.1860 -1.1213 -0.3107
 5161SOL     OW27115   0.709   1.609  16.751  0.0669 -0.0881 -0.4572
 5161SOL    HW127116   0.776   1.631  16.816 -0.7116  0.1999  0.2513
 5161SOL    HW227117   0.727   1.515  16.746 -0.8982 -0.1646 -2.2775
 5162SOL     OW27118   1.520   0.807   8.672 -0.2689  0.8128 -0.0521
 5162SOL    HW127119   1.509   0.758   8.754  2.3029  0.5530  0.1360
 5162SOL    HW227120   1.516   0.897   8.705  1.0330  1.4255 -1.6293
 5163SOL     OW27121   0.045   2.712   8.573 -0.9110  0.4823 -0.0597
 5163SOL    HW127122   0.001   2.756   8.646  0.4101  0.2158  0.9012
 5163SOL    HW227123   4.722   2.642   8.554 -0.4088  0.2335 -0.7682
 5164SOL     OW27124   0.362   3.708   6.440  0.1702  0.0470  0.5792
 5164SOL    HW127125   0.419   3.635   6.461 -0.2393 -0.3301  0.3820
 5164SOL    HW227126   0.344   3.756   6.521 -0.3974 -1.9309  1.6151
 5165SOL     OW27127   0.173   3.326  16.881  0.3064  1.1459 -0.1167
 5165SOL    HW127128   0.245   3.292  16.934 -2.6955 -0.3668  3.0029
 5165SOL    HW227129   0.209   3.319  16.792 -4.0280  1.8448 -1.9165
 5166SOL     OW27130   4.149   3.231   7.401  0.0236 -0.0312 -0.1140
 5166SOL    HW127131   4.126   3.323   7.416 -1.5534 -0.8170  2.2316
 5166SOL    HW227132   4.069   3.203   7.356  0.6028 -0.2949 -0.9768
 5167SOL     OW27133   2.494   1.834   6.518 -0.2764 -0.7078  0.5085
 5167SOL    HW127134   2.547   1.755   6.517 -0.3960 -0.7878  0.5179
 5167SOL    HW227135   2.448   1.824   6.602  0.8175  1.2328  1.3410
 5168SOL     OW27136   3.350   2.616   4.707 -0.6238 -0.1215 -0.0690
 5168SOL    HW127137   3.324   2.707   4.698  0.7872  0.2523 -0.3318
 5168SOL    HW227138   3.348   2.607   4.802  0.6976  0.1580 -0.0187
 5169SOL     OW27139   3.130   0.529  15.347 -0.0422  0.3796  0.0540
 5169SOL    HW127140   3.083   0.519  15.430  0.2263  1.8330  0.3716
 5169SOL    HW227141   3.220   0.504  15.371 -0.3005 -1.8102 -1.2396
 5170SOL     OW27142   0.519   4.416   0.719 -0.6587  0.8662 -0.2883
 5170SOL    HW127143   0.606   4.382   0.736 -1.7275 -1.8316 -0.2599
 5170SOL    HW227144   0.519   4.498   0.769 -0.5660  0.0923  0.9685
 5171SOL     OW27145   4.729   0.206   3.621 -0.0129  0.1635  0.9523
 5171SOL    HW127146   4.689   0.143   3.681 -1.7030  2.0095  1.7743
 5171SOL    HW227147   0.060   0.237   3.679  0.8740  0.0094 -0.0454
 5172SOL     OW27148   2.736   4.443   8.112 -0.4511  0.2268 -0.4903
 5172SOL    HW127149   2.743   4.392   8.192  0.4566  2.0841  0.6157
 5172SOL    HW227150   2.672   4.389   8.064  0.3199 -0.1547 -1.0966
 5173SOL     OW27151   0.818   4.615   9.278 -0.2618 -0.1704 -0.6520
 5173SOL    HW127152   0.835   4.537   9.331  0.4256  0.6655  0.3528
 5173SOL    HW227153   0.736   4.633   9.324 -1.1437 -0.9426 -1.9128
 5174SOL     OW27154   2.999   3.319  14.100  0.5532  0.2465 -0.2905
 5174SOL    HW127155   2.927   3.326  14.037 -0.2173 -2.1059  0.3393
 5174SOL    HW227156   2.960   3.308  14.186  1.1410 -1.2087 -0.2129
 5175SOL     OW27157   1.448   2.183  17.096  0.1692  0.0111  0.7207
 5175SOL    HW127158   1.496   2.101  17.097  1.6446  0.8431 -1.7782
 5175SOL    HW227159   1.457   2.197  17.002 -0.8714  2.7118  0.9990
 5176SOL     OW27160   0.172   4.217   8.612 -0.0201 -0.4017  0.0716
 5176SOL    HW127161   0.183   4.168   8.530 -1.2665 -2.3078  1.0463
 5176SOL    HW227162   0.100   4.272   8.582 -1.1719 -1.7145  0.4450
 5177SOL     OW27163   4.579   2.620  10.217 -0.6767  0.3247 -0.6610
 5177SOL    HW127164   4.673   2.612  10.236 -0.7626 -1.7164 -1.1281
 5177SOL    HW227165   4.560   2.692  10.277 -0.5008 -0.3263  0.1813
 5178SOL     OW27166   3.390   2.148  10.849 -0.8310 -0.4490 -0.0303
 5178SOL    HW127167   3.421   2.068  10.806 -2.0003 -0.0765 -1.5582
 5178SOL    HW227168   3.356   2.109  10.930 -1.3890  1.0896  0.4697
 5179SOL     OW27169   2.676   4.479   7.084 -0.2054  0.1177  0.1441
 5179SOL    HW127170   2.669   4.384   7.079  0.5940 -0.0668  2.1456
 5179SOL    HW227171   2.769   4.481   7.062 -0.6326 -0.6944 -1.6969
 5180SOL     OW27172   0.727   3.219   4.615 -0.1329  0.0038 -0.2969
 5180SOL    HW127173   0.793   3.263   4.669 -0.2023  0.1640 -0.3443
 5180SOL    HW227174   0.657   3.284   4.625  0.2005  0.4259 -0.6955
 5181SOL     OW27175   0.072   0.203   4.601  0.2016 -0.3624 -0.0010
 5181SOL    HW127176   0.081   0.189   4.506 -1.1792 -0.1250 -0.1740
 5181SOL    HW227177   0.159   0.240   4.613 -0.8278  1.9284  0.5444
 5182SOL     OW27178   0.902   1.984   8.618 -0.1361 -0.5715 -0.3510
 5182SOL    HW127179   0.841   1.916   8.587 -0.5049 -0.5975  0.4149
 5182SOL    HW227180   0.987   1.943   8.606  0.9716  1.5265  0.4039
 5183SOL     OW27181   2.548   0.682   5.943 -0.9068  0.1880 -0.9937
 5183SOL    HW127182   2.548   0.667   5.848 -0.3809 -0.9684 -0.8102
 5183SOL    HW227183   2.454   0.672   5.960 -0.9134 -0.6147 -1.5110
 5184SOL     OW27184   1.917   0.805  11.278  0.2679  0.6423  0.1442
 5184SOL    HW127185   1.919   0.900  11.290 -0.0374  0.7582 -0.6661
 5184SOL    HW227186   2.001   0.813  11.232 -0.3319 -2.4355 -1.5167
 5185SOL     OW27187   1.746   1.583  14.801 -0.0685 -0.6668  0.1861
 5185SOL    HW127188   1.707   1.645  14.739 -2.9011 -2.0353  0.5981
 5185SOL    HW227189   1.794   1.642  14.859  0.2680 -2.1327  1.3746
 5186SOL     OW27190   2.412   3.141   4.861  0.5257 -0.6612 -0.1996
 5186SOL    HW127191   2.407   3.116   4.953 -0.4154  0.6890  0.1036
 5186SOL    HW227192   2.504   3.118   4.845  0.7775 -0.9223  1.7045
 5187SOL     OW27193   1.985   3.144   9.010 -0.7595  0.4701  0.6214
 5187SOL    HW127194   1.992   3.049   9.008  2.6822  0.7494 -0.7332
 5187SOL    HW227195   2.066   3.175   9.052  0.0301 -0.5804 -0.1462
 5188SOL     OW27196   4.651   3.783   7.910 -0.4523 -0.4576 -0.7753
 5188SOL    HW127197   4.623   3.736   7.988  0.4657  0.6581  0.2192
 5188SOL    HW227198   4.724   3.836   7.944  1.5556 -2.0253 -2.6619
 5189SOL     OW27199   2.372   2.239   8.879  0.0747  0.2609  0.3202
 5189SOL    HW127200   2.442   2.292   8.842 -0.0652  0.4003  0.2529
 5189SOL    HW227201   2.375   2.164   8.819 -1.8019  0.2111  0.2760
 5190SOL     OW27202   1.140   1.678   0.653  0.4368  0.1142 -0.3344
 5190SOL    HW127203   1.194   1.706   0.579 -0.7675  1.1067 -0.8305
 5190SOL    HW227204   1.067   1.735   0.633 -0.3914 -0.1161  2.0425
 5191SOL     OW27205   1.021   2.574   7.119  0.4088 -0.1741 -0.9468
 5191SOL    HW127206   0.928   2.574   7.096 -0.2722  1.8134  1.8004
 5191SOL    HW227207   1.054   2.521   7.046  2.3563 -1.4867  0.8737
 5192SOL     OW27208   4.062   0.743   8.445 -0.4858  0.0551  0.5430
 5192SOL    HW127209   4.101   0.786   8.522 -0.7502 -1.4394  1.5167
 5192SOL    HW227210   3.973   0.721   8.474 -0.5331 -1.0904 -0.4683
 5193SOL     OW27211   2.454   3.808   5.256  0.3342 -0.0741  0.2635
 5193SOL    HW127212   2.486   3.898   5.265  0.8519 -0.1934 -0.3807
 5193SOL    HW227213   2.533   3.757   5.239  1.0322  0.3925  2.1319
 5194SOL     OW27214   1.352   0.770  12.515 -0.7138  0.0835 -0.0830
 5194SOL    HW127215   1.343   0.821  12.434  1.0359 -0.6128 -0.7259
 5194SOL    HW227216   1.271   0.795  12.558  0.2828  1.4877  0.9525
 5195SOL     OW27217   1.501   3.548   5.093  0.7096  0.0685  0.0426
 5195SOL    HW127218   1.556   3.626   5.089 -1.2718  1.4982  0.6886
 5195SOL    HW227219   1.538   3.504   5.016 -0.4357  0.3282 -0.6578
 5196SOL     OW27220   2.737   1.939   2.633 -0.3091 -0.3180  0.1831
 5196SOL    HW127221   2.798   1.920   2.704  1.2992 -0.5549 -1.2724
 5196SOL    HW227222   2.673   1.972   2.696 -0.3911 -1.6180  0.7951
 5197SOL     OW27223   1.536   4.119   6.402  0.6133 -0.1386  0.2354
 5197SOL    HW127224   1.612   4.109   6.458  2.8518 -1.7765 -3.0773
 5197SOL    HW227225   1.557   4.210   6.379 -0.0885  0.4810  2.0547
 5198SOL     OW27226   4.144   1.951   5.811 -0.4137  0.1936 -0.5461
 5198SOL    HW127227   4.138   2.014   5.739  1.1903  0.5275 -0.3806
 5198SOL    HW227228   4.120   2.010   5.883 -2.4481 -0.8707 -0.3320
 5199SOL     OW27229   4.273   0.196   8.681 -0.5461 -0.1358  0.1502
 5199SOL    HW127230   4.180   0.173   8.670 -0.0623 -0.7345 -2.6239
 5199SOL    HW227231   4.264   0.244   8.763 -0.1089  0.4193 -0.1328
 5200SOL     OW27232   2.888   4.265  10.961 -0.2865 -0.7532 -0.1400
 5200SOL    HW127233   2.969   4.315  10.971 -0.2808 -0.5850 -1.0513
 5200SOL    HW227234   2.895   4.241  10.869  3.5281 -0.7890  0.1783
 5201SOL     OW27235   2.677   4.239  11.602  0.0729  0.1077 -0.6013
 5201SOL    HW127236   2.651   4.331  11.608 -1.4414 -0.2105 -2.2395
 5201SOL    HW227237   2.590   4.199  11.603 -0.0548  0.3437 -1.7851
 5202SOL     OW27238   1.532   1.791  12.165 -0.3880  0.1676  0.0186
 5202SOL    HW127239   1.450   1.812  12.209  0.6410  1.5682  1.2403
 5202SOL    HW227240   1.588   1.747  12.229  0.6099  1.2383 -0.1192
 5203SOL     OW27241   1.899   0.625  11.497 -0.5079  0.0146 -0.1508
 5203SOL    HW127242   1.919   0.682  11.423 -1.2997  0.6301  0.1049
 5203SOL    HW227243   1.852   0.551  11.460 -0.4976  0.8940 -1.9386
 5204SOL     OW27244   0.021   2.043   4.255 -0.8739 -0.1228 -0.2896
 5204SOL    HW127245   0.037   1.956   4.293 -1.1079 -0.7213 -1.5834
 5204SOL    HW227246   4.680   2.029   4.205 -0.9434  0.1224 -0.2500
 5205SOL     OW27247   3.253   0.586   8.387  0.0476 -0.0270  0.2018
 5205SOL    HW127248   3.197   0.560   8.459 -0.5188  0.9557  0.1158
 5205SOL    HW227249   3.249   0.502   8.342  2.2620 -0.4950  0.8674
 5206SOL     OW27250   4.468   2.823   0.234 -0.1604  0.3873  0.0742
 5206SOL    HW127251   4.381   2.857   0.214  0.1025  1.2922  0.4441
 5206SOL    HW227252   4.449   2.730   0.227 -0.0589  0.2581  1.4072
 5207SOL     OW27253   2.518   1.099  12.088  0.5433 -0.2562 -0.0710
 5207SOL    HW127254   2.428   1.072  12.073  1.1399 -1.2165 -1.8496
 5207SOL    HW227255   2.535   1.152  12.010  2.2529 -1.1248 -0.2952
 5208SOL     OW27256   2.756   2.436   3.295 -0.7071 -0.3058  0.6442
 5208SOL    HW127257   2.668   2.399   3.295 -0.9392  0.2458  0.6389
 5208SOL    HW227258   2.794   2.400   3.376  0.4671 -1.0089 -0.2203
 5209SOL     OW27259   0.858   3.942   4.454  0.2346 -0.1579 -0.2898
 5209SOL    HW127260   0.910   3.994   4.393 -0.8835  0.6210 -0.5731
 5209SOL    HW227261   0.922   3.882   4.492 -0.2742  1.2663  2.8106
 5210SOL     OW27262   0.054   4.488   3.999  0.2631  0.6783 -0.1715
 5210SOL    HW127263   0.075   4.419   4.062 -0.8895  1.0176  0.5763
 5210SOL    HW227264   0.060   4.568   4.051  2.5177  1.1942 -1.2438
 5211SOL     OW27265   1.408   4.515  11.930 -0.1083 -0.5242 -0.1805
 5211SOL    HW127266   1.440   4.604  11.942 -2.3968  0.4089 -0.9341
 5211SOL    HW227267   1.445   4.470  12.006  2.9088 -0.0711 -1.3810
 5212SOL     OW27268   1.269   3.032   8.447  0.4732  0.2827  0.0167
 5212SOL    HW127269   1.344   2.973   8.448  0.2396 -0.0299 -0.6391
 5212SOL    HW227270   1.292   3.102   8.508  0.0016  0.8524 -0.4545
 5213SOL     OW27271   2.066   1.810   6.557 -0.3611 -0.1131 -0.0648
 5213SOL    HW127272   2.123   1.813   6.481 -1.9895  0.2400 -1.2810
 5213SOL    HW227273   2.003   1.880   6.543  0.5699  0.2798 -2.1651
 5214SOL     OW27274   4.570   3.448   0.808  0.2337  0.0711 -0.6129
 5214SOL    HW127275   4.648   3.432   0.862 -0.0467 -0.2423 -0.3011
 5214SOL    HW227276   4.577   3.543   0.795 -2.0400  0.3744  0.3718
 5215SOL     OW27277   3.985   2.374   0.948  0.1890 -0.0446 -0.2266
 5215SOL    HW127278   3.895   2.402   0.931  0.3680 -0.9943 -2.8477
 5215SOL    HW227279   3.985   2.391   1.042 -0.7442 -1.5760  0.0381
 5216SOL     OW27280   3.524   4.666  14.443  0.3472  0.0331  0.0105
 5216SOL    HW127281   3.533   4.576  14.473  0.4610 -0.4769 -1.5556
 5216SOL    HW227282   3.595   4.678  14.379 -0.1029 -1.3077 -0.7283
 5217SOL     OW27283   1.701   3.829  15.928  0.5884  0.1525 -0.1380
 5217SOL    HW127284   1.672   3.755  15.981  0.5285 -0.2588 -0.7466
 5217SOL    HW227285   1.675   3.905  15.980  1.3132  0.5067 -0.2867
 5218SOL     OW27286   0.192   0.403   6.089  0.0256  0.2271 -0.4267
 5218SOL    HW127287   0.166   0.414   6.181  0.0510 -2.8729 -0.0554
 5218SOL    HW227288   0.287   0.406   6.098 -0.1752 -0.4120  1.9008
 5219SOL     OW27289   1.317   1.675   2.757 -0.2067  0.1965 -0.1839
 5219SOL    HW127290   1.327   1.760   2.715 -0.1068 -0.5122 -1.5993
 5219SOL    HW227291   1.384   1.670   2.825 -1.2575 -2.5326  0.6639
 5220SOL     OW27292   3.708   1.193   8.892 -0.0483  0.0831 -0.1337
 5220SOL    HW127293   3.804   1.197   8.898  0.0604 -1.0396 -1.1434
 5220SOL    HW227294   3.696   1.124   8.826 -1.3593 -0.3131  0.5342
 5221SOL     OW27295   1.750   1.042   5.197  0.4768 -0.0119  0.4165
 5221SOL    HW127296   1.700   1.114   5.236  2.7920  2.3661 -0.9360
 5221SOL    HW227297   1.818   1.022   5.261 -0.3644  0.2897  1.3918
 5222SOL     OW27298   4.184   3.147   4.797  0.2660  0.1884  0.3748
 5222SOL    HW127299   4.231   3.095   4.731 -2.1470  2.1378 -2.9048
 5222SOL    HW227300   4.095   3.142   4.759  0.6887  1.5130 -0.8010
 5223SOL     OW27301   3.378   1.276   7.670  0.0285  0.0008 -0.2620
 5223SOL    HW127302   3.408   1.245   7.756 -0.2512 -0.4602 -0.3288
 5223SOL    HW227303   3.335   1.197   7.638 -0.7529  0.7368 -0.9999
 5224SOL     OW27304   2.780   3.885   4.875  0.4594 -0.2180 -0.0752
 5224SOL    HW127305   2.697   3.837   4.867 -1.3409  2.7844  0.4163
 5224SOL    HW227306   2.764   3.934   4.956  0.8744 -0.6671  0.2757
 5225SOL     OW27307   3.354   0.542   8.107  0.1811 -0.2449  0.0153
 5225SOL    HW127308   3.337   0.619   8.053  0.0418  0.1571  0.6265
 5225SOL    HW227309   3.263   0.533   8.137 -0.9445  0.5343 -3.2005
 5226SOL     OW27310   4.070   3.903   5.414 -0.9189 -0.5060  0.9865
 5226SOL    HW127311   3.986   3.861   5.433 -1.9312  1.1511  0.1799
 5226SOL    HW227312   4.118   3.826   5.384  1.4180  0.5155  2.1263
 5227SOL     OW27313   2.641   1.757   3.564 -0.2771  0.4278 -0.5166
 5227SOL    HW127314   2.725   1.748   3.519 -0.0887  2.6505 -0.6208
 5227SOL    HW227315   2.661   1.799   3.648  1.2466 -1.1338 -0.0783
 5228SOL     OW27316   1.516   3.872  11.371 -0.1145  0.4150 -0.5148
 5228SOL    HW127317   1.471   3.788  11.371  0.3460  0.1661 -0.9028
 5228SOL    HW227318   1.545   3.872  11.280  0.1896 -2.5370 -0.3938
 5229SOL     OW27319   1.054   3.114   8.122 -0.0914  0.1710  0.0554
 5229SOL    HW127320   1.066   3.187   8.183 -0.2079  0.0345  0.2431
 5229SOL    HW227321   0.959   3.109   8.114  0.1612 -0.2930 -2.5053
 5230SOL     OW27322   1.299   0.231   1.352  0.0907  0.2213  0.0918
 5230SOL    HW127323   1.310   0.244   1.257  3.2695  0.5913  0.4974
 5230SOL    HW227324   1.205   0.248   1.354  0.0233 -0.7705  3.6537
 5231SOL     OW27325   3.702   2.397   7.859 -0.0011 -0.1520 -0.2861
 5231SOL    HW127326   3.643   2.337   7.904  2.0950 -0.8711  1.4633
 5231SOL    HW227327   3.686   2.377   7.767 -0.8148 -0.9373  0.0329
 5232SOL     OW27328   2.091   2.550   8.075  0.2238 -0.4904 -0.0426
 5232SOL    HW127329   2.063   2.459   8.067 -2.4347  0.4442 -1.2665
 5232SOL    HW227330   2.117   2.560   7.983  2.0835  0.3451  0.5685
 5233SOL     OW27331   0.259   0.628  16.448  0.0275  0.2369  0.0928
 5233SOL    HW127332   0.206   0.592  16.376 -2.1878 -0.4044  2.0358
 5233SOL    HW227333   0.189   0.659  16.505 -0.4861  0.3667 -0.6006
 5234SOL     OW27334   2.449   3.100   2.276  0.6358  0.0143  0.3352
 5234SOL    HW127335   2.471   3.015   2.314 -0.8333 -1.1413 -1.3848
 5234SOL    HW227336   2.485   3.097   2.188  0.6367 -4.8703  0.5175
 5235SOL     OW27337   1.426   0.466  11.775  0.3780  0.3947 -0.7311
 5235SOL    HW127338   1.499   0.416  11.738  0.5871  1.2821 -1.5136
 5235SOL    HW227339   1.444   0.467  11.869  0.1152  0.2222 -0.6784
 5236SOL     OW27340   4.165   3.425  16.779 -0.6776 -0.1689  0.2091
 5236SOL    HW127341   4.110   3.413  16.856  0.6297 -3.8733  0.5610
 5236SOL    HW227342   4.237   3.365  16.801 -0.6567  1.0351  3.4845
 5237SOL     OW27343   1.209   0.991  14.241 -0.9954 -0.0888  0.0265
 5237SOL    HW127344   1.246   1.063  14.190 -1.8413  0.2527 -0.1075
 5237SOL    HW227345   1.286   0.951  14.282 -1.9708 -3.0997 -1.0659
 5238SOL     OW27346   0.981   0.622   6.872  0.0230  0.1915 -0.0846
 5238SOL    HW127347   0.894   0.637   6.833 -0.8305 -0.6002  1.5421
 5238SOL    HW227348   0.985   0.527   6.879  0.8127  0.1148 -1.6748
 5239SOL     OW27349   1.972   3.159  15.092  0.6684  0.2025 -0.5090
 5239SOL    HW127350   1.977   3.089  15.026 -1.5082 -0.1053 -0.3267
 5239SOL    HW227351   1.883   3.167  15.124  1.2433 -0.3484  1.2154
 5240SOL     OW27352   2.701   0.433   6.629  0.1972 -0.0145  0.1829
 5240SOL    HW127353   2.699   0.528   6.629  0.3449 -0.0325 -2.2213
 5240SOL    HW227354   2.662   0.423   6.716  1.8672  3.6997  1.3601
 5241SOL     OW27355   2.676   3.635   3.128 -0.0457  0.1434 -0.1375
 5241SOL    HW127356   2.725   3.627   3.046 -0.1563  3.5872 -0.5546
 5241SOL    HW227357   2.697   3.723   3.160  1.2805 -0.6808  1.3079
 5242SOL     OW27358   3.065   1.296   3.007 -0.2146 -0.0550  0.3755
 5242SOL    HW127359   3.016   1.370   2.971  1.8597  1.4050  0.5603
 5242SOL    HW227360   3.127   1.290   2.935  0.4022 -1.0222  0.9887
 5243SOL     OW27361   3.183   0.967   8.663  0.0036  0.8256 -0.4013
 5243SOL    HW127362   3.111   0.905   8.675  0.5947  0.0681 -0.7485
 5243SOL    HW227363   3.138   1.045   8.696  1.1928  1.4448 -0.2416
 5244SOL     OW27364   4.299   2.481   8.417 -0.1791 -0.0997 -0.0371
 5244SOL    HW127365   4.291   2.511   8.326 -0.1637  0.2539  0.0795
 5244SOL    HW227366   4.212   2.512   8.442 -0.6420  0.6061 -2.4476
 5245SOL     OW27367   2.536   3.447  17.236 -0.1271 -0.2404  0.0406
 5245SOL    HW127368   2.533   3.416  17.146 -0.8885 -0.0151 -0.0118
 5245SOL    HW227369   2.590   3.526  17.227 -0.7261 -0.0797 -2.0565
 5246SOL     OW27370   1.405   0.540   6.367  0.0450  0.1783  0.5129
 5246SOL    HW127371   1.381   0.448   6.367 -1.9285  0.6866 -1.3515
 5246SOL    HW227372   1.488   0.527   6.413 -0.3087 -0.5819  0.9160
 5247SOL     OW27373   2.592   2.285   2.989 -0.1395  0.1128  0.0087
 5247SOL    HW127374   2.593   2.377   3.014 -2.5520  0.5140 -1.2820
 5247SOL    HW227375   2.502   2.270   3.019 -0.4120  0.2767 -0.7191
 5248SOL     OW27376   2.499   1.743   6.962 -0.0408  0.1939  0.0244
 5248SOL    HW127377   2.479   1.774   6.874 -2.0796 -0.9835  0.0834
 5248SOL    HW227378   2.573   1.687   6.935 -0.4430 -0.6612  0.7033
 5249SOL     OW27379   3.953   2.607   7.922 -0.3075  0.3304  0.7854
 5249SOL    HW127380   3.932   2.516   7.903  0.2454 -0.0987  2.2277
 5249SOL    HW227381   3.867   2.645   7.941 -1.4038 -0.8128 -1.9409
 5250SOL     OW27382   4.281   3.192   8.621 -0.0050 -0.0542  0.0679
 5250SOL    HW127383   4.306   3.274   8.579 -0.2497 -1.1820 -2.3194
 5250SOL    HW227384   4.334   3.192   8.701 -0.3783 -0.4779  0.3121
 5251SOL     OW27385   2.978   4.369   8.767  0.2090 -0.1345  0.6402
 5251SOL    HW127386   2.902   4.337   8.718  0.5045 -1.3440  0.9904
 5251SOL    HW227387   3.025   4.289   8.790  0.6407  0.1162  0.6400
 5252SOL     OW27388   2.831   3.144   5.247  0.2991 -0.2110  0.4232
 5252SOL    HW127389   2.902   3.131   5.183 -0.2257 -0.3798 -0.1187
 5252SOL    HW227390   2.821   3.239   5.253  2.4994  0.0084  0.7314
 5253SOL     OW27391   2.896   1.147   1.820 -0.1321 -0.1020  0.1286
 5253SOL    HW127392   2.933   1.060   1.832 -0.8774 -0.4779 -0.2908
 5253SOL    HW227393   2.805   1.118   1.823  0.0150 -0.4788  0.9618
 5254SOL     OW27394   4.130   2.657   2.077  0.0274  0.1472 -0.3583
 5254SOL    HW127395   4.221   2.637   2.056  0.7880  2.0292  1.1105
 5254SOL    HW227396   4.088   2.573   2.059  1.2081 -0.1806 -1.5495
 5255SOL     OW27397   4.382   3.028   3.301  0.5611 -0.1123 -0.2031
 5255SOL    HW127398   4.477   3.015   3.301  0.5289 -0.3588 -0.4248
 5255SOL    HW227399   4.369   3.046   3.394 -2.9837  1.7357 -1.0724
 5256SOL     OW27400   3.364   4.656   5.079 -0.1949  0.0811 -0.3008
 5256SOL    HW127401   3.397   4.701   5.001 -1.0954 -0.0107 -0.7372
 5256SOL    HW227402   3.322   4.729   5.124  2.4149  1.5918 -0.2798
 5257SOL     OW27403   2.060   3.051   6.850 -0.0497  0.7367  0.3884
 5257SOL    HW127404   2.131   3.080   6.908  0.1406 -0.7750  0.9164
 5257SOL    HW227405   2.098   3.064   6.763  0.1666 -1.6025  0.1561
 5258SOL     OW27406   1.107   3.816   2.881  0.5201  0.5335 -0.1282
 5258SOL    HW127407   1.099   3.792   2.973  1.7407 -0.6845 -0.3479
 5258SOL    HW227408   1.018   3.836   2.851  0.9196  0.9961 -1.0207
 5259SOL     OW27409   2.024   0.130   9.036 -0.6101 -0.0076  0.2987
 5259SOL    HW127410   1.993   0.160   9.122  3.0095 -0.1722  1.6555
 5259SOL    HW227411   1.985   0.195   8.979 -1.2259  0.1530  0.9005
 5260SOL     OW27412   0.311   0.954   0.475 -0.0120 -0.2889 -0.3394
 5260SOL    HW127413   0.356   0.878   0.439  0.4734 -0.5604  0.8307
 5260SOL    HW227414   0.379   1.008   0.515 -0.5500 -0.2073  0.4619
 5261SOL     OW27415   2.591   2.089   2.120  0.6119 -0.4964 -0.2562
 5261SOL    HW127416   2.502   2.098   2.153 -0.6360  0.3213 -3.8134
 5261SOL    HW227417   2.628   2.039   2.193  2.3239 -0.3261 -1.0065
 5262SOL     OW27418   0.517   2.424   3.451 -0.3279 -0.0568 -0.4267
 5262SOL    HW127419   0.429   2.394   3.429 -0.1203 -1.0671  0.1432
 5262SOL    HW227420   0.511   2.482   3.527 -1.7887 -1.5320  0.5689
 5263SOL     OW27421   1.249   2.162   3.050 -0.2050 -0.0363 -0.5334
 5263SOL    HW127422   1.191   2.155   2.974  0.9227  2.2848 -1.6167
 5263SOL    HW227423   1.301   2.082   3.044  1.3253  0.9145 -0.0821
 5264SOL     OW27424   2.329   0.802   3.162 -0.1551  0.1317  0.3256
 5264SOL    HW127425   2.246   0.794   3.116  0.0762 -1.3706  0.1714
 5264SOL    HW227426   2.376   0.871   3.116 -1.1133  0.4687 -0.1382
 5265SOL     OW27427   4.103   2.320   6.766  1.1428  0.0734  0.2149
 5265SOL    HW127428   4.039   2.366   6.712  0.8229  0.2118  0.7155
 5265SOL    HW227429   4.042   2.306   6.838  1.2793  0.8353  0.4733
 5266SOL     OW27430   3.754   1.608   4.212 -0.0620 -0.2063  0.4728
 5266SOL    HW127431   3.677   1.663   4.220 -0.1091 -0.0682 -0.9525
 5266SOL    HW227432   3.797   1.606   4.298 -1.6964 -0.9438  1.2742
 5267SOL     OW27433   3.798   4.153   9.431  0.3545 -0.2955  0.1032
 5267SOL    HW127434   3.796   4.143   9.526  0.1736  0.4087  0.1735
 5267SOL    HW227435   3.851   4.075   9.411 -1.0228 -1.3886  0.6792
 5268SOL     OW27436   3.770   4.095   7.324 -0.1407 -0.5113  0.6474
 5268SOL    HW127437   3.799   4.005   7.313 -1.6960 -0.9007 -0.3334
 5268SOL    HW227438   3.851   4.142   7.304 -0.5986 -0.6439 -1.5849
 5269SOL     OW27439   0.829   1.603  15.204  0.0859  0.2992 -0.6917
 5269SOL    HW127440   0.826   1.686  15.158 -0.4364  0.2841 -0.6900
 5269SOL    HW227441   0.903   1.616  15.263 -0.7186  0.4264  0.2911
 5270SOL     OW27442   3.567   3.910   8.461 -0.2277  0.4907  0.3956
 5270SOL    HW127443   3.515   3.984   8.432  1.8084  2.2210  1.1711
 5270SOL    HW227444   3.559   3.856   8.382 -1.0458  3.3900 -1.5121
 5271SOL     OW27445   0.568   1.049  16.326  0.1447  0.3697 -0.2628
 5271SOL    HW127446   0.641   0.999  16.364  0.5862  1.3190  0.1310
 5271SOL    HW227447   0.563   1.008  16.240  1.1205 -1.7532  0.6882
 5272SOL     OW27448   1.153   3.049   3.744 -0.4577  0.5518 -0.2195
 5272SOL    HW127449   1.097   2.976   3.771 -0.4762  0.2997 -0.9523
 5272SOL    HW227450   1.092   3.121   3.730  1.0656  1.9117  0.1643
 5273SOL     OW27451   4.454   4.639  15.844 -0.0837  0.1437  0.6402
 5273SOL    HW127452   4.380   4.699  15.834  0.6293  0.9166 -0.0058
 5273SOL    HW227453   4.512   4.695  15.895 -1.4407  1.6950  0.4868
 5274SOL     OW27454   1.802   3.254   8.331 -0.0291 -0.1661 -0.2151
 5274SOL    HW127455   1.741   3.183   8.310 -0.6489 -0.1055  1.3993
 5274SOL    HW227456   1.787   3.268   8.424 -2.4872  0.3040 -0.6954
 5275SOL     OW27457   4.027   3.914  14.537  0.3284  0.1901 -0.5360
 5275SOL    HW127458   4.103   3.857  14.545  0.2087  0.6106  3.4756
 5275SOL    HW227459   4.044   3.970  14.461  2.1014 -0.9455 -0.9802
 5276SOL     OW27460   3.849   1.712   5.870 -0.6647  0.0814  0.9735
 5276SOL    HW127461   3.804   1.790   5.901 -0.2857  0.3520  0.8352
 5276SOL    HW227462   3.907   1.710   5.947  0.0354 -1.2028  0.4182
 5277SOL     OW27463   3.488   0.053   2.076 -0.2459  0.1984  0.0646
 5277SOL    HW127464   3.408   0.101   2.056 -1.2405 -2.1531 -1.4739
 5277SOL    HW227465   3.540   0.071   1.998 -0.3445  0.4326  0.0509
 5278SOL     OW27466   4.637   4.578   7.511 -0.0657  0.7328 -0.4743
 5278SOL    HW127467   4.641   4.485   7.535  1.1792  0.3890 -2.0223
 5278SOL    HW227468   4.542   4.590   7.511 -0.2019 -0.3514  0.4693
 5279SOL     OW27469   3.060   3.158   3.727 -0.0747  0.1857 -0.0979
 5279SOL    HW127470   3.057   3.156   3.631 -1.4846 -1.7027 -0.0160
 5279SOL    HW227471   2.977   3.117   3.752 -0.7391 -0.0081 -2.5911
 5280SOL     OW27472   3.636   2.621   1.721 -0.0442 -0.0265  0.0178
 5280SOL    HW127473   3.710   2.652   1.773 -0.0620  0.8703 -0.4966
 5280SOL    HW227474   3.567   2.658   1.776  1.3955 -0.0370  1.8592
 5281SOL     OW27475   2.374   0.888   1.352  0.3978  0.0164  0.7791
 5281SOL    HW127476   2.420   0.811   1.320  0.2066  0.4524 -0.5439
 5281SOL    HW227477   2.324   0.915   1.275  3.1475  1.1541 -0.5784
 5282SOL     OW27478   0.029   3.432   5.950  0.3563  0.1965  0.2074
 5282SOL    HW127479   4.676   3.459   5.954  0.7521  1.6970 -0.7260
 5282SOL    HW227480   0.061   3.506   5.898 -0.1133 -0.1465 -0.5676
 5283SOL     OW27481   4.032   4.225  15.091  0.0345 -0.4471 -0.0670
 5283SOL    HW127482   4.085   4.173  15.152 -2.6133 -2.5069  0.5196
 5283SOL    HW227483   4.098   4.284  15.055  0.3876 -1.2908 -0.7983
 5284SOL     OW27484   0.672   4.352   3.470 -0.0022  0.4231  0.7769
 5284SOL    HW127485   0.719   4.279   3.510 -1.7281  0.3416  2.6550
 5284SOL    HW227486   0.726   4.392   3.402  0.2843 -0.1739  0.6601
 5285SOL     OW27487   2.407   1.884   7.198  0.6018  0.0450 -0.2449
 5285SOL    HW127488   2.418   1.814   7.134 -0.0267 -0.4211  0.1536
 5285SOL    HW227489   2.315   1.911   7.193  0.6661  0.5136  0.9777
 5286SOL     OW27490   1.172   2.878   6.225  0.6159  0.3583  0.2644
 5286SOL    HW127491   1.256   2.834   6.213  0.4297 -0.1389  0.7398
 5286SOL    HW227492   1.154   2.912   6.137 -0.8094 -0.4077  0.2488
 5287SOL     OW27493   3.777   3.794   4.851  0.4891  0.5373  0.1197
 5287SOL    HW127494   3.864   3.819   4.820  0.0863 -0.5206 -1.8566
 5287SOL    HW227495   3.728   3.869   4.818 -0.7599 -0.4439 -0.2191
 5288SOL     OW27496   1.823   0.586  17.102 -0.6004  0.3048 -0.4809
 5288SOL    HW127497   1.906   0.632  17.089 -0.0523  0.0092  1.8827
 5288SOL    HW227498   1.772   0.648  17.154  2.2917 -0.0419  2.8325
 5289SOL     OW27499   3.641   2.019   1.772  0.1526  0.1950  0.5680
 5289SOL    HW127500   3.562   2.046   1.819  0.3483  2.8747 -0.6420
 5289SOL    HW227501   3.717   2.044   1.824  0.5079  2.5666 -1.0695
 5290SOL     OW27502   0.575   4.059   5.510 -0.1663 -0.2131  0.1576
 5290SOL    HW127503   0.569   4.154   5.505  0.0333 -0.1719  0.6458
 5290SOL    HW227504   0.670   4.049   5.512 -0.2499 -0.8942  1.0046
 5291SOL     OW27505   2.929   0.169   4.602 -0.0795  0.3681  0.2462
 5291SOL    HW127506   2.962   0.237   4.661  1.4500 -0.8398  0.7757
 5291SOL    HW227507   2.950   0.086   4.646  0.6738  0.6507  0.4172
 5292SOL     OW27508   3.252   2.456   9.943 -0.1045 -0.5374  0.0940
 5292SOL    HW127509   3.227   2.406  10.021  1.0716 -0.2564  0.6512
 5292SOL    HW227510   3.214   2.543   9.957 -1.9201 -1.1520 -0.9156
 5293SOL     OW27511   2.456   3.459   3.026  0.2322 -0.1840  0.3732
 5293SOL    HW127512   2.431   3.474   2.935  1.3813  0.8068  0.2112
 5293SOL    HW227513   2.532   3.517   3.030 -0.6392  0.9476  0.4392
 5294SOL     OW27514   2.415   4.306   3.637  0.2587  0.2959 -0.3626
 5294SOL    HW127515   2.417   4.318   3.732 -1.4020 -0.1185 -0.2616
 5294SOL    HW227516   2.325   4.331   3.613  0.7462  3.0629  0.8242
 5295SOL     OW27517   2.640   4.638   6.212  0.3192  0.3765  0.3826
 5295SOL    HW127518   2.685   4.607   6.134 -2.3013 -2.2392 -0.0982
 5295SOL    HW227519   2.690   4.719   6.220  1.1825 -0.3126  1.8985
 5296SOL     OW27520   4.649   0.873  13.939 -0.1724 -0.0024  0.1200
 5296SOL    HW127521   4.680   0.962  13.959 -1.4594  0.3663  0.4374
 5296SOL    HW227522   4.641   0.841  14.029 -1.2295  0.8309  0.3210
 5297SOL     OW27523   4.504   2.109   6.044  0.3926  0.1206 -0.0781
 5297SOL    HW127524   4.506   2.154   6.129  0.8072  0.1960 -0.1285
 5297SOL    HW227525   4.518   2.181   5.982 -0.9352  0.6042  0.1757
 5298SOL     OW27526   4.050   2.210  12.256 -0.4311  0.6384 -0.2412
 5298SOL    HW127527   4.039   2.304  12.266 -1.5773  0.2428  2.1680
 5298SOL    HW227528   3.994   2.203  12.178  0.2447  1.1065 -0.7671
 5299SOL     OW27529   2.213   0.068   5.319  0.5092  0.0241 -0.5916
 5299SOL    HW127530   2.163   0.145   5.346 -0.6198 -0.8354 -0.2227
 5299SOL    HW227531   2.216   0.063   5.224 -1.3320 -1.1722 -0.5936
 5300SOL     OW27532   1.343   0.482   2.521 -0.3498 -0.6837  0.3883
 5300SOL    HW127533   1.349   0.395   2.562  1.4467 -0.7975 -0.1043
 5300SOL    HW227534   1.292   0.529   2.586 -0.0869  1.5234 -1.0000
 5301SOL     OW27535   0.148   3.856  13.648 -0.1405  0.1018  0.8735
 5301SOL    HW127536   0.131   3.868  13.741  1.0986 -1.3412  1.2933
 5301SOL    HW227537   0.067   3.818  13.614  0.6805 -1.3853  0.6087
 5302SOL     OW27538   4.535   4.339   3.140  0.3455  0.3772 -0.0691
 5302SOL    HW127539   4.519   4.269   3.075  0.5382  0.4247 -0.1670
 5302SOL    HW227540   4.544   4.422   3.094 -4.8215  1.1417  0.3130
 5303SOL     OW27541   2.341   1.114  11.529  0.0300 -0.0668 -0.3022
 5303SOL    HW127542   2.396   1.073  11.596  1.1953  1.6205 -0.2059
 5303SOL    HW227543   2.388   1.197  11.517 -3.0867  1.7187 -0.2195
 5304SOL     OW27544   0.460   3.151  15.450 -0.1781  0.0091  0.2618
 5304SOL    HW127545   0.504   3.236  15.455  0.9641 -0.5365 -0.2873
 5304SOL    HW227546   0.515   3.093  15.504 -3.0414 -1.6255  1.3805
 5305SOL     OW27547   3.531   4.448  15.336  0.0343 -0.1661  0.1244
 5305SOL    HW127548   3.623   4.440  15.310  0.1728  1.7322  0.0337
 5305SOL    HW227549   3.540   4.454  15.431  2.8306 -0.2149 -0.1521
 5306SOL     OW27550   3.691   4.239  12.961  0.0653 -0.0126 -0.0639
 5306SOL    HW127551   3.748   4.202  13.029 -0.9607 -2.7150 -0.6975
 5306SOL    HW227552   3.612   4.188  12.978 -0.1230  1.3660  3.2517
 5307SOL     OW27553   0.766   4.331   2.739 -0.4468  0.0305  0.4517
 5307SOL    HW127554   0.775   4.426   2.743 -0.9616  0.1126 -0.3623
 5307SOL    HW227555   0.711   4.312   2.815  0.3862  0.6186  1.1968
 5308SOL     OW27556   0.550   1.460  15.597 -0.3295  0.0838  0.5025
 5308SOL    HW127557   0.608   1.534  15.615 -1.7171  0.7756  2.1505
 5308SOL    HW227558   0.610   1.402  15.549  0.8599  0.6542  1.3152
 5309SOL     OW27559   2.420   0.541  15.406 -0.1499  0.9172 -0.0000
 5309SOL    HW127560   2.411   0.608  15.474 -3.0295 -2.8631  3.3283
 5309SOL    HW227561   2.514   0.542  15.386 -0.0563 -1.5751  0.3845
 5310SOL     OW27562   1.279   0.988   4.421  0.4551 -0.0456  0.4195
 5310SOL    HW127563   1.243   0.902   4.444  0.1500  0.4045  1.6132
 5310SOL    HW227564   1.363   0.960   4.386  0.5675 -0.3803  0.9577
 5311SOL     OW27565   3.431   0.300  13.269 -0.3189  0.0139 -0.7023
 5311SOL    HW127566   3.510   0.302  13.323 -0.1833  1.6485 -0.9657
 5311SOL    HW227567   3.458   0.296  13.177  1.1214  1.9767 -0.3710
 5312SOL     OW27568   4.546   2.982   5.227  0.0785  0.7329 -0.0764
 5312SOL    HW127569   4.566   2.980   5.133 -2.4349  1.4974 -0.6203
 5312SOL    HW227570   4.633   2.985   5.266  0.0855 -1.1046  0.0168
 5313SOL     OW27571   2.879   2.980  17.278  0.5278 -0.0700 -0.3036
 5313SOL    HW127572   2.805   2.963  17.219 -0.6004  1.8241  0.5980
 5313SOL    HW227573   2.888   3.075  17.269 -0.6381  0.0927  0.2252
 5314SOL     OW27574   0.474   3.946   5.240  0.0688  0.1340  0.1815
 5314SOL    HW127575   0.526   3.871   5.209 -1.3640 -0.2213 -1.4021
 5314SOL    HW227576   0.449   3.927   5.330  0.7400 -4.2650 -0.5123
 5315SOL     OW27577   1.042   4.641   2.536  0.1390  0.3131  0.0837
 5315SOL    HW127578   1.060   4.607   2.449  1.4151  0.7775  0.1630
 5315SOL    HW227579   1.091   4.573   2.583  1.5921  0.4897 -1.1672
 5316SOL     OW27580   2.007   3.038  13.300 -0.1920 -0.2805  0.6215
 5316SOL    HW127581   2.069   3.004  13.235  0.9439 -1.1449  2.1417
 5316SOL    HW227582   1.965   3.105  13.247 -1.2705 -0.6268  1.0351
 5317SOL     OW27583   4.212   0.024   2.516 -0.2910 -0.7091  0.2689
 5317SOL    HW127584   4.161   4.687   2.487 -0.7472 -0.2939 -0.0199
 5317SOL    HW227585   4.171   0.040   2.601  0.2372  0.6830  0.2703
 5318SOL     OW27586   1.639   2.089   1.150  0.0828  0.2129 -0.0845
 5318SOL    HW127587   1.718   2.035   1.156  0.0362  0.3584  1.8855
 5318SOL    HW227588   1.657   2.141   1.072 -1.0582 -1.1344 -1.2470
 5319SOL     OW27589   1.840   0.746   7.974  0.3798  0.4195  0.2108
 5319SOL    HW127590   1.812   0.710   8.058 -0.4792 -0.6857 -0.5558
 5319SOL    HW227591   1.756   0.789   7.958  1.5455  2.0561 -1.4996
 5320SOL     OW27592   1.306   4.414  13.056 -0.1129  0.3300 -0.1183
 5320SOL    HW127593   1.230   4.430  12.999 -0.7362 -1.3504  0.2541
 5320SOL    HW227594   1.259   4.448  13.132 -1.6680 -1.8771 -0.1007
 5321SOL     OW27595   1.290   1.923  12.287 -0.6639 -0.1647  0.4489
 5321SOL    HW127596   1.252   2.009  12.272  0.2287  0.2578  0.6344
 5321SOL    HW227597   1.241   1.900  12.366 -1.6054 -0.6712 -0.2816
 5322SOL     OW27598   0.255   0.928   5.515  0.1026  0.3028  0.2681
 5322SOL    HW127599   0.304   0.876   5.452  0.8801  1.0292  0.2837
 5322SOL    HW227600   0.168   0.908   5.479  0.9650  0.6564 -2.0036
 5323SOL     OW27601   2.226   4.186   7.765  0.1936 -0.6014 -0.2641
 5323SOL    HW127602   2.322   4.183   7.758  0.4199  2.0561  1.8243
 5323SOL    HW227603   2.202   4.248   7.697  0.1584  0.3966  0.6698
 5324SOL     OW27604   4.629   3.743  17.099 -0.3996 -0.5111 -0.1995
 5324SOL    HW127605   4.578   3.677  17.052 -1.0542  0.0511 -0.2769
 5324SOL    HW227606   4.716   3.725  17.063 -0.8639 -0.0310 -1.5854
 5325SOL     OW27607   3.196   4.426   5.632 -0.1913  0.0504  0.0650
 5325SOL    HW127608   3.289   4.404   5.636  0.0252  1.4740  2.6007
 5325SOL    HW227609   3.209   4.515   5.665  2.5628  0.1554 -1.2716
 5326SOL     OW27610   0.118   0.588  10.637 -0.0873 -0.3244  0.1943
 5326SOL    HW127611   0.142   0.678  10.618 -0.6587  0.0271  1.1832
 5326SOL    HW227612   0.029   0.600  10.670 -0.7386 -0.0385 -1.6264
 5327SOL     OW27613   2.935   0.570   6.780 -0.0268 -0.2793 -0.1029
 5327SOL    HW127614   2.853   0.618   6.769  0.5538  0.5960 -0.6034
 5327SOL    HW227615   2.928   0.560   6.875  0.1156  0.1058 -0.0558
 5328SOL     OW27616   2.915   1.022   4.040  0.0481  0.3348 -0.4991
 5328SOL    HW127617   2.941   1.101   4.088 -0.3668  0.4107 -0.3952
 5328SOL    HW227618   2.953   1.039   3.953  0.2823 -1.6026 -0.7657
 5329SOL     OW27619   1.248   3.612   7.575  0.2014 -0.0304  0.2470
 5329SOL    HW127620   1.332   3.656   7.557 -0.0749  0.0717 -0.7626
 5329SOL    HW227621   1.251   3.622   7.670 -3.6741  0.2488  0.3182
 5330SOL     OW27622   1.545   4.027   0.848  0.5942  0.1657 -0.4547
 5330SOL    HW127623   1.593   4.108   0.863  2.1874 -0.5996 -1.3506
 5330SOL    HW227624   1.464   4.039   0.897  0.8133  0.0890 -0.0714
 5331SOL     OW27625   1.317   3.555   6.226 -0.1355  0.3318  0.1973
 5331SOL    HW127626   1.248   3.490   6.237 -0.8237  1.4770  2.6862
 5331SOL    HW227627   1.254   3.621   6.196 -3.7697 -2.1282  2.4005
 5332SOL     OW27628   3.922   0.492   3.426 -0.2955  0.1623 -0.1336
 5332SOL    HW127629   3.976   0.461   3.353 -0.6396  0.6077 -0.5764
 5332SOL    HW227630   3.846   0.533   3.386  0.2908  0.7679 -0.6319
 5333SOL     OW27631   2.934   2.762   7.540  0.0053  0.1923 -0.5060
 5333SOL    HW127632   2.997   2.704   7.496 -0.3777  1.0631 -2.1694
 5333SOL    HW227633   2.858   2.742   7.486  0.3785  0.5519 -1.1556
 5334SOL     OW27634   2.322   2.976   5.954 -0.5363  0.4119  0.6540
 5334SOL    HW127635   2.379   2.989   6.029  1.6591  0.4210 -1.0296
 5334SOL    HW227636   2.368   2.898   5.925  0.3926  1.4389 -0.6582
 5335SOL     OW27637   0.457   0.427   6.108  0.2509 -0.3077 -0.6193
 5335SOL    HW127638   0.515   0.424   6.184  1.1472 -2.5463 -1.3928
 5335SOL    HW227639   0.509   0.484   6.052 -0.1809 -0.6222 -1.3413
 5336SOL     OW27640   1.746   0.336   4.650 -0.3170  0.4813  0.6070
 5336SOL    HW127641   1.676   0.286   4.607  0.2406  0.5165 -0.3599
 5336SOL    HW227642   1.709   0.366   4.733 -1.0521  0.6807  0.2093
 5337SOL     OW27643   1.237   0.590   7.577 -0.3043  0.9791  0.4812
 5337SOL    HW127644   1.263   0.682   7.576  3.1835 -0.0304 -2.0420
 5337SOL    HW227645   1.295   0.557   7.646 -0.1099  2.9594  1.2876
 5338SOL     OW27646   3.227   3.377   8.662 -0.7521 -0.1813  0.1332
 5338SOL    HW127647   3.282   3.444   8.620 -0.4809  0.0322  0.8177
 5338SOL    HW227648   3.201   3.427   8.740  2.0024 -0.0734  0.9849
 5339SOL     OW27649   3.854   3.644   3.692  0.6020 -0.1270 -0.6876
 5339SOL    HW127650   3.882   3.585   3.623  0.9892  0.4514 -1.0260
 5339SOL    HW227651   3.834   3.728   3.650  0.0781  0.3613  0.5261
 5340SOL     OW27652   0.410   0.933  14.720 -0.2253 -0.3619  0.4037
 5340SOL    HW127653   0.421   0.866  14.652  1.1633 -1.9337  2.1750
 5340SOL    HW227654   0.345   0.891  14.777  0.0885  0.5401  1.4029
 5341SOL     OW27655   2.884   2.880  17.649  0.1969 -0.7902  0.4666
 5341SOL    HW127656   2.948   2.907  17.715 -0.4872  2.2691 -0.1373
 5341SOL    HW227657   2.807   2.936  17.664  0.7063 -0.2966  1.2451
 5342SOL     OW27658   1.928   2.991  11.619  0.0144  0.0369 -0.4953
 5342SOL    HW127659   2.013   3.034  11.613 -1.6300  3.2379 -0.7815
 5342SOL    HW227660   1.883   3.021  11.698  0.8647  2.1242 -0.8124
 5343SOL     OW27661   1.423   3.780   3.226 -0.0463 -0.3221 -0.6188
 5343SOL    HW127662   1.468   3.817   3.150 -0.1027 -1.4832 -1.2338
 5343SOL    HW227663   1.393   3.700   3.182 -0.8671  1.0100 -2.4672
 5344SOL     OW27664   3.779   4.605   6.300 -0.5626  0.3215 -0.0531
 5344SOL    HW127665   3.754   4.652   6.221 -0.0775  1.4483  0.4732
 5344SOL    HW227666   3.714   4.636   6.364 -2.5743 -0.6612 -1.5988
 5345SOL     OW27667   0.826   0.586   7.240 -0.1138  0.0926 -0.1541
 5345SOL    HW127668   0.913   0.548   7.232  0.1696  0.8872 -0.9477
 5345SOL    HW227669   0.787   0.527   7.304  0.3986  0.1679  0.2254
 5346SOL     OW27670   4.300   3.070   6.471 -0.3615  0.5616  0.1810
 5346SOL    HW127671   4.377   3.124   6.452 -0.2886  0.3296 -0.1959
 5346SOL    HW227672   4.237   3.131   6.434 -0.9406  1.0842  2.0357
 5347SOL     OW27673   3.293   2.230   4.636  0.0880 -0.5991 -0.1243
 5347SOL    HW127674   3.318   2.163   4.572 -1.5369  3.0020 -4.5189
 5347SOL    HW227675   3.373   2.247   4.684 -0.6262 -1.3514  1.3377
 5348SOL     OW27676   3.501   2.582   6.824  0.0524 -0.0507 -0.5662
 5348SOL    HW127677   3.440   2.628   6.766 -1.3946 -0.2342  0.8044
 5348SOL    HW227678   3.545   2.526   6.761  1.6290 -0.9725  1.3591
 5349SOL     OW27679   2.904   0.327   8.304  0.1702  0.1473 -0.1633
 5349SOL    HW127680   2.822   0.294   8.341  0.1671  0.9888  0.5828
 5349SOL    HW227681   2.883   0.309   8.212 -0.6023  0.6404 -0.0901
 5350SOL     OW27682   1.402   4.267  10.693  0.4865  0.1723 -0.3933
 5350SOL    HW127683   1.359   4.294  10.774  0.8017  0.5323 -0.3422
 5350SOL    HW227684   1.397   4.349  10.643 -0.6628  0.3196 -0.0299
 5351SOL     OW27685   4.572   1.344  17.374 -0.3800  0.1694 -0.3003
 5351SOL    HW127686   4.576   1.413  17.308  0.7139 -0.0816 -0.4921
 5351SOL    HW227687   4.636   1.381  17.434  0.3540  0.3771 -1.2251
 5352SOL     OW27688   0.275   4.169   5.992 -0.0010 -0.2169  0.7772
 5352SOL    HW127689   0.275   4.104   5.921 -0.8082 -0.1990  0.7540
 5352SOL    HW227690   0.336   4.234   5.959  1.7118 -1.9653  0.5061
 5353SOL     OW27691   0.801   2.377   4.337 -0.0219  0.5113  0.4474
 5353SOL    HW127692   0.755   2.340   4.262  1.5047 -1.6311  0.5553
 5353SOL    HW227693   0.880   2.407   4.291  0.4444 -1.1229  0.1754
 5354SOL     OW27694   3.806   2.284   3.933  0.0616 -0.2679 -0.7514
 5354SOL    HW127695   3.747   2.355   3.910 -1.0799 -1.0364 -0.1472
 5354SOL    HW227696   3.832   2.252   3.847 -0.3817 -1.2858 -0.5069
 5355SOL     OW27697   1.384   4.710  14.311 -0.1025 -0.7506 -0.1137
 5355SOL    HW127698   1.362   4.668  14.228  0.6386  1.4562 -1.4173
 5355SOL    HW227699   1.479   4.702  14.312  0.0266  0.7725 -0.6867
 5356SOL     OW27700   0.825   3.463   8.673  0.1290  0.8428  0.1187
 5356SOL    HW127701   0.904   3.516   8.669  0.0276  1.0307  0.6364
 5356SOL    HW227702   0.767   3.510   8.732 -2.4559 -0.7334 -1.1644
 5357SOL     OW27703   2.349   1.488  10.608  0.2222 -0.6532  0.0450
 5357SOL    HW127704   2.288   1.530  10.669 -0.0836 -0.0510 -0.6760
 5357SOL    HW227705   2.433   1.489  10.654 -0.4963  2.9005  1.2279
 5358SOL     OW27706   0.026   0.311   0.012 -0.0573 -0.0950  0.8163
 5358SOL    HW127707   0.069   0.349   0.089  0.0764 -0.4292  0.9015
 5358SOL    HW227708   0.082   0.334  17.692  1.5028  0.5052  2.1965
 5359SOL     OW27709   3.634   2.530  16.188 -0.4204  0.1503 -0.0522
 5359SOL    HW127710   3.667   2.598  16.130 -1.0941 -1.4758 -2.3130
 5359SOL    HW227711   3.570   2.574  16.243  0.8489  1.1544  0.6241
 5360SOL     OW27712   1.110   2.884   6.506 -0.3563 -0.6890 -0.4688
 5360SOL    HW127713   1.102   2.979   6.519 -1.4445 -0.3990 -3.1065
 5360SOL    HW227714   1.145   2.890   6.417 -0.3985 -1.9764 -0.5599
 5361SOL     OW27715   1.089   4.521   2.825  0.1705  0.1283 -0.1316
 5361SOL    HW127716   1.154   4.569   2.875 -0.8245  1.2453  0.1024
 5361SOL    HW227717   1.143   4.495   2.750  0.6050  2.4318 -0.6256
 5362SOL     OW27718   4.155   3.033   8.451  0.4425  0.1490  0.5158
 5362SOL    HW127719   4.162   2.946   8.490 -0.0370 -0.2583 -0.3014
 5362SOL    HW227720   4.200   3.085   8.517 -0.5653  0.5682  0.8756
 5363SOL     OW27721   0.987   1.580   1.046 -0.0529  0.1772 -0.3245
 5363SOL    HW127722   0.936   1.636   0.987 -0.3521  0.6387  0.3689
 5363SOL    HW227723   0.959   1.489   1.038 -1.4001  0.4161  1.8791
 5364SOL     OW27724   3.116   2.167   2.300  0.0140  0.0663  0.8172
 5364SOL    HW127725   3.031   2.145   2.339  0.8731 -1.4449  1.8605
 5364SOL    HW227726   3.137   2.253   2.336 -2.0543  1.5086 -1.4794
 5365SOL     OW27727   0.405   0.519  15.527 -0.0788  0.3248 -0.2133
 5365SOL    HW127728   0.419   0.610  15.554 -1.7707 -0.0966  2.1312
 5365SOL    HW227729   0.444   0.526  15.440  0.7905 -0.6442  0.1047
 5366SOL     OW27730   2.912   1.717   7.310 -0.2846 -0.2769 -0.3815
 5366SOL    HW127731   2.878   1.789   7.257 -2.5132 -1.1422 -0.1329
 5366SOL    HW227732   2.835   1.691   7.360  3.1303 -1.3768  4.3583
 5367SOL     OW27733   1.857   2.589   2.731 -0.5162 -0.0931 -0.4657
 5367SOL    HW127734   1.943   2.627   2.714 -0.8200  0.0739 -1.6390
 5367SOL    HW227735   1.856   2.588   2.827 -2.0294  0.6094 -0.4621
 5368SOL     OW27736   4.425   3.836  11.388  0.1244  0.2746  0.5447
 5368SOL    HW127737   4.426   3.924  11.351 -0.0578  0.7472  1.6821
 5368SOL    HW227738   4.335   3.828  11.420 -0.1100 -1.7192 -0.5557
 5369SOL     OW27739   0.133   0.482   5.214 -0.1123 -0.1869  0.1695
 5369SOL    HW127740   0.188   0.404   5.221 -1.2561 -1.0061  0.0858
 5369SOL    HW227741   0.050   0.441   5.238 -0.4817  1.2491  1.3792
 5370SOL     OW27742   2.686   4.206   7.015  0.2229  0.2579 -0.2545
 5370SOL    HW127743   2.696   4.198   6.920 -0.4729  0.9400 -0.3777
 5370SOL    HW227744   2.769   4.168   7.045 -0.8106 -0.9602  1.0611
 5371SOL     OW27745   0.728   0.208   7.917 -0.5013 -0.3819  0.5808
 5371SOL    HW127746   0.805   0.258   7.891 -2.5183  2.6283  0.3359
 5371SOL    HW227747   0.717   0.164   7.833  1.1360 -1.8150  1.1228
 5372SOL     OW27748   4.719   0.517   4.602 -0.1585 -0.0948  0.1111
 5372SOL    HW127749   0.018   0.479   4.681 -0.0896 -2.3271 -0.9961
 5372SOL    HW227750   0.021   0.475   4.527  2.1431  0.3273  1.1251
 5373SOL     OW27751   3.870   2.983   2.593  0.4604  0.0916 -0.0118
 5373SOL    HW127752   3.961   3.008   2.574  1.2065 -0.7679  2.3736
 5373SOL    HW227753   3.885   2.888   2.599 -0.0610 -0.0336 -0.7817
 5374SOL     OW27754   4.235   0.814   2.425  0.2034 -0.6452 -0.2303
 5374SOL    HW127755   4.272   0.732   2.393 -0.2929 -1.8137  2.1763
 5374SOL    HW227756   4.224   0.861   2.343  1.7440  0.0645 -0.0382
 5375SOL     OW27757   1.349   0.489   0.270  0.0916  0.1907 -0.5687
 5375SOL    HW127758   1.310   0.423   0.212  1.2532  0.2646 -1.4428
 5375SOL    HW227759   1.282   0.496   0.338 -1.0868 -0.1947 -1.6864
 5376SOL     OW27760   4.357   1.913   3.670 -0.2674 -0.4514  0.3335
 5376SOL    HW127761   4.434   1.910   3.614  0.8386 -0.2906  1.8392
 5376SOL    HW227762   4.289   1.952   3.614 -1.9717 -0.4886  2.3558
 5377SOL     OW27763   3.344   0.350   3.737 -0.5476  0.1321 -0.0673
 5377SOL    HW127764   3.373   0.431   3.780 -0.5278 -1.2289  2.4902
 5377SOL    HW227765   3.351   0.375   3.645 -1.3056 -0.1339 -0.1901
 5378SOL     OW27766   3.821   1.053   8.522  0.2915 -0.5743 -0.4861
 5378SOL    HW127767   3.782   0.997   8.588 -0.9760 -1.5881 -2.0999
 5378SOL    HW227768   3.906   1.076   8.560  0.5676  0.8322 -1.9339
 5379SOL     OW27769   1.338   1.673   8.359 -0.1429 -0.0979  0.6815
 5379SOL    HW127770   1.324   1.579   8.371 -0.7321  0.3164  3.1666
 5379SOL    HW227771   1.371   1.697   8.446  0.0854  0.8899  0.3223
 5380SOL     OW27772   1.433   0.844   2.704 -0.4288 -0.5541 -0.2858
 5380SOL    HW127773   1.475   0.833   2.789 -0.4434  0.0243 -0.2088
 5380SOL    HW227774   1.435   0.939   2.708  1.9741 -0.6434  0.6268
 5381SOL     OW27775   0.028   2.190   2.403  0.9902 -0.3265  0.2200
 5381SOL    HW127776   4.727   2.260   2.454  1.9194  0.4019 -0.0455
 5381SOL    HW227777   0.117   2.192   2.440  1.4306  0.3757 -0.8809
 5382SOL     OW27778   3.732   0.904   5.292  0.9764  0.7838  0.2128
 5382SOL    HW127779   3.737   0.813   5.264 -2.4653  0.9434 -0.9241
 5382SOL    HW227780   3.810   0.914   5.347  0.3935  2.1880  0.7735
 5383SOL     OW27781   4.636   0.882   5.768 -0.5069 -0.1437  0.0012
 5383SOL    HW127782   4.688   0.918   5.840 -0.8441  0.4163 -0.0359
 5383SOL    HW227783   4.596   0.962   5.734  0.3569  0.7016  0.9963
 5384SOL     OW27784   0.590   3.093   6.809  0.0013  0.3128 -0.0388
 5384SOL    HW127785   0.672   3.052   6.779  0.1898 -0.9002  2.0809
 5384SOL    HW227786   0.624   3.168   6.857  0.0791  0.5999 -0.5478
 5385SOL     OW27787   2.211   0.250   2.289  0.4776 -0.1681 -0.1258
 5385SOL    HW127788   2.143   0.209   2.343 -1.7788  3.5870 -0.1523
 5385SOL    HW227789   2.163   0.280   2.212 -0.9417 -0.8256  0.4953
 5386SOL     OW27790   0.854   3.522   7.654 -1.1942 -0.0186  0.0592
 5386SOL    HW127791   0.774   3.475   7.631 -0.7885 -0.2929 -0.7778
 5386SOL    HW227792   0.857   3.510   7.749 -2.1517 -0.1034  0.0712
 5387SOL     OW27793   0.783   3.900  13.205  0.1788 -0.0328 -0.6221
 5387SOL    HW127794   0.812   3.830  13.147 -2.9537 -1.3540 -0.6063
 5387SOL    HW227795   0.839   3.969  13.169  0.1289  0.1258 -0.4030
 5388SOL     OW27796   1.222   0.194  15.049  0.7982 -0.0554  0.0054
 5388SOL    HW127797   1.242   0.233  14.964  2.3116 -0.8898 -0.0205
 5388SOL    HW227798   1.302   0.149  15.076 -0.9854 -3.0377  0.3533
 5389SOL     OW27799   2.712   0.042   3.018 -0.2245 -0.5095 -0.3040
 5389SOL    HW127800   2.655   0.050   2.942  0.9348  2.4598 -0.8692
 5389SOL    HW227801   2.769   4.708   2.995  0.6561  0.4081 -1.0483
 5390SOL     OW27802   2.374   4.683   6.501  0.7273  1.0574 -0.9318
 5390SOL    HW127803   2.425   0.013   6.459  0.1160  0.7632 -2.1474
 5390SOL    HW227804   2.395   4.606   6.447 -0.4315 -0.5002  0.8616
 5391SOL     OW27805   2.944   1.011  14.401  0.1750 -0.0304 -0.2059
 5391SOL    HW127806   2.932   0.916  14.391 -0.0654 -0.0734  0.4981
 5391SOL    HW227807   2.906   1.038  14.317  3.3141  1.6059 -1.0574
 5392SOL     OW27808   2.915   0.803   6.496 -0.3579  0.7140  0.4852
 5392SOL    HW127809   3.005   0.795   6.529 -0.4037  0.0067  0.4508
 5392SOL    HW227810   2.894   0.888   6.535 -2.0221  0.2479  0.6331
 5393SOL     OW27811   1.841   3.391   4.463  0.1984  0.8703  0.2590
 5393SOL    HW127812   1.862   3.471   4.512 -1.3581  1.2077  0.4004
 5393SOL    HW227813   1.822   3.435   4.380  0.8437 -1.0430 -0.8994
 5394SOL     OW27814   2.262   3.725   4.905 -0.3343 -0.1017 -0.1466
 5394SOL    HW127815   2.288   3.649   4.853  1.2794  0.1691  0.2771
 5394SOL    HW227816   2.183   3.763   4.867 -1.3421  0.9857  3.0040
 5395SOL     OW27817   2.674   2.170   5.107 -0.0119  0.8566  0.0665
 5395SOL    HW127818   2.732   2.195   5.180  0.6720 -0.6774  0.0558
 5395SOL    HW227819   2.598   2.146   5.161 -0.6276 -0.2467 -1.2911
 5396SOL     OW27820   0.043   0.521   3.764  0.0548  0.3248  0.6308
 5396SOL    HW127821   4.720   0.567   3.821 -1.0273  1.1203 -1.1646
 5396SOL    HW227822   0.052   0.584   3.692  1.7090 -2.9045 -1.9593
 5397SOL     OW27823   1.382   1.748   2.086  0.7289 -0.5027 -0.5424
 5397SOL    HW127824   1.405   1.785   2.001 -0.0653  1.7040  0.1978
 5397SOL    HW227825   1.346   1.661   2.073 -0.0388 -0.2181 -0.3287
 5398SOL     OW27826   0.402   3.811   3.979 -0.5154 -0.0310  0.1097
 5398SOL    HW127827   0.351   3.883   4.016  0.6077  0.5787  0.4595
 5398SOL    HW227828   0.475   3.797   4.039  1.4904 -1.9637 -2.7676
 5399SOL     OW27829   3.357   1.209  10.405  0.1002 -0.2115 -0.0204
 5399SOL    HW127830   3.343   1.219  10.311 -0.9624  2.3508  0.4092
 5399SOL    HW227831   3.368   1.114  10.401 -0.1886 -0.2023 -1.0232
 5400SOL     OW27832   2.963   2.933   6.191 -0.2407 -0.5750 -0.4354
 5400SOL    HW127833   2.923   2.900   6.272  0.4855 -0.8152 -0.1756
 5400SOL    HW227834   2.960   2.858   6.131 -1.7744 -0.4825 -0.4844
 5401SOL     OW27835   4.178   4.087   3.060  0.3160  0.2212 -0.1197
 5401SOL    HW127836   4.234   4.160   3.085  0.0946  0.6081 -0.7453
 5401SOL    HW227837   4.244   4.017   3.060 -0.1096 -0.1741  1.0725
 5402SOL     OW27838   4.045   0.486  13.152  0.0312  0.8409  0.0487
 5402SOL    HW127839   4.057   0.461  13.060 -0.7092 -0.3224  0.2755
 5402SOL    HW227840   3.965   0.437  13.170 -0.4429  0.5271 -2.8093
 5403SOL     OW27841   1.420   0.470  13.288  0.2315  0.1423  0.4257
 5403SOL    HW127842   1.465   0.513  13.215 -1.4812  0.4705 -0.4186
 5403SOL    HW227843   1.404   0.542  13.349  0.5162  0.5944 -0.0325
 5404SOL     OW27844   1.265   1.177  16.560  0.0494  0.2154 -0.2653
 5404SOL    HW127845   1.348   1.131  16.546 -0.9021 -1.1562 -1.4158
 5404SOL    HW227846   1.223   1.138  16.484  1.4836 -1.0748 -0.4052
 5405SOL     OW27847   2.002   1.213  14.700  0.3944 -0.2727 -0.2515
 5405SOL    HW127848   2.003   1.229  14.605  0.7120  0.7734 -0.0615
 5405SOL    HW227849   2.020   1.301  14.733 -0.5611 -0.2842  0.3006
 5406SOL     OW27850   4.198   1.975   5.194 -0.7093 -0.0726  0.2321
 5406SOL    HW127851   4.131   1.939   5.135  0.0343  0.6453 -1.0471
 5406SOL    HW227852   4.253   2.025   5.134 -0.0424  0.1369  1.0075
 5407SOL     OW27853   4.101   1.201   6.870 -0.7126  0.8726  0.0568
 5407SOL    HW127854   4.091   1.160   6.956 -0.4775 -3.4102 -1.9414
 5407SOL    HW227855   4.191   1.203   6.837 -1.2044 -1.9535 -1.4929
 5408SOL     OW27856   4.558   1.813   8.614  0.2769  0.1353 -0.8227
 5408SOL    HW127857   4.642   1.779   8.646 -1.0596 -1.0794  1.3597
 5408SOL    HW227858   4.560   1.897   8.661 -1.2772 -0.0189 -0.5019
 5409SOL     OW27859   0.916   3.466  17.393  0.2686 -0.1535  0.5678
 5409SOL    HW127860   0.868   3.391  17.429  1.2310 -1.4540 -0.8698
 5409SOL    HW227861   0.970   3.421  17.328  0.3944  1.9808 -0.8045
 5410SOL     OW27862   0.439   0.482   6.626  0.7080 -0.1962  0.3875
 5410SOL    HW127863   0.367   0.418   6.618  0.2384  0.0516  2.6953
 5410SOL    HW227864   0.470   0.500   6.537  0.0388  0.0449  0.2023
 5411SOL     OW27865   4.082   3.997  12.387 -0.3699  0.0784  0.2343
 5411SOL    HW127866   3.992   4.030  12.393  0.1973  1.8087 -0.6908
 5411SOL    HW227867   4.139   4.071  12.405 -3.4889  2.9441 -1.5633
 5412SOL     OW27868   4.009   4.318   7.456 -0.0623  0.4372  0.7684
 5412SOL    HW127869   4.101   4.293   7.466  0.2376  1.8964  1.7535
 5412SOL    HW227870   3.968   4.311   7.542  1.2250  0.8104  1.4123
 5413SOL     OW27871   0.010   0.332   5.600 -0.3189 -0.1152  0.4455
 5413SOL    HW127872   4.665   0.303   5.637 -1.0537  1.4709  0.0266
 5413SOL    HW227873   0.037   0.261   5.542 -1.0810  1.4667 -1.8193
 5414SOL     OW27874   3.860   1.985   3.373 -0.2532  0.6332  0.0047
 5414SOL    HW127875   3.769   1.989   3.344 -0.2546  2.4917  0.2532
 5414SOL    HW227876   3.845   1.947   3.459  2.2008  0.8475  0.5148
 5415SOL     OW27877   1.276   3.609   6.506 -0.1219  0.1817 -0.4200
 5415SOL    HW127878   1.278   3.527   6.556 -1.5634  2.0005  2.6235
 5415SOL    HW227879   1.311   3.582   6.421 -1.1835 -1.9381 -0.2074
 5416SOL     OW27880   0.005   3.411   2.038 -0.5138  0.3210 -0.0072
 5416SOL    HW127881   4.661   3.413   1.990 -1.3141  2.1053  1.4636
 5416SOL    HW227882   4.711   3.438   2.123 -0.1710  0.0126  0.2225
 5417SOL     OW27883   2.917   0.072  14.010  0.0144  0.0595  0.0116
 5417SOL    HW127884   2.834   0.057  13.964  0.5510 -0.4840 -0.7976
 5417SOL    HW227885   2.901   0.032  14.096  0.9722 -3.0957 -1.2404
 5418SOL     OW27886   2.826   0.224   6.886 -0.6644 -0.4547 -0.0882
 5418SOL    HW127887   2.792   0.148   6.837  1.4212  0.4177 -2.9116
 5418SOL    HW227888   2.744   0.273   6.890  0.5384  1.6049 -1.1139
 5419SOL     OW27889   3.513   1.417   6.849 -0.6742  0.5149 -0.3486
 5419SOL    HW127890   3.508   1.395   6.942  0.1146  1.6119 -0.0489
 5419SOL    HW227891   3.444   1.363   6.809  1.1005  0.1697 -2.9627
 5420SOL     OW27892   3.078   2.712  12.453 -0.3276  0.0786 -0.1375
 5420SOL    HW127893   3.098   2.619  12.438  1.4729  0.1552  1.6676
 5420SOL    HW227894   3.015   2.711  12.525 -0.0176  4.8935  0.1881
 5421SOL     OW27895   1.645   4.694  14.553 -0.4339 -0.3344  0.3505
 5421SOL    HW127896   1.711   4.636  14.592 -1.6008 -1.1211  1.1473
 5421SOL    HW227897   1.638   4.670  14.461  3.3579  2.4117 -0.6331
 5422SOL     OW27898   0.172   1.041  11.087  0.2638 -0.0646 -0.3181
 5422SOL    HW127899   0.118   0.962  11.090 -1.8384  1.4088  0.1425
 5422SOL    HW227900   0.150   1.080  11.002 -0.0903  1.9900  0.7033
 5423SOL     OW27901   1.464   0.175   4.983 -0.4672 -0.0617 -0.4949
 5423SOL    HW127902   1.463   0.099   5.042 -0.8188  0.8025  0.6130
 5423SOL    HW227903   1.407   0.150   4.910  0.1757  2.3582 -1.8041
 5424SOL     OW27904   4.458   2.316   1.749  0.5833 -0.0340 -0.2219
 5424SOL    HW127905   4.531   2.255   1.738 -0.0610 -0.8697  0.1233
 5424SOL    HW227906   4.384   2.255   1.751  1.5918 -1.2631 -0.0972
 5425SOL     OW27907   1.812   1.712  13.291 -0.0168 -0.1628  0.5214
 5425SOL    HW127908   1.845   1.693  13.378 -1.6453 -1.5943  0.8222
 5425SOL    HW227909   1.722   1.686  13.312 -0.0985  1.7914  2.6140
 5426SOL     OW27910   1.667   3.549  16.025 -0.6599 -0.4412 -0.4702
 5426SOL    HW127911   1.655   3.460  16.058  2.3072 -0.7707 -0.3527
 5426SOL    HW227912   1.607   3.545  15.951  2.6185  1.4787 -3.2152
 5427SOL     OW27913   1.544   0.727   1.829 -0.4170  0.3393 -0.2255
 5427SOL    HW127914   1.545   0.645   1.780 -1.1519 -0.2543  0.7548
 5427SOL    HW227915   1.638   0.744   1.836 -0.7643  2.4932 -0.7001
 5428SOL     OW27916   1.455   1.295   3.757 -0.0002  0.3934 -0.4305
 5428SOL    HW127917   1.541   1.327   3.783 -0.2736 -1.5552  2.8108
 5428SOL    HW227918   1.453   1.211   3.802 -0.7693  0.0205 -1.1683
 5429SOL     OW27919   1.822   3.065   5.962 -0.2244  0.2121  0.1870
 5429SOL    HW127920   1.839   3.158   5.979  4.6999 -1.0627  2.1059
 5429SOL    HW227921   1.869   3.024   6.034  0.6050 -2.5991 -1.9330
 5430SOL     OW27922   3.437   0.853   1.305 -0.1622 -0.0853 -0.2253
 5430SOL    HW127923   3.478   0.919   1.361 -2.6058  0.0363  1.4253
 5430SOL    HW227924   3.441   0.900   1.222 -1.4316  0.4434  0.0226
 5431SOL     OW27925   4.060   3.965  15.439 -0.1120  0.1453 -0.9651
 5431SOL    HW127926   4.016   3.919  15.510  0.8702  2.9935  1.5286
 5431SOL    HW227927   4.027   3.924  15.359 -0.7623  1.5810 -1.4365
 5432SOL     OW27928   1.943   0.492   2.459 -0.5916  0.2612 -0.1406
 5432SOL    HW127929   1.933   0.485   2.364  0.4183 -2.7075 -0.0374
 5432SOL    HW227930   1.853   0.478   2.488 -0.2034 -0.6129  0.6281
 5433SOL     OW27931   1.202   0.726   5.589 -0.4398  0.0446 -0.0147
 5433SOL    HW127932   1.200   0.630   5.588 -2.2812  0.0971 -1.3474
 5433SOL    HW227933   1.119   0.742   5.544 -1.6416  0.2815  2.2980
 5434SOL     OW27934   0.445   1.691  15.327 -0.3187 -0.2932 -0.0102
 5434SOL    HW127935   0.482   1.609  15.294 -0.3954  0.0947 -1.0491
 5434SOL    HW227936   0.471   1.755  15.261 -0.6428 -1.8118 -1.6288
 5435SOL     OW27937   0.616   0.701   1.106 -0.5609 -0.0030  0.0809
 5435SOL    HW127938   0.615   0.694   1.011  1.2411  0.5334  0.0171
 5435SOL    HW227939   0.643   0.791   1.126 -1.9937  0.6393 -0.9198
 5436SOL     OW27940   3.745   0.646   5.211 -0.1051  0.5426 -0.1506
 5436SOL    HW127941   3.731   0.559   5.248  1.4199 -0.3062 -1.5526
 5436SOL    HW227942   3.756   0.622   5.119  0.3671  0.3714 -0.0487
 5437SOL     OW27943   0.573   0.130   4.328 -0.1588 -0.0726 -0.4534
 5437SOL    HW127944   0.622   0.095   4.402  0.4221 -1.1902 -1.3766
 5437SOL    HW227945   0.509   0.059   4.318  0.1702 -0.6070  1.2245
 5438SOL     OW27946   3.918   3.581   0.692  0.3395  0.4141  0.3238
 5438SOL    HW127947   3.867   3.551   0.617  2.3796 -0.0288 -0.9103
 5438SOL    HW227948   3.969   3.650   0.648  0.7643 -2.4546 -3.6708
 5439SOL     OW27949   0.060   4.448   8.788 -0.1330 -0.2154 -0.5674
 5439SOL    HW127950   0.151   4.439   8.760 -0.3289 -4.4238  0.1171
 5439SOL    HW227951   0.041   4.521   8.729 -0.3427 -1.0217 -1.5016
 5440SOL     OW27952   2.898   2.824   4.262 -0.8210  0.2882 -0.1750
 5440SOL    HW127953   2.809   2.789   4.252 -0.4205 -0.8917  0.3997
 5440SOL    HW227954   2.934   2.777   4.337  0.2068 -2.1952 -2.2446
 5441SOL     OW27955   4.630   1.790   5.653  0.2373 -0.4715 -0.4446
 5441SOL    HW127956   4.587   1.863   5.609 -0.0522 -0.0943  0.4452
 5441SOL    HW227957   4.581   1.802   5.735 -2.1469 -2.1237 -1.6502
 5442SOL     OW27958   2.484   4.522  10.240  0.3614  0.1450  0.0508
 5442SOL    HW127959   2.490   4.460  10.168 -0.3939 -0.7786  0.7709
 5442SOL    HW227960   2.409   4.575  10.216  1.8197  2.9898  1.7668
 5443SOL     OW27961   1.242   1.571   7.617  0.0557  0.2660 -0.2129
 5443SOL    HW127962   1.297   1.493   7.607  1.2358  0.9683  0.7392
 5443SOL    HW227963   1.166   1.553   7.562 -0.3081 -1.9823  1.0476
 5444SOL     OW27964   2.535   2.560   5.356  0.2737 -0.2325  0.2468
 5444SOL    HW127965   2.564   2.478   5.397  0.0612  0.1346  1.1289
 5444SOL    HW227966   2.486   2.528   5.280  2.3468 -0.1689 -1.1239
 5445SOL     OW27967   0.330   4.650  10.117  0.0803 -0.0343 -0.2521
 5445SOL    HW127968   0.296   4.578  10.171  1.7805 -0.4265  0.2859
 5445SOL    HW227969   0.410   4.666  10.165  0.2323  1.7408 -1.0990
 5446SOL     OW27970   3.126   0.753   6.309  0.1177 -0.3510 -0.8771
 5446SOL    HW127971   3.036   0.747   6.341  0.5753 -0.5659  0.3773
 5446SOL    HW227972   3.171   0.725   6.389 -1.0374  1.9252  0.5506
 5447SOL     OW27973   1.656   4.188   3.771 -0.5245  0.4753 -0.1217
 5447SOL    HW127974   1.685   4.099   3.791  0.8312  0.8347 -0.4843
 5447SOL    HW227975   1.658   4.185   3.676  1.7400  1.5333 -0.1086
 5448SOL     OW27976   3.790   2.809   8.176 -0.2872  0.1344  0.1164
 5448SOL    HW127977   3.846   2.881   8.204 -0.1201  1.0826 -2.6512
 5448SOL    HW227978   3.704   2.848   8.189 -0.6322 -0.4152 -0.5312
 5449SOL     OW27979   3.496   2.246   2.339 -0.0942 -0.0926  0.0349
 5449SOL    HW127980   3.589   2.229   2.354 -0.1972 -0.3279  0.4006
 5449SOL    HW227981   3.468   2.183   2.273  0.5704  0.3390 -0.6573
 5450SOL     OW27982   4.330   2.817  12.071 -0.4632  0.2474  0.1520
 5450SOL    HW127983   4.272   2.795  12.143  0.8658  0.6171  1.3376
 5450SOL    HW227984   4.266   2.819  12.000  1.0478  0.6383 -1.2091
 5451SOL     OW27985   1.659   2.125   8.130  0.3381  0.1616 -0.0635
 5451SOL    HW127986   1.598   2.074   8.184 -0.1711  1.5195  0.6634
 5451SOL    HW227987   1.656   2.067   8.054 -0.5214  2.1755 -1.5820
 5452SOL     OW27988   3.295   4.419  11.526  0.3524  0.0459  0.4027
 5452SOL    HW127989   3.268   4.338  11.483 -2.8175  0.2766  1.9859
 5452SOL    HW227990   3.208   4.449  11.552 -0.2081  0.0921 -1.5278
 5453SOL     OW27991   1.306   1.137  12.454  0.6067  0.5529 -0.3675
 5453SOL    HW127992   1.369   1.182  12.397 -0.4373 -1.5577 -3.1817
 5453SOL    HW227993   1.289   1.055  12.408  0.6491  0.2886  0.0788
 5454SOL     OW27994   0.293   4.679   5.010  0.1665  0.2126  0.3801
 5454SOL    HW127995   0.333   4.635   5.085 -1.4658 -3.2411 -0.7764
 5454SOL    HW227996   0.219   4.719   5.056  2.0579  1.9550  1.8845
 5455SOL     OW27997   2.292   4.691  10.152  0.0605 -0.1755  0.0320
 5455SOL    HW127998   2.226   0.017  10.176  0.6634 -0.3039  2.0272
 5455SOL    HW227999   2.284   4.691  10.057  2.3793 -1.2501 -0.1636
 5456SOL     OW28000   3.187   3.923   9.461 -0.5799  0.0883  0.4744
 5456SOL    HW128001   3.124   3.982   9.502 -0.5439  1.3161 -1.2206
 5456SOL    HW228002   3.154   3.840   9.496 -2.4290  1.1250  1.2041
 5457SOL     OW28003   1.145   0.354   4.924 -0.0421 -0.8352  0.0743
 5457SOL    HW128004   1.107   0.440   4.908  0.6668 -0.5994 -0.3624
 5457SOL    HW228005   1.219   0.362   4.863 -0.4687  1.1750 -0.1750
 5458SOL     OW28006   0.213   1.843   9.230  0.7849  0.0313  0.4868
 5458SOL    HW128007   0.271   1.782   9.184  0.0082 -0.1637 -0.2198
 5458SOL    HW228008   0.141   1.854   9.168  1.0456 -1.7623 -0.1489
 5459SOL     OW28009   1.900   3.262   6.559 -0.4733  0.4267  0.6411
 5459SOL    HW128010   1.808   3.235   6.561 -0.6279  0.7658 -1.4348
 5459SOL    HW228011   1.936   3.188   6.608  0.2787 -0.7844 -1.7420
 5460SOL     OW28012   4.653   0.896   3.054  0.4421  0.1524 -0.1166
 5460SOL    HW128013   4.688   0.984   3.050 -0.9886  0.7588  0.8563
 5460SOL    HW228014   4.594   0.893   3.129  0.2856 -0.3256 -0.2537
 5461SOL     OW28015   3.896   3.671   8.063  0.0409 -0.1376 -0.1348
 5461SOL    HW128016   3.949   3.724   8.123 -0.2986 -1.0121  0.9478
 5461SOL    HW228017   3.926   3.583   8.084 -2.1557 -1.2821 -1.8306
 5462SOL     OW28018   3.829   3.720  11.903 -0.3618  0.7530  0.3410
 5462SOL    HW128019   3.734   3.724  11.896 -0.4688  0.6422  1.8346
 5462SOL    HW228020   3.834   3.727  11.998  0.6261 -0.7860  0.4174
 5463SOL     OW28021   3.168   4.347   6.612  0.0416 -0.2627  0.8560
 5463SOL    HW128022   3.170   4.432   6.569 -0.3487 -0.8809 -0.4018
 5463SOL    HW228023   3.261   4.331   6.625 -0.0295 -1.5823 -0.2128
 5464SOL     OW28024   1.568   1.711   2.585  0.6294 -0.2601 -0.1162
 5464SOL    HW128025   1.662   1.707   2.603  0.6396 -0.5180 -0.2218
 5464SOL    HW228026   1.534   1.640   2.530 -1.5983  0.6833  0.0441
 5465SOL     OW28027   1.270   3.401   7.367 -0.1924  0.2343 -0.3384
 5465SOL    HW128028   1.277   3.436   7.456 -0.6018  0.5547 -0.4316
 5465SOL    HW228029   1.360   3.424   7.342 -0.6120  1.2200 -0.9693
 5466SOL     OW28030   1.463   1.333   0.825  0.5249  0.1280 -0.0187
 5466SOL    HW128031   1.503   1.412   0.789 -0.2426  0.1009 -0.9592
 5466SOL    HW228032   1.424   1.293   0.747 -0.1179  1.8551 -0.5952
 5467SOL     OW28033   2.638   3.137   6.029  0.1255  0.0111  0.3739
 5467SOL    HW128034   2.730   3.152   6.006  0.2057 -0.9855  0.0643
 5467SOL    HW228035   2.647   3.081   6.106 -0.6909 -1.0984 -0.3536
 5468SOL     OW28036   3.107   0.077   0.720 -0.1706  0.0956 -0.3939
 5468SOL    HW128037   3.143   0.007   0.773  0.0716 -1.1571 -2.2012
 5468SOL    HW228038   3.059   0.129   0.784 -0.2375 -0.9191  0.3795
 5469SOL     OW28039   1.992   3.497  11.289 -0.7087  0.0570 -0.3998
 5469SOL    HW128040   2.068   3.469  11.238 -2.2615  0.5146 -2.9489
 5469SOL    HW228041   2.039   3.535  11.364 -0.5358 -1.8250  0.4384
 5470SOL     OW28042   3.937   3.583   6.142 -0.4476 -0.3440  0.1066
 5470SOL    HW128043   4.013   3.624   6.101 -0.2266  0.3335  1.1902
 5470SOL    HW228044   3.966   3.539   6.222 -1.8642 -0.5434  0.5163
 5471SOL     OW28045   4.706   3.896  13.864  0.0834 -0.1057 -0.3491
 5471SOL    HW128046   4.627   3.904  13.918  0.0645 -2.1152 -0.0793
 5471SOL    HW228047   4.661   3.863  13.786  2.0435 -0.2198 -1.4339
 5472SOL     OW28048   0.103   2.430   5.103  0.2402 -0.3068 -0.6142
 5472SOL    HW128049   0.156   2.430   5.023  0.3126 -0.0305 -0.5651
 5472SOL    HW228050   0.069   2.341   5.107  0.7361 -0.4593  0.2541
 5473SOL     OW28051   0.979   3.529   3.819 -0.0690 -0.0659 -0.3040
 5473SOL    HW128052   1.028   3.460   3.863  1.0027  0.0733 -1.2761
 5473SOL    HW228053   0.995   3.600   3.881 -1.5826  1.9988 -2.3181
 5474SOL     OW28054   3.112   0.404   7.457 -0.5530  0.6705 -0.1169
 5474SOL    HW128055   3.204   0.409   7.484 -0.3062  0.9293 -1.0301
 5474SOL    HW228056   3.078   0.317   7.480  0.0497 -0.3108 -2.9360
 5475SOL     OW28057   1.565   2.171   1.750 -0.1605 -0.3527  0.3845
 5475SOL    HW128058   1.567   2.210   1.663  0.3369  1.1043  1.0364
 5475SOL    HW228059   1.659   2.160   1.763  0.3454 -1.0072 -4.0004
 5476SOL     OW28060   0.496   0.801   3.073  0.4394 -0.1336  0.0274
 5476SOL    HW128061   0.570   0.832   3.022 -1.0580 -0.3558 -2.2949
 5476SOL    HW228062   0.451   0.737   3.017  2.1398  0.0161 -1.4923
 5477SOL     OW28063   3.896   1.232  11.124  0.0285  0.2723  0.1956
 5477SOL    HW128064   3.905   1.210  11.032 -0.1790 -0.3360  0.3179
 5477SOL    HW228065   3.881   1.325  11.141  0.0268  0.1210  1.0632
 5478SOL     OW28066   0.583   2.271  15.108 -0.0730 -0.0871  0.3435
 5478SOL    HW128067   0.641   2.304  15.040 -0.9926  2.4055  0.7631
 5478SOL    HW228068   0.628   2.190  15.131 -1.5857 -0.7702  0.9393
 5479SOL     OW28069   2.712   4.615   5.203  0.3549  0.0101  0.6593
 5479SOL    HW128070   2.625   4.654   5.201  0.6580  0.6612 -0.6208
 5479SOL    HW228071   2.724   4.618   5.298  0.4297 -0.3881  0.6611
 5480SOL     OW28072   2.998   1.085   5.183  0.0690  0.2928  0.2004
 5480SOL    HW128073   3.002   0.995   5.217  2.4653  0.0858 -0.6049
 5480SOL    HW228074   2.965   1.069   5.095  1.4225  2.5746 -0.7053
 5481SOL     OW28075   1.782   3.517   9.354 -0.2280  0.5724  0.7172
 5481SOL    HW128076   1.857   3.521   9.413 -0.6222 -1.8831  1.3688
 5481SOL    HW228077   1.824   3.448   9.303  0.0707  0.9655  0.4378
 5482SOL     OW28078   2.007   2.722  13.883  0.4758 -0.3740  0.7814
 5482SOL    HW128079   1.946   2.787  13.849  0.1594  0.1344  2.2959
 5482SOL    HW228080   2.088   2.732  13.833  0.1603  0.8144  0.5004
 5483SOL     OW28081   0.634   2.262   8.589 -0.4893  0.1842  0.0048
 5483SOL    HW128082   0.572   2.334   8.597 -0.7659 -0.2433  1.7160
 5483SOL    HW228083   0.564   2.198   8.578  0.1114 -0.5748  0.6379
 5484SOL     OW28084   0.291   0.708   3.661  0.3212 -0.7499  0.0291
 5484SOL    HW128085   0.211   0.757   3.643  0.0026 -1.7178 -1.2214
 5484SOL    HW228086   0.325   0.760   3.733 -3.0970  0.9994  0.3768
 5485SOL     OW28087   0.878   1.539   5.554 -0.0918 -0.3574 -0.0979
 5485SOL    HW128088   0.927   1.493   5.486  2.6067 -2.0255  2.9462
 5485SOL    HW228089   0.797   1.528   5.505 -0.1696 -1.3256  0.2427
 5486SOL     OW28090   1.026   3.703   6.559 -0.0980 -0.3591  0.5943
 5486SOL    HW128091   0.959   3.679   6.494  1.9565  2.5868 -2.5829
 5486SOL    HW228092   1.100   3.658   6.518 -0.2906  0.8404 -1.0745
 5487SOL     OW28093   0.392   2.434   8.107  0.6614  0.1014 -0.2844
 5487SOL    HW128094   0.482   2.418   8.133  0.1932 -0.2927  1.0554
 5487SOL    HW228095   0.414   2.451   8.015  3.0112  0.4520  0.3622
 5488SOL     OW28096   1.939   1.992  12.100 -0.1961 -0.1731 -0.4643
 5488SOL    HW128097   1.970   1.920  12.154  4.2819  1.0812 -1.3950
 5488SOL    HW228098   1.903   2.046  12.170  0.9401 -0.3779  0.2699
 5489SOL     OW28099   3.737   1.134   5.153  0.2077 -0.0605 -0.5377
 5489SOL    HW128100   3.711   1.046   5.177 -2.0524  0.2775 -1.7194
 5489SOL    HW228101   3.721   1.136   5.058  1.6021 -0.3224 -0.7797
 5490SOL     OW28102   3.722   4.406  10.870  0.0333 -0.0611  0.5193
 5490SOL    HW128103   3.722   4.394  10.965  3.5256 -2.9988  0.1511
 5490SOL    HW228104   3.639   4.450  10.852 -0.3400 -0.6545  0.8021
 5491SOL     OW28105   2.180   3.433  16.690 -0.5556  0.1209 -0.2895
 5491SOL    HW128106   2.102   3.479  16.721 -0.6354  0.2090 -0.6224
 5491SOL    HW228107   2.241   3.496  16.727 -0.7543 -0.6187  1.3217
 5492SOL     OW28108   0.752   1.104   3.500 -0.1929 -0.5201  0.1490
 5492SOL    HW128109   0.725   1.179   3.552 -0.4253  0.0442 -0.7771
 5492SOL    HW228110   0.751   1.145   3.413 -0.4265  2.7117  1.6860
 5493SOL     OW28111   3.452   4.156   3.862  0.0583  0.2269  0.4162
 5493SOL    HW128112   3.372   4.201   3.836  0.5433  0.1721 -1.1659
 5493SOL    HW228113   3.459   4.082   3.801 -2.0349  0.2412  0.1789
 5494SOL     OW28114   0.291   1.192   3.405  0.0552  0.2066  0.0765
 5494SOL    HW128115   0.335   1.147   3.334  0.6458  0.6508  0.1565
 5494SOL    HW228116   0.330   1.279   3.418 -0.7404  0.2782  2.1008
 5495SOL     OW28117   4.570   3.419   4.804 -0.7289 -0.4290 -0.3165
 5495SOL    HW128118   4.505   3.364   4.849  1.0855 -2.6582 -0.4053
 5495SOL    HW228119   4.544   3.508   4.829 -0.3242 -0.2350 -0.5920
 5496SOL     OW28120   3.115   1.449   0.898 -0.0937  0.6167 -0.1430
 5496SOL    HW128121   3.128   1.518   0.833 -2.1486 -0.0710 -1.2994
 5496SOL    HW228122   3.048   1.395   0.855  0.3204  0.2119 -0.2726
 5497SOL     OW28123   1.070   3.350   7.669  0.8741  0.0757  0.1598
 5497SOL    HW128124   1.004   3.412   7.637  0.8467 -0.7213 -1.3131
 5497SOL    HW228125   1.036   3.264   7.646  2.0861 -0.0292 -1.2473
 5498SOL     OW28126   0.575   4.737   8.978 -0.4227  0.3603  0.0175
 5498SOL    HW128127   0.651   0.044   9.014  0.8338 -0.3934 -1.6219
 5498SOL    HW228128   0.595   4.733   8.884  0.9150 -0.0277  0.3071
 5499SOL     OW28129   0.640   1.910  14.773 -0.5228  0.1372  0.1677
 5499SOL    HW128130   0.562   1.925  14.720 -0.7287 -0.4341  0.3107
 5499SOL    HW228131   0.638   1.815  14.785 -3.0204  0.2614  0.5397
 5500SOL     OW28132   0.616   2.184   6.550  0.0244 -0.3215 -0.5640
 5500SOL    HW128133   0.698   2.230   6.566 -0.5201  1.1133 -1.9421
 5500SOL    HW228134   0.606   2.133   6.630 -0.3070 -0.4498 -0.6845
 5501SOL     OW28135   3.011   3.857   5.207 -0.1113 -0.0161 -0.0122
 5501SOL    HW128136   3.081   3.794   5.225 -1.0699 -1.1102 -0.1249
 5501SOL    HW228137   3.069   3.933   5.199  0.5103 -0.4946 -0.1369
 5502SOL     OW28138   3.316   2.535   0.956  0.1663 -0.0882  0.1268
 5502SOL    HW128139   3.369   2.538   1.036 -2.5020 -0.4581  1.9208
 5502SOL    HW228140   3.379   2.559   0.888 -0.3862  0.9352 -0.0291
 5503SOL     OW28141   3.073   0.258   3.343  0.0005 -0.2351 -0.5361
 5503SOL    HW128142   3.015   0.257   3.419 -1.9170  0.2176 -2.0118
 5503SOL    HW228143   3.108   0.170   3.358 -0.1662 -0.2731 -0.3645
 5504SOL     OW28144   2.351   2.901   2.917 -0.1161  0.1216 -0.0195
 5504SOL    HW128145   2.338   2.996   2.913 -0.0611  0.1668  0.9560
 5504SOL    HW228146   2.362   2.879   2.824 -1.4536 -2.3874  0.4211
 5505SOL     OW28147   1.842   0.219   3.856  0.1554 -0.1044  0.0053
 5505SOL    HW128148   1.914   0.168   3.820 -0.1420 -1.0772  0.7473
 5505SOL    HW228149   1.785   0.223   3.779  0.7879 -1.1654 -0.5247
 5506SOL     OW28150   2.818   2.868   6.406  0.2125 -0.3101 -0.5552
 5506SOL    HW128151   2.791   2.911   6.487 -1.2902 -1.0460 -0.6657
 5506SOL    HW228152   2.810   2.776   6.433 -1.3444  0.8043  2.7494
 5507SOL     OW28153   3.402   1.057  13.474  0.1521 -0.2074  0.6205
 5507SOL    HW128154   3.390   1.150  13.494 -0.6662 -0.0525 -0.6261
 5507SOL    HW228155   3.317   1.015  13.487 -0.8934  1.1597 -1.8974
 5508SOL     OW28156   2.534   1.351   9.173  0.3554 -0.1917  0.8066
 5508SOL    HW128157   2.519   1.265   9.211  0.6520 -0.5356  0.1439
 5508SOL    HW228158   2.450   1.391   9.199  0.3946 -0.0170  0.6664
 5509SOL     OW28159   4.512   4.108   8.313  0.7278 -0.3388 -0.3511
 5509SOL    HW128160   4.452   4.034   8.319 -0.9174  1.0761  0.6304
 5509SOL    HW228161   4.521   4.144   8.401 -0.4442  1.3509 -0.9132
 5510SOL     OW28162   1.312   1.922   9.341 -0.0803  0.3860  0.3478
 5510SOL    HW128163   1.397   1.930   9.297  0.7064 -1.1422  1.5953
 5510SOL    HW228164   1.241   1.951   9.283 -0.6028 -0.7944  0.3951
 5511SOL     OW28165   4.595   4.665   2.644 -0.1902 -0.5315 -0.1474
 5511SOL    HW128166   4.538   4.728   2.687  0.6220 -0.4953  0.8807
 5511SOL    HW228167   4.576   4.674   2.550  1.5059  0.6441 -0.3837
 5512SOL     OW28168   0.730   2.164  17.034 -0.5067  0.1585  0.2754
 5512SOL    HW128169   0.789   2.174  17.109  0.9756  0.4393 -0.9332
 5512SOL    HW228170   0.681   2.245  17.020 -2.4503 -1.2043 -0.8235
 5513SOL     OW28171   0.015   2.140  10.683 -0.1151 -0.7133  0.0974
 5513SOL    HW128172   0.105   2.124  10.710 -0.0804  0.6309  0.7888
 5513SOL    HW228173   0.009   2.094  10.600 -0.9092  0.5882 -0.5761
 5514SOL     OW28174   0.176   4.104   8.349 -0.7347  0.2785 -0.0010
 5514SOL    HW128175   0.109   4.138   8.289  0.1089 -0.7564 -1.5399
 5514SOL    HW228176   0.252   4.152   8.315  1.4843 -1.4188  2.5603
 5515SOL     OW28177   2.200   2.817   7.742 -0.1250 -0.6824  0.7991
 5515SOL    HW128178   2.120   2.870   7.750  0.8985  0.9856  0.0764
 5515SOL    HW228179   2.246   2.862   7.813 -0.5140  2.0369 -0.6863
 5516SOL     OW28180   0.131   3.761  16.869  0.2856 -0.0068  0.0867
 5516SOL    HW128181   0.132   3.701  16.943 -0.5826 -0.5391 -0.3362
 5516SOL    HW228182   0.226   3.774  16.860  0.0630  0.7337 -1.1176
 5517SOL     OW28183   2.217   3.195   7.597 -0.4900  0.2873  0.0305
 5517SOL    HW128184   2.123   3.179   7.605 -0.6343  0.1438 -1.9511
 5517SOL    HW228185   2.238   3.189   7.690 -0.3242 -2.4857 -0.1709
 5518SOL     OW28186   1.779   0.976   6.071  0.4557  0.3505  0.4919
 5518SOL    HW128187   1.772   1.065   6.106 -1.4182  0.3378  0.1354
 5518SOL    HW228188   1.872   0.978   6.046  0.6584 -2.0108  1.0883
 5519SOL     OW28189   4.027   1.524   6.438  0.3069  0.1440 -0.2088
 5519SOL    HW128190   3.978   1.456   6.484  0.9905 -0.0128  0.2973
 5519SOL    HW228191   4.071   1.563   6.514 -0.0758  1.3230 -0.5914
 5520SOL     OW28192   4.354   4.651   3.146  0.0028  0.1097 -0.2611
 5520SOL    HW128193   4.411   4.727   3.154 -1.5168  1.1344  0.8494
 5520SOL    HW228194   4.377   4.604   3.226  2.0266  2.9270  0.7915
 5521SOL     OW28195   2.051   3.647   6.126 -0.1546  0.5037  0.0914
 5521SOL    HW128196   1.956   3.649   6.138 -0.4729  1.0314 -2.4350
 5521SOL    HW228197   2.066   3.736   6.093  0.7177 -0.2495 -1.5101
 5522SOL     OW28198   1.729   2.729  15.796  0.2844  0.0818 -0.5724
 5522SOL    HW128199   1.809   2.716  15.847  0.1192  0.5609 -0.1904
 5522SOL    HW228200   1.752   2.687  15.713 -0.2589  0.4324 -0.9025
 5523SOL     OW28201   0.907   2.631   5.466  0.2541  0.2194  0.5005
 5523SOL    HW128202   0.840   2.596   5.407 -0.6151 -0.2364  1.7484
 5523SOL    HW228203   0.989   2.642   5.418  0.7156 -0.3900  1.1487
 5524SOL     OW28204   2.078   2.516   0.597 -0.4787  0.0660  0.0094
 5524SOL    HW128205   2.078   2.493   0.504  0.5583 -0.1001  0.0531
 5524SOL    HW228206   2.030   2.599   0.594  1.1561  0.9496 -1.7899
 5525SOL     OW28207   3.031   4.582   3.854 -0.1154  0.3465  0.3648
 5525SOL    HW128208   2.946   4.619   3.876  0.4806  2.3858 -0.8168
 5525SOL    HW228209   3.018   4.500   3.902 -3.2594 -0.1481 -1.3679
 5526SOL     OW28210   3.419   1.604   8.393 -0.2715 -0.0339 -0.0014
 5526SOL    HW128211   3.470   1.528   8.366 -1.8248 -1.1031  0.0481
 5526SOL    HW228212   3.382   1.631   8.309 -0.3941 -0.4616 -0.0823
 5527SOL     OW28213   3.869   2.686   2.649  0.2024 -0.1453 -0.0114
 5527SOL    HW128214   3.796   2.628   2.671 -0.9893  1.2578 -0.3259
 5527SOL    HW228215   3.857   2.691   2.555 -0.7914  1.0765  0.1861
 5528SOL     OW28216   3.827   4.112   8.856 -0.1629  0.5347  0.1908
 5528SOL    HW128217   3.834   4.090   8.949 -2.6948  0.8888  0.4712
 5528SOL    HW228218   3.913   4.080   8.830 -1.7042 -1.3227 -2.5379
 5529SOL     OW28219   1.518   0.630   3.187  0.4162 -0.5304 -0.1423
 5529SOL    HW128220   1.523   0.723   3.167  1.1884 -0.4579  0.3837
 5529SOL    HW228221   1.593   0.621   3.246 -1.1278  0.5590  1.9814
 5530SOL     OW28222   0.866   0.922   1.775 -0.2675 -0.3112 -0.3036
 5530SOL    HW128223   0.944   0.928   1.720  0.0722 -0.8277  0.1345
 5530SOL    HW228224   0.840   0.830   1.771  0.2601 -0.4857  0.3405
 5531SOL     OW28225   0.284   2.111   5.280  0.5810 -0.1371 -0.2604
 5531SOL    HW128226   0.275   2.191   5.332 -0.9011  0.5640 -1.5860
 5531SOL    HW228227   0.195   2.094   5.251  0.7009 -0.9341 -0.1667
 5532SOL     OW28228   4.294   2.919   5.304 -0.1867 -0.0698  0.2309
 5532SOL    HW128229   4.382   2.938   5.270 -0.6760 -1.3651 -1.7103
 5532SOL    HW228230   4.245   2.988   5.258 -0.3398 -1.5356 -1.7993
 5533SOL     OW28231   2.129   2.810  14.167  0.0002 -0.3530  0.0157
 5533SOL    HW128232   2.222   2.824  14.149 -0.3482  3.3114  0.9459
 5533SOL    HW228233   2.112   2.748  14.097  0.4709  0.2705 -0.6419
 5534SOL     OW28234   3.171   4.083   6.976  0.3738  0.5673  0.0760
 5534SOL    HW128235   3.205   4.125   7.055 -0.5338 -0.3580  0.9513
 5534SOL    HW228236   3.246   4.032   6.947  0.7086  0.9585  0.2540
 5535SOL     OW28237   0.624   4.350   7.992  0.2458 -0.1327  0.5437
 5535SOL    HW128238   0.643   4.261   8.022  0.0852  0.0380  1.1519
 5535SOL    HW228239   0.632   4.336   7.898 -3.7186 -1.2773  0.3607
 5536SOL     OW28240   2.442   1.625   4.737  0.0382 -0.8239  0.9481
 5536SOL    HW128241   2.387   1.639   4.659 -0.9526 -0.6619  1.6810
 5536SOL    HW228242   2.378   1.638   4.807 -0.8383 -0.8379  0.1594
 5537SOL     OW28243   3.617   2.988   8.282 -0.1831 -0.3148 -0.2580
 5537SOL    HW128244   3.670   2.977   8.361 -0.0770 -0.5991 -0.3706
 5537SOL    HW228245   3.556   3.054   8.316 -1.6098 -1.8487  0.1643
 5538SOL     OW28246   0.849   0.730   3.982 -0.0603 -0.3978 -0.2852
 5538SOL    HW128247   0.779   0.746   4.045  1.4153  0.4241  1.1549
 5538SOL    HW228248   0.791   0.675   3.930 -0.0954  0.5883 -1.2983
 5539SOL     OW28249   0.020   0.908   1.433 -0.1866 -0.0741  0.4049
 5539SOL    HW128250   0.028   1.001   1.413  0.0077 -0.1807 -0.0209
 5539SOL    HW228251   0.025   0.893   1.527 -1.6362  1.7338  0.7612
 5540SOL     OW28252   3.755   3.634   6.837 -0.1337  0.4024  0.7177
 5540SOL    HW128253   3.783   3.725   6.846  0.5540  0.0975  1.7177
 5540SOL    HW228254   3.739   3.611   6.929 -2.4001 -0.6895  0.0492
 5541SOL     OW28255   4.099   0.888  17.280  0.2374  0.3305  0.0572
 5541SOL    HW128256   4.130   0.979  17.281  1.1680  0.0035  0.2446
 5541SOL    HW228257   4.085   0.867  17.372 -0.2530  1.3380  0.2126
 5542SOL     OW28258   3.824   2.709   2.359 -0.0493  0.3536 -0.3575
 5542SOL    HW128259   3.741   2.757   2.354  0.4057  0.9785 -1.9054
 5542SOL    HW228260   3.868   2.733   2.277 -3.6896  0.1987 -2.3354
 5543SOL     OW28261   0.925   0.599   0.121  0.1471 -0.1254  0.0667
 5543SOL    HW128262   0.860   0.594   0.051 -0.3125 -3.0013  0.7181
 5543SOL    HW228263   0.929   0.511   0.156 -0.5517 -0.3483 -0.4277
 5544SOL     OW28264   1.505   0.806   8.971  0.3209  0.0497 -0.0884
 5544SOL    HW128265   1.423   0.853   8.986 -0.2232 -0.7888 -0.4125
 5544SOL    HW228266   1.524   0.776   9.060 -1.7454  0.1874  0.3867
 5545SOL     OW28267   3.143   3.661  11.700 -0.3495 -0.3017  0.0092
 5545SOL    HW128268   3.062   3.698  11.735 -0.7263  0.2550 -1.4609
 5545SOL    HW228269   3.130   3.666  11.606 -2.0885 -0.2279  0.2557
 5546SOL     OW28270   2.674   4.197   1.347  0.3582  0.3316  0.0176
 5546SOL    HW128271   2.674   4.102   1.355 -1.1632  0.3665  0.5407
 5546SOL    HW228272   2.612   4.216   1.277  0.3026 -2.5722 -0.7093
 5547SOL     OW28273   3.892   3.932   7.590  0.2722 -0.1426 -0.4105
 5547SOL    HW128274   3.822   3.996   7.603  0.0466 -0.5607  0.4855
 5547SOL    HW228275   3.896   3.887   7.675  0.0446  0.5236 -0.0495
 5548SOL     OW28276   1.734   3.179   6.874  0.5708  0.2656 -0.5619
 5548SOL    HW128277   1.719   3.226   6.792 -0.0340 -0.6520 -0.9810
 5548SOL    HW228278   1.801   3.220   6.928  1.3720 -2.1705  0.3018
 5549SOL     OW28279   0.643   2.560  16.782  0.0017 -0.4629  0.8702
 5549SOL    HW128280   0.610   2.562  16.692 -0.5477 -0.5006  1.0698
 5549SOL    HW228281   0.648   2.466  16.796 -1.6544 -0.5020  1.2011
 5550SOL     OW28282   3.960   0.543   2.505 -0.0026  0.2372 -0.3046
 5550SOL    HW128283   3.939   0.485   2.431  1.9827 -0.8516 -0.0153
 5550SOL    HW228284   3.882   0.515   2.553  0.0519  0.5022 -0.0651
 5551SOL     OW28285   3.147   2.910   4.190 -0.0522 -0.4449 -0.4634
 5551SOL    HW128286   3.152   2.831   4.137  0.5140 -0.0881 -0.9389
 5551SOL    HW228287   3.056   2.896   4.215 -0.0365 -0.6382 -0.5142
 5552SOL     OW28288   4.129   4.631   8.828  0.4759  0.2073  0.0447
 5552SOL    HW128289   4.165   4.701   8.884  0.4437  0.0229  0.2926
 5552SOL    HW228290   4.046   4.614   8.872 -0.0491 -0.5454 -1.2671
 5553SOL     OW28291   3.400   4.215  12.585  0.3142 -0.8400 -0.4047
 5553SOL    HW128292   3.491   4.212  12.556  0.5925  2.9891  0.1727
 5553SOL    HW228293   3.351   4.230  12.505  0.0179 -2.5539 -0.5574
 5554SOL     OW28294   1.384   1.111   2.684 -0.5199  0.2080 -0.4217
 5554SOL    HW128295   1.428   1.190   2.714 -0.9898 -0.4468  2.0294
 5554SOL    HW228296   1.372   1.126   2.590  1.5423 -2.1667 -1.0627
 5555SOL     OW28297   2.122   3.305   9.680 -0.1382 -0.0228  0.1326
 5555SOL    HW128298   2.148   3.267   9.764  0.3659  0.7528  0.3261
 5555SOL    HW228299   2.028   3.308   9.697 -0.9906  0.2230 -4.6973
 5556SOL     OW28300   3.991   4.172   5.941  0.1103 -0.1742 -0.8857
 5556SOL    HW128301   3.915   4.227   5.926 -1.3658 -1.6251  1.0827
 5556SOL    HW228302   4.047   4.197   5.868 -0.8039  0.3870 -1.3841
 5557SOL     OW28303   4.500   1.583   5.894  0.4292 -0.4779  0.3383
 5557SOL    HW128304   4.476   1.604   5.985 -2.1200 -1.7447 -0.0224
 5557SOL    HW228305   4.500   1.674   5.863 -1.1441 -0.3753  0.6331
 5558SOL     OW28306   0.195   1.963   7.424  0.3577  0.1057 -0.2106
 5558SOL    HW128307   0.242   1.999   7.499 -1.6609  0.9714  0.6436
 5558SOL    HW228308   0.108   1.934   7.452  0.4236 -0.6897 -0.8242
 5559SOL     OW28309   3.703   0.423   4.733  0.0546  0.3916  0.2692
 5559SOL    HW128310   3.715   0.515   4.709 -0.2170  0.5684  0.8107
 5559SOL    HW228311   3.629   0.436   4.792 -0.2869  1.2098 -0.3383
 5560SOL     OW28312   4.031   3.127  12.399 -0.2349  0.0384 -0.3487
 5560SOL    HW128313   4.088   3.086  12.463 -1.4789 -2.0928 -0.5742
 5560SOL    HW228314   3.986   3.051  12.360 -0.2654 -0.6400  1.0044
 5561SOL     OW28315   3.012   0.438   4.009  0.2271  0.5795  0.0991
 5561SOL    HW128316   3.056   0.378   3.949 -0.3340 -0.3619  0.6242
 5561SOL    HW228317   3.079   0.503   4.028 -1.1268  1.6165  1.3574
 5562SOL     OW28318   3.553   1.493  11.820 -0.6065  0.0214  0.1838
 5562SOL    HW128319   3.565   1.410  11.774 -0.1869 -0.9324  2.0255
 5562SOL    HW228320   3.640   1.530  11.834 -0.0943 -0.2120 -2.5355
 5563SOL     OW28321   1.779   4.306   2.796 -0.1230  0.5146 -0.6302
 5563SOL    HW128322   1.843   4.293   2.865  0.8209  0.7429 -1.4658
 5563SOL    HW228323   1.765   4.214   2.776 -0.4282  0.9448 -2.3885
 5564SOL     OW28324   0.429   0.452   4.161  0.0915  0.3841  0.6983
 5564SOL    HW128325   0.383   0.514   4.105 -1.7093 -0.3049  1.4106
 5564SOL    HW228326   0.398   0.375   4.113 -0.4853  2.6906 -2.6782
 5565SOL     OW28327   0.737   0.471   7.665 -0.0417 -0.1571  0.2147
 5565SOL    HW128328   0.757   0.379   7.683  0.0917 -0.0791  0.4645
 5565SOL    HW228329   0.816   0.518   7.639  0.5506 -0.8598  0.7253
 5566SOL     OW28330   4.044   0.272   2.335 -0.0160 -0.1928  0.9989
 5566SOL    HW128331   4.086   0.187   2.319  0.6184  0.3718 -0.3786
 5566SOL    HW228332   3.965   0.244   2.380 -0.7738  1.7072  0.8177
 5567SOL     OW28333   0.153   0.555   5.533  0.4420 -0.3992  0.0918
 5567SOL    HW128334   0.090   0.491   5.565 -1.7855  1.0348 -1.4046
 5567SOL    HW228335   0.101   0.634   5.548 -0.0753 -0.5742 -0.7701
 5568SOL     OW28336   1.331   1.251   5.198 -0.0884  0.2100  0.6415
 5568SOL    HW128337   1.332   1.331   5.145 -0.6297 -1.2822 -1.6317
 5568SOL    HW228338   1.373   1.194   5.134  0.4950 -0.2517  1.4415
 5569SOL     OW28339   2.887   0.533  13.605  0.5306  0.3868 -0.0586
 5569SOL    HW128340   2.837   0.611  13.578  0.0879  0.0965 -0.0745
 5569SOL    HW228341   2.971   0.579  13.610  0.3963  0.5588  0.6218
 5570SOL     OW28342   2.525   3.793   3.508  0.1634  0.2317 -0.3804
 5570SOL    HW128343   2.460   3.862   3.520  0.1845  0.4962 -1.8283
 5570SOL    HW228344   2.487   3.721   3.459 -0.0485 -0.8174  1.3257
 5571SOL     OW28345   0.902   0.840   5.439  0.1370 -0.0555  0.4623
 5571SOL    HW128346   0.841   0.914   5.440 -0.1930 -0.3971  4.3288
 5571SOL    HW228347   0.841   0.773   5.408  0.2804  0.5836 -1.2239
 5572SOL     OW28348   0.658   1.125   4.290 -0.6520 -0.1802 -0.2276
 5572SOL    HW128349   0.585   1.069   4.320 -0.4522  0.2908  1.1376
 5572SOL    HW228350   0.660   1.099   4.198 -0.8682 -1.0860  0.0131
 5573SOL     OW28351   0.840   1.280  15.155 -0.1822 -0.5404 -0.3207
 5573SOL    HW128352   0.872   1.367  15.131 -2.8066  0.6626  0.4800
 5573SOL    HW228353   0.913   1.228  15.122 -0.1564 -0.2569 -0.7141
 5574SOL     OW28354   2.207   2.588   7.386 -0.3369  0.4663  0.2563
 5574SOL    HW128355   2.157   2.513   7.354 -1.2197  1.5239 -0.8219
 5574SOL    HW228356   2.183   2.649   7.317 -0.5927  4.7985  4.1415
 5575SOL     OW28357   0.411   1.794  14.601  0.0785  0.4520  0.1030
 5575SOL    HW128358   0.445   1.704  14.601 -1.2693 -0.0485 -0.3404
 5575SOL    HW228359   0.354   1.783  14.525  1.4298 -0.4457 -0.7908
 5576SOL     OW28360   1.750   4.422  11.853  0.1329  0.0842  0.0931
 5576SOL    HW128361   1.728   4.377  11.935 -2.7398  0.3789 -0.5040
 5576SOL    HW228362   1.827   4.374  11.823  0.1991  0.5931 -0.5565
 5577SOL     OW28363   4.287   2.798   8.923 -0.3342 -0.6340  0.2477
 5577SOL    HW128364   4.319   2.749   8.847  0.9162 -0.7090  0.8208
 5577SOL    HW228365   4.287   2.736   8.996 -0.1875 -0.8974  0.0219
 5578SOL     OW28366   2.652   0.570   6.182  0.1597  0.2696  0.2901
 5578SOL    HW128367   2.635   0.478   6.160 -0.9604  0.9133 -1.5650
 5578SOL    HW228368   2.607   0.613   6.109  0.3450 -2.5224 -1.4673
 5579SOL     OW28369   0.725   0.990   3.770  0.0962  0.4278  0.0467
 5579SOL    HW128370   0.720   0.895   3.761 -1.3914  0.5568 -0.5213
 5579SOL    HW228371   0.720   1.015   3.678 -0.0936 -0.3701 -0.1644
 5580SOL     OW28372   0.727   4.240   5.267  0.2527 -0.1994 -0.0755
 5580SOL    HW128373   0.759   4.307   5.207  0.9426  1.5603  2.2416
 5580SOL    HW228374   0.636   4.237   5.237 -0.3807 -0.4981  1.8747
 5581SOL     OW28375   2.842   3.343   4.942  0.3657 -0.3077  0.2315
 5581SOL    HW128376   2.874   3.432   4.922 -0.4761  0.2196  1.2480
 5581SOL    HW228377   2.752   3.365   4.966 -0.1560 -1.9793 -0.2444
 5582SOL     OW28378   0.025   3.670   7.042  0.1896  0.1035  0.6339
 5582SOL    HW128379   0.060   3.611   6.976  2.5778  1.3925  0.7488
 5582SOL    HW228380   0.081   3.747   7.037  1.1937 -0.6943 -0.3117
 5583SOL     OW28381   3.008   0.556  11.220 -0.2550  0.1510 -0.3100
 5583SOL    HW128382   3.067   0.551  11.146 -0.1395 -0.1183 -0.2010
 5583SOL    HW228383   3.047   0.632  11.262  0.9304  0.1748 -1.4669
 5584SOL     OW28384   4.190   4.659   4.616  0.1804  0.7096 -0.3567
 5584SOL    HW128385   4.162   4.739   4.572 -0.9880 -0.0414 -0.9639
 5584SOL    HW228386   4.275   4.652   4.572  0.6462  2.8607  0.1778
 5585SOL     OW28387   4.489   1.993   4.145 -0.3464  0.2439 -0.1922
 5585SOL    HW128388   4.437   1.957   4.218 -0.1037 -0.6492 -0.4604
 5585SOL    HW228389   4.432   1.992   4.069  0.1518  1.9999 -0.5808
 5586SOL     OW28390   1.520   2.676   1.947  0.7577 -0.1632 -0.1970
 5586SOL    HW128391   1.533   2.755   1.894  1.7162 -0.3839 -0.2837
 5586SOL    HW228392   1.564   2.696   2.029  1.3814 -0.7000 -0.4053
 5587SOL     OW28393   4.588   2.711  11.960  0.0210 -0.1892 -0.0894
 5587SOL    HW128394   4.641   2.767  12.015  2.0915  0.2713 -2.5470
 5587SOL    HW228395   4.505   2.727  12.004  0.0191 -0.6290  0.0756
 5588SOL     OW28396   2.187   3.456   7.492  0.1427 -0.4331 -0.2175
 5588SOL    HW128397   2.207   3.366   7.519 -0.9669 -0.6753 -0.2092
 5588SOL    HW228398   2.275   3.488   7.513 -0.5821 -0.0375  2.3234
 5589SOL     OW28399   4.046   1.459   1.936 -0.3827 -0.4157  0.5444
 5589SOL    HW128400   3.951   1.457   1.951 -0.0635  1.7351  2.9194
 5589SOL    HW228401   4.075   1.397   2.003  1.5085 -0.4785 -0.3534
 5590SOL     OW28402   2.077   0.794   6.123  0.4905 -0.2072  0.0444
 5590SOL    HW128403   2.044   0.868   6.175 -0.8188 -0.4653 -0.4353
 5590SOL    HW228404   2.053   0.823   6.035  0.2006 -1.4875 -0.2944
 5591SOL     OW28405   2.467   2.111   4.058  0.0413  0.0479 -0.0099
 5591SOL    HW128406   2.512   2.130   4.140 -0.4136 -2.2293  0.7595
 5591SOL    HW228407   2.541   2.120   3.998  0.1427 -0.3241  0.0611
 5592SOL     OW28408   2.553   2.027   2.817  0.0972  0.1238  0.2833
 5592SOL    HW128409   2.510   2.093   2.762 -1.7329 -0.0779  1.4776
 5592SOL    HW228410   2.526   2.053   2.905  1.7458  0.9310  0.5469
 5593SOL     OW28411   2.154   0.812   6.572 -0.4011  0.3303  0.1514
 5593SOL    HW128412   2.240   0.810   6.615  1.2527  2.0199 -3.0498
 5593SOL    HW228413   2.147   0.731   6.522  2.7755  1.3130 -1.8463
 5594SOL     OW28414   4.215   2.508  12.843 -0.0313  0.5528  0.0386
 5594SOL    HW128415   4.205   2.524  12.937  2.3245 -2.2161  0.7817
 5594SOL    HW228416   4.301   2.466  12.853  0.2678  1.3638  0.9336
 5595SOL     OW28417   4.179   2.942   0.497 -0.1948 -0.3323 -0.2833
 5595SOL    HW128418   4.145   2.986   0.419  0.8068  0.6920 -0.1367
 5595SOL    HW228419   4.270   2.970   0.499 -0.1857 -0.4526  0.8401
 5596SOL     OW28420   3.751   1.039   0.533  0.3230 -0.0647  0.0693
 5596SOL    HW128421   3.725   1.107   0.471  0.0397  0.2518  0.5389
 5596SOL    HW228422   3.711   0.961   0.494  0.6569  0.1871 -0.7856
 5597SOL     OW28423   3.047   1.649   2.039  0.8558 -0.1250 -0.9757
 5597SOL    HW128424   3.132   1.626   2.076  0.6026 -0.2610 -0.4878
 5597SOL    HW228425   3.059   1.645   1.944  0.4871 -2.8038 -0.9047
 5598SOL     OW28426   2.246   0.936  16.013 -0.7831 -0.1989 -1.2553
 5598SOL    HW128427   2.313   0.953  15.947  2.0750 -1.8826  1.1909
 5598SOL    HW228428   2.184   0.887  15.958 -1.8406  1.2097 -1.3380
 5599SOL     OW28429   0.201   3.303  13.768  0.1540 -0.6061  0.1210
 5599SOL    HW128430   0.166   3.354  13.841  1.1033  0.5994 -0.2693
 5599SOL    HW228431   0.169   3.348  13.690 -1.0996 -1.0441  0.3858
 5600SOL     OW28432   0.114   1.520   0.378  0.2779  0.1028 -0.0244
 5600SOL    HW128433   0.034   1.468   0.366 -0.6494  1.5212  0.0319
 5600SOL    HW228434   0.147   1.488   0.463 -1.5155  1.0043  1.0050
 5601SOL     OW28435   0.329   4.619   2.681 -0.1674  0.2562 -0.0489
 5601SOL    HW128436   0.248   4.669   2.689  0.0649  0.3679  1.6089
 5601SOL    HW228437   0.334   4.587   2.771 -1.5763 -1.0845 -0.4400
 5602SOL     OW28438   4.219   0.485   4.246  0.1505 -0.3216 -0.3183
 5602SOL    HW128439   4.189   0.493   4.156  0.0545 -4.2456 -0.6244
 5602SOL    HW228440   4.293   0.424   4.243 -1.3621 -2.3123  2.3617
 5603SOL     OW28441   3.430   1.253   9.382  0.3792 -0.3654 -0.3093
 5603SOL    HW128442   3.336   1.262   9.399  0.1108 -0.7040 -1.6281
 5603SOL    HW228443   3.446   1.274   9.289  0.5880 -1.2221 -0.4629
 5604SOL     OW28444   1.089   0.504   1.890 -0.1229  0.2679  0.2235
 5604SOL    HW128445   1.015   0.449   1.914  0.7348 -1.0785 -0.2446
 5604SOL    HW228446   1.078   0.583   1.943 -1.4337  0.7335 -0.7320
 5605SOL     OW28447   3.014   2.056   7.582 -0.7649 -0.5021  0.1936
 5605SOL    HW128448   3.035   2.089   7.669  2.0847 -3.0778  0.4650
 5605SOL    HW228449   2.945   1.991   7.593  0.0343 -1.4408 -0.3379
 5606SOL     OW28450   2.751   3.440   3.367  0.1146  0.1656 -0.3043
 5606SOL    HW128451   2.688   3.485   3.312  1.0920  0.2847 -1.3271
 5606SOL    HW228452   2.814   3.512   3.364 -0.2930  0.5926  1.6087
 5607SOL     OW28453   2.673   3.125   8.918  0.2638 -0.1157  0.0053
 5607SOL    HW128454   2.656   3.215   8.889  2.0978 -0.3252 -1.7426
 5607SOL    HW228455   2.671   3.134   9.013 -0.2473 -0.2516  0.0038
 5608SOL     OW28456   0.651   4.350   2.123 -0.6207 -0.2295  0.1270
 5608SOL    HW128457   0.610   4.390   2.201 -0.1646 -0.6734  0.5949
 5608SOL    HW228458   0.575   4.343   2.065  0.7948 -1.6580 -1.5522
 5609SOL     OW28459   2.073   2.279   8.883 -0.0330  0.2804  0.0958
 5609SOL    HW128460   2.159   2.242   8.904 -0.7660 -0.3879  1.8893
 5609SOL    HW228461   2.102   2.370   8.883  0.2338  0.1954  0.5668
 5610SOL     OW28462   1.639   3.144   5.035  0.7052  0.2085 -0.0838
 5610SOL    HW128463   1.673   3.157   5.124 -2.9123 -1.1334  1.4870
 5610SOL    HW228464   1.716   3.151   4.979 -1.1667  2.8995 -2.3652
 5611SOL     OW28465   2.306   1.515   8.047  0.5456  0.1538  0.0779
 5611SOL    HW128466   2.221   1.475   8.025  0.2284  0.6014  0.4859
 5611SOL    HW228467   2.316   1.482   8.137  1.2267  1.2234  0.3829
 5612SOL     OW28468   1.678   1.845   1.589  0.4357  0.4975 -0.2821
 5612SOL    HW128469   1.741   1.877   1.525 -0.7363  2.2177 -0.5625
 5612SOL    HW228470   1.638   1.776   1.536 -0.4141  2.0954 -1.7189
 5613SOL     OW28471   0.285   0.726   1.537 -0.1017 -0.3294  0.2446
 5613SOL    HW128472   0.220   0.734   1.608  0.4225 -2.0465  0.9128
 5613SOL    HW228473   0.238   0.773   1.468  2.2528  0.9288 -0.4926
 5614SOL     OW28474   2.679   2.717   1.775  0.2926 -0.2109  0.1815
 5614SOL    HW128475   2.768   2.689   1.793  0.4192 -0.3664 -0.6645
 5614SOL    HW228476   2.685   2.689   1.683 -0.9052 -0.0708  0.0544
 5615SOL     OW28477   1.129   2.354  15.814  0.1954 -0.9439 -0.3384
 5615SOL    HW128478   1.078   2.417  15.763  1.0480  1.1993  1.4306
 5615SOL    HW228479   1.058   2.318  15.865  0.7173  0.5826  1.4626
 5616SOL     OW28480   4.459   2.812  17.539  0.2549  0.2271 -0.0968
 5616SOL    HW128481   4.553   2.798  17.529  0.5528  2.3171 -0.2861
 5616SOL    HW228482   4.445   2.835  17.447  2.9780  1.8516 -0.1011
 5617SOL     OW28483   4.285   2.083   1.480 -0.1880 -0.5046  0.0503
 5617SOL    HW128484   4.263   1.990   1.469 -0.2530 -0.2651 -1.9432
 5617SOL    HW228485   4.381   2.087   1.472 -0.1269  0.4814  1.4708
 5618SOL     OW28486   2.019   4.352   9.023  0.3515 -0.3378 -0.6673
 5618SOL    HW128487   2.085   4.289   8.995 -0.7391 -1.7219 -0.0992
 5618SOL    HW228488   2.057   4.394   9.100 -1.4061 -1.7573  0.9852
 5619SOL     OW28489   2.424   2.812   4.983  0.0462 -0.0435  0.1918
 5619SOL    HW128490   2.402   2.809   5.077  1.1305 -0.6610  0.4179
 5619SOL    HW228491   2.336   2.834   4.950 -0.9238 -1.9402  1.5317
 5620SOL     OW28492   1.881   0.406  16.088 -0.0300  0.6308  0.0403
 5620SOL    HW128493   1.830   0.347  16.034 -1.7298  1.5127  0.6612
 5620SOL    HW228494   1.970   0.375  16.078 -0.4394  0.0895 -1.7863
 5621SOL     OW28495   2.278   0.014   3.592 -0.3727 -1.5025  0.2362
 5621SOL    HW128496   2.347   0.078   3.575  0.2735 -2.1637  0.3529
 5621SOL    HW228497   2.262   4.722   3.503 -1.4199 -0.3635  0.0296
 5622SOL     OW28498   1.307   3.161   2.265  0.4946  0.3678 -0.0804
 5622SOL    HW128499   1.290   3.148   2.358  1.4667 -0.0279  0.0433
 5622SOL    HW228500   1.248   3.233   2.244  1.2538  0.3301 -2.3308
 5623SOL     OW28501   2.314   1.213   1.495 -0.4692  0.5625 -0.0670
 5623SOL    HW128502   2.296   1.129   1.538  1.3147  1.6409  2.8164
 5623SOL    HW228503   2.266   1.266   1.558 -3.2741 -0.8956 -0.9716
 5624SOL     OW28504   1.847   3.521   7.691  0.2384  0.2928  0.8601
 5624SOL    HW128505   1.755   3.510   7.668  1.2225 -2.6376 -1.6140
 5624SOL    HW228506   1.874   3.540   7.601 -3.4420  0.4469 -0.1869
 5625SOL     OW28507   3.969   1.722   9.066 -0.2168  0.0355 -0.2817
 5625SOL    HW128508   4.058   1.744   9.092 -0.2956  2.1904 -1.8506
 5625SOL    HW228509   3.943   1.664   9.138 -3.0816 -1.1432 -2.2462
 5626SOL     OW28510   2.573   3.076   3.140 -0.3956 -0.1520 -0.1920
 5626SOL    HW128511   2.500   3.135   3.161  0.1898  0.5404 -0.1071
 5626SOL    HW228512   2.581   3.025   3.221  0.5343 -0.8791 -0.7476
 5627SOL     OW28513   2.743   1.427   2.281  0.5128 -0.7412  0.1096
 5627SOL    HW128514   2.804   1.501   2.279  0.7112 -0.9151 -0.2066
 5627SOL    HW228515   2.696   1.451   2.201  1.1230  0.0116 -0.0185
 5628SOL     OW28516   3.958   0.928   5.441 -0.1316  0.0571 -0.6557
 5628SOL    HW128517   4.021   0.901   5.374  1.2207  0.6223  0.3798
 5628SOL    HW228518   4.015   0.964   5.509 -0.1735  0.3429 -0.7730
 5629SOL     OW28519   4.306   3.630   8.366 -0.0856 -0.2442  0.8000
 5629SOL    HW128520   4.330   3.590   8.282 -0.4206 -3.1888  2.1130
 5629SOL    HW228521   4.337   3.564   8.428 -0.2896 -0.3521  0.7887
 5630SOL     OW28522   2.489   3.365   6.103 -0.3871  0.2191 -0.5951
 5630SOL    HW128523   2.545   3.299   6.063 -1.2538 -1.2084  0.5398
 5630SOL    HW228524   2.408   3.318   6.124 -0.1191  0.2624  0.5064
 5631SOL     OW28525   2.239   2.422   4.475  0.0601 -0.1937 -0.1580
 5631SOL    HW128526   2.201   2.408   4.389 -1.4953  0.3935  0.4383
 5631SOL    HW228527   2.175   2.369   4.524  0.7663  0.7258  1.7802
 5632SOL     OW28528   3.510   1.955  10.694  0.0210  0.3226  0.1996
 5632SOL    HW128529   3.485   1.934  10.604  0.8682 -0.1461  0.0669
 5632SOL    HW228530   3.593   1.906  10.692 -1.8721 -2.8407 -0.5884
 5633SOL     OW28531   3.379   0.155  13.953  0.0625 -0.0642 -0.1814
 5633SOL    HW128532   3.415   0.139  13.866 -0.7165 -2.6959  0.0046
 5633SOL    HW228533   3.305   0.095  13.948  1.1530 -1.5327  1.1119
 5634SOL     OW28534   1.450   3.629   9.525  0.0207 -0.1411  0.2509
 5634SOL    HW128535   1.434   3.559   9.461  0.3025  0.2565 -0.2565
 5634SOL    HW228536   1.426   3.711   9.481  1.8669  0.4337  0.3212
 5635SOL     OW28537   0.719   0.390   5.894 -0.2689  0.0907 -0.2465
 5635SOL    HW128538   0.742   0.331   5.965 -0.5734 -0.1966 -0.3853
 5635SOL    HW228539   0.699   0.467   5.947 -1.7307 -0.8009  0.5011
 5636SOL     OW28540   2.695   4.392  13.136 -0.1295 -0.2576  0.2940
 5636SOL    HW128541   2.682   4.324  13.202  3.5643  0.2423  1.5594
 5636SOL    HW228542   2.621   4.452  13.144 -0.2468 -0.3947  0.2335
 5637SOL     OW28543   3.322   1.041   4.558 -0.6141  0.1401 -0.0393
 5637SOL    HW128544   3.253   1.108   4.557  1.6854  2.4324 -2.0970
 5637SOL    HW228545   3.384   1.075   4.494  0.5188  0.7521  1.4054
 5638SOL     OW28546   0.260   2.605  15.276 -0.2432 -0.5750  0.6140
 5638SOL    HW128547   0.308   2.658  15.340 -0.2359  0.2576 -0.0662
 5638SOL    HW228548   0.332   2.564  15.230  0.6305  0.0238  1.4488
 5639SOL     OW28549   3.777   0.579   6.785 -0.3519 -0.0385  0.6697
 5639SOL    HW128550   3.817   0.507   6.833  3.6657 -0.0172 -2.6489
 5639SOL    HW228551   3.710   0.544   6.726 -1.3278  2.2994  0.3925
 5640SOL     OW28552   4.469   3.949  17.127 -0.3183  0.2727  0.1388
 5640SOL    HW128553   4.537   3.983  17.185  0.7730 -1.3783 -0.1774
 5640SOL    HW228554   4.510   3.867  17.100  3.2456  1.9751  0.4654
 5641SOL     OW28555   2.973   0.422   6.531 -0.3596  0.5336  0.4116
 5641SOL    HW128556   2.880   0.402   6.543 -0.2133 -0.1463  0.3981
 5641SOL    HW228557   2.975   0.475   6.611  1.4436  0.3619  0.4740
 5642SOL     OW28558   0.830   3.083   7.225 -0.4507 -0.0121  0.2018
 5642SOL    HW128559   0.758   3.020   7.226 -1.1753  0.7233 -3.0604
 5642SOL    HW228560   0.854   3.104   7.315  2.5766  1.6260 -0.9764
 5643SOL     OW28561   2.529   0.105   4.427  0.7334  0.6748  0.1044
 5643SOL    HW128562   2.566   0.167   4.364 -1.1541  0.3743 -1.2807
 5643SOL    HW228563   2.591   0.032   4.422  0.0200  0.0230  0.7446
 5644SOL     OW28564   3.272   0.229   1.981 -0.0364 -0.5248 -0.5266
 5644SOL    HW128565   3.259   0.286   2.057  3.7174 -0.1372 -0.1236
 5644SOL    HW228566   3.257   0.294   1.912 -0.3122  1.2031  1.1648
 5645SOL     OW28567   1.352   4.708   3.280  0.0826 -0.3782  0.6715
 5645SOL    HW128568   1.356   4.671   3.368 -1.4041 -0.7782  0.5755
 5645SOL    HW228569   1.441   0.004   3.279  0.6708 -1.8704  1.1081
 5646SOL     OW28570   3.165   4.112  10.868 -0.8737  0.4111  0.4513
 5646SOL    HW128571   3.200   4.029  10.836  0.3087  0.5567  1.3747
 5646SOL    HW228572   3.099   4.136  10.803 -1.4135 -0.0373  0.8288
 5647SOL     OW28573   2.547   1.778  15.852 -0.0170 -0.3683  0.2418
 5647SOL    HW128574   2.458   1.766  15.820  0.4444 -0.3599 -1.0178
 5647SOL    HW228575   2.604   1.764  15.776 -0.0992 -0.8697  0.2715
 5648SOL     OW28576   0.702   1.066   5.232  0.0461  0.1697 -0.3557
 5648SOL    HW128577   0.680   1.159   5.228  0.2963  0.2466 -0.0069
 5648SOL    HW228578   0.613   1.034   5.241 -0.6803  1.7220 -2.1255
 5649SOL     OW28579   2.478   1.881   7.461  0.3332  0.6116 -0.4636
 5649SOL    HW128580   2.489   1.976   7.465 -0.0532  0.7443 -2.2559
 5649SOL    HW228581   2.455   1.873   7.368 -0.5979 -0.4464 -0.1462
 5650SOL     OW28582   1.176   1.451   3.317  0.0631 -0.1422 -1.0788
 5650SOL    HW128583   1.210   1.449   3.228  2.5925 -0.7834 -0.0958
 5650SOL    HW228584   1.252   1.460   3.374  0.1663 -3.9528 -0.6270
 5651SOL     OW28585   0.090   0.833   4.071 -0.0504 -0.3509 -0.1566
 5651SOL    HW128586   0.116   0.924   4.058  1.1546 -1.0057 -2.4035
 5651SOL    HW228587   0.055   0.841   4.159  2.2741 -0.6886  0.8066
 5652SOL     OW28588   2.296   4.038  12.057 -0.2291  0.1330  0.5214
 5652SOL    HW128589   2.299   3.973  12.127 -0.9987 -0.3333  0.1244
 5652SOL    HW228590   2.371   4.005  12.007 -1.0378  1.3016 -1.4631
 5653SOL     OW28591   1.083   1.750   1.760  0.1983 -0.1243 -0.2972
 5653SOL    HW128592   1.030   1.749   1.680 -0.5938  0.5243  0.2202
 5653SOL    HW228593   1.044   1.820   1.812  2.6364  0.9307  0.1162
 5654SOL     OW28594   1.115   1.711   4.767 -0.1543  0.4197  0.5033
 5654SOL    HW128595   1.127   1.616   4.775  3.0112  0.7368 -0.4088
 5654SOL    HW228596   1.169   1.733   4.691 -0.7184 -1.3258 -0.3948
 5655SOL     OW28597   2.262   0.667  12.015 -0.1012 -0.2200  0.0219
 5655SOL    HW128598   2.299   0.606  11.952  0.2066 -0.4954  0.4650
 5655SOL    HW228599   2.182   0.697  11.972 -1.6894 -1.4244  2.1149
 5656SOL     OW28600   2.943   0.315   1.979  0.1653 -0.6037  0.6276
 5656SOL    HW128601   2.894   0.372   2.039 -0.3726  0.6386 -0.9942
 5656SOL    HW228602   3.024   0.365   1.964 -0.4824 -0.7067 -3.0275
 5657SOL     OW28603   1.849   0.400  17.708 -0.2065  0.0032  0.1044
 5657SOL    HW128604   1.942   0.377  17.709 -0.1830  0.1553  1.0205
 5657SOL    HW228605   1.810   0.321  17.670 -0.1241 -1.7321  3.6291
 5658SOL     OW28606   4.497   4.537   2.320  0.1180  0.2153 -0.4003
 5658SOL    HW128607   4.526   4.625   2.345 -1.5425  0.4784  0.6398
 5658SOL    HW228608   4.406   4.535   2.350  0.7876 -0.3915  1.6064
 5659SOL     OW28609   1.873   1.849   6.145 -0.2402 -0.1617 -0.0768
 5659SOL    HW128610   1.859   1.876   6.235 -1.0041  0.4304 -0.3647
 5659SOL    HW228611   1.788   1.829   6.106 -0.5802  1.1622 -0.0274
 5660SOL     OW28612   1.823   0.510   3.707 -0.1875 -0.0040 -0.4044
 5660SOL    HW128613   1.865   0.579   3.758 -0.2219 -2.0562  2.4015
 5660SOL    HW228614   1.742   0.490   3.755 -0.5721  1.6326 -0.3492
 5661SOL     OW28615   3.483   0.125   8.810 -0.0947 -0.3473  0.6226
 5661SOL    HW128616   3.388   0.133   8.797 -0.3409 -2.8241  0.8197
 5661SOL    HW228617   3.510   0.086   8.727 -4.9755 -1.8644 -0.2687
 5662SOL     OW28618   1.242   2.281   4.567 -0.0037 -0.0276  0.4463
 5662SOL    HW128619   1.322   2.256   4.613 -0.9538  1.2930  2.8055
 5662SOL    HW228620   1.244   2.228   4.487  2.8679  3.5777 -1.8096
 5663SOL     OW28621   2.076   4.170  12.889  0.0875 -0.5225 -0.9769
 5663SOL    HW128622   2.061   4.259  12.921  1.8457 -1.0195  1.2446
 5663SOL    HW228623   2.064   4.189  12.796 -0.0707 -1.8106 -1.2218
 5664SOL     OW28624   3.529   3.428   5.713 -0.5977 -0.9006 -0.2665
 5664SOL    HW128625   3.621   3.447   5.734 -1.0479  0.8222  0.1062
 5664SOL    HW228626   3.527   3.334   5.731  0.7051 -0.9226 -0.2253
 5665SOL     OW28627   3.577   0.585   1.240 -0.3048 -0.3545 -0.9702
 5665SOL    HW128628   3.617   0.578   1.153  0.1532 -1.0745 -0.7100
 5665SOL    HW228629   3.534   0.670   1.235 -0.9808 -0.6053  0.8766
 5666SOL     OW28630   4.675   0.435   6.077 -0.2544 -0.6468  0.3923
 5666SOL    HW128631   4.644   0.487   6.002 -0.8721  0.8951  1.7078
 5666SOL    HW228632   0.031   0.431   6.071 -0.1446  1.8990  0.4360
 5667SOL     OW28633   3.168   0.525   8.937 -0.2485  0.1387  0.3304
 5667SOL    HW128634   3.160   0.430   8.932 -0.7143  0.3249 -2.5577
 5667SOL    HW228635   3.247   0.544   8.989 -1.1907  0.5671  1.6104
 5668SOL     OW28636   2.635   2.846   4.829 -0.0262 -0.4877  0.1013
 5668SOL    HW128637   2.563   2.825   4.888  1.5073 -1.4030  1.6391
 5668SOL    HW228638   2.671   2.934   4.845  0.0423 -0.4677 -0.1629
 5669SOL     OW28639   3.594   0.731   0.160  0.4156  0.3179  0.2330
 5669SOL    HW128640   3.647   0.660   0.122 -1.1520 -0.9095  0.3286
 5669SOL    HW228641   3.606   0.804   0.099 -0.1461  0.1105 -0.1270
 5670SOL     OW28642   2.262   1.940   9.119  0.0871 -0.3754 -0.7529
 5670SOL    HW128643   2.293   1.889   9.194  0.9081  0.5770 -0.4498
 5670SOL    HW228644   2.175   1.971   9.142 -0.7184 -3.2473  0.0771
 5671SOL     OW28645   2.020   0.750   3.457 -0.0879  0.8211 -0.0286
 5671SOL    HW128646   1.967   0.811   3.406 -0.7034 -0.7937 -1.3586
 5671SOL    HW228647   2.068   0.694   3.395  0.5260  0.3182  0.9103
 5672SOL     OW28648   0.886   2.271   7.535 -0.1539 -0.5317 -0.1372
 5672SOL    HW128649   0.814   2.258   7.473 -1.1041  4.2304 -0.0552
 5672SOL    HW228650   0.845   2.273   7.621 -1.0046  1.6457 -0.5941
 5673SOL     OW28651   3.810   0.270   6.046  0.2831  0.3805  0.2247
 5673SOL    HW128652   3.793   0.337   5.980 -4.5347 -1.5151 -0.4321
 5673SOL    HW228653   3.769   0.299   6.128 -1.7894 -0.2174 -0.5992
 5674SOL     OW28654   0.245   4.107  11.904  0.5719 -0.5930  0.6424
 5674SOL    HW128655   0.162   4.070  11.936 -0.4228  0.0616 -1.1841
 5674SOL    HW228656   0.275   4.040  11.842 -1.1842 -0.6399 -0.1463
 5675SOL     OW28657   1.458   1.656  11.674 -0.2822  0.1714  0.1627
 5675SOL    HW128658   1.384   1.707  11.641 -1.7744 -2.6999 -0.9194
 5675SOL    HW228659   1.449   1.658  11.770  0.4114 -0.8477  0.2461
 5676SOL     OW28660   0.276   2.217   7.287 -0.3013  0.1987  0.2862
 5676SOL    HW128661   0.342   2.242   7.352 -0.6913  0.9992  0.3688
 5676SOL    HW228662   0.244   2.133   7.320 -1.3367  0.9002  1.0419
 5677SOL     OW28663   4.014   1.844   4.503  0.0255  0.3609 -0.4587
 5677SOL    HW128664   4.079   1.859   4.572  1.2555  0.2125 -1.5845
 5677SOL    HW228665   4.001   1.935   4.475  1.2419  0.7479  0.2325
 5678SOL     OW28666   2.396   0.844   5.411 -0.2642  0.0740 -0.1292
 5678SOL    HW128667   2.412   0.820   5.320  1.7617  0.2041  0.1894
 5678SOL    HW228668   2.329   0.781   5.435 -0.5348  0.4481  0.1161
 5679SOL     OW28669   1.849   0.417  13.057  0.3400  0.2951  0.3436
 5679SOL    HW128670   1.901   0.489  13.092  1.0746  0.0712 -0.2826
 5679SOL    HW228671   1.920   0.380  13.004 -0.5189 -0.5940 -0.1890
 5680SOL     OW28672   0.719   1.157   2.680  0.6611  0.7160  0.1332
 5680SOL    HW128673   0.687   1.224   2.742  0.9972 -1.2219  2.4148
 5680SOL    HW228674   0.683   1.199   2.602  0.4441  0.8302  0.2938
 5681SOL     OW28675   3.009   3.538   9.240 -0.0631  0.1809 -0.0480
 5681SOL    HW128676   3.035   3.630   9.251 -0.3265  0.1523  0.8092
 5681SOL    HW228677   3.092   3.501   9.210 -0.0306  1.8798 -2.0429
 5682SOL     OW28678   3.414   2.467   5.460 -0.0134 -0.2781 -0.2595
 5682SOL    HW128679   3.337   2.421   5.494 -0.2788  0.6669  0.4268
 5682SOL    HW228680   3.482   2.400   5.460  0.1768 -0.0849 -0.2512
 5683SOL     OW28681   1.239   0.127  11.992  0.2492  0.1616  0.4957
 5683SOL    HW128682   1.292   0.067  12.044  0.3034  1.5654  2.0449
 5683SOL    HW228683   1.195   0.181  12.057 -0.8823  1.6044 -1.4545
 5684SOL     OW28684   4.721   1.504   4.576 -0.2107  0.6517 -0.2418
 5684SOL    HW128685   4.635   1.544   4.565 -0.4574  0.7468  1.9408
 5684SOL    HW228686   4.736   1.508   4.671  0.4352  1.3639 -0.3776
 5685SOL     OW28687   2.602   0.316   6.143  0.0036 -0.5787 -0.0153
 5685SOL    HW128688   2.675   0.261   6.169 -0.3087 -0.9352  0.1082
 5685SOL    HW228689   2.564   0.261   6.074  1.2123  0.6206 -1.6382
 5686SOL     OW28690   2.457   2.959  13.294  0.0376  0.2723 -0.3458
 5686SOL    HW128691   2.503   2.986  13.215 -1.0190 -1.9842 -1.7264
 5686SOL    HW228692   2.458   3.039  13.347  1.5505 -0.1423  0.2403
 5687SOL     OW28693   0.182   1.522   2.736  0.0371 -0.0194  0.0437
 5687SOL    HW128694   0.166   1.428   2.729 -0.2589  0.0770 -0.6008
 5687SOL    HW228695   0.097   1.543   2.774 -2.2163 -1.0920 -4.4270
 5688SOL     OW28696   4.183   4.440   9.218 -0.2243 -0.2992 -0.0149
 5688SOL    HW128697   4.190   4.535   9.213  3.3896 -0.5860 -0.2547
 5688SOL    HW228698   4.173   4.418   9.125 -1.9605 -0.9063  0.3103
 5689SOL     OW28699   1.578   0.608   5.838 -0.1526  0.0667 -0.0993
 5689SOL    HW128700   1.486   0.625   5.858 -0.8252 -1.2987 -2.0401
 5689SOL    HW228701   1.590   0.524   5.882  1.8363  0.5168  0.2093
 5690SOL     OW28702   0.535   0.748  16.279 -0.6501  0.4238 -0.1164
 5690SOL    HW128703   0.592   0.795  16.219 -0.3996  2.0584  1.3933
 5690SOL    HW228704   0.521   0.816  16.345  0.2619 -0.3993  0.9223
 5691SOL     OW28705   4.711   0.868   4.868  0.3657  0.4582 -0.7113
 5691SOL    HW128706   0.065   0.852   4.886 -0.5069 -3.1202  0.5261
 5691SOL    HW228707   4.696   0.946   4.921 -0.8389  0.4664 -1.0559
 5692SOL     OW28708   0.478   1.270   3.081 -0.5637 -0.0626 -0.3106
 5692SOL    HW128709   0.425   1.349   3.071  0.1460  0.3306 -1.0569
 5692SOL    HW228710   0.533   1.286   3.004  0.4252 -1.0725  0.1972
 5693SOL     OW28711   3.466   3.646   7.649  0.1524 -0.4038  0.0718
 5693SOL    HW128712   3.544   3.597   7.676 -0.9208 -1.9890  0.2913
 5693SOL    HW228713   3.405   3.582   7.685 -1.7595  0.9687 -0.7665
 5694SOL     OW28714   4.204   3.342   7.696  0.2926 -0.0046 -0.3100
 5694SOL    HW128715   4.130   3.376   7.645 -1.2523 -0.4134  1.6217
 5694SOL    HW228716   4.274   3.376   7.640  0.4332 -0.3348 -0.3307
 5695SOL     OW28717   1.615   2.556   2.645  0.3260  0.4373 -0.6840
 5695SOL    HW128718   1.636   2.487   2.582 -1.7700 -0.2444 -0.6341
 5695SOL    HW228719   1.698   2.580   2.686  0.1123 -2.1492  1.2831
 5696SOL     OW28720   3.760   3.392   4.117  0.3943 -0.9063 -0.4377
 5696SOL    HW128721   3.818   3.388   4.041 -0.4765  3.4722 -1.3450
 5696SOL    HW228722   3.821   3.428   4.182 -1.1086 -0.5492  0.7865
 5697SOL     OW28723   2.028   0.158   6.518 -0.6209  0.2610 -0.1424
 5697SOL    HW128724   1.990   0.163   6.430 -2.9902  1.2673  0.9511
 5697SOL    HW228725   2.111   0.202   6.501  0.9830 -2.8190 -0.3143
 5698SOL     OW28726   1.206   1.485   1.534 -0.0193 -1.0590  0.6081
 5698SOL    HW128727   1.160   1.532   1.464  2.3546 -2.2024 -1.7235
 5698SOL    HW228728   1.152   1.406   1.523 -0.0424 -1.0311  0.5197
 5699SOL     OW28729   3.949   3.269   9.849  0.0188  0.0971 -0.0042
 5699SOL    HW128730   3.907   3.318   9.778  0.7868  0.6683 -0.0687
 5699SOL    HW228731   3.881   3.252   9.915 -0.0277  0.3459  0.0136
 5700SOL     OW28732   2.573   0.210   1.581  0.5835 -0.3680 -0.2851
 5700SOL    HW128733   2.639   0.179   1.519  0.1917  0.3128 -1.0289
 5700SOL    HW228734   2.614   0.203   1.668  1.0176 -0.3042 -0.4812
 5701SOL     OW28735   1.486   2.375   8.903 -0.1690  0.0860 -0.1382
 5701SOL    HW128736   1.436   2.297   8.927 -1.4952  0.9813  0.0205
 5701SOL    HW228737   1.420   2.428   8.859  0.4742 -0.4369 -1.7452
 5702SOL     OW28738   3.740   0.946   8.768  0.3400 -0.2690  0.1858
 5702SOL    HW128739   3.649   0.918   8.755  0.1822  0.9930 -1.4669
 5702SOL    HW228740   3.764   0.905   8.851 -1.0380 -0.7608  0.3512
 5703SOL     OW28741   0.032   0.248   7.960  0.4894 -0.0581 -0.9278
 5703SOL    HW128742   0.034   0.342   7.947  1.0754 -0.0337 -0.6517
 5703SOL    HW228743   0.072   0.242   8.047  0.4944  1.0008 -0.8579
 5704SOL     OW28744   1.101   4.126   3.014 -0.9566  0.3563 -0.0097
 5704SOL    HW128745   1.164   4.091   2.951 -0.3403  0.9884  0.2527
 5704SOL    HW228746   1.028   4.071   2.985  0.4532 -0.5972 -1.7460
 5705SOL     OW28747   4.278   1.827  14.333  0.4141 -0.5988  0.0184
 5705SOL    HW128748   4.199   1.827  14.280 -0.4275 -0.7056  1.2888
 5705SOL    HW228749   4.312   1.917  14.326 -0.4785 -0.3086 -0.5512
 5706SOL     OW28750   4.500   1.914   8.957 -0.1701  0.1083 -0.1376
 5706SOL    HW128751   4.457   1.914   9.042  1.0247  0.0594  0.4646
 5706SOL    HW228752   4.473   1.999   8.923  0.9273 -0.4822 -2.5195
 5707SOL     OW28753   1.899   3.487  16.151  0.6903 -0.2126  0.1248
 5707SOL    HW128754   1.835   3.546  16.110  0.0459  1.3134  3.3450
 5707SOL    HW228755   1.904   3.516  16.242 -4.3651 -0.1572  0.3544
 5708SOL     OW28756   1.289   0.699   8.593  0.4877  0.1828 -0.3786
 5708SOL    HW128757   1.378   0.718   8.622  0.4557 -0.5434  0.1714
 5708SOL    HW228758   1.249   0.659   8.670 -1.5479  0.0237 -1.5146
 5709SOL     OW28759   4.355   0.241   7.059  0.1113 -0.2854  0.5699
 5709SOL    HW128760   4.330   0.156   7.024  1.5364 -0.2208 -0.6251
 5709SOL    HW228761   4.322   0.308   6.999  1.0866 -1.5479 -1.3954
 5710SOL     OW28762   0.080   1.386   7.045  0.5586  0.4537 -0.0939
 5710SOL    HW128763   0.120   1.413   7.128 -1.1072  0.3099  0.7558
 5710SOL    HW228764   0.157   1.375   6.989  0.5509 -1.7567  0.3139
 5711SOL     OW28765   3.827   3.922   8.466 -0.4605  0.0276  0.9838
 5711SOL    HW128766   3.733   3.919   8.481 -0.6320 -0.5722 -0.2314
 5711SOL    HW228767   3.857   3.912   8.557  0.6189  0.3990  0.6726
 5712SOL     OW28768   0.478   2.655  11.188  0.0437  0.2369 -0.2770
 5712SOL    HW128769   0.400   2.629  11.139 -0.1582  2.0570 -0.9290
 5712SOL    HW228770   0.536   2.621  11.119 -0.1713  0.3648 -0.5238
 5713SOL     OW28771   4.399   1.744   5.268  0.3439 -0.3197 -1.0340
 5713SOL    HW128772   4.401   1.719   5.176  0.3710  0.5382 -1.2733
 5713SOL    HW228773   4.336   1.816   5.270  0.2020 -0.3740 -3.0585
 5714SOL     OW28774   2.608   1.730   8.986 -0.7936 -0.4418  0.6888
 5714SOL    HW128775   2.625   1.644   8.947  0.5727 -0.3882  1.1595
 5714SOL    HW228776   2.698   1.758   9.004 -0.8385 -0.1988  0.5232
 5715SOL     OW28777   1.857   1.635  12.419 -0.3144  0.2472  0.4940
 5715SOL    HW128778   1.774   1.609  12.379  0.3069 -0.8397 -0.0764
 5715SOL    HW228779   1.823   1.680  12.496  0.3616  1.2027  0.2383
 5716SOL     OW28780   0.165   3.914   7.476 -0.3061 -0.2259  0.4024
 5716SOL    HW128781   0.095   3.973   7.451 -2.6707 -2.4721  1.6215
 5716SOL    HW228782   0.151   3.896   7.570 -1.2150 -1.6894  0.0006
 5717SOL     OW28783   1.287   2.120   6.026  0.0454 -0.2436  0.9950
 5717SOL    HW128784   1.260   2.056   5.960 -0.5810  0.2504  0.7667
 5717SOL    HW228785   1.202   2.146   6.061  0.9681  4.1984 -0.1112
 5718SOL     OW28786   4.164   4.329   5.765 -0.1909 -0.5426  0.1515
 5718SOL    HW128787   4.142   4.406   5.818 -1.3671 -0.7658 -0.0164
 5718SOL    HW228788   4.226   4.372   5.705 -1.8659  1.7212  0.0395
 5719SOL     OW28789   2.206   2.741   9.971  0.2456  0.9970 -0.4390
 5719SOL    HW128790   2.186   2.653   9.940  1.3411 -0.2779  2.5182
 5719SOL    HW228791   2.252   2.718  10.052  0.6374  0.5835 -0.7744
 5720SOL     OW28792   0.367   0.200   2.673  0.4183 -0.2398  0.4181
 5720SOL    HW128793   0.305   0.269   2.695 -0.8588 -1.4099  0.4808
 5720SOL    HW228794   0.311   0.125   2.691 -0.4750  0.5195  0.8194
 5721SOL     OW28795   1.290   1.301   2.468  0.2581 -0.1000 -0.0587
 5721SOL    HW128796   1.250   1.236   2.410  0.6938  0.5925 -1.1274
 5721SOL    HW228797   1.220   1.303   2.533  0.6408 -1.0238  0.3853
 5722SOL     OW28798   4.110   3.891  12.885 -0.4373  0.3947 -0.0539
 5722SOL    HW128799   4.196   3.850  12.880 -0.0395  0.8824  2.8510
 5722SOL    HW228800   4.069   3.862  12.804  0.5336  0.6176 -0.6258
 5723SOL     OW28801   2.619   2.381   1.506  0.0485  0.4892 -0.0951
 5723SOL    HW128802   2.645   2.310   1.447  2.4451 -0.0909  1.6787
 5723SOL    HW228803   2.680   2.377   1.579  0.5034 -0.0927 -0.5098
 5724SOL     OW28804   3.027   2.505   6.635 -0.0659 -0.3588  0.4233
 5724SOL    HW128805   3.065   2.494   6.548  2.2232  1.9814  1.1143
 5724SOL    HW228806   3.085   2.567   6.681  0.5211 -0.0828 -0.6904
 5725SOL     OW28807   0.600   4.664   5.837  0.3182 -0.5882 -0.3957
 5725SOL    HW128808   0.607   0.020   5.846 -3.2419 -0.3528 -0.4000
 5725SOL    HW228809   0.670   4.625   5.890 -0.8147 -1.0131  0.7954
 5726SOL     OW28810   3.876   3.861   2.128 -0.0080  0.5382 -0.3481
 5726SOL    HW128811   3.918   3.798   2.187 -0.4002  0.9337  0.3635
 5726SOL    HW228812   3.928   3.941   2.143 -0.7999  1.2697 -1.4955
 5727SOL     OW28813   0.827   1.532   3.647  0.3507 -0.3257 -0.1284
 5727SOL    HW128814   0.742   1.494   3.626 -0.0366 -0.9420  2.5288
 5727SOL    HW228815   0.875   1.476   3.586 -1.4567 -2.9785  0.8890
 5728SOL     OW28816   2.400   3.262   5.734 -0.3835  0.0177 -0.4461
 5728SOL    HW128817   2.411   3.346   5.780  1.6001 -0.5595  0.1343
 5728SOL    HW228818   2.306   3.249   5.738  0.2322 -3.8036  1.3822
 5729SOL     OW28819   3.784   2.306   2.017 -0.0369  0.3917  0.0987
 5729SOL    HW128820   3.693   2.306   1.989  0.7021 -1.5851 -2.2519
 5729SOL    HW228821   3.821   2.384   1.976 -1.4463 -0.0646 -2.0150
 5730SOL     OW28822   2.617   2.388   8.797  0.3982 -0.0705  0.3896
 5730SOL    HW128823   2.650   2.353   8.714  0.2494 -0.2481  0.4048
 5730SOL    HW228824   2.642   2.480   8.783 -2.0856  0.7660  1.4313
 5731SOL     OW28825   0.497   1.908   1.036  0.1892 -0.0838  0.2732
 5731SOL    HW128826   0.563   1.946   0.978 -0.8330  2.0123  0.5048
 5731SOL    HW228827   0.428   1.887   0.974  0.7959  2.1600 -1.1463
 5732SOL     OW28828   2.122   0.814  12.428  0.2691  0.2033  0.2857
 5732SOL    HW128829   2.158   0.774  12.508 -0.0474 -2.4221 -0.9053
 5732SOL    HW228830   2.191   0.787  12.367  1.2686  1.2482  0.9372
 5733SOL     OW28831   0.712   2.697  16.008  0.1665  0.3005  0.3104
 5733SOL    HW128832   0.804   2.694  15.984 -0.0268 -2.9229 -0.0762
 5733SOL    HW228833   0.706   2.606  16.038  2.1976 -0.2426 -0.9310
 5734SOL     OW28834   3.346   3.940  14.646  0.2443  0.0771 -0.0899
 5734SOL    HW128835   3.367   3.861  14.695 -0.9278  0.9879  1.8604
 5734SOL    HW228836   3.384   3.919  14.560 -0.0811  1.1569 -0.5030
 5735SOL     OW28837   4.513   0.267   5.782 -0.5047 -0.4313  0.3266
 5735SOL    HW128838   4.480   0.219   5.707  0.4639 -1.0877  0.3171
 5735SOL    HW228839   4.456   0.344   5.786  0.4516  0.2507  0.8698
 5736SOL     OW28840   1.090   1.599  13.380  0.4546 -0.5816 -0.2552
 5736SOL    HW128841   1.106   1.648  13.300  0.5524 -1.1195 -0.5606
 5736SOL    HW228842   1.008   1.556  13.355  0.3944 -0.8075  0.3235
 5737SOL     OW28843   0.723   0.241   8.348 -0.3202 -0.4938  0.0987
 5737SOL    HW128844   0.697   0.150   8.357 -0.1025 -0.5129  0.5893
 5737SOL    HW228845   0.804   0.233   8.400  0.2758  1.5078 -0.5136
 5738SOL     OW28846   2.240   3.244   2.322  0.2993 -0.0570 -0.1870
 5738SOL    HW128847   2.309   3.183   2.297  0.1323 -0.7119  0.9380
 5738SOL    HW228848   2.245   3.298   2.243 -0.5924 -2.0439 -1.6070
 5739SOL     OW28849   1.140   4.215  12.685  0.2505 -0.5698 -0.6351
 5739SOL    HW128850   1.165   4.156  12.613 -1.6077 -0.3864 -1.4451
 5739SOL    HW228851   1.128   4.292  12.630  2.2919  0.9506  1.0800
 5740SOL     OW28852   4.456   3.529   7.278 -0.9784 -0.2594 -0.0712
 5740SOL    HW128853   4.414   3.611   7.254 -0.3049  0.2505  0.4583
 5740SOL    HW228854   4.428   3.487   7.197 -1.4276  2.3098 -1.2214
 5741SOL     OW28855   1.165   4.504  15.092 -0.9845 -0.1612 -0.1459
 5741SOL    HW128856   1.244   4.452  15.081 -0.6182  0.4228 -0.2992
 5741SOL    HW228857   1.180   4.539  15.180 -1.2502 -0.8038  0.1498
 5742SOL     OW28858   0.139   3.518  13.958 -0.0422  0.0680  0.0416
 5742SOL    HW128859   0.059   3.465  13.955  0.9753 -1.4919  0.8932
 5742SOL    HW228860   0.108   3.574  14.030  1.4648  1.2048 -0.1996
 5743SOL     OW28861   1.399   0.013   5.767  0.1256  0.6025  0.9387
 5743SOL    HW128862   1.318   4.733   5.720  0.2915  1.6716  0.2117
 5743SOL    HW228863   1.356   0.032   5.850 -0.5654 -1.4728  1.0442
 5744SOL     OW28864   2.534   3.815   0.631  0.3034 -0.1749 -0.1149
 5744SOL    HW128865   2.539   3.816   0.726 -1.0807 -0.9961 -0.0356
 5744SOL    HW228866   2.509   3.906   0.618  0.9287  0.0147  0.0288
 5745SOL     OW28867   4.683   3.172  17.474 -0.1473  0.1065  0.4934
 5745SOL    HW128868   4.670   3.141  17.564  0.0946 -1.5812 -0.0590
 5745SOL    HW228869   4.594   3.181  17.440  0.7107  3.3829 -0.9478
 5746SOL     OW28870   0.311   3.638  16.232  0.0299  0.4583  0.2893
 5746SOL    HW128871   0.383   3.648  16.170 -1.4954  1.4684 -1.3324
 5746SOL    HW228872   0.321   3.711  16.293  1.1281  0.2364  0.3653
 5747SOL     OW28873   1.983   3.523  17.750 -0.2555 -0.3647  0.4273
 5747SOL    HW128874   2.046   3.462   0.034 -0.3960  1.5795  3.8654
 5747SOL    HW228875   1.961   3.490  17.663  1.0954 -0.0885 -0.0194
 5748SOL     OW28876   3.400   2.663  15.998  0.0469  0.2917  0.1917
 5748SOL    HW128877   3.341   2.646  15.924 -0.7297  0.8963  0.6733
 5748SOL    HW228878   3.489   2.666  15.964  0.7391 -2.3844  1.6940
 5749SOL     OW28879   2.326   3.637  16.861  0.5954 -0.0399  0.7032
 5749SOL    HW128880   2.309   3.652  16.954 -0.7914 -1.8015  0.7335
 5749SOL    HW228881   2.420   3.639  16.842  0.1491  1.0642 -1.4310
 5750SOL     OW28882   1.439   3.285   4.016 -0.1957 -0.2411  0.6728
 5750SOL    HW128883   1.452   3.210   3.958 -2.6593  0.6942 -1.0731
 5750SOL    HW228884   1.379   3.248   4.080  0.2044  0.4646  1.4425
 5751SOL     OW28885   0.552   0.490  15.019 -0.0567  0.5263 -0.0728
 5751SOL    HW128886   0.600   0.511  14.939 -0.6226 -0.7168 -0.7289
 5751SOL    HW228887   0.466   0.526  14.998 -0.6564 -0.9336 -0.1281
 5752SOL     OW28888   3.250   3.945  16.166 -0.1565 -0.7717  0.2128
 5752SOL    HW128889   3.187   3.880  16.198  0.5114 -1.4976  0.0706
 5752SOL    HW228890   3.334   3.902  16.180  1.0260  1.0565 -1.4013
 5753SOL     OW28891   0.525   0.573  15.305  0.3395 -0.0339  0.0581
 5753SOL    HW128892   0.554   0.665  15.307 -0.6611  0.2693  0.6110
 5753SOL    HW228893   0.543   0.555  15.213  0.3653 -1.1577  0.2934
 5754SOL     OW28894   3.275   2.121   8.844 -0.0139 -0.5108  0.4512
 5754SOL    HW128895   3.351   2.154   8.892  0.3702  4.0043 -3.2206
 5754SOL    HW228896   3.308   2.120   8.754  0.5042 -2.2117  0.6637
 5755SOL     OW28897   2.358   3.421   8.565  0.4323  0.2877 -0.3320
 5755SOL    HW128898   2.336   3.473   8.642 -1.1598 -1.7223  0.5848
 5755SOL    HW228899   2.287   3.357   8.569  0.1112  0.6100 -0.8213
 5756SOL     OW28900   1.340   0.853   1.162 -0.0220  0.3548  0.1357
 5756SOL    HW128901   1.368   0.800   1.238  2.3572 -1.8040 -2.2263
 5756SOL    HW228902   1.297   0.783   1.112  1.6825 -0.4594 -0.2121
 5757SOL     OW28903   4.248   4.085   1.102  0.0659 -0.0998  0.3720
 5757SOL    HW128904   4.276   4.136   1.026  1.3081 -1.0396  0.2042
 5757SOL    HW228905   4.298   4.128   1.171  0.2015 -0.8483  0.7437
 5758SOL     OW28906   2.056   4.549   2.499 -0.0761  0.6540  0.1574
 5758SOL    HW128907   1.962   4.527   2.498  0.6173 -2.2465 -1.1440
 5758SOL    HW228908   2.075   4.563   2.407 -2.9477  0.0091 -0.5469
 5759SOL     OW28909   4.480   3.743   3.666 -0.3587  0.2514  0.4128
 5759SOL    HW128910   4.573   3.761   3.662 -0.0886 -1.6785 -2.4534
 5759SOL    HW228911   4.464   3.705   3.752  2.4376 -0.2765  0.6855
 5760SOL     OW28912   1.300   1.430  14.065 -0.1786  0.3338 -0.4878
 5760SOL    HW128913   1.207   1.441  14.045 -0.2114 -0.1373 -0.5775
 5760SOL    HW228914   1.340   1.472  13.989  0.8311  1.0149  0.4101
 5761SOL     OW28915   1.523   3.189   2.697  0.0195  0.2257  0.6127
 5761SOL    HW128916   1.602   3.198   2.643 -1.2072  1.2341 -1.0155
 5761SOL    HW228917   1.494   3.102   2.671 -2.0929  0.8113  0.9994
 5762SOL     OW28918   2.625   4.705   8.713 -0.0056 -0.6071  0.5640
 5762SOL    HW128919   2.696   0.016   8.672 -0.9355 -0.4413 -0.8382
 5762SOL    HW228920   2.607   4.654   8.635 -0.5976  1.6148 -0.7505
 5763SOL     OW28921   2.269   4.422   5.134 -0.1245 -0.0237  0.5084
 5763SOL    HW128922   2.263   4.468   5.218  1.1322 -0.0428  0.6098
 5763SOL    HW228923   2.355   4.380   5.138 -0.7008 -1.1316  1.1912
 5764SOL     OW28924   0.738   2.537   7.014  0.5640  0.3896  0.0848
 5764SOL    HW128925   0.691   2.540   7.097  0.5876 -0.2299  0.1164
 5764SOL    HW228926   0.747   2.444   6.994  0.0500  1.2950 -4.3444
 5765SOL     OW28927   2.427   1.027   4.477 -0.1567  0.3736 -0.6323
 5765SOL    HW128928   2.350   1.080   4.457  0.0582  0.2273 -1.8299
 5765SOL    HW228929   2.389   0.941   4.461  1.1697 -0.1650 -0.9204
 5766SOL     OW28930   2.138   2.669   3.981 -0.2354 -0.2138  0.5622
 5766SOL    HW128931   2.159   2.747   4.031 -3.4942  1.7399 -1.1255
 5766SOL    HW228932   2.151   2.596   4.042 -0.4173  1.3828  2.5012
 5767SOL     OW28933   0.904   3.723   8.998 -0.2353 -0.6462  0.1394
 5767SOL    HW128934   0.820   3.678   9.008  1.9361 -4.4053  1.7900
 5767SOL    HW228935   0.901   3.788   9.067 -3.5907  0.9079 -1.4973
 5768SOL     OW28936   3.626   2.663   7.817 -0.4685 -0.5135  0.0158
 5768SOL    HW128937   3.549   2.661   7.760 -0.1828  1.0347 -0.4252
 5768SOL    HW228938   3.652   2.572   7.804  0.4241 -0.4867  1.6182
 5769SOL     OW28939   4.577   4.265  17.068 -0.0496 -0.3025  0.3290
 5769SOL    HW128940   4.498   4.287  17.018  0.3266  0.6375  0.1553
 5769SOL    HW228941   4.548   4.284  17.157 -0.6381 -2.0446  0.5084
 5770SOL     OW28942   1.019   4.101   6.952  0.0331  0.4841 -0.5308
 5770SOL    HW128943   1.052   4.171   6.897 -1.9621  1.2342 -0.7631
 5770SOL    HW228944   1.067   4.025   6.918  2.0030  1.2518  0.5198
 5771SOL     OW28945   0.775   0.562  15.401 -0.3644  0.0798 -0.2957
 5771SOL    HW128946   0.789   0.479  15.356  2.2733  0.9721 -1.1712
 5771SOL    HW228947   0.680   0.560  15.399 -0.4637  2.6033  1.7124
 5772SOL     OW28948   2.732   4.103  13.804  0.0954  0.0935 -0.4232
 5772SOL    HW128949   2.795   4.104  13.876 -0.4191 -2.9511  0.0661
 5772SOL    HW228950   2.647   4.122  13.844  0.0948 -3.6952  1.3890
 5773SOL     OW28951   2.678   0.878  11.490  0.2450 -0.6927 -0.8955
 5773SOL    HW128952   2.636   0.798  11.458 -0.9399 -0.4017 -0.0573
 5773SOL    HW228953   2.628   0.936  11.432  0.9638  2.4488  1.6203
 5774SOL     OW28954   3.148   1.567   3.141  0.2883 -0.3807  0.5387
 5774SOL    HW128955   3.165   1.483   3.185  2.4575 -0.5190 -0.5795
 5774SOL    HW228956   3.232   1.610   3.161  0.0036 -0.1927  1.3600
 5775SOL     OW28957   2.643   3.188   7.114 -0.3259  1.0241  0.5984
 5775SOL    HW128958   2.604   3.273   7.098  0.1499  1.2409  0.5784
 5775SOL    HW228959   2.619   3.143   7.033 -1.2243 -0.2403  1.5657
 5776SOL     OW28960   0.129   2.673   2.590  0.1915 -1.0845  0.0895
 5776SOL    HW128961   0.201   2.693   2.529  0.6699  0.7503  1.2842
 5776SOL    HW228962   0.180   2.658   2.669 -2.1513  1.1558  2.0013
 5777SOL     OW28963   0.918   1.046   4.967 -0.1232 -0.0058  0.1551
 5777SOL    HW128964   0.977   0.990   4.915 -0.4985 -1.5076  1.3718
 5777SOL    HW228965   0.835   1.000   4.973 -0.6454  0.6460 -1.9886
 5778SOL     OW28966   3.191   3.487   5.052  0.4551  0.5985  0.1793
 5778SOL    HW128967   3.206   3.494   4.958  1.4079  1.6140  0.4001
 5778SOL    HW228968   3.268   3.434   5.071 -0.9633 -1.2261  0.9323
 5779SOL     OW28969   2.045   3.592   4.182  0.1016  0.8677 -0.3965
 5779SOL    HW128970   1.993   3.534   4.126  0.1593  2.3690 -2.0007
 5779SOL    HW228971   2.109   3.530   4.217 -0.0769  0.0412 -1.5340
 5780SOL     OW28972   2.775   1.653   3.154  0.0492 -0.8929 -0.1767
 5780SOL    HW128973   2.717   1.728   3.170  2.4577  0.6957  1.0225
 5780SOL    HW228974   2.765   1.599   3.233 -2.4251 -0.8230 -0.4166
 5781SOL     OW28975   1.342   0.067   2.036  0.1303  0.7110  0.0885
 5781SOL    HW128976   1.370   0.090   2.124  1.7329  1.4375 -0.6065
 5781SOL    HW228977   1.310   0.154   2.011  1.4713  0.4320 -2.5341
 5782SOL     OW28978   1.454   2.160   5.349  0.4068 -0.2602 -0.4305
 5782SOL    HW128979   1.505   2.080   5.338  1.5313  0.5495 -1.1339
 5782SOL    HW228980   1.391   2.135   5.416  0.8156  0.0223  0.0539
 5783SOL     OW28981   0.062   0.259   3.364  1.0553  0.3478  0.5822
 5783SOL    HW128982   0.029   0.214   3.442  1.0043  1.2982  1.1119
 5783SOL    HW228983   0.093   0.188   3.308  0.9572  0.2504  0.6530
 5784SOL     OW28984   3.379   0.445   7.471  0.0054  0.0411 -0.0760
 5784SOL    HW128985   3.468   0.422   7.445  0.3067 -0.6174  1.5777
 5784SOL    HW228986   3.375   0.531   7.429 -1.8490 -0.3066 -0.6064
 5785SOL     OW28987   3.680   4.373   3.750 -0.6945 -0.3933 -0.3265
 5785SOL    HW128988   3.590   4.406   3.755  0.3367  2.5613 -1.1702
 5785SOL    HW228989   3.684   4.330   3.836 -1.9674 -2.9991 -1.5757
 5786SOL     OW28990   0.658   4.099   4.063  0.2418  0.3342  0.1372
 5786SOL    HW128991   0.660   4.004   4.050 -0.9341  0.3819 -0.4421
 5786SOL    HW228992   0.564   4.114   4.047  0.4238  2.8330  1.3544
 5787SOL     OW28993   1.373   2.943   0.252 -0.0966 -0.0290  0.4788
 5787SOL    HW128994   1.414   3.022   0.215 -0.0494 -0.4652 -0.4064
 5787SOL    HW228995   1.411   2.956   0.339  1.2034  0.6885 -0.1903
 5788SOL     OW28996   1.036   0.910  17.077  0.2381 -0.8456  0.0009
 5788SOL    HW128997   0.980   0.894  17.001 -3.0370 -2.2919  2.6781
 5788SOL    HW228998   0.991   0.868  17.150  0.1801  0.3089  0.6311
 5789SOL     OW28999   4.044   0.695   5.092  0.0918  0.2078  0.2462
 5789SOL    HW129000   3.995   0.624   5.050 -0.4824 -0.3822  1.9291
 5789SOL    HW229001   4.006   0.771   5.048  1.1403  0.7950  0.3435
 5790SOL     OW29002   0.126   2.914   4.054  0.0301  0.5112  0.4800
 5790SOL    HW129003   0.106   3.004   4.079 -1.1820  0.2265  0.5665
 5790SOL    HW229004   0.033   2.889   4.051 -0.3782  2.1188 -0.0834
 5791SOL     OW29005   3.940   3.025   8.281 -0.0650  0.0535 -0.0190
 5791SOL    HW129006   4.014   2.983   8.326  0.2344  3.2918  2.4869
 5791SOL    HW229007   3.887   3.048   8.357  1.8253  0.0473  1.3056
 5792SOL     OW29008   1.447   1.059   3.902  0.2413 -0.7479 -0.0895
 5792SOL    HW129009   1.353   1.055   3.917  0.1962  0.3423 -0.0434
 5792SOL    HW229010   1.481   1.032   3.987 -1.6550 -0.1676  0.8393
 5793SOL     OW29011   2.107   3.125  14.151 -0.7736  0.1355 -0.1337
 5793SOL    HW129012   2.105   3.111  14.245 -2.9700 -1.1420 -0.3755
 5793SOL    HW229013   2.154   3.050  14.114 -1.3604 -0.0608 -0.4679
 5794SOL     OW29014   0.864   1.638  12.808 -0.2909 -0.3405 -0.3552
 5794SOL    HW129015   0.772   1.649  12.787 -0.4931 -2.6243 -0.6259
 5794SOL    HW229016   0.864   1.654  12.903  1.5877  0.1848 -0.4412
 5795SOL     OW29017   2.674   1.151   7.450 -0.5363 -0.4008  0.3744
 5795SOL    HW129018   2.758   1.128   7.489 -0.1530 -0.3091 -0.4059
 5795SOL    HW229019   2.703   1.238   7.422  3.4780 -1.3341  1.6963
 5796SOL     OW29020   0.090   2.648   0.346 -0.1407 -0.4321 -0.7159
 5796SOL    HW129021   0.118   2.598   0.422  0.7370 -0.7999 -1.2791
 5796SOL    HW229022   0.016   2.594   0.320 -2.6461  2.8120 -0.3247
 5797SOL     OW29023   1.358   0.404  11.132 -0.4102 -0.2462  0.3842
 5797SOL    HW129024   1.309   0.325  11.113  1.1564 -1.2493  0.5060
 5797SOL    HW229025   1.303   0.469  11.088  1.3818 -0.0219 -1.5012
 5798SOL     OW29026   1.521   3.207   2.970 -0.0138  0.2657 -0.0575
 5798SOL    HW129027   1.433   3.171   2.981 -0.7409  2.1945  0.3398
 5798SOL    HW229028   1.518   3.220   2.876 -1.7823  1.4605  0.1704
 5799SOL     OW29029   0.842   1.466  14.744  0.3343 -0.3161  0.8551
 5799SOL    HW129030   0.894   1.441  14.821 -1.6169  3.1836  3.2929
 5799SOL    HW229031   0.879   1.407  14.678 -0.8960 -1.7911  1.4878
 5800SOL     OW29032   4.137   0.231   1.440 -0.3739  0.2024 -0.5979
 5800SOL    HW129033   4.101   0.276   1.363 -1.2932 -0.6622 -0.6661
 5800SOL    HW229034   4.068   0.260   1.500 -0.9448  0.0407 -1.1711
 5801SOL     OW29035   3.844   4.031   4.491  0.4068 -0.7662  0.4351
 5801SOL    HW129036   3.784   4.099   4.520  0.1580  0.0970 -2.0693
 5801SOL    HW229037   3.795   3.970   4.435 -1.7455  0.1194  1.3633
 5802SOL     OW29038   1.098   1.568  15.047 -0.2738 -0.1989  0.2473
 5802SOL    HW129039   1.146   1.526  15.118 -2.7310 -1.9496  0.8816
 5802SOL    HW229040   1.051   1.500  14.999 -2.3775  0.8591  0.8185
 5803SOL     OW29041   4.073   0.586   5.731  0.0022 -0.2793 -0.1159
 5803SOL    HW129042   4.064   0.602   5.825  1.4748  3.1133 -0.5282
 5803SOL    HW229043   4.118   0.502   5.728 -0.4285 -0.5024 -0.3079
 5804SOL     OW29044   3.280   0.204   6.725  0.2640 -0.1835  0.4885
 5804SOL    HW129045   3.339   0.149   6.776  1.4432  1.8439  1.3134
 5804SOL    HW229046   3.204   0.212   6.783 -1.3963  0.0325 -1.7404
 5805SOL     OW29047   0.174   0.250   7.306  0.2748  0.3302 -0.4501
 5805SOL    HW129048   0.110   0.195   7.351  1.6418 -1.2792 -0.4472
 5805SOL    HW229049   0.142   0.338   7.327  1.3326  0.4634  0.5962
 5806SOL     OW29050   0.842   2.242   5.524 -0.3712  0.2431 -0.6920
 5806SOL    HW129051   0.790   2.284   5.593  0.0512 -0.3468 -0.0080
 5806SOL    HW229052   0.785   2.269   5.452  2.0876  1.0327 -2.3406
 5807SOL     OW29053   0.600   1.088  14.623  0.1397 -0.0727 -0.0148
 5807SOL    HW129054   0.535   1.021  14.645 -0.6080  0.4367 -0.6492
 5807SOL    HW229055   0.630   1.126  14.705  1.3107 -0.9156 -0.0548
 5808SOL     OW29056   1.928   3.027   8.088  0.3029  0.0862  0.1130
 5808SOL    HW129057   2.014   3.064   8.109  0.1964  0.8659 -0.8306
 5808SOL    HW229058   1.930   2.936   8.117 -1.7906  0.0806  0.2435
 5809SOL     OW29059   2.088   2.879   9.088 -0.1900  0.2811  0.6228
 5809SOL    HW129060   2.123   2.931   9.160  1.6453  0.6700 -0.5552
 5809SOL    HW229061   2.151   2.902   9.019 -2.2026  2.8430 -0.3429
 5810SOL     OW29062   3.459   1.504   5.228  0.2103 -0.1648  0.7787
 5810SOL    HW129063   3.481   1.482   5.138  1.1329  1.6474  0.5788
 5810SOL    HW229064   3.520   1.442   5.269  0.5084  0.4119  1.2078
 5811SOL     OW29065   4.156   2.101   1.011 -0.3986 -0.0216 -0.6453
 5811SOL    HW129066   4.084   2.103   0.947 -1.1246 -1.7439  0.1108
 5811SOL    HW229067   4.233   2.082   0.957  0.6854  0.5352  0.7047
 5812SOL     OW29068   2.853   1.949   5.558  0.4356 -0.0963 -0.5984
 5812SOL    HW129069   2.886   2.039   5.561  0.2903 -0.0814  0.5144
 5812SOL    HW229070   2.765   1.958   5.594  0.6776  1.2835 -0.3193
 5813SOL     OW29071   0.374   3.631   9.130 -0.5319 -0.0352 -0.3453
 5813SOL    HW129072   0.322   3.562   9.171 -1.2610  1.2382  0.8697
 5813SOL    HW229073   0.311   3.674   9.072 -1.8663 -2.1056 -0.4465
 5814SOL     OW29074   4.144   3.736   6.324 -0.5976 -0.3730 -0.0893
 5814SOL    HW129075   4.107   3.824   6.312  1.0340  0.1146 -1.6349
 5814SOL    HW229076   4.239   3.749   6.314 -0.4619 -1.3597 -0.0673
 5815SOL     OW29077   3.735   2.210   2.732  0.1384  0.3881 -0.1257
 5815SOL    HW129078   3.700   2.125   2.706 -0.9217  1.6767 -2.8895
 5815SOL    HW229079   3.794   2.231   2.659  1.6550  1.6486  1.4452
 5816SOL     OW29080   2.397   2.524  12.252  0.4833  0.4858  0.4862
 5816SOL    HW129081   2.368   2.512  12.162 -1.4833 -1.6442  1.4135
 5816SOL    HW229082   2.347   2.599  12.285 -1.4030  0.4904 -2.4096
 5817SOL     OW29083   1.848   2.110   8.885  0.1888  0.7156  0.8343
 5817SOL    HW129084   1.869   2.048   8.815  1.2006  2.0264 -0.0315
 5817SOL    HW229085   1.921   2.173   8.884 -0.7932  1.8518  0.7634
 5818SOL     OW29086   3.491   0.478   4.906 -0.0131 -0.2346 -0.4321
 5818SOL    HW129087   3.405   0.442   4.929  0.6603 -2.1940 -0.9900
 5818SOL    HW229088   3.486   0.560   4.954 -2.0715 -0.8278  0.3639
 5819SOL     OW29089   2.978   4.428  13.123  0.0714 -0.2367  0.1711
 5819SOL    HW129090   2.991   4.474  13.206  0.8135 -1.3762  0.6870
 5819SOL    HW229091   2.884   4.407  13.118  0.3385 -1.6632  1.0590
 5820SOL     OW29092   0.409   2.141   2.827  0.2682 -0.2730  0.7049
 5820SOL    HW129093   0.361   2.154   2.909  0.5972 -2.8732  1.2940
 5820SOL    HW229094   0.426   2.047   2.826 -0.0741 -0.3189 -0.2834
 5821SOL     OW29095   2.668   2.867   5.577  0.0007 -0.2914  0.0093
 5821SOL    HW129096   2.644   2.941   5.633  1.6010 -0.0178  0.3479
 5821SOL    HW229097   2.622   2.799   5.625 -0.2085  0.1469  0.4285
 5822SOL     OW29098   0.775   2.938   9.647  0.0710 -0.6203 -0.2380
 5822SOL    HW129099   0.703   2.887   9.608  0.7500 -2.0416  0.3489
 5822SOL    HW229100   0.844   2.930   9.582 -1.6288  1.3329 -2.2823
 5823SOL     OW29101   3.490   0.697   7.340  0.1309 -0.4812  0.3259
 5823SOL    HW129102   3.576   0.739   7.339 -0.3484  0.4864 -0.2136
 5823SOL    HW229103   3.442   0.736   7.267 -1.1577 -0.5999  1.1207
 5824SOL     OW29104   3.261   1.142  10.157 -0.2986  0.3534 -0.2721
 5824SOL    HW129105   3.173   1.140  10.120 -1.5032  0.2941  2.6651
 5824SOL    HW229106   3.311   1.189  10.090  1.6279 -0.6396  0.4733
 5825SOL     OW29107   2.670   2.685   4.220 -0.0046  0.0025 -0.0250
 5825SOL    HW129108   2.668   2.620   4.290 -0.1511  0.3011  0.2457
 5825SOL    HW229109   2.582   2.680   4.182  0.0729 -2.0924  0.0218
 5826SOL     OW29110   2.841   1.011   4.919 -0.8346  0.1702 -0.7258
 5826SOL    HW129111   2.885   0.991   4.836  0.8235  3.0283 -0.5443
 5826SOL    HW229112   2.762   0.958   4.912 -0.0075 -1.0125 -1.3051
 5827SOL     OW29113   3.078   0.216   6.917 -0.2488 -0.8814 -0.3155
 5827SOL    HW129114   2.987   0.246   6.908  1.1788  3.3706 -0.8689
 5827SOL    HW229115   3.097   0.238   7.009 -1.3457 -2.3354  0.2672
 5828SOL     OW29116   1.349   1.461   5.648 -0.5297  0.2858 -0.0376
 5828SOL    HW129117   1.303   1.378   5.633 -0.2407  0.2925 -0.9476
 5828SOL    HW229118   1.319   1.489   5.735  0.7727  1.5235  0.0073
 5829SOL     OW29119   3.574   1.895   2.294  0.0088 -0.4334  0.6146
 5829SOL    HW129120   3.512   1.950   2.247  0.6565  1.3129  1.8096
 5829SOL    HW229121   3.554   1.923   2.384 -2.0456  0.6595 -0.1963
 5830SOL     OW29122   4.314   2.469   5.449  0.1303 -0.1063 -0.2015
 5830SOL    HW129123   4.286   2.557   5.425 -1.5056 -1.3619 -2.9184
 5830SOL    HW229124   4.404   2.488   5.477 -0.7388  1.9266  1.1773
 5831SOL     OW29125   0.359   4.134   4.056 -0.0580  0.0436  0.0351
 5831SOL    HW129126   0.311   4.180   3.987 -0.6946 -0.5074  0.1152
 5831SOL    HW229127   0.298   4.063   4.075 -0.3627  0.8408  2.0508
 5832SOL     OW29128   1.124   3.668   5.862 -0.2926 -0.0810  0.1777
 5832SOL    HW129129   1.160   3.705   5.781 -0.5240 -0.5478 -0.1373
 5832SOL    HW229130   1.168   3.723   5.927 -0.9569 -0.9832  1.4019
 5833SOL     OW29131   4.072   3.747  12.312  0.2769  0.5408  0.5904
 5833SOL    HW129132   4.095   3.832  12.350 -1.5590  0.3253  2.2144
 5833SOL    HW229133   4.159   3.732  12.277  0.0406  2.0841 -0.6510
 5834SOL     OW29134   4.452   3.948   5.494 -0.4419  0.1716 -0.1156
 5834SOL    HW129135   4.395   4.022   5.515  0.8523  1.3094 -0.5306
 5834SOL    HW229136   4.533   3.998   5.479 -0.2808 -0.1238 -0.2257
 5835SOL     OW29137   0.651   2.440   8.228  0.1361  0.0761 -0.3902
 5835SOL    HW129138   0.735   2.432   8.273  0.4358  2.8176 -0.4852
 5835SOL    HW229139   0.609   2.365   8.270 -0.4663  0.4690 -0.2882
 5836SOL     OW29140   1.136   0.648   4.910  0.1366  0.2337 -0.0440
 5836SOL    HW129141   1.197   0.686   4.973  0.8774 -1.4445  0.2453
 5836SOL    HW229142   1.192   0.643   4.833  0.8058  1.1200  0.4012
 5837SOL     OW29143   4.323   2.537   2.319  0.0106  0.1161 -0.2328
 5837SOL    HW129144   4.351   2.576   2.237  0.1919  2.3505  0.8664
 5837SOL    HW229145   4.360   2.451   2.302 -0.5870 -0.1054 -0.4211
 5838SOL     OW29146   0.080   0.302   1.835  0.3683 -0.6712  0.6964
 5838SOL    HW129147   0.017   0.269   1.772  1.4841  0.5644 -1.0903
 5838SOL    HW229148   0.130   0.225   1.861  0.9275 -1.1691 -1.8378
 5839SOL     OW29149   2.041   3.419   2.900 -0.2000  0.1226  0.3847
 5839SOL    HW129150   2.063   3.346   2.841  0.4260 -1.4684  2.6045
 5839SOL    HW229151   1.960   3.441   2.854  0.4664 -1.3483 -1.5244
 5840SOL     OW29152   0.408   4.604   4.312  1.0362  0.4058 -0.1113
 5840SOL    HW129153   0.346   4.558   4.368 -0.5067  1.7682 -0.6839
 5840SOL    HW229154   0.441   4.546   4.244 -0.1364  1.3207 -1.4667
 5841SOL     OW29155   3.164   2.777   7.081  0.4319 -0.1100 -0.5756
 5841SOL    HW129156   3.202   2.863   7.099 -1.9945  0.8745 -0.0550
 5841SOL    HW229157   3.084   2.765   7.133 -0.4540  0.9972 -1.6624
 5842SOL     OW29158   3.448   4.112  13.006 -0.3521  0.0712 -0.2594
 5842SOL    HW129159   3.376   4.170  13.028 -0.9650 -0.5993 -0.4804
 5842SOL    HW229160   3.405   4.071  12.930 -0.1750 -0.2947 -0.1646
 5843SOL     OW29161   0.969   3.783   5.484 -0.1288  1.0344  0.3675
 5843SOL    HW129162   0.916   3.785   5.405  0.7571  0.5306 -0.2346
 5843SOL    HW229163   1.023   3.706   5.463 -1.6418  0.1554 -0.3325
 5844SOL     OW29164   0.914   3.896   3.253 -0.1379  0.3947 -0.1674
 5844SOL    HW129165   0.943   3.974   3.206  0.9114  0.2152  0.1811
 5844SOL    HW229166   0.982   3.837   3.221 -1.8917 -2.1769  0.8993
 5845SOL     OW29167   3.565   1.524  14.725  0.5210  0.0021  0.1529
 5845SOL    HW129168   3.645   1.566  14.759  0.7023 -0.1151 -0.1296
 5845SOL    HW229169   3.600   1.435  14.737  1.3885  0.1365 -1.2794
 5846SOL     OW29170   1.852   0.780  16.473 -0.1615 -0.4541  0.0582
 5846SOL    HW129171   1.774   0.835  16.462  0.1268 -0.4518 -2.0371
 5846SOL    HW229172   1.837   0.734  16.391  3.4026  1.4645 -1.6670
 5847SOL     OW29173   2.427   4.037   4.166  0.4487 -0.1563 -0.2414
 5847SOL    HW129174   2.425   3.942   4.173  2.6777 -0.0516  1.5733
 5847SOL    HW229175   2.437   4.062   4.257 -0.8497 -0.5288  0.0099
 5848SOL     OW29176   2.118   1.803   4.897 -0.2735 -0.1518 -0.5293
 5848SOL    HW129177   2.194   1.750   4.918  0.0669  0.6126  0.1553
 5848SOL    HW229178   2.050   1.763   4.952  0.2017 -0.1749  0.0336
 5849SOL     OW29179   0.889   1.198   5.753 -0.5807 -0.1265  0.2247
 5849SOL    HW129180   0.860   1.156   5.672 -3.3493  1.7319  0.2488
 5849SOL    HW229181   0.829   1.273   5.761  0.4512  0.8816 -1.5682
 5850SOL     OW29182   2.438   0.706   3.677 -0.0707  0.2757  0.0872
 5850SOL    HW129183   2.415   0.712   3.585  0.8652 -0.4973 -0.1799
 5850SOL    HW229184   2.423   0.797   3.706 -2.6543  0.2920 -1.2824
 5851SOL     OW29185   4.045   2.740  10.337  0.2660  0.0081 -0.2595
 5851SOL    HW129186   4.082   2.661  10.376  1.2539  0.2524 -0.7109
 5851SOL    HW229187   3.989   2.771  10.409  0.0478  1.2397 -0.9685
 5852SOL     OW29188   4.491   4.052  13.590  0.0438  0.4113 -0.3648
 5852SOL    HW129189   4.564   4.110  13.571  2.3959 -2.2767  0.5393
 5852SOL    HW229190   4.519   3.975  13.541  0.6462 -0.0713  0.7393
 5853SOL     OW29191   3.487   2.584   5.683 -0.6460 -0.2201  0.7982
 5853SOL    HW129192   3.467   2.540   5.601  1.2700 -0.7198  0.5907
 5853SOL    HW229193   3.572   2.542   5.697 -0.5036 -0.2812 -0.2934
 5854SOL     OW29194   3.566   3.036  15.955  0.0840  0.0554  0.0729
 5854SOL    HW129195   3.573   3.121  15.911  0.5430  0.7353  1.4627
 5854SOL    HW229196   3.654   3.009  15.928 -0.5425  0.1074 -2.0098
 5855SOL     OW29197   0.703   1.091   0.189  0.2620 -0.6502  0.1080
 5855SOL    HW129198   0.729   1.146   0.115  1.2837  2.3626  2.6966
 5855SOL    HW229199   0.611   1.119   0.195  0.7901  1.0832  0.3131
 5856SOL     OW29200   0.882   0.278   4.624 -0.2481 -0.4330 -0.2419
 5856SOL    HW129201   0.866   0.225   4.702  0.7916  2.5029  1.9940
 5856SOL    HW229202   0.810   0.341   4.620 -0.6680 -0.9799 -1.2383
 5857SOL     OW29203   1.513   2.831   8.320 -0.0376 -0.0446 -0.4417
 5857SOL    HW129204   1.509   2.753   8.376 -0.0660 -0.0026 -0.3854
 5857SOL    HW229205   1.598   2.821   8.277 -0.5039 -0.9612 -1.1542
 5858SOL     OW29206   4.394   2.572   5.814 -0.4626  0.2496 -0.0166
 5858SOL    HW129207   4.466   2.600   5.870 -0.8312  0.3476  0.4052
 5858SOL    HW229208   4.401   2.619   5.731  0.5159  0.8212  0.3909
 5859SOL     OW29209   1.068   1.383   6.419 -0.3747 -0.0873  0.2802
 5859SOL    HW129210   1.102   1.342   6.339 -1.6021  1.2914 -0.9405
 5859SOL    HW229211   0.980   1.346   6.417  0.2175 -1.5302  1.1534
 5860SOL     OW29212   1.522   4.392   7.558  0.9498 -0.1384 -0.2950
 5860SOL    HW129213   1.592   4.426   7.615  0.9307  2.1313 -1.6362
 5860SOL    HW229214   1.534   4.303   7.591  2.1001  0.7329  1.6591
 5861SOL     OW29215   4.598   1.138   3.449  0.4467  0.4123  0.0572
 5861SOL    HW129216   4.598   1.174   3.538  0.6049  1.5629 -0.4066
 5861SOL    HW229217   4.629   1.211   3.396 -0.0230 -1.4975 -2.8391
 5862SOL     OW29218   3.007   0.183   3.787  0.3960  0.5326 -0.6938
 5862SOL    HW129219   2.933   0.241   3.802 -0.2638 -1.1352  2.4058
 5862SOL    HW229220   2.995   0.183   3.692  1.9726 -1.3605 -0.8869
 5863SOL     OW29221   1.620   0.826   2.923 -0.3368  0.4875 -0.0615
 5863SOL    HW129222   1.684   0.896   2.938 -2.1563  2.0721  0.2450
 5863SOL    HW229223   1.535   0.862   2.948  0.1375  1.0203  0.7853
 5864SOL     OW29224   3.013   0.531   7.978  0.1360 -0.0245 -0.0732
 5864SOL    HW129225   2.960   0.451   7.983 -0.5948  0.2539 -3.1682
 5864SOL    HW229226   2.986   0.567   7.893  0.3934  0.7624  0.1836
 5865SOL     OW29227   4.107   0.724   6.760  0.1072 -0.2385  0.0483
 5865SOL    HW129228   4.032   0.747   6.705  1.1582 -0.0893 -1.3168
 5865SOL    HW229229   4.137   0.649   6.709 -1.1719 -1.0282  0.4427
 5866SOL     OW29230   3.775   1.599   7.914 -0.1862 -0.0119  0.3618
 5866SOL    HW129231   3.714   1.535   7.880 -0.2286 -0.7594  1.8230
 5866SOL    HW229232   3.741   1.634   7.997 -1.4611  2.2876 -1.1445
 5867SOL     OW29233   4.731   2.059   1.010 -0.0622  0.1756  0.2281
 5867SOL    HW129234   0.048   2.137   1.016  1.0075 -0.5604 -0.0586
 5867SOL    HW229235   4.647   2.100   1.030  1.5344  2.5059  2.0975
 5868SOL     OW29236   1.434   3.691   9.783  0.4740  0.3581  0.9716
 5868SOL    HW129237   1.391   3.775   9.772  3.6504  1.9468  0.7952
 5868SOL    HW229238   1.432   3.672   9.689 -1.0174  1.0641  0.8659
 5869SOL     OW29239   0.165   1.414   0.630 -0.0845  0.5605 -0.4521
 5869SOL    HW129240   0.104   1.340   0.640 -1.2789  1.2763 -2.5857
 5869SOL    HW229241   0.231   1.387   0.694 -1.5875  0.2832  0.9937
 5870SOL     OW29242   4.689   1.652   4.213  0.6447  0.3924  0.0236
 5870SOL    HW129243   4.655   1.732   4.173 -1.2706  0.0219  0.8759
 5870SOL    HW229244   4.708   1.689   4.299 -0.3581 -1.0028  0.8503
 5871SOL     OW29245   2.290   4.237  11.841 -0.5031  0.0309  0.3275
 5871SOL    HW129246   2.243   4.159  11.871 -1.4054  1.2773  2.1778
 5871SOL    HW229247   2.333   4.200  11.764 -1.8771 -3.1451  1.0895
 5872SOL     OW29248   1.575   3.510   7.038  0.1814 -0.0750 -0.1686
 5872SOL    HW129249   1.510   3.536   7.103  1.2207  1.7446  0.1724
 5872SOL    HW229250   1.651   3.494   7.094  1.1184  2.5895 -0.6531
 5873SOL     OW29251   4.566   3.106   9.149 -0.3198 -0.1032  0.1303
 5873SOL    HW129252   4.530   3.192   9.166  0.5255  0.7141 -2.2413
 5873SOL    HW229253   4.651   3.106   9.193 -2.4186  2.7269  4.0701
 5874SOL     OW29254   4.526   4.178   8.019 -0.1545 -0.0134  0.6399
 5874SOL    HW129255   4.446   4.230   8.021  0.0432  0.2403  2.0433
 5874SOL    HW229256   4.518   4.136   8.105 -2.5350 -2.3958 -0.7374
 5875SOL     OW29257   1.937   1.580  16.239 -0.2664 -0.2977  1.0500
 5875SOL    HW129258   1.880   1.509  16.209  1.0606 -1.6797  1.7728
 5875SOL    HW229259   1.878   1.655  16.244 -0.9121 -0.7767  0.6908
 5876SOL     OW29260   3.569   2.399   1.878  0.7289 -0.0682 -0.5834
 5876SOL    HW129261   3.617   2.468   1.833 -1.9487  3.0387  1.3385
 5876SOL    HW229262   3.497   2.457   1.904  1.2144  0.5926 -0.7165
 5877SOL     OW29263   3.790   2.987   9.628  0.0572 -0.8616  0.3062
 5877SOL    HW129264   3.808   2.946   9.544  0.6877  2.6718 -1.2702
 5877SOL    HW229265   3.880   2.996   9.660  0.7129 -1.8442 -1.2634
 5878SOL     OW29266   2.438   1.896  16.074  0.4582 -0.2763  0.1302
 5878SOL    HW129267   2.466   1.849  15.996 -1.0879  0.4191 -0.8513
 5878SOL    HW229268   2.507   1.961  16.090 -0.1769  0.3465  0.3525
 5879SOL     OW29269   0.489   0.352   4.443  0.4866 -0.8659 -0.1606
 5879SOL    HW129270   0.522   0.277   4.394  1.0248 -1.4618  1.1229
 5879SOL    HW229271   0.458   0.415   4.378 -0.2896 -1.0767 -0.0008
 5880SOL     OW29272   1.578   0.471  17.312  0.5972 -0.5997  0.6185
 5880SOL    HW129273   1.647   0.502  17.371  0.9741  2.1647 -1.2561
 5880SOL    HW229274   1.566   0.535  17.241  2.3692 -1.4044 -0.4120
 5881SOL     OW29275   4.436   0.560   3.040 -0.1368 -0.1770  0.1192
 5881SOL    HW129276   4.376   0.634   3.048  0.3215  0.2439 -0.4006
 5881SOL    HW229277   4.504   0.603   2.988 -0.0313  1.3318  1.5135
 5882SOL     OW29278   0.538   4.370  15.354 -0.1067 -0.1247  0.3890
 5882SOL    HW129279   0.559   4.453  15.397 -1.4209 -0.2628  1.2717
 5882SOL    HW229280   0.533   4.309  15.427 -1.6104 -0.8423 -0.3327
 5883SOL     OW29281   2.425   4.096  11.650  0.0395 -0.0853 -0.1791
 5883SOL    HW129282   2.373   4.151  11.591 -2.2155 -1.4033  0.5890
 5883SOL    HW229283   2.392   4.010  11.626 -1.6978  0.7634 -0.8325
 5884SOL     OW29284   4.267   1.983  15.277  0.1627  0.0344 -0.1114
 5884SOL    HW129285   4.333   2.038  15.317 -1.0284  0.9593  0.5788
 5884SOL    HW229286   4.196   2.045  15.258 -0.1663 -0.3391 -0.1264
 5885SOL     OW29287   3.211   3.752   6.077  0.1993  0.0662 -0.1200
 5885SOL    HW129288   3.206   3.831   6.023  1.1830 -0.6398 -1.2638
 5885SOL    HW229289   3.140   3.698   6.042  2.0537 -2.5725  0.1920
 5886SOL     OW29290   3.637   2.130   9.070 -0.6076 -0.7830  0.2084
 5886SOL    HW129291   3.556   2.153   9.024 -0.6492 -0.6421  0.3527
 5886SOL    HW229292   3.652   2.036   9.059  0.3624 -0.4595 -1.2488
 5887SOL     OW29293   2.495   2.984   8.442 -0.3837 -0.0194  0.6761
 5887SOL    HW129294   2.539   2.951   8.364 -1.9894  1.6169 -0.9390
 5887SOL    HW229295   2.509   3.078   8.431 -3.8184  0.1984 -1.8164
 5888SOL     OW29296   0.430   0.474   3.708 -0.5083  0.1150 -0.2267
 5888SOL    HW129297   0.391   0.560   3.724  2.4270  1.4843 -0.4107
 5888SOL    HW229298   0.378   0.459   3.629 -0.7032  1.0648 -0.2712
 5889SOL     OW29299   3.799   1.640  14.843  0.1703  0.2235  0.2457
 5889SOL    HW129300   3.787   1.703  14.914 -1.0021  1.4769 -1.0817
 5889SOL    HW229301   3.879   1.592  14.864  0.2039  0.4367  0.6158
 5890SOL     OW29302   3.479   2.384   4.793  0.3388 -0.3482  0.2342
 5890SOL    HW129303   3.550   2.410   4.850 -0.0533 -0.5084  0.7937
 5890SOL    HW229304   3.406   2.441   4.820  0.5201  0.6816 -1.4227
 5891SOL     OW29305   2.490   2.011  15.578 -0.6891  0.4020  0.0509
 5891SOL    HW129306   2.539   1.929  15.585  0.2157  0.9539  0.2618
 5891SOL    HW229307   2.551   2.050  15.515  0.3396 -1.0892  0.1140
 5892SOL     OW29308   0.454   1.938   5.153 -0.4122 -0.6354  0.1088
 5892SOL    HW129309   0.481   1.850   5.179  0.9834 -0.0247  0.7411
 5892SOL    HW229310   0.433   1.982   5.235  0.1717  0.7833 -0.4977
 5893SOL     OW29311   4.488   3.847   8.859 -0.6522  0.2160 -0.1326
 5893SOL    HW129312   4.561   3.802   8.902  0.2939  1.5533 -0.3395
 5893SOL    HW229313   4.516   3.938   8.858 -0.8405  0.2646 -0.9928
 5894SOL     OW29314   2.466   2.547   9.680  0.6440  0.4024 -0.4162
 5894SOL    HW129315   2.410   2.625   9.682  0.2121  0.0955 -0.6538
 5894SOL    HW229316   2.516   2.561   9.760 -0.2564  0.1483  0.1918
 5895SOL     OW29317   4.596   2.506   1.931  0.1099  0.4990 -0.3269
 5895SOL    HW129318   4.691   2.516   1.919  0.1716  0.8315  0.4173
 5895SOL    HW229319   4.561   2.439   1.872 -2.2972  3.4889 -2.2797
 5896SOL     OW29320   2.124   4.716  14.468 -0.3722 -0.8365 -0.7448
 5896SOL    HW129321   2.086   4.688  14.384 -1.8383  0.8825 -0.6644
 5896SOL    HW229322   2.170   0.050  14.425  0.8406  0.5885  2.9534
 5897SOL     OW29323   3.754   1.758   1.853  0.8895 -0.3336  0.2015
 5897SOL    HW129324   3.755   1.839   1.802  0.5042  0.8162  2.0251
 5897SOL    HW229325   3.844   1.729   1.839  1.1010  1.2378 -1.6472
 5898SOL     OW29326   2.700   0.728   7.346 -0.2520  0.1111  0.2830
 5898SOL    HW129327   2.707   0.717   7.251  0.9016  1.0063  0.2676
 5898SOL    HW229328   2.743   0.650   7.381  0.9840  0.4627 -0.4582
 5899SOL     OW29329   1.599   4.587  15.152  0.4598 -0.1185 -0.3221
 5899SOL    HW129330   1.672   4.525  15.163  0.6395  0.6589  2.8510
 5899SOL    HW229331   1.539   4.532  15.102 -2.7241  1.1673  2.0599
 5900SOL     OW29332   3.214   1.023   3.792 -0.1054 -0.1274 -0.5425
 5900SOL    HW129333   3.195   1.095   3.731 -0.3197 -0.0792 -0.4197
 5900SOL    HW229334   3.175   1.056   3.873  2.7138 -0.1494  0.8167
 5901SOL     OW29335   4.574   2.286  14.398  0.3789  0.2816  0.5761
 5901SOL    HW129336   4.585   2.203  14.444  0.1585  0.1824  0.4487
 5901SOL    HW229337   4.605   2.259  14.312 -1.4991  0.8576 -0.2792
 5902SOL     OW29338   3.651   4.497   9.021  0.0731 -0.1143  0.3782
 5902SOL    HW129339   3.643   4.402   9.029  0.6087 -0.0468  1.7470
 5902SOL    HW229340   3.631   4.513   9.114  1.1517  0.7519  0.4686
 5903SOL     OW29341   2.719   4.114   7.503  0.3176 -0.0224 -0.2298
 5903SOL    HW129342   2.716   4.033   7.451  0.2734  0.8901 -1.6475
 5903SOL    HW229343   2.687   4.178   7.439  0.7353  1.4473  1.0467
 5904SOL     OW29344   0.738   3.662   3.510 -0.1884 -0.3553  0.6200
 5904SOL    HW129345   0.834   3.656   3.511 -0.1696 -0.1156 -0.1539
 5904SOL    HW229346   0.716   3.661   3.417  0.0373 -1.3163  0.5780
 5905SOL     OW29347   4.405   2.202   8.039  0.4935 -0.3342 -0.2178
 5905SOL    HW129348   4.497   2.175   8.048 -0.4820 -3.0596  1.5006
 5905SOL    HW229349   4.357   2.142   8.095 -1.3659 -0.0477 -1.5027
 5906SOL     OW29350   0.239   1.388   3.764  0.1989  0.1106  0.6618
 5906SOL    HW129351   0.144   1.389   3.775  0.3008 -0.5439  1.5680
 5906SOL    HW229352   0.264   1.407   3.673  0.6738  3.1369  1.4157
 5907SOL     OW29353   1.540   4.376  12.137  0.1336 -0.2251 -0.6644
 5907SOL    HW129354   1.628   4.342  12.147  0.2965  0.6256  0.8151
 5907SOL    HW229355   1.489   4.351  12.214  0.3115 -2.0357 -1.1289
 5908SOL     OW29356   2.201   3.752   6.721 -0.1188 -0.7123 -0.3199
 5908SOL    HW129357   2.204   3.837   6.766  1.0418  0.4305 -2.5522
 5908SOL    HW229358   2.242   3.783   6.640 -1.2359 -2.7123 -1.6551
 5909SOL     OW29359   4.609   0.156   8.406 -0.5400 -0.7169  0.8122
 5909SOL    HW129360   4.590   0.205   8.486 -1.6424  1.3437 -0.7062
 5909SOL    HW229361   4.541   0.191   8.347  1.0966 -1.2313 -1.3851
 5910SOL     OW29362   2.080   4.304   2.601 -0.0351 -0.6063  0.0905
 5910SOL    HW129363   1.988   4.283   2.588 -1.0232  2.6124  1.6838
 5910SOL    HW229364   2.076   4.396   2.573 -2.5709 -0.2746  1.5866
 5911SOL     OW29365   2.829   0.315   2.662  0.1477  0.1955 -0.6476
 5911SOL    HW129366   2.762   0.378   2.636  0.7222  1.2990  0.5555
 5911SOL    HW229367   2.769   0.246   2.690  0.4427  0.5788  0.9050
 5912SOL     OW29368   1.004   3.663  17.099  0.0065 -0.0725  0.1681
 5912SOL    HW129369   1.038   3.742  17.141  2.5759 -0.8084 -0.4994
 5912SOL    HW229370   0.947   3.697  17.030  0.1214  3.2619  1.7367
 5913SOL     OW29371   4.049   2.260   7.379 -0.0533 -0.2762 -0.2216
 5913SOL    HW129372   4.123   2.261   7.440 -0.9221 -2.4330  0.8801
 5913SOL    HW229373   4.102   2.262   7.299 -1.7491  0.6729 -1.3058
 5914SOL     OW29374   0.234   4.367   3.335 -0.2056  0.1710  0.0951
 5914SOL    HW129375   0.260   4.294   3.392 -0.1076 -0.0883 -0.2844
 5914SOL    HW229376   0.156   4.329   3.296  0.5808 -0.1188 -1.1940
 5915SOL     OW29377   1.759   2.866  12.456  0.0540  0.0083  0.2616
 5915SOL    HW129378   1.765   2.809  12.533 -0.7269  0.0946  0.3922
 5915SOL    HW229379   1.690   2.929  12.476 -1.0609 -1.2925  0.5579
 5916SOL     OW29380   0.198   3.595   8.478  0.0341  0.0429 -0.1652
 5916SOL    HW129381   0.245   3.546   8.546  1.8259  1.3386 -0.4667
 5916SOL    HW229382   0.215   3.687   8.500 -0.3905  0.1482 -0.2772
 5917SOL     OW29383   0.300   3.231   2.893  0.0158 -0.2649 -0.6542
 5917SOL    HW129384   0.329   3.315   2.929  0.0346 -0.9892  1.0440
 5917SOL    HW229385   0.271   3.256   2.805 -0.4819  0.9194 -0.1508
 5918SOL     OW29386   3.899   3.121   8.722 -0.0774 -0.5639 -0.1368
 5918SOL    HW129387   3.939   3.185   8.783  0.3281 -0.7670 -0.1882
 5918SOL    HW229388   3.945   3.043   8.753  1.5461  0.7186  0.7122
 5919SOL     OW29389   0.282   2.416   4.069 -0.4010 -0.6148 -0.3880
 5919SOL    HW129390   0.262   2.415   4.163 -0.6115  0.5560 -0.4266
 5919SOL    HW229391   0.248   2.503   4.048  2.1709  0.5378  0.3107
 5920SOL     OW29392   0.270   3.086   2.453  0.4426 -0.4522 -0.0329
 5920SOL    HW129393   0.279   3.032   2.531 -1.1276  0.3431  0.6886
 5920SOL    HW229394   0.350   3.069   2.402  0.5262  0.3762 -0.1870
 5921SOL     OW29395   4.017   1.702   0.731 -0.3773  0.1358  0.7274
 5921SOL    HW129396   3.947   1.703   0.666 -0.4070 -1.8958  0.7176
 5921SOL    HW229397   4.059   1.787   0.722  1.0870 -0.6318  0.2710
 5922SOL     OW29398   0.418   0.398   7.181  0.3724  0.0564 -0.2518
 5922SOL    HW129399   0.353   0.331   7.204  2.7294 -1.5729  1.6370
 5922SOL    HW229400   0.450   0.419   7.268  1.9549 -1.8093 -0.3712
 5923SOL     OW29401   4.218   3.008  12.565 -0.9473  0.2739  0.2276
 5923SOL    HW129402   4.238   2.943  12.632  3.2822 -0.1460 -1.3739
 5923SOL    HW229403   4.287   2.979  12.505 -2.7124 -0.8067 -1.2877
 5924SOL     OW29404   4.313   0.345   8.902 -0.4782  0.6165 -0.0241
 5924SOL    HW129405   4.325   0.438   8.883  0.7267  0.5989  0.6760
 5924SOL    HW229406   4.340   0.335   8.993 -1.1049  0.2647  0.1245
 5925SOL     OW29407   1.265   1.472  15.232 -0.1070  0.0636  0.0927
 5925SOL    HW129408   1.317   1.552  15.241 -0.2504 -0.1298  2.6971
 5925SOL    HW229409   1.323   1.413  15.184  0.0565 -0.5907  1.0911
 5926SOL     OW29410   0.678   2.054  10.770 -0.7756  0.4884 -0.1937
 5926SOL    HW129411   0.591   2.028  10.800 -0.6220  1.0202  0.6987
 5926SOL    HW229412   0.663   2.026  10.679  0.6812  0.2676 -0.3772
 5927SOL     OW29413   0.432   0.536   2.997  0.1999  0.3396  0.5191
 5927SOL    HW129414   0.362   0.478   3.027 -0.4488  0.1893 -1.2712
 5927SOL    HW229415   0.447   0.507   2.907 -2.8742 -1.1424  0.4681
 5928SOL     OW29416   4.149   0.934  16.464  0.0952 -0.3662 -0.3732
 5928SOL    HW129417   4.159   1.027  16.448  2.1923 -0.7721 -1.4020
 5928SOL    HW229418   4.122   0.925  16.556  3.2530 -1.1938  0.4752
 5929SOL     OW29419   2.143   3.559  15.935 -0.4386  0.0878 -0.6858
 5929SOL    HW129420   2.225   3.583  15.892  1.6252 -2.9636  1.6056
 5929SOL    HW229421   2.169   3.574  16.026  1.2426 -0.2726 -1.1199
 5930SOL     OW29422   2.678   1.291   6.819  0.1656  0.8088 -0.3598
 5930SOL    HW129423   2.689   1.254   6.731 -1.1773  0.1718 -0.2667
 5930SOL    HW229424   2.583   1.289   6.831  0.0988  0.6266 -0.9259
 5931SOL     OW29425   3.173   2.873  10.521  0.8063 -0.4767 -0.4090
 5931SOL    HW129426   3.079   2.894  10.516  0.4108 -2.0748  0.2326
 5931SOL    HW229427   3.188   2.838  10.433  1.2022 -0.9609 -0.1439
 5932SOL     OW29428   1.678   2.134   6.236  0.8889  0.0308 -0.2505
 5932SOL    HW129429   1.742   2.136   6.308  2.5591  0.3394 -1.7419
 5932SOL    HW229430   1.730   2.167   6.163 -2.1549 -0.4426 -2.5980
 5933SOL     OW29431   0.695   3.013  15.666 -0.0737 -0.2529 -0.0577
 5933SOL    HW129432   0.677   3.096  15.710 -0.0819 -0.2197 -0.1236
 5933SOL    HW229433   0.690   2.939  15.726  1.8559 -0.7841 -0.5665
 5934SOL     OW29434   3.288   3.718   6.934 -0.2600 -0.1445  0.0685
 5934SOL    HW129435   3.253   3.630   6.923  0.0514 -0.5266  2.2004
 5934SOL    HW229436   3.318   3.728   7.025  4.1262  1.6050 -1.5433
 5935SOL     OW29437   1.512   1.960   9.150  0.3081  0.6319  0.1389
 5935SOL    HW129438   1.474   1.942   9.064 -0.1624 -1.5325  0.7862
 5935SOL    HW229439   1.560   2.040   9.131 -1.2032  1.3719 -0.5681
 5936SOL     OW29440   3.024   2.253  17.482 -0.2576 -0.5449 -0.1044
 5936SOL    HW129441   2.931   2.236  17.497 -0.6763  1.7805 -0.0203
 5936SOL    HW229442   3.019   2.341  17.444  0.4828 -1.4153 -2.1871
 5937SOL     OW29443   0.797   4.136   7.136 -0.5604 -0.4879 -0.0391
 5937SOL    HW129444   0.851   4.118   7.213  0.0834  0.1518 -0.3418
 5937SOL    HW229445   0.860   4.114   7.067 -0.2421 -0.5478  0.2692
 5938SOL     OW29446   3.940   3.171   6.042  0.5082 -0.2310 -0.3372
 5938SOL    HW129447   3.891   3.164   5.960  1.3002  2.2219 -1.0296
 5938SOL    HW229448   4.029   3.196   6.018  0.7093 -3.1965 -2.5975
 5939SOL     OW29449   4.509   1.264  10.469  0.2782  0.9023  0.3626
 5939SOL    HW129450   4.501   1.330  10.400 -2.1280  0.4024  0.1474
 5939SOL    HW229451   4.456   1.193  10.431  2.3961 -1.2210  1.3998
 5940SOL     OW29452   3.474   4.583   5.369 -0.3835  0.2090 -0.1373
 5940SOL    HW129453   3.465   4.508   5.428  0.2498  1.4138  1.4852
 5940SOL    HW229454   3.379   4.593   5.357 -0.6515  0.3747  2.0258
 5941SOL     OW29455   3.968   3.426   4.694  0.2289  0.2334  0.5656
 5941SOL    HW129456   4.035   3.487   4.663  0.8867 -2.1793 -2.8060
 5941SOL    HW229457   3.960   3.454   4.785 -0.5033  0.6011  0.3883
 5942SOL     OW29458   3.685   4.722  15.496  0.2583  0.1910 -0.1040
 5942SOL    HW129459   3.638   4.656  15.546  1.7230 -2.4687 -2.2361
 5942SOL    HW229460   3.619   0.051  15.512  0.9987  0.9813 -0.3916
 5943SOL     OW29461   0.263   4.675  12.527  0.0713 -0.7962  0.0084
 5943SOL    HW129462   0.337   4.729  12.500 -0.7668 -0.8169 -2.3164
 5943SOL    HW229463   0.218   4.737  12.585  0.7721 -0.6389  0.3877
 5944SOL     OW29464   1.997   1.012   9.115  0.4166  0.1143  0.4092
 5944SOL    HW129465   2.068   1.020   9.179  0.1482  2.8784  0.3615
 5944SOL    HW229466   2.032   1.030   9.027 -1.4285  0.7147 -0.2056
 5945SOL     OW29467   1.936   2.882   2.818 -0.3163 -0.3222 -0.6018
 5945SOL    HW129468   2.013   2.826   2.806 -0.6193 -0.4435 -2.0542
 5945SOL    HW229469   1.943   2.905   2.910  0.1753 -0.4406 -0.6096
 5946SOL     OW29470   3.091   0.580   2.267 -0.3222 -0.3280  0.0499
 5946SOL    HW129471   3.009   0.534   2.249 -0.1830  0.1727 -1.8021
 5946SOL    HW229472   3.080   0.642   2.195 -1.7812 -0.2287  0.3567
 5947SOL     OW29473   2.978   4.056   8.733  0.0444 -0.2127 -0.0199
 5947SOL    HW129474   3.056   4.078   8.682 -0.5365  1.3610 -0.2318
 5947SOL    HW229475   2.945   3.989   8.673 -1.3963  0.8462 -0.4127
 5948SOL     OW29476   3.666   0.180   4.884 -0.2154  0.0403  0.1698
 5948SOL    HW129477   3.696   0.257   4.837  0.5747  1.2938  2.6941
 5948SOL    HW229478   3.746   0.156   4.932  0.8883  1.5950 -0.9189
 5949SOL     OW29479   1.660   1.865   2.308 -0.5861  0.5055  0.3026
 5949SOL    HW129480   1.713   1.804   2.256 -2.5612 -1.4281  0.5811
 5949SOL    HW229481   1.660   1.831   2.397 -1.8269  1.2657  0.5881
 5950SOL     OW29482   2.106   2.423  13.240  0.6155  0.0042 -0.0102
 5950SOL    HW129483   2.062   2.467  13.313 -2.2242  0.3022 -1.8623
 5950SOL    HW229484   2.171   2.377  13.293  0.8912  0.0659 -0.2932
 5951SOL     OW29485   1.105   1.212   7.715 -0.1992  0.3332 -0.4165
 5951SOL    HW129486   1.072   1.257   7.793 -0.6869  0.8424 -0.9166
 5951SOL    HW229487   1.189   1.191   7.756 -0.8484 -1.6613 -0.0943
 5952SOL     OW29488   3.186   1.330  14.703  0.4129 -0.2294 -0.5296
 5952SOL    HW129489   3.210   1.257  14.645 -0.9383  0.0293 -1.4050
 5952SOL    HW229490   3.275   1.357  14.726  0.1683  1.2278 -1.3012
 5953SOL     OW29491   0.234   0.742   5.210 -0.0465  0.2560 -0.0484
 5953SOL    HW129492   0.219   0.650   5.188  4.6468 -0.0269 -1.9408
 5953SOL    HW229493   0.156   0.758   5.264 -0.4915 -0.7797 -0.3739
 5954SOL     OW29494   0.883   3.024  10.675  0.0378 -0.1554 -0.2027
 5954SOL    HW129495   0.793   3.038  10.707  0.7038 -2.5135  2.7062
 5954SOL    HW229496   0.867   2.931  10.660  0.4589 -0.2740  0.0948
 5955SOL     OW29497   2.791   1.456   3.338  0.0697 -0.2355 -0.0473
 5955SOL    HW129498   2.714   1.418   3.380  0.2530 -1.7194 -1.0396
 5955SOL    HW229499   2.825   1.383   3.287 -0.6330 -1.4517  1.2523
 5956SOL     OW29500   2.251   2.694   8.341 -0.4572 -0.5051 -0.0726
 5956SOL    HW129501   2.317   2.704   8.410 -2.0481  0.9844  1.2460
 5956SOL    HW229502   2.306   2.671   8.267  0.4852 -2.2297  1.1561
 5957SOL     OW29503   3.807   4.377   5.841  0.4028  0.4202 -0.0181
 5957SOL    HW129504   3.732   4.404   5.893 -0.1518 -0.4337 -0.3763
 5957SOL    HW229505   3.861   4.456   5.848  0.8757  0.2991 -2.3725
 5958SOL     OW29506   4.607   0.516   0.289  0.2423 -0.1479 -0.1283
 5958SOL    HW129507   4.623   0.512   0.383 -0.8001 -0.2306  0.0426
 5958SOL    HW229508   4.590   0.426   0.261  0.5379  0.0931 -1.0858
 5959SOL     OW29509   0.769   1.618   8.811  0.2229  0.6456 -0.3445
 5959SOL    HW129510   0.778   1.650   8.900  2.2230 -0.8361 -0.0061
 5959SOL    HW229511   0.838   1.551   8.809 -0.0017  0.4486 -1.5731
 5960SOL     OW29512   2.919   0.079   8.664 -0.2807 -0.1956  0.1635
 5960SOL    HW129513   2.982   0.145   8.635  1.0763 -1.6226 -0.1475
 5960SOL    HW229514   2.964   0.002   8.630 -0.2865 -1.2622  2.5429
 5961SOL     OW29515   2.146   0.531   2.698  0.2648 -0.3465  0.1307
 5961SOL    HW129516   2.195   0.584   2.636 -0.1240  0.0435  0.1567
 5961SOL    HW229517   2.067   0.504   2.651  0.0823 -2.9458  1.9172
 5962SOL     OW29518   3.737   4.579  12.929 -0.3859 -0.4124  0.2190
 5962SOL    HW129519   3.671   4.530  12.879  0.8931 -1.2133 -0.6743
 5962SOL    HW229520   3.689   4.653  12.965  0.4598 -0.8996  2.3174
 5963SOL     OW29521   0.881   2.003   1.764  0.3577 -0.1490 -0.4391
 5963SOL    HW129522   0.841   1.916   1.773 -2.4703  1.6018  3.6826
 5963SOL    HW229523   0.956   2.005   1.823  0.0720 -0.0537 -0.0801
 5964SOL     OW29524   0.124   0.290   3.873  0.0195 -0.1140  0.0687
 5964SOL    HW129525   0.051   0.280   3.934 -1.4174  2.3536 -1.2365
 5964SOL    HW229526   0.097   0.367   3.822  0.4357  0.4576  0.7081
 5965SOL     OW29527   1.684   0.345   9.874 -0.0211  0.4949  0.2318
 5965SOL    HW129528   1.601   0.392   9.862  0.2109  1.2706  1.6995
 5965SOL    HW229529   1.681   0.280   9.804  2.2996 -1.6658  2.1377
 5966SOL     OW29530   3.661   4.077   6.685  0.3828 -0.0313  0.0185
 5966SOL    HW129531   3.658   3.990   6.724 -0.6970 -0.5716 -1.2562
 5966SOL    HW229532   3.744   4.067   6.638  0.6281  1.4612  0.1238
 5967SOL     OW29533   0.325   0.126   0.072  0.1262 -0.5457  0.0923
 5967SOL    HW129534   0.330   0.040   0.032 -0.4156 -1.3819  1.8283
 5967SOL    HW229535   0.266   0.107   0.145 -0.3718 -1.1814 -0.4803
 5968SOL     OW29536   3.259   4.470   9.834  0.3152  0.1250  0.0140
 5968SOL    HW129537   3.291   4.431   9.915 -0.6394  0.9179  0.7650
 5968SOL    HW229538   3.230   4.556   9.863  1.1549  0.8790 -1.4019
 5969SOL     OW29539   1.583   2.788  10.481  0.0637  0.2367  0.3587
 5969SOL    HW129540   1.582   2.847  10.557 -0.5625  0.9008 -0.1635
 5969SOL    HW229541   1.551   2.848  10.413 -1.9348 -0.5829  0.5563
 5970SOL     OW29542   2.168   0.758   8.389 -0.2064 -0.5380 -0.1051
 5970SOL    HW129543   2.213   0.676   8.409  0.4375 -0.1662 -0.0302
 5970SOL    HW229544   2.163   0.797   8.476 -0.1918 -1.1156  0.1526
 5971SOL     OW29545   2.690   3.378   8.151 -0.7355  0.9022  0.2118
 5971SOL    HW129546   2.634   3.342   8.220  1.1500 -1.6656  0.4115
 5971SOL    HW229547   2.698   3.309   8.085  0.8036 -0.0209  1.3679
 5972SOL     OW29548   0.309   3.126  17.643 -0.2400  0.0461 -0.2754
 5972SOL    HW129549   0.235   3.066  17.647  0.3309 -0.6667 -0.2941
 5972SOL    HW229550   0.364   3.066  17.694  2.7687  0.8799 -2.5099
 5973SOL     OW29551   0.208   4.265   9.790  0.1798  0.2076  0.0027
 5973SOL    HW129552   0.255   4.183   9.781 -1.8275 -0.9789  0.3486
 5973SOL    HW229553   0.254   4.311   9.860 -0.1013 -0.1137  0.3927
 5974SOL     OW29554   2.887   0.255   5.365 -0.0996  0.1505  0.3010
 5974SOL    HW129555   2.826   0.301   5.308  0.1551 -0.6815 -0.6445
 5974SOL    HW229556   2.894   0.318   5.437  0.1696  1.5724 -0.9648
 5975SOL     OW29557   4.610   0.818   9.325  0.3516  0.1394  0.5946
 5975SOL    HW129558   4.592   0.731   9.362  0.7970  0.9483  2.6815
 5975SOL    HW229559   4.528   0.857   9.298  0.8505 -0.6256 -2.0088
 5976SOL     OW29560   1.301   2.418   7.967 -0.0479  0.0125 -0.0878
 5976SOL    HW129561   1.393   2.439   7.955  0.4980 -2.2001  0.2651
 5976SOL    HW229562   1.278   2.466   8.047 -0.3468 -0.4575  0.1081
 5977SOL     OW29563   4.520   2.782  14.693  0.2950 -0.3186 -0.2020
 5977SOL    HW129564   4.460   2.853  14.675 -1.9294 -2.3457 -0.7670
 5977SOL    HW229565   4.508   2.724  14.617  2.1447  1.6575 -1.9981
 5978SOL     OW29566   2.917   4.706   4.808  0.8139  0.6280  0.0053
 5978SOL    HW129567   2.871   4.633   4.849  0.5942  0.4613 -0.5275
 5978SOL    HW229568   2.958   4.659   4.735 -0.8120  0.9688 -1.1278
 5979SOL     OW29569   3.674   0.974   2.589  0.1184 -0.1564  0.2727
 5979SOL    HW129570   3.645   0.887   2.562  0.1654  0.1092 -0.6415
 5979SOL    HW229571   3.740   0.949   2.654  0.3028  0.4354  0.3203
 5980SOL     OW29572   4.661   1.676  13.233 -0.5558 -0.1041 -0.0618
 5980SOL    HW129573   4.639   1.591  13.196 -0.6708  0.1697 -0.6183
 5980SOL    HW229574   4.589   1.691  13.293 -0.4571  0.6774 -0.1344
 5981SOL     OW29575   2.168   1.305  12.616 -0.2320 -0.0329  0.2131
 5981SOL    HW129576   2.150   1.393  12.582  0.6907 -0.0779 -0.4088
 5981SOL    HW229577   2.138   1.246  12.547  1.5971  0.2051 -0.8035
 5982SOL     OW29578   2.274   4.418  11.272  0.1645  0.4096  0.2855
 5982SOL    HW129579   2.194   4.468  11.289  0.3427  1.2368 -1.2727
 5982SOL    HW229580   2.257   4.385  11.184  1.3330  1.0676 -0.1881
 5983SOL     OW29581   1.734   1.447   7.973  0.5712 -0.0347 -0.4377
 5983SOL    HW129582   1.787   1.480   8.045  3.1055 -0.0366 -2.2969
 5983SOL    HW229583   1.720   1.355   7.996  2.6577  0.6660  3.5695
 5984SOL     OW29584   4.203   2.600  15.359  0.1545  0.2077  0.5830
 5984SOL    HW129585   4.198   2.694  15.373 -2.5817  0.1189  0.2433
 5984SOL    HW229586   4.122   2.593  15.308  0.6893 -1.5980 -0.0231
 5985SOL     OW29587   0.096   3.500   4.808 -0.1851  0.0215 -0.5263
 5985SOL    HW129588   0.017   3.446   4.802  0.7833 -1.4457  0.1526
 5985SOL    HW229589   0.099   3.502   4.904 -1.3100  0.1099 -0.4925
 5986SOL     OW29590   3.847   3.808   2.672  0.3077  0.4845 -0.1436
 5986SOL    HW129591   3.774   3.797   2.610 -0.1488  3.0786 -0.1026
 5986SOL    HW229592   3.924   3.772   2.628 -0.4001 -1.1867 -0.0070
 5987SOL     OW29593   0.498   1.952   5.961  0.3439  0.2607 -0.0041
 5987SOL    HW129594   0.466   1.907   6.040 -2.1520 -0.1195 -1.2216
 5987SOL    HW229595   0.440   2.027   5.949  0.3134  0.1907 -0.2778
 5988SOL     OW29596   2.531   1.939   5.617 -0.1252  0.1577  0.0739
 5988SOL    HW129597   2.526   1.856   5.666 -0.9953 -0.7559 -1.5894
 5988SOL    HW229598   2.462   1.994   5.653  0.3071 -1.1026  2.8742
 5989SOL     OW29599   4.454   2.489   1.467 -0.1440  0.1025  0.2031
 5989SOL    HW129600   4.376   2.440   1.494  1.0823 -2.3956 -0.7853
 5989SOL    HW229601   4.525   2.424   1.474  0.1779  0.4326 -0.0091
 5990SOL     OW29602   1.443   4.121   7.851 -0.0653  1.0068  0.2136
 5990SOL    HW129603   1.496   4.072   7.789  0.9923 -2.0609  3.4976
 5990SOL    HW229604   1.484   4.086   7.930  0.0140  0.0296 -0.2529
 5991SOL     OW29605   2.930   3.066   9.136 -0.0887  0.2014  0.2736
 5991SOL    HW129606   3.014   3.059   9.182 -0.7476 -0.3411  1.3785
 5991SOL    HW229607   2.913   3.160   9.144  1.7464  0.5560  0.1277
 5992SOL     OW29608   0.316   2.092   0.626 -0.0284  0.1043  0.0258
 5992SOL    HW129609   0.230   2.124   0.601  1.9992  2.4326 -3.8496
 5992SOL    HW229610   0.354   2.112   0.541  2.5071  1.2033  1.4073
 5993SOL     OW29611   3.903   3.789   3.313  0.5376 -0.5326  1.1728
 5993SOL    HW129612   3.957   3.776   3.235  0.3886 -0.1606  1.0064
 5993SOL    HW229613   3.817   3.778   3.274  0.7202 -2.3553  1.2961
 5994SOL     OW29614   1.755   3.326  10.033  0.1089  0.6337  0.0254
 5994SOL    HW129615   1.722   3.377  10.107  0.6052  1.3184 -0.2223
 5994SOL    HW229616   1.676   3.307   9.982  2.4859 -5.2094 -1.4494
 5995SOL     OW29617   0.464   2.257   4.254 -0.0847 -0.0729 -0.1675
 5995SOL    HW129618   0.453   2.231   4.162  0.3368 -0.4346 -0.1166
 5995SOL    HW229619   0.380   2.231   4.292 -0.1062 -0.7891 -0.7003
 5996SOL     OW29620   3.243   2.953   6.147 -0.0039 -0.6018 -0.6469
 5996SOL    HW129621   3.188   3.004   6.087 -0.7378  0.1080  0.6388
 5996SOL    HW229622   3.174   2.930   6.208 -0.9786  0.3491 -1.3832
 5997SOL     OW29623   1.893   1.811   6.965  0.3345 -0.1167  0.1643
 5997SOL    HW129624   1.827   1.757   6.920  0.4479  0.6773 -0.9479
 5997SOL    HW229625   1.866   1.899   6.940 -2.2724 -0.5011  1.5988
 5998SOL     OW29626   4.701   1.453   3.775 -0.5305 -0.1546 -0.1896
 5998SOL    HW129627   4.664   1.387   3.717 -0.6765 -0.6656  0.4916
 5998SOL    HW229628   4.630   1.506   3.812 -1.6489  0.1954 -2.8158
 5999SOL     OW29629   4.674   0.490  14.831  0.1940 -0.0981 -0.2380
 5999SOL    HW129630   4.612   0.456  14.767  1.1983  0.1740 -1.3528
 5999SOL    HW229631   0.015   0.444  14.806 -0.8142 -1.5268 -0.8025
 6000SOL     OW29632   3.906   2.777  10.772 -0.0167 -0.1451  0.1144
 6000SOL    HW129633   3.866   2.803  10.855  0.2127  0.9385 -0.1253
 6000SOL    HW229634   3.928   2.863  10.737 -1.0949  0.2636  0.4488
 6001SOL     OW29635   4.630   0.373   9.293  0.4031  0.0482  0.0633
 6001SOL    HW129636   4.616   0.442   9.358 -0.7537  1.6900 -1.9190
 6001SOL    HW229637   4.672   0.303   9.343 -0.6361  0.4295  1.4690
 6002SOL     OW29638   1.756   3.693   5.457 -0.4467  0.2506  0.0193
 6002SOL    HW129639   1.804   3.775   5.462 -0.9456  0.6470 -1.6858
 6002SOL    HW229640   1.667   3.727   5.447  0.2113  2.1310  0.6675
 6003SOL     OW29641   0.553   1.818  16.700 -0.7344 -0.8051 -0.3737
 6003SOL    HW129642   0.601   1.736  16.699  0.2357 -0.2870  2.2909
 6003SOL    HW229643   0.616   1.864  16.756 -0.9756 -0.4699 -0.3783
 6004SOL     OW29644   1.609   1.049   9.983 -0.0665  0.3208 -0.2783
 6004SOL    HW129645   1.558   1.096   9.917 -0.9200  0.8644  0.7625
 6004SOL    HW229646   1.590   1.100  10.062  1.1001 -1.9986  1.5252
 6005SOL     OW29647   4.701   1.216  11.310 -0.7490  0.2505 -0.1158
 6005SOL    HW129648   0.056   1.228  11.321 -0.6543 -0.6411 -0.0011
 6005SOL    HW229649   4.680   1.308  11.290  1.1247  1.2996  2.8280
 6006SOL     OW29650   1.761   1.173   4.813 -0.7991 -0.4026  0.0883
 6006SOL    HW129651   1.741   1.264   4.794  1.4624  0.0364 -0.1975
 6006SOL    HW229652   1.852   1.182   4.842 -0.1216  1.2161 -2.5742
 6007SOL     OW29653   2.071   2.274   8.142  0.7436  0.4444 -0.2404
 6007SOL    HW129654   2.026   2.190   8.151  1.3622  0.2393  0.9223
 6007SOL    HW229655   2.161   2.241   8.143  1.0878  1.5284  2.6358
 6008SOL     OW29656   3.071   3.997   4.001  0.0564  0.4284 -0.0639
 6008SOL    HW129657   2.975   3.996   4.009 -0.1073  0.9500 -2.0546
 6008SOL    HW229658   3.091   4.089   3.987 -1.2567  0.8226  0.6493
 6009SOL     OW29659   1.695   0.384  10.165  0.0195  1.0012  0.4127
 6009SOL    HW129660   1.692   0.478  10.148 -2.1531  0.4150 -2.3707
 6009SOL    HW229661   1.712   0.361  10.074 -1.7481  1.6089 -0.0551
 6010SOL     OW29662   2.329   0.953   8.860 -0.6496 -0.5003 -0.0846
 6010SOL    HW129663   2.350   0.956   8.954 -0.7049 -0.7903 -0.0624
 6010SOL    HW229664   2.319   0.859   8.842  1.2323 -0.5801 -0.7671
 6011SOL     OW29665   2.126   4.196   8.037  0.0802 -0.2485  0.0951
 6011SOL    HW129666   2.170   4.173   7.955 -1.3464 -2.6716  0.0174
 6011SOL    HW229667   2.193   4.227   8.098  0.2798 -1.7475  0.6353
 6012SOL     OW29668   0.061   1.020   2.684  1.0623 -0.0231  0.3320
 6012SOL    HW129669   0.116   1.097   2.700  0.5243  0.7292 -1.3845
 6012SOL    HW229670   0.040   0.989   2.772 -2.3112  1.6004  0.1104
 6013SOL     OW29671   1.201   1.448   5.900  0.0367  0.9475  0.8812
 6013SOL    HW129672   1.108   1.451   5.876  0.5977  0.3720 -1.3646
 6013SOL    HW229673   1.219   1.356   5.918  0.1046  0.5074 -1.5424
 6014SOL     OW29674   2.745   3.034  15.229  0.1554 -0.2757 -0.1158
 6014SOL    HW129675   2.654   3.022  15.255  0.0430  2.1176  0.6800
 6014SOL    HW229676   2.791   3.016  15.311  1.2840 -0.4661 -0.7964
 6015SOL     OW29677   1.282   3.932   1.250 -0.1364  0.2683  0.0525
 6015SOL    HW129678   1.299   3.931   1.344  2.9513 -1.3834 -0.4976
 6015SOL    HW229679   1.192   3.899   1.253  0.4108 -1.1921  0.5754
 6016SOL     OW29680   0.345   2.263  12.261  0.2750 -0.5397  0.1953
 6016SOL    HW129681   0.286   2.196  12.296 -0.2646 -0.3898 -0.4390
 6016SOL    HW229682   0.400   2.210  12.203  1.4842 -1.2990  2.0142
 6017SOL     OW29683   4.264   3.220   5.650 -0.3236  0.6396  0.3583
 6017SOL    HW129684   4.331   3.193   5.588  0.3178  2.0491  0.4222
 6017SOL    HW229685   4.270   3.315   5.637  1.2672  0.3868 -0.7441
 6018SOL     OW29686   1.994   3.149   2.689 -0.3560  0.0243 -0.1551
 6018SOL    HW129687   1.934   3.154   2.615 -1.0508  1.2899  0.4968
 6018SOL    HW229688   1.955   3.080   2.742 -1.9137 -0.7148 -2.2601
 6019SOL     OW29689   1.650   4.379   6.457 -0.3079 -0.4254 -0.0452
 6019SOL    HW129690   1.665   4.429   6.376 -1.7469  0.5483  0.3014
 6019SOL    HW229691   1.738   4.396   6.491 -0.7008  2.2458 -0.3871
 6020SOL     OW29692   3.169   2.868   7.685 -0.5920 -0.0065 -1.0226
 6020SOL    HW129693   3.132   2.863   7.597  2.2070  0.5825 -2.2466
 6020SOL    HW229694   3.259   2.836   7.672 -0.5015 -0.8059  1.5273
 6021SOL     OW29695   3.368   3.531  12.924 -0.1894  0.5574  0.3144
 6021SOL    HW129696   3.444   3.541  12.866  2.1336 -3.6515  2.6379
 6021SOL    HW229697   3.347   3.439  12.911 -0.6385  0.6496  0.3734
 6022SOL     OW29698   0.355   2.822  14.755 -0.0998  0.2168  0.2993
 6022SOL    HW129699   0.361   2.808  14.850  0.0473 -1.4508  0.0284
 6022SOL    HW229700   0.270   2.863  14.740  1.1610  2.3262 -0.9960
 6023SOL     OW29701   2.371   2.736   1.585 -0.8283 -0.2364 -0.2046
 6023SOL    HW129702   2.360   2.791   1.508 -0.8114  0.2320  0.1224
 6023SOL    HW229703   2.464   2.743   1.605 -0.6652 -0.2425 -0.9670
 6024SOL     OW29704   4.512   3.962   4.578 -0.0684 -0.1271 -0.2436
 6024SOL    HW129705   4.439   3.906   4.550  1.2495 -1.5091 -0.9043
 6024SOL    HW229706   4.460   4.020   4.633 -0.7710 -0.1392 -0.8989
 6025SOL     OW29707   0.936   3.429   6.814  0.2246 -0.5503  0.0284
 6025SOL    HW129708   0.972   3.358   6.762  0.3152  1.3408 -2.5297
 6025SOL    HW229709   1.006   3.456   6.873 -0.3892  1.6596 -0.2457
 6026SOL     OW29710   4.307   2.872   4.712  0.2061 -0.2735  0.1768
 6026SOL    HW129711   4.320   2.797   4.770 -2.5750 -0.2973  0.7478
 6026SOL    HW229712   4.369   2.859   4.640  0.3373 -0.2642  0.2866
 6027SOL     OW29713   1.259   4.096  12.472 -0.2265 -0.7069 -0.3200
 6027SOL    HW129714   1.285   4.004  12.464 -1.1326 -1.1018  1.2272
 6027SOL    HW229715   1.164   4.103  12.456 -0.0336 -0.3359 -1.3031
 6028SOL     OW29716   3.692   2.408  12.896  0.1240  0.1321 -0.3792
 6028SOL    HW129717   3.615   2.462  12.915 -0.2589 -1.4252  2.5398
 6028SOL    HW229718   3.642   2.338  12.854 -2.3848  2.3101 -1.0475
 6029SOL     OW29719   2.556   1.505   0.071  0.1846 -0.0794 -0.1895
 6029SOL    HW129720   2.513   1.552   0.000  0.2963 -2.0087 -1.5363
 6029SOL    HW229721   2.556   1.418   0.032  0.2658 -0.8714  1.5609
 6030SOL     OW29722   1.444   2.372   6.188  1.1448 -0.5934  0.2275
 6030SOL    HW129723   1.483   2.305   6.132  1.6367  1.1927 -1.5502
 6030SOL    HW229724   1.521   2.405   6.235  0.9739  1.0627 -0.6529
 6031SOL     OW29725   0.753   1.319  15.462  0.0700 -0.5773 -0.5990
 6031SOL    HW129726   0.736   1.332  15.369 -0.5627  0.7045 -0.3058
 6031SOL    HW229727   0.820   1.385  15.479 -1.4275  0.5512  0.9231
 6032SOL     OW29728   0.763   1.417   9.927  0.0638  0.6509 -0.2528
 6032SOL    HW129729   0.787   1.333   9.886  0.2437  1.3562 -1.6023
 6032SOL    HW229730   0.797   1.407  10.016  0.2295 -1.8663 -0.5804
 6033SOL     OW29731   1.652   3.501  10.238  0.0038 -0.6205 -0.1732
 6033SOL    HW129732   1.572   3.494  10.291 -0.7207 -0.9014 -1.2953
 6033SOL    HW229733   1.716   3.506  10.309  0.0758 -0.4131 -0.2529
 6034SOL     OW29734   2.250   0.051  11.608 -0.4221 -0.0998  0.1930
 6034SOL    HW129735   2.157   0.071  11.595  0.3822  2.4115 -1.6099
 6034SOL    HW229736   2.247   4.694  11.603  1.9996 -0.1100 -0.9058
 6035SOL     OW29737   4.720   1.124   5.012 -0.2776  0.1250  0.5400
 6035SOL    HW129738   4.677   1.162   5.088  0.4561  1.2384  0.4034
 6035SOL    HW229739   4.696   1.193   4.950  3.7400  0.7681 -0.3080
 6036SOL     OW29740   1.484   3.227   0.676 -0.1812 -0.6931 -0.1058
 6036SOL    HW129741   1.559   3.175   0.703  0.1228  0.3837  1.1301
 6036SOL    HW229742   1.422   3.219   0.748 -0.8007 -1.5002 -0.7225
 6037SOL     OW29743   0.782   0.209   9.121  0.3521  0.0247  0.3730
 6037SOL    HW129744   0.795   0.268   9.195  0.8481 -0.7681  0.9110
 6037SOL    HW229745   0.802   0.280   9.060 -2.5114  0.3048 -0.2445
 6038SOL     OW29746   4.555   2.028   8.388  0.5653 -0.0541  0.0168
 6038SOL    HW129747   4.500   2.084   8.443 -0.6882 -1.8440  0.5491
 6038SOL    HW229748   4.580   1.963   8.454 -0.1260 -2.1169 -1.7632
 6039SOL     OW29749   2.883   4.154   1.141  0.3371  0.4971  0.3100
 6039SOL    HW129750   2.841   4.168   1.056  1.7879  1.1109 -0.2898
 6039SOL    HW229751   2.826   4.167   1.217 -0.1281  1.2976 -0.1765
 6040SOL     OW29752   2.415   1.127   6.564  0.1847 -0.3958  0.5266
 6040SOL    HW129753   2.345   1.127   6.498  0.4508  0.2669  0.2502
 6040SOL    HW229754   2.363   1.162   6.636  0.0183  0.0576  0.1889
 6041SOL     OW29755   2.150   4.015   6.826  0.1077 -0.1049 -0.1273
 6041SOL    HW129756   2.057   4.027   6.805  0.6147  1.1282 -1.6780
 6041SOL    HW229757   2.150   4.084   6.892  0.1764  0.8060 -1.0765
 6042SOL     OW29758   4.177   1.786   7.935 -0.3635 -0.0241 -0.3800
 6042SOL    HW129759   4.161   1.834   7.854 -1.4795 -1.8344 -1.2184
 6042SOL    HW229760   4.173   1.695   7.905 -0.2842 -0.7131  1.7154
 6043SOL     OW29761   2.329   3.163   2.867 -0.6883  0.4355 -0.3579
 6043SOL    HW129762   2.421   3.190   2.858  0.1827 -2.2395  0.3290
 6043SOL    HW229763   2.283   3.227   2.813 -0.9014 -0.0544 -0.7632
 6044SOL     OW29764   3.578   2.867   5.732  0.0026 -0.1106 -0.1871
 6044SOL    HW129765   3.513   2.882   5.801  1.2144  0.2784  0.8680
 6044SOL    HW229766   3.539   2.787   5.697 -0.3446  1.2571 -2.9212
 6045SOL     OW29767   3.801   4.634   3.256  0.2385  0.4028 -0.0637
 6045SOL    HW129768   3.784   4.559   3.314 -0.1069 -0.7103 -1.6129
 6045SOL    HW229769   3.860   4.590   3.195  0.6053 -0.6889  1.0887
 6046SOL     OW29770   1.983   0.217   4.571  0.4162 -0.2532 -0.2918
 6046SOL    HW129771   1.952   0.130   4.549  0.0349 -1.1028  3.6447
 6046SOL    HW229772   1.902   0.266   4.560  0.6221 -0.2658 -1.9056
 6047SOL     OW29773   2.597   4.134   4.812 -0.0618  0.0879 -0.6521
 6047SOL    HW129774   2.605   4.199   4.742  0.8730  2.5679  1.7544
 6047SOL    HW229775   2.673   4.153   4.867  0.6834 -2.1455 -0.9312
 6048SOL     OW29776   0.100   3.874   1.187  0.1294  0.0778  0.3164
 6048SOL    HW129777   0.097   3.784   1.155 -0.9431  0.6422 -1.1521
 6048SOL    HW229778   0.191   3.894   1.166 -0.0788 -0.9873 -1.5532
 6049SOL     OW29779   2.897   2.729   7.815  0.1116 -0.1044 -0.1147
 6049SOL    HW129780   2.935   2.646   7.846  0.7906  0.4170  0.4418
 6049SOL    HW229781   2.917   2.722   7.722 -0.4958 -2.4649 -0.0640
 6050SOL     OW29782   0.217   0.526  10.211 -0.5205  0.3958 -0.3759
 6050SOL    HW129783   0.160   0.458  10.250  0.4029 -0.4344 -0.4800
 6050SOL    HW229784   0.270   0.549  10.287  1.2945  0.3164 -1.6249
 6051SOL     OW29785   2.428   3.359  10.899 -0.0576  0.1406 -0.3627
 6051SOL    HW129786   2.357   3.349  10.963  0.7663  0.2753  0.5732
 6051SOL    HW229787   2.396   3.280  10.857 -0.0766  0.6497 -1.3143
 6052SOL     OW29788   1.866   2.591   3.912  0.3014 -0.0260  0.2451
 6052SOL    HW129789   1.887   2.538   3.836 -1.6852 -1.5481  0.7762
 6052SOL    HW229790   1.949   2.625   3.946  0.9453  0.2377 -1.5661
 6053SOL     OW29791   1.110   0.457   3.440  0.7780  0.1421 -0.2554
 6053SOL    HW129792   1.072   0.409   3.513 -1.9603  2.6075 -0.0416
 6053SOL    HW229793   1.192   0.407   3.439 -0.0264 -1.1688  2.3973
 6054SOL     OW29794   1.995   2.014   2.233 -0.1537 -0.0079  0.2865
 6054SOL    HW129795   1.977   2.100   2.197 -0.3336 -0.7558 -1.4120
 6054SOL    HW229796   1.949   1.953   2.176 -0.2508  1.8400 -1.5790
 6055SOL     OW29797   4.170   2.171  13.095 -0.0305  0.1101 -0.1290
 6055SOL    HW129798   4.084   2.158  13.054 -0.2026 -0.5914  0.4499
 6055SOL    HW229799   4.178   2.264  13.116  1.7493  0.4347 -2.2294
 6056SOL     OW29800   2.120   4.153   8.664 -0.0137 -0.3402  0.1127
 6056SOL    HW129801   2.094   4.164   8.572 -0.4142 -0.9890  0.1522
 6056SOL    HW229802   2.168   4.235   8.676  2.4089 -1.6704 -0.4249
 6057SOL     OW29803   1.231   2.562   6.267 -0.0488  0.3098  0.0369
 6057SOL    HW129804   1.278   2.486   6.232 -1.0123 -0.5059  0.5261
 6057SOL    HW229805   1.303   2.612   6.304 -0.4011  0.1482  0.9448
 6058SOL     OW29806   4.467   2.521   3.013  0.2630 -0.0595 -0.3694
 6058SOL    HW129807   4.380   2.515   3.053 -1.0051 -0.9582 -3.2981
 6058SOL    HW229808   4.473   2.612   2.982 -0.4191 -0.4016 -1.5109
 6059SOL     OW29809   1.325   2.567   1.360 -0.5409 -0.4769  0.1756
 6059SOL    HW129810   1.387   2.640   1.360 -1.6532  0.4765  0.2732
 6059SOL    HW229811   1.259   2.595   1.423  0.1422 -1.0474  1.1381
 6060SOL     OW29812   1.585   2.591   7.809  0.3239 -0.1381  0.5676
 6060SOL    HW129813   1.531   2.663   7.843  3.0496  1.1649  2.1920
 6060SOL    HW229814   1.660   2.635   7.770  0.0754 -1.9911 -1.9425
 6061SOL     OW29815   3.208   2.365   7.152 -0.1568  0.4800 -0.4835
 6061SOL    HW129816   3.246   2.441   7.108 -1.7452  1.3383 -0.3556
 6061SOL    HW229817   3.253   2.359   7.237 -0.5036 -3.9231 -0.6027
 6062SOL     OW29818   1.145   1.838   8.556 -0.2610 -0.6372  0.2534
 6062SOL    HW129819   1.108   1.760   8.599 -0.6618 -0.3888  0.3602
 6062SOL    HW229820   1.220   1.850   8.614  0.5724 -0.0213 -0.9475
 6063SOL     OW29821   2.097   4.196   4.851  0.1604 -0.4226 -0.1749
 6063SOL    HW129822   2.148   4.156   4.780 -0.1684  1.1477 -1.2818
 6063SOL    HW229823   2.074   4.117   4.901 -0.0459  0.2307  0.7684
 6064SOL     OW29824   1.442   3.305   4.607  0.1525  0.0078 -0.0400
 6064SOL    HW129825   1.405   3.221   4.633 -0.0581  0.9044  2.5144
 6064SOL    HW229826   1.531   3.270   4.598  0.8172  1.2149  1.9179
 6065SOL     OW29827   2.707   1.759   8.360 -0.2018  0.3635 -0.9289
 6065SOL    HW129828   2.725   1.790   8.449 -0.2753  0.2499 -0.8745
 6065SOL    HW229829   2.708   1.664   8.359 -1.7145  0.3042  1.3996
 6066SOL     OW29830   0.270   2.826   5.844  0.0836  0.6003  0.3209
 6066SOL    HW129831   0.335   2.868   5.900 -1.0751  2.0560  0.5639
 6066SOL    HW229832   0.190   2.820   5.896  1.4800 -1.5152  2.2258
 6067SOL     OW29833   1.611   3.717  17.642  0.6042  0.4637  0.1379
 6067SOL    HW129834   1.525   3.692  17.610  0.3794  1.1582  0.2039
 6067SOL    HW229835   1.664   3.663  17.584  1.0063 -1.7233  2.5245
 6068SOL     OW29836   0.983   0.382   7.161  0.6353  0.3984 -0.0874
 6068SOL    HW129837   1.006   0.290   7.177 -1.7365  0.0106  1.1957
 6068SOL    HW229838   0.893   0.376   7.129  0.3873  0.7126  0.5555
 6069SOL     OW29839   2.804   1.857  11.314 -0.2246 -0.0729 -0.6867
 6069SOL    HW129840   2.728   1.842  11.370  0.5830  0.4976  0.5508
 6069SOL    HW229841   2.867   1.891  11.377  1.6062 -0.5094 -2.2736
 6070SOL     OW29842   2.617   3.607   8.292 -0.3125  0.2029  0.0127
 6070SOL    HW129843   2.665   3.543   8.240  0.8364  0.6003  0.5747
 6070SOL    HW229844   2.550   3.625   8.226 -2.2765 -2.4060  1.3150
 6071SOL     OW29845   4.296   4.166   9.483  0.1538 -0.5336 -0.4097
 6071SOL    HW129846   4.381   4.210   9.486  1.3197 -2.8148  0.3711
 6071SOL    HW229847   4.236   4.240   9.485  0.2893 -0.3848 -1.7889
 6072SOL     OW29848   3.633   1.876   5.946 -0.0069  0.2166 -0.1833
 6072SOL    HW129849   3.546   1.916   5.952 -0.1628 -0.2586  0.7688
 6072SOL    HW229850   3.658   1.876   6.039 -1.9167  1.6774  0.3310
 6073SOL     OW29851   1.333   4.459   4.400 -0.0861  0.0851 -0.4286
 6073SOL    HW129852   1.383   4.433   4.477  0.3245 -0.0719 -0.7436
 6073SOL    HW229853   1.351   4.552   4.404 -0.8826  0.1693  1.2629
 6074SOL     OW29854   0.420   2.979   0.908 -0.0259 -0.1759  0.4641
 6074SOL    HW129855   0.427   3.008   0.999  0.0373 -1.9977  1.0428
 6074SOL    HW229856   0.418   2.885   0.925 -1.0671 -0.1902  0.2968
 6075SOL     OW29857   0.152   2.817   1.691 -0.5853  0.4598  0.6113
 6075SOL    HW129858   0.082   2.758   1.663 -0.8892  0.4832  1.3502
 6075SOL    HW229859   0.096   2.881   1.733 -0.7748 -0.2905  1.4996
 6076SOL     OW29860   0.734   2.861  11.030  0.0962 -0.4095  0.0227
 6076SOL    HW129861   0.726   2.913  11.110  0.9857 -1.3836  0.7304
 6076SOL    HW229862   0.824   2.872  10.999  0.2959 -0.9370  0.4309
 6077SOL     OW29863   2.665   0.641   4.275 -0.0183  0.2127  0.2160
 6077SOL    HW129864   2.606   0.620   4.347  0.2774 -0.1459  0.3547
 6077SOL    HW229865   2.602   0.674   4.212 -2.5534 -2.9110  1.1614
 6078SOL     OW29866   0.852   0.335   9.373 -1.1076  0.2821 -0.5492
 6078SOL    HW129867   0.844   0.249   9.415  1.2136 -0.2135 -1.1160
 6078SOL    HW229868   0.945   0.359   9.381 -1.3915  0.5906  1.8747
 6079SOL     OW29869   4.142   0.765   5.332 -0.0205  0.7046  0.5176
 6079SOL    HW129870   4.210   0.829   5.316  0.6579  0.0040  0.6110
 6079SOL    HW229871   4.117   0.750   5.241 -0.1416  0.2977  0.6166
 6080SOL     OW29872   1.384   3.637  11.320 -0.5386 -0.0663  0.5616
 6080SOL    HW129873   1.423   3.549  11.321 -2.0879 -0.7619  0.4926
 6080SOL    HW229874   1.351   3.639  11.230 -2.9508 -2.2706  1.3730
 6081SOL     OW29875   0.421   1.004  12.976  0.9218  0.2051  0.6433
 6081SOL    HW129876   0.453   0.991  12.887  0.1948  1.4164  0.2058
 6081SOL    HW229877   0.381   0.918  12.991 -0.6904  0.9663  0.6266
 6082SOL     OW29878   2.219   0.884  11.461 -0.6254 -0.1206  0.3831
 6082SOL    HW129879   2.270   0.966  11.462  1.4372 -1.3983  1.8285
 6082SOL    HW229880   2.295   0.826  11.469  0.5939  1.3514 -0.3087
 6083SOL     OW29881   0.889   0.008   7.404 -0.3340  0.2268  0.5118
 6083SOL    HW129882   0.868   4.725   7.313  0.5839  2.4425 -0.2328
 6083SOL    HW229883   0.971   4.698   7.413  0.7692  2.3184  1.8521
 6084SOL     OW29884   4.150   2.095   2.923 -0.1933  0.0065  0.0219
 6084SOL    HW129885   4.111   2.100   2.836 -3.6153  1.0541  1.6114
 6084SOL    HW229886   4.079   2.049   2.968 -1.3776  0.5534 -1.2773
 6085SOL     OW29887   0.159   0.220  12.331 -0.3790  0.4303  0.2847
 6085SOL    HW129888   0.156   0.228  12.426 -3.1246  0.0083  0.2366
 6085SOL    HW229889   0.131   0.129  12.321 -0.5134  0.4465  0.5238
 6086SOL     OW29890   3.024   0.929   1.955  0.1067  0.0684 -0.4469
 6086SOL    HW129891   3.051   0.866   2.022  0.2649  1.4470  0.7865
 6086SOL    HW229892   3.093   0.996   1.950  0.3855  0.0321  2.9354
 6087SOL     OW29893   3.373   0.555  14.340 -0.2898 -0.5027 -0.3620
 6087SOL    HW129894   3.342   0.476  14.296  1.0694  0.4926 -3.0932
 6087SOL    HW229895   3.438   0.581  14.275  1.0950  2.5003  2.2119
 6088SOL     OW29896   1.457   4.002   4.924 -0.2482  0.3013  0.5186
 6088SOL    HW129897   1.396   3.978   4.994  1.7990 -3.1830  1.1075
 6088SOL    HW229898   1.538   3.973   4.967  2.0283  1.1784 -3.2121
 6089SOL     OW29899   2.361   1.688   8.352  0.2855 -0.0284  0.9677
 6089SOL    HW129900   2.308   1.767   8.345  0.6507  0.3522  2.5621
 6089SOL    HW229901   2.353   1.679   8.447  1.3546 -1.4611  0.9140
 6090SOL     OW29902   1.767   3.419   7.263  0.2482  0.5713  0.1143
 6090SOL    HW129903   1.817   3.484   7.313 -0.7455  2.0437 -0.7700
 6090SOL    HW229904   1.765   3.347   7.325  0.3934  0.9859  0.6059
 6091SOL     OW29905   1.686   2.951   5.344  0.1420  0.1985 -0.8407
 6091SOL    HW129906   1.592   2.969   5.333 -0.6455 -2.3923  1.6661
 6091SOL    HW229907   1.718   3.041   5.349  0.3585  0.1060 -0.5814
 6092SOL     OW29908   3.475   0.403   3.491  0.2392 -0.0114  0.6800
 6092SOL    HW129909   3.480   0.308   3.487 -1.2330 -0.0364 -0.6203
 6092SOL    HW229910   3.460   0.408   3.397 -0.0615 -0.1997  0.7178
 6093SOL     OW29911   3.861   1.586   9.276 -0.5391  0.0694  0.1039
 6093SOL    HW129912   3.797   1.636   9.326 -2.0409 -1.0558 -0.6882
 6093SOL    HW229913   3.818   1.501   9.268 -0.9509  0.3363 -0.4791
 6094SOL     OW29914   0.872   1.805   4.676  0.1988  0.4341  0.0542
 6094SOL    HW129915   0.924   1.850   4.609  1.4350 -1.6376 -0.3837
 6094SOL    HW229916   0.904   1.842   4.758 -1.0439  1.1375  0.2128
 6095SOL     OW29917   2.884   4.252   4.742 -0.2300 -0.1866  0.0580
 6095SOL    HW129918   2.876   4.266   4.837  0.0978  1.7374 -0.2048
 6095SOL    HW229919   2.815   4.306   4.703  0.2267 -0.1968 -0.7686
 6096SOL     OW29920   1.533   0.027  11.932 -0.2087 -0.4478  0.4049
 6096SOL    HW129921   1.604   0.078  11.894  0.1660 -1.4910 -0.2939
 6096SOL    HW229922   1.581   4.737  12.010  0.5693  0.5519  0.2859
 6097SOL     OW29923   2.148   3.296   8.098  0.2488  0.0866 -0.6020
 6097SOL    HW129924   2.185   3.263   8.180  1.0581 -0.6232 -1.2635
 6097SOL    HW229925   2.149   3.390   8.118 -2.4579  0.3573 -1.7436
 6098SOL     OW29926   0.438   1.621   3.840 -0.5978  0.1348  0.0289
 6098SOL    HW129927   0.359   1.568   3.834 -1.0226  0.8662 -0.7489
 6098SOL    HW229928   0.459   1.632   3.747  1.2688 -3.0733  0.0798
 6099SOL     OW29929   3.297   0.740  12.575 -0.0444 -0.3721  0.3321
 6099SOL    HW129930   3.242   0.663  12.564  0.0305 -0.2191 -1.1632
 6099SOL    HW229931   3.232   0.802  12.543 -0.7573 -1.1693  0.2480
 6100SOL     OW29932   3.786   2.243   8.303  0.4564  0.1053  0.1410
 6100SOL    HW129933   3.785   2.148   8.309  0.3215  0.0290 -1.1501
 6100SOL    HW229934   3.705   2.247   8.356 -0.0310  0.1788 -0.6104
 6101SOL     OW29935   4.533   3.039  14.453 -0.5207  0.2642  0.2367
 6101SOL    HW129936   4.453   3.034  14.506 -1.8414  1.5477 -1.6211
 6101SOL    HW229937   4.505   2.987  14.377 -0.4282  0.8708 -0.2093
 6102SOL     OW29938   1.202   2.185   7.226 -0.3458  0.0712 -0.1920
 6102SOL    HW129939   1.295   2.184   7.251  0.5358 -1.1337 -3.6475
 6102SOL    HW229940   1.227   2.198   7.135 -0.7209 -0.2229 -0.3328
 6103SOL     OW29941   1.792   2.335   3.673  0.2707  0.6290  0.3089
 6103SOL    HW129942   1.779   2.252   3.629 -0.1273  1.5615 -1.3154
 6103SOL    HW229943   1.878   2.359   3.638  0.8180  0.5465  1.5583
 6104SOL     OW29944   1.958   4.548   2.774  0.2792  0.1773  0.2509
 6104SOL    HW129945   2.000   4.473   2.816  0.0026 -0.5795 -0.8227
 6104SOL    HW229946   1.891   4.511   2.716  0.4225  1.2773 -0.6224
 6105SOL     OW29947   3.318   1.776   5.539 -0.5479  0.3377 -0.1126
 6105SOL    HW129948   3.284   1.720   5.609 -0.9222  1.8063  0.9009
 6105SOL    HW229949   3.253   1.765   5.470 -0.3957  0.1197 -0.2208
 6106SOL     OW29950   0.802   2.079   3.715  0.2997 -0.1612 -0.3418
 6106SOL    HW129951   0.728   2.121   3.672 -1.2898 -2.0407  0.6032
 6106SOL    HW229952   0.756   2.010   3.761  3.1028 -0.4567  2.0472
 6107SOL     OW29953   2.702   0.933   8.252  0.0326  0.1427  0.0038
 6107SOL    HW129954   2.775   0.985   8.286 -1.0227  2.1924 -0.8773
 6107SOL    HW229955   2.733   0.844   8.263  0.9340  0.3448 -0.8329
 6108SOL     OW29956   3.050   0.295   8.840 -0.3649  0.0733 -0.1635
 6108SOL    HW129957   2.975   0.237   8.825  0.3198 -0.6888 -0.7128
 6108SOL    HW229958   3.082   0.311   8.751  0.6198 -1.4554 -0.0957
 6109SOL     OW29959   0.466   1.198   3.821  0.1464  0.8514 -0.1702
 6109SOL    HW129960   0.393   1.260   3.823  2.0514  2.9981  2.0738
 6109SOL    HW229961   0.437   1.136   3.755 -3.0409  1.6313  0.5022
 6110SOL     OW29962   1.186   0.488  14.101 -0.0366  0.0942  0.0226
 6110SOL    HW129963   1.090   0.479  14.101  0.2853 -3.3346  0.2896
 6110SOL    HW229964   1.190   0.581  14.124 -0.1052  0.1619 -0.2330
 6111SOL     OW29965   4.395   2.651   2.050 -0.1610 -0.5294  0.2643
 6111SOL    HW129966   4.446   2.626   1.973  1.2172 -0.2741  1.1077
 6111SOL    HW229967   4.435   2.736   2.068  0.5011 -0.6320 -0.7601
 6112SOL     OW29968   1.327   4.466   7.407  0.0838 -0.1771 -0.0388
 6112SOL    HW129969   1.262   4.396   7.403  0.1241 -0.2534  0.6556
 6112SOL    HW229970   1.405   4.434   7.451  3.0556  2.6610 -3.3027
 6113SOL     OW29971   2.732   3.509   1.803 -0.0142  0.2803  0.3060
 6113SOL    HW129972   2.791   3.554   1.863 -0.3557  1.6908 -0.4167
 6113SOL    HW229973   2.784   3.503   1.723  2.1794  0.8819  1.7035
 6114SOL     OW29974   3.642   0.450  10.397  0.9173 -0.2643  0.1985
 6114SOL    HW129975   3.619   0.486  10.311  1.3908 -1.8813 -0.5901
 6114SOL    HW229976   3.731   0.486  10.399  0.9853 -0.4487  0.3799
 6115SOL     OW29977   2.173   3.405  12.868 -0.4828 -0.2709 -0.2479
 6115SOL    HW129978   2.165   3.454  12.786  2.0961 -2.0250 -1.5339
 6115SOL    HW229979   2.229   3.457  12.927  0.4012 -0.2144 -1.1419
 6116SOL     OW29980   4.719   2.869   3.080  0.0422 -0.1398  0.3748
 6116SOL    HW129981   0.026   2.940   3.036 -1.8440  0.2144 -0.9974
 6116SOL    HW229982   4.736   2.900   3.169  0.2096  0.8698 -0.0070
 6117SOL     OW29983   1.361   1.176  14.006 -0.2429  0.0306 -0.1144
 6117SOL    HW129984   1.275   1.136  13.994 -0.2904  0.1381 -0.1342
 6117SOL    HW229985   1.338   1.261  14.046 -1.7250 -1.0499  1.3389
 6118SOL     OW29986   4.551   3.327   1.154  0.1424 -1.2064 -0.1159
 6118SOL    HW129987   4.479   3.281   1.197 -0.4715 -0.8381 -0.7705
 6118SOL    HW229988   4.598   3.256   1.109 -0.0271 -0.3557 -1.6318
 6119SOL     OW29989   3.092   0.080   9.872 -0.0998 -0.0689 -0.5042
 6119SOL    HW129990   3.102   0.171   9.844 -1.3740  0.1417 -0.2952
 6119SOL    HW229991   3.159   0.072   9.940  0.3883  0.6446 -0.8964
 6120SOL     OW29992   3.477   0.167   7.733  0.4447  0.2138 -0.7983
 6120SOL    HW129993   3.525   0.215   7.666  0.3686  0.8442 -0.4021
 6120SOL    HW229994   3.473   0.238   7.797  1.0686 -1.2206  0.8508
 6121SOL     OW29995   3.614   2.893   3.888 -0.4664 -0.1242  0.1530
 6121SOL    HW129996   3.551   2.896   3.959 -0.1978  2.7293  0.2925
 6121SOL    HW229997   3.643   2.985   3.882 -3.9559  0.9763  0.3040
 6122SOL     OW29998   3.853   0.691   5.630 -0.1783  0.2758  0.3021
 6122SOL    HW129999   3.893   0.757   5.573  0.5689 -0.6110 -0.2081
 6122SOL    HW230000   3.931   0.659   5.676 -0.8953 -0.4923  0.9683
 6123SOL     OW30001   2.057   3.602   1.347 -0.0234  0.8893  0.2464
 6123SOL    HW130002   2.132   3.636   1.299 -0.7726  1.0005 -0.8457
 6123SOL    HW230003   2.091   3.521   1.386  2.1136  1.0911 -1.2369
 6124SOL     OW30004   3.832   0.737   0.597  0.5327  0.5697 -0.7599
 6124SOL    HW130005   3.781   0.739   0.516 -2.5809 -0.3821  1.1745
 6124SOL    HW230006   3.772   0.776   0.662  0.9935 -0.8594  0.5253
 6125SOL     OW30007   2.318   0.436   6.695  0.2584  0.8289 -0.1200
 6125SOL    HW130008   2.248   0.416   6.757  0.9133 -0.6697  0.1212
 6125SOL    HW230009   2.296   0.372   6.628 -0.0856  0.5782  0.2348
 6126SOL     OW30010   2.048   1.438   6.180 -0.3848 -0.1769 -0.2474
 6126SOL    HW130011   2.080   1.513   6.131 -1.4974  0.9424  0.7587
 6126SOL    HW230012   2.115   1.374   6.154 -0.5331  0.2818 -1.7771
 6127SOL     OW30013   1.485   1.880   7.684  0.3666  0.1265 -0.4976
 6127SOL    HW130014   1.400   1.899   7.645 -0.4090 -0.8558  0.7070
 6127SOL    HW230015   1.513   1.971   7.697  2.5291 -0.4021 -1.3852
 6128SOL     OW30016   1.694   0.698  10.445  0.4203 -0.2706  0.4825
 6128SOL    HW130017   1.656   0.664  10.364  2.0494  0.1713 -0.4597
 6128SOL    HW230018   1.733   0.627  10.496  0.1022 -0.2784  0.7194
 6129SOL     OW30019   0.105   0.036   2.724  0.3984 -0.9781 -0.3197
 6129SOL    HW130020   0.079   0.075   2.807 -1.8042 -1.1916 -0.8967
 6129SOL    HW230021   0.027   4.720   2.714  0.3623 -1.1480  0.9142
 6130SOL     OW30022   4.652   4.652   0.493  0.1229  0.0462  0.6664
 6130SOL    HW130023   4.693   4.689   0.570 -0.8394 -1.9762  2.1628
 6130SOL    HW230024   4.676   4.717   0.427 -2.7680 -0.1186 -0.5657
 6131SOL     OW30025   2.250   1.254   9.405 -0.2381 -0.0230  0.1093
 6131SOL    HW130026   2.171   1.265   9.457 -0.3285 -1.9570  0.3934
 6131SOL    HW230027   2.258   1.336   9.357  0.7897  1.2157  2.3978
 6132SOL     OW30028   3.147   0.940  15.422 -0.2038  0.0531  0.3218
 6132SOL    HW130029   3.175   0.850  15.436 -0.7314 -0.2516 -0.6273
 6132SOL    HW230030   3.220   0.987  15.382  0.7802 -3.5778 -2.1527
 6133SOL     OW30031   1.708   0.232  17.167 -0.2571 -0.3818 -0.3556
 6133SOL    HW130032   1.668   0.245  17.081  1.2344 -2.0325 -1.2967
 6133SOL    HW230033   1.668   0.304  17.215  0.1973 -0.5081  0.2053
 6134SOL     OW30034   4.681   0.222  17.257 -0.0421  0.4058  0.1745
 6134SOL    HW130035   0.036   0.209  17.245 -0.3649 -2.7010  0.8908
 6134SOL    HW230036   4.665   0.284  17.186 -3.1348 -1.0143 -0.3653
 6135SOL     OW30037   0.092   1.540   3.092  0.0137  0.0031  0.1943
 6135SOL    HW130038   0.120   1.560   3.181 -0.4258 -2.4553  0.8839
 6135SOL    HW230039   0.172   1.497   3.061 -0.0435  0.9825 -1.3100
 6136SOL     OW30040   0.519   0.020   7.317  0.2746  0.0468  0.2766
 6136SOL    HW130041   0.467   0.031   7.237 -0.3124  0.5859  0.7353
 6136SOL    HW230042   0.590   4.711   7.275 -1.5293 -1.5142 -1.0296
 6137SOL     OW30043   2.425   1.757   3.037 -0.0642 -0.9969  0.0621
 6137SOL    HW130044   2.337   1.721   3.047 -1.5069  1.8201 -2.3434
 6137SOL    HW230045   2.413   1.852   3.038 -0.8283 -1.0607 -3.0331
 6138SOL     OW30046   4.237   4.280   1.923 -0.2176 -0.0775 -0.2056
 6138SOL    HW130047   4.301   4.229   1.974  0.0951  0.0583 -0.4579
 6138SOL    HW230048   4.278   4.291   1.837  0.7355 -1.9547  0.0126
 6139SOL     OW30049   0.447   4.610   5.241 -0.2705  0.2159  0.7550
 6139SOL    HW130050   0.506   4.567   5.303  0.7330  2.6999  1.5184
 6139SOL    HW230051   0.467   4.694   5.281  1.4259 -0.0419  0.4308
 6140SOL     OW30052   3.467   1.838   8.707  0.6055  0.6570 -0.1685
 6140SOL    HW130053   3.529   1.782   8.755  1.5963  1.4541 -0.5145
 6140SOL    HW230054   3.396   1.776   8.694  2.2572 -2.0173  3.3980
 6141SOL     OW30055   3.330   0.887   2.861  0.6563 -0.4070 -0.1827
 6141SOL    HW130056   3.325   0.841   2.777 -1.9052  0.2414 -0.3874
 6141SOL    HW230057   3.388   0.963   2.848  0.5985 -0.9200 -3.4274
 6142SOL     OW30058   2.166   3.438   8.926 -0.0407  0.2243  0.4752
 6142SOL    HW130059   2.151   3.524   8.887 -0.9092  0.4822  1.3759
 6142SOL    HW230060   2.078   3.406   8.947 -0.3674  1.6748  1.2919
 6143SOL     OW30061   1.223   3.392   3.204  0.0726 -0.6894  0.4093
 6143SOL    HW130062   1.141   3.393   3.252  0.6575 -2.9576  1.4447
 6143SOL    HW230063   1.184   3.358   3.123 -1.1211 -0.7656  1.0193
 6144SOL     OW30064   0.050   3.299   3.966  0.1626  0.1619  0.4245
 6144SOL    HW130065   0.109   3.371   3.990 -0.1690  0.4498  0.3811
 6144SOL    HW230066   0.066   3.245   4.043 -0.6472  0.2369  0.6554
 6145SOL     OW30067   2.127   0.532   9.274  0.1765  0.6688 -0.2383
 6145SOL    HW130068   2.111   0.507   9.365  1.3074 -0.0899 -0.2576
 6145SOL    HW230069   2.056   0.594   9.258 -0.6003  0.2536  1.6751
 6146SOL     OW30070   2.734   1.882   1.401  0.4392 -0.8275  0.0002
 6146SOL    HW130071   2.829   1.891   1.388  0.0294  0.5086 -2.0045
 6146SOL    HW230072   2.721   1.807   1.460  3.1801 -0.9506  0.4960
 6147SOL     OW30073   0.205   2.613   7.950  0.0305  0.2400  0.3258
 6147SOL    HW130074   0.121   2.566   7.952 -0.2487  0.7116 -0.1839
 6147SOL    HW230075   0.237   2.594   8.038 -1.3925  2.6125  1.3663
 6148SOL     OW30076   4.013   3.423   8.141  0.2039 -0.4114  0.2687
 6148SOL    HW130077   4.048   3.390   8.223 -0.6415 -1.0929  0.3557
 6148SOL    HW230078   4.075   3.396   8.072  2.3533  1.0373  1.6338
 6149SOL     OW30079   4.066   0.418   2.120 -0.1930  0.4756 -0.6814
 6149SOL    HW130080   4.061   0.365   2.200 -2.2549 -0.0943 -1.1907
 6149SOL    HW230081   4.030   0.352   2.061  1.1709 -0.1710 -0.7913
 6150SOL     OW30082   2.663   3.666  17.182  0.4832 -0.0638 -0.6663
 6150SOL    HW130083   2.662   3.755  17.219  1.5265 -0.0402 -0.6713
 6150SOL    HW230084   2.610   3.675  17.103  0.0749  0.2238 -0.3585
 6151SOL     OW30085   0.308   4.422   2.485 -0.4396 -0.2041 -0.5425
 6151SOL    HW130086   0.283   4.434   2.577  1.4814 -1.3938  0.1439
 6151SOL    HW230087   0.367   4.498   2.487 -0.1561 -0.4130 -1.0112
 6152SOL     OW30088   2.185   2.481   9.131 -0.4951 -0.2055 -0.4682
 6152SOL    HW130089   2.270   2.509   9.165 -0.4059 -0.5602 -0.3932
 6152SOL    HW230090   2.181   2.510   9.039  1.1812  0.7447 -0.2407
 6153SOL     OW30091   0.254   1.445   6.858 -0.4014  0.2085  0.0300
 6153SOL    HW130092   0.339   1.479   6.833 -0.2129  0.3051  0.8021
 6153SOL    HW230093   0.207   1.481   6.783 -0.5113 -0.0283 -0.0172
 6154SOL     OW30094   1.251   0.628   9.357  0.5639  0.1979 -0.4099
 6154SOL    HW130095   1.222   0.629   9.266 -0.7530  0.5070  0.0174
 6154SOL    HW230096   1.345   0.633   9.340 -0.0059  1.6671 -3.1299
 6155SOL     OW30097   4.711   4.239   7.019  0.0895  0.6049 -0.4545
 6155SOL    HW130098   4.722   4.181   7.094  0.2042 -2.1054 -2.5461
 6155SOL    HW230099   0.049   4.225   6.963 -0.6749  1.1888 -1.6456
 6156SOL     OW30100   2.711   3.260  10.117  0.5389  0.3773  0.5048
 6156SOL    HW130101   2.804   3.257  10.096  0.5185  1.3320  0.2722
 6156SOL    HW230102   2.677   3.278  10.030 -1.5055  0.6013  1.3440
 6157SOL     OW30103   3.225   3.593   4.774  0.3617  0.0644 -0.0009
 6157SOL    HW130104   3.270   3.588   4.690  0.4202 -1.1849  0.1109
 6157SOL    HW230105   3.150   3.548   4.737  0.5105  0.1596 -0.4244
 6158SOL     OW30106   4.549   4.454   7.796 -0.0863  0.3220  0.3457
 6158SOL    HW130107   4.482   4.405   7.844 -1.3367 -0.4906 -2.1818
 6158SOL    HW230108   4.605   4.392   7.749 -0.7462  0.3738 -0.5171
 6159SOL     OW30109   4.075   3.096   3.293 -0.5261  0.2775 -0.4851
 6159SOL    HW130110   4.138   3.154   3.250  0.1475  0.3416  0.5919
 6159SOL    HW230111   4.119   3.012   3.277 -3.0468 -1.0994 -0.1404
 6160SOL     OW30112   0.202   3.118   4.514 -0.2012 -0.1117  0.3155
 6160SOL    HW130113   0.241   3.188   4.566  0.0328 -1.4574  1.9404
 6160SOL    HW230114   0.109   3.127   4.535  0.0988 -1.2432  2.1181
 6161SOL     OW30115   4.008   0.580  13.409 -0.6529 -0.4853  0.2872
 6161SOL    HW130116   3.939   0.641  13.384  1.5547  2.7704  2.1849
 6161SOL    HW230117   4.036   0.570  13.317 -1.2484  1.4129 -0.0868
 6162SOL     OW30118   1.911   1.453   4.831  0.2357 -0.4016 -0.7003
 6162SOL    HW130119   1.842   1.422   4.889  1.2346  0.8364  1.1433
 6162SOL    HW230120   1.855   1.476   4.757 -1.3020 -2.8108 -0.2889
 6163SOL     OW30121   3.489   2.382  16.941 -0.8194  0.4561  0.1278
 6163SOL    HW130122   3.416   2.414  16.995 -1.2141 -1.0050  0.4473
 6163SOL    HW230123   3.562   2.392  17.002  1.3887 -0.5326 -2.3946
 6164SOL     OW30124   0.676   1.528   1.036 -0.2282  1.1194  0.2646
 6164SOL    HW130125   0.728   1.599   0.998  0.2897  0.4164 -0.3660
 6164SOL    HW230126   0.727   1.450   1.010  0.1688  1.3101  0.4799
 6165SOL     OW30127   0.948   1.535   5.850 -0.4011 -0.7423  0.0305
 6165SOL    HW130128   0.908   1.500   5.770  0.9192  0.8594 -1.3061
 6165SOL    HW230129   0.875   1.547   5.912 -0.4263 -2.5400  0.3706
 6166SOL     OW30130   3.417   1.686   9.868 -1.1920 -0.0928 -0.0802
 6166SOL    HW130131   3.395   1.651   9.781  0.9284 -0.5520 -0.4323
 6166SOL    HW230132   3.437   1.779   9.863  0.8045 -0.7579 -4.3297
 6167SOL     OW30133   0.480   0.950   1.556 -1.1862  0.5317 -0.3777
 6167SOL    HW130134   0.486   0.941   1.651 -2.9420 -0.5854 -0.3775
 6167SOL    HW230135   0.448   0.863   1.530 -0.9897  0.3273  0.0605
 6168SOL     OW30136   0.683   2.978   3.448 -0.1370  0.0558  0.2212
 6168SOL    HW130137   0.671   3.037   3.522 -0.1724 -1.6091  1.5220
 6168SOL    HW230138   0.777   2.962   3.440 -0.1115  0.5035 -0.3859
 6169SOL     OW30139   2.963   2.650   8.672  0.3323  0.3648 -0.3831
 6169SOL    HW130140   2.937   2.640   8.763  1.5707  1.2723  0.0671
 6169SOL    HW230141   2.999   2.738   8.667 -1.3249  0.9683 -1.6513
 6170SOL     OW30142   4.050   1.319   3.130 -0.3859  0.0781  0.1223
 6170SOL    HW130143   4.114   1.343   3.063 -1.2716 -2.7910 -1.7197
 6170SOL    HW230144   4.030   1.236   3.087 -1.8877  0.7275 -0.4323
 6171SOL     OW30145   2.777   3.696   3.490 -0.3367 -0.4922  0.4846
 6171SOL    HW130146   2.697   3.738   3.520  0.6609  2.1904 -0.5526
 6171SOL    HW230147   2.763   3.718   3.398  0.1575  1.4662  0.8759
 6172SOL     OW30148   0.329   4.065   7.863 -0.4187  0.2660 -0.0771
 6172SOL    HW130149   0.403   4.065   7.925 -0.8601  1.9142  0.4329
 6172SOL    HW230150   0.356   4.139   7.809 -0.3494 -1.5186 -2.5094
 6173SOL     OW30151   0.612   4.730   8.711 -0.6637 -0.7287  0.6287
 6173SOL    HW130152   0.557   0.070   8.707  2.3014  1.3087  0.2240
 6173SOL    HW230153   0.611   4.701   8.620 -0.2411  2.4038 -0.3905
 6174SOL     OW30154   2.110   0.250  15.975 -0.7015  0.0933  0.1838
 6174SOL    HW130155   2.161   0.286  16.047  1.2283 -2.6741  0.2032
 6174SOL    HW230156   2.161   0.177  15.939 -0.0450  0.0094  1.2979
 6175SOL     OW30157   2.953   3.081  16.943 -0.2427 -0.2442 -0.7273
 6175SOL    HW130158   2.868   3.122  16.925  0.0882  2.0580  2.8823
 6175SOL    HW230159   2.993   3.095  16.857  0.2256 -0.8228 -0.6050
 6176SOL     OW30160   3.734   4.077  12.755 -0.2140  0.2586  0.0439
 6176SOL    HW130161   3.681   4.133  12.698 -1.1124 -0.3025  0.3343
 6176SOL    HW230162   3.723   4.136  12.829  0.1559  1.0543 -0.5355
 6177SOL     OW30163   0.990   3.258  10.802  0.0062 -0.1745  0.0978
 6177SOL    HW130164   0.905   3.259  10.846  0.0829 -0.8209  0.2683
 6177SOL    HW230165   0.987   3.178  10.748  0.1076 -1.8627  2.5703
 6178SOL     OW30166   2.821   4.062   2.590  0.1698  0.0613 -0.0464
 6178SOL    HW130167   2.750   4.122   2.567 -1.3628 -0.8182  2.4660
 6178SOL    HW230168   2.831   4.088   2.681 -2.7610  0.6352  0.1059
 6179SOL     OW30169   2.512   4.580  13.166 -0.5763  0.4746 -0.3375
 6179SOL    HW130170   2.500   4.607  13.257 -0.6365  1.7945 -0.7365
 6179SOL    HW230171   2.565   4.652  13.132 -0.8072  0.5839 -0.4701
 6180SOL     OW30172   4.275   2.738   7.118  0.3368 -0.2430 -0.5327
 6180SOL    HW130173   4.273   2.828   7.085  1.8413 -0.1002 -0.2356
 6180SOL    HW230174   4.258   2.692   7.035 -1.6983 -0.2299 -0.1098
 6181SOL     OW30175   3.058   0.270  10.590  0.3667 -0.3846 -0.4676
 6181SOL    HW130176   3.048   0.363  10.572 -0.4412 -0.0730  1.6047
 6181SOL    HW230177   3.146   0.257  10.626  1.4287  1.2843 -2.4684
 6182SOL     OW30178   0.094   1.944   2.825 -0.2048 -0.2526 -0.6008
 6182SOL    HW130179   0.180   1.926   2.862 -0.9799  0.4671  1.5707
 6182SOL    HW230180   0.039   1.945   2.903 -1.0800  2.2448 -1.2341
 6183SOL     OW30181   1.531   2.069   2.929  0.0556 -0.1411  0.0798
 6183SOL    HW130182   1.488   2.124   2.864  0.5456 -0.5373 -0.5734
 6183SOL    HW230183   1.474   1.992   2.934  0.6077 -0.5499  0.0125
 6184SOL     OW30184   2.875   2.749   9.831  0.2791 -0.1555 -0.3799
 6184SOL    HW130185   2.867   2.834   9.788  3.7067 -0.3524 -1.4698
 6184SOL    HW230186   2.878   2.691   9.754 -0.7746  0.0482 -0.5662
 6185SOL     OW30187   1.723   2.968  12.193  0.1871 -0.2378  0.6474
 6185SOL    HW130188   1.675   3.042  12.230  0.7090 -0.0767  1.0107
 6185SOL    HW230189   1.746   2.915  12.269 -0.5200 -0.0937  0.9570
 6186SOL     OW30190   4.175   0.945   2.174 -0.3382 -0.2418 -0.6721
 6186SOL    HW130191   4.225   1.025   2.188  0.5231 -0.7564 -0.8552
 6186SOL    HW230192   4.086   0.977   2.158 -0.8148  0.0710  2.5557
 6187SOL     OW30193   2.277   4.088   5.823  0.4452 -0.1521 -0.0568
 6187SOL    HW130194   2.356   4.140   5.838 -0.8637  1.5712  1.0394
 6187SOL    HW230195   2.230   4.108   5.904  2.2098 -0.8623  1.1443
 6188SOL     OW30196   0.067   3.738   5.280 -0.6587  0.0473  0.2004
 6188SOL    HW130197   0.140   3.680   5.303 -0.9806 -1.7364 -3.1594
 6188SOL    HW230198   0.099   3.790   5.206 -0.6779 -1.5207 -0.9049
 6189SOL     OW30199   0.692   2.335  16.483  0.1152  0.3226  0.2366
 6189SOL    HW130200   0.638   2.376  16.415  0.5125  1.8713  0.8706
 6189SOL    HW230201   0.779   2.337  16.445  0.4798 -0.8187  1.0035
 6190SOL     OW30202   1.550   0.307   8.006  0.1476  0.0163 -0.0934
 6190SOL    HW130203   1.573   0.224   8.049 -0.2044  1.0683  2.1257
 6190SOL    HW230204   1.455   0.298   8.002  0.0684  0.6266  0.4935
 6191SOL     OW30205   3.333   1.934   7.722 -0.7809  0.0673 -0.6876
 6191SOL    HW130206   3.351   1.880   7.644  2.0728  0.8256 -0.5633
 6191SOL    HW230207   3.253   1.893   7.754 -0.6816 -1.0201 -1.8210
 6192SOL     OW30208   3.918   3.628  12.506 -0.1536 -0.2469  0.4480
 6192SOL    HW130209   3.970   3.659  12.432  1.0506 -0.3201  1.2570
 6192SOL    HW230210   3.944   3.699  12.565  1.3700 -1.3068  1.0549
 6193SOL     OW30211   4.443   1.008   6.394 -0.0690  1.0821 -1.1028
 6193SOL    HW130212   4.460   0.920   6.358 -1.8701  0.3577 -0.1452
 6193SOL    HW230213   4.406   0.988   6.480 -2.4563 -1.3679 -2.7096
 6194SOL     OW30214   2.594   3.551   4.902  0.2512 -0.3742  0.3199
 6194SOL    HW130215   2.558   3.489   4.839  0.2117  1.2130 -1.2344
 6194SOL    HW230216   2.602   3.496   4.980  0.6281  0.7374  1.0763
 6195SOL     OW30217   1.912   1.067  11.193 -0.4993 -0.2433 -0.4005
 6195SOL    HW130218   1.891   1.142  11.249  3.6366  1.6199 -1.3200
 6195SOL    HW230219   1.869   1.105  11.116  0.4941 -0.8114 -1.2357
 6196SOL     OW30220   3.710   2.078   6.861 -0.6382  0.1999 -0.3761
 6196SOL    HW130221   3.628   2.035   6.840  0.0418 -0.8992 -0.8151
 6196SOL    HW230222   3.682   2.152   6.914 -1.4456  0.1094 -0.6793
 6197SOL     OW30223   3.045   2.064   2.904  0.2621 -0.0787 -0.0948
 6197SOL    HW130224   2.980   2.101   2.963  0.4890 -0.2038  0.2316
 6197SOL    HW230225   3.021   2.113   2.825 -0.1517 -1.1579 -0.6539
 6198SOL     OW30226   4.727   0.700   0.142 -0.0764 -0.2562  0.1432
 6198SOL    HW130227   0.013   0.770   0.203  1.5244 -2.3064  1.8426
 6198SOL    HW230228   4.695   0.641   0.210  0.2208  1.3442  1.6865
 6199SOL     OW30229   0.059   4.198   8.916  0.0338  0.0954 -0.2797
 6199SOL    HW130230   4.712   4.156   8.913  0.4173 -0.7505  0.4055
 6199SOL    HW230231   0.056   4.276   8.861  1.2454 -0.1344 -0.6702
 6200SOL     OW30232   2.975   2.213   5.546  0.1531 -0.0200  0.3001
 6200SOL    HW130233   3.064   2.250   5.544 -0.9490  2.7295  1.8959
 6200SOL    HW230234   2.932   2.281   5.599 -1.0132 -0.4581 -0.0942
 6201SOL     OW30235   2.994   4.200   6.460 -0.6041  0.8305  0.2102
 6201SOL    HW130236   3.050   4.239   6.527  1.8662  0.9243 -1.8566
 6201SOL    HW230237   3.059   4.155   6.405  0.0972  0.9471  0.9386
 6202SOL     OW30238   0.526   4.173   5.123  0.2954 -0.8489  0.3755
 6202SOL    HW130239   0.473   4.233   5.176  1.4978 -0.9234  1.6607
 6202SOL    HW230240   0.510   4.086   5.160 -1.0538 -1.2856 -1.2266
 6203SOL     OW30241   3.897   0.797   6.609 -0.1147  0.3711  0.0264
 6203SOL    HW130242   3.807   0.768   6.623 -0.3738  1.6189  0.9896
 6203SOL    HW230243   3.893   0.879   6.660 -1.3024  0.1224  0.3231
 6204SOL     OW30244   0.383   0.875   7.805 -0.0246  0.3995 -0.3003
 6204SOL    HW130245   0.474   0.847   7.817 -0.0731 -0.4260 -1.8832
 6204SOL    HW230246   0.383   0.924   7.722 -0.6607  2.8207  1.1366
 6205SOL     OW30247   2.087   4.503   1.703  0.1329 -0.1797  0.4057
 6205SOL    HW130248   2.025   4.541   1.640  3.4188 -0.2560 -2.8909
 6205SOL    HW230249   2.061   4.411   1.703  1.9160 -0.6868 -1.3378
 6206SOL     OW30250   3.624   0.673   6.302  0.0517  0.8592  0.1102
 6206SOL    HW130251   3.581   0.589   6.318  1.6744 -0.2879 -1.4600
 6206SOL    HW230252   3.671   0.656   6.220  0.6130 -0.0777  0.6314
 6207SOL     OW30253   1.735   4.309   5.945 -0.2008 -0.0991 -0.2755
 6207SOL    HW130254   1.802   4.243   5.964 -1.2461 -0.6675  1.3724
 6207SOL    HW230255   1.768   4.377   6.004 -0.2941 -0.9278  0.7241
 6208SOL     OW30256   2.235   3.660   5.165 -0.0955  0.4996 -0.3839
 6208SOL    HW130257   2.227   3.691   5.074 -2.5061 -1.7066 -0.9378
 6208SOL    HW230258   2.306   3.715   5.196 -0.9558  0.9125  0.8271
 6209SOL     OW30259   3.127   0.631  14.460 -0.2282 -0.0652  0.0987
 6209SOL    HW130260   3.157   0.681  14.536 -1.0628  2.9519 -1.5763
 6209SOL    HW230261   3.210   0.615  14.415 -0.4179 -1.8108  0.3793
 6210SOL     OW30262   1.091   2.268   1.852 -0.8046  0.3116  0.3088
 6210SOL    HW130263   1.021   2.273   1.787  0.0770 -0.7820 -0.7412
 6210SOL    HW230264   1.166   2.284   1.794 -0.1716 -0.2193  0.9755
 6211SOL     OW30265   1.811   0.939   2.414  0.0344 -0.3962  0.0955
 6211SOL    HW130266   1.800   0.974   2.502 -2.1319  0.3098 -0.4412
 6211SOL    HW230267   1.850   0.852   2.425  0.3949 -0.1857  0.4522
 6212SOL     OW30268   0.669   3.118   3.700 -0.8520  0.7607 -0.1791
 6212SOL    HW130269   0.701   3.207   3.687 -0.7550  0.5674 -1.2588
 6212SOL    HW230270   0.615   3.132   3.778  2.5887 -1.3877  2.5976
 6213SOL     OW30271   0.440   3.154   7.207  0.6314  0.4237  1.0677
 6213SOL    HW130272   0.378   3.178   7.276  0.0302  0.8033  0.3999
 6213SOL    HW230273   0.524   3.198   7.224 -0.6178  3.2705 -0.0752
 6214SOL     OW30274   4.322   2.587   4.688 -0.7483 -0.2874  0.5550
 6214SOL    HW130275   4.398   2.586   4.629 -1.8198 -2.9765 -0.7938
 6214SOL    HW230276   4.255   2.570   4.621 -1.9575  0.5640  1.5457
 6215SOL     OW30277   1.754   1.351   7.316 -0.0805  0.2123  0.0710
 6215SOL    HW130278   1.794   1.436   7.300  1.0763 -0.4430 -0.5500
 6215SOL    HW230279   1.664   1.373   7.294  1.0142  2.6727 -1.9041
 6216SOL     OW30280   2.403   4.488   0.833  0.0900 -0.6552  0.3004
 6216SOL    HW130281   2.385   4.424   0.764  0.5554  1.4271 -1.7600
 6216SOL    HW230282   2.439   4.429   0.900 -0.3474  0.4795  1.5300
 6217SOL     OW30283   0.809   1.377  10.187  0.2385 -0.4920  0.1835
 6217SOL    HW130284   0.781   1.359  10.277 -0.6319  1.0699  0.2222
 6217SOL    HW230285   0.901   1.401  10.197  0.5324 -1.5136 -0.0801
 6218SOL     OW30286   3.014   4.267   6.831 -0.3023 -0.1832  0.2863
 6218SOL    HW130287   3.057   4.297   6.751 -2.3416  4.9978  1.0993
 6218SOL    HW230288   3.082   4.209   6.867  1.3450  2.5432  1.6231
 6219SOL     OW30289   2.197   1.910   8.270  0.5280  0.1458 -0.4941
 6219SOL    HW130290   2.157   1.991   8.238  2.0065  1.3635  0.7032
 6219SOL    HW230291   2.118   1.858   8.256 -0.6101  1.8177 -0.2593
 6220SOL     OW30292   2.305   1.259  14.479  0.1039 -0.8029  0.1803
 6220SOL    HW130293   2.244   1.185  14.474 -0.7170 -0.0953 -0.3832
 6220SOL    HW230294   2.391   1.219  14.483 -0.2848 -1.3376  3.8191
 6221SOL     OW30295   4.110   4.027   4.428 -0.0870 -0.7121  0.2831
 6221SOL    HW130296   4.108   3.996   4.337  1.2525  2.7149 -0.9229
 6221SOL    HW230297   4.020   4.031   4.458 -0.0577  0.3699  0.2033
 6222SOL     OW30298   2.626   3.888   3.740 -0.2958 -0.2849 -0.0427
 6222SOL    HW130299   2.591   3.857   3.656  2.5364 -0.9018 -0.9890
 6222SOL    HW230300   2.700   3.828   3.751 -0.3027 -0.6477 -1.9787
 6223SOL     OW30301   1.240   4.550  15.791  0.4867 -0.1074  0.1400
 6223SOL    HW130302   1.326   4.510  15.804  0.4614  0.4814  2.0313
 6223SOL    HW230303   1.252   4.645  15.787 -1.2165  0.1204  0.2844
 6224SOL     OW30304   1.236   1.761   0.397 -0.4221  0.2806 -0.2755
 6224SOL    HW130305   1.207   1.839   0.349 -0.8545  0.2062 -0.1384
 6224SOL    HW230306   1.194   1.688   0.353  1.5243  0.3677 -2.2717
 6225SOL     OW30307   0.207   3.258   3.316 -0.6337  0.3926 -0.3052
 6225SOL    HW130308   0.161   3.248   3.399  1.1356  1.1357  0.7650
 6225SOL    HW230309   0.189   3.351   3.299  0.8065  0.7094 -0.1136
 6226SOL     OW30310   2.518   2.142   7.360  0.0206  0.0592 -0.0955
 6226SOL    HW130311   2.612   2.128   7.366 -0.1992 -0.5188  1.7493
 6226SOL    HW230312   2.496   2.097   7.278  1.8610  0.0188 -0.5679
 6227SOL     OW30313   4.554   1.289   9.484 -0.3516  0.1251  0.2162
 6227SOL    HW130314   4.624   1.257   9.540 -0.9583 -1.5652  0.0039
 6227SOL    HW230315   4.563   1.223   9.416  0.1289  0.6530 -0.2287
 6228SOL     OW30316   2.254   1.540  14.451 -0.1639 -0.0367 -0.1591
 6228SOL    HW130317   2.169   1.573  14.481  0.4267 -0.6881  2.2369
 6228SOL    HW230318   2.245   1.445  14.463 -0.7624 -0.1214 -1.2779
 6229SOL     OW30319   1.308   2.173   6.940  0.2493  0.0688  0.5216
 6229SOL    HW130320   1.319   2.132   6.854  1.0305 -0.4375  0.8589
 6229SOL    HW230321   1.283   2.261   6.912  1.5222  0.4949  0.7488
 6230SOL     OW30322   4.511   2.217   1.047 -0.1000 -0.0985  0.1587
 6230SOL    HW130323   4.478   2.233   0.958  0.1910 -0.3832 -0.0003
 6230SOL    HW230324   4.429   2.229   1.095  1.0469  0.2699  1.9993
 6231SOL     OW30325   3.460   0.540  15.997  0.4955 -0.5387 -0.3877
 6231SOL    HW130326   3.534   0.565  16.052  0.0674 -0.7499  0.2932
 6231SOL    HW230327   3.479   0.578  15.912  1.0081  1.0895  0.4606
 6232SOL     OW30328   0.725   2.742  10.115  0.3772  0.1688  0.4703
 6232SOL    HW130329   0.790   2.779  10.055 -1.0344  0.7937 -0.6787
 6232SOL    HW230330   0.694   2.822  10.157 -1.8244  0.2414 -1.3006
 6233SOL     OW30331   3.642   3.794  13.426 -0.6076 -0.8138 -0.6789
 6233SOL    HW130332   3.627   3.791  13.331 -2.7699  2.7245 -0.4393
 6233SOL    HW230333   3.566   3.845  13.454  0.1673  0.3332 -0.6767
 6234SOL     OW30334   1.749   3.965  14.588  0.2432  0.5710 -0.4542
 6234SOL    HW130335   1.774   3.981  14.497  1.0015  1.7284 -0.0433
 6234SOL    HW230336   1.747   3.870  14.583  1.5876  0.4469  1.1514
 6235SOL     OW30337   2.880   3.448   7.042  0.5276 -0.3842 -0.5786
 6235SOL    HW130338   2.905   3.482   6.957  1.3921  0.6520  0.1028
 6235SOL    HW230339   2.946   3.380   7.055 -1.0654 -1.7007  0.7357
 6236SOL     OW30340   0.703   3.598  12.914  0.6205 -0.7878 -0.2263
 6236SOL    HW130341   0.678   3.507  12.926 -1.3774  0.1081  2.5431
 6236SOL    HW230342   0.717   3.627  13.004  0.4612 -0.6653 -0.2404
 6237SOL     OW30343   1.882   0.099   8.757  0.1574 -0.7857  0.2294
 6237SOL    HW130344   1.931   0.124   8.678  0.1670  0.5906  0.6661
 6237SOL    HW230345   1.946   0.043   8.800  0.1878  0.5366  1.9054
 6238SOL     OW30346   2.710   1.427   8.081  0.0999 -0.3654  0.3257
 6238SOL    HW130347   2.684   1.356   8.023 -2.3146  0.3499  0.5241
 6238SOL    HW230348   2.662   1.416   8.162  0.1559  1.8911  0.6847
 6239SOL     OW30349   0.033   4.015   5.664 -0.2853 -0.1655 -0.4825
 6239SOL    HW130350   4.711   4.046   5.731 -0.4196 -1.9663  0.2217
 6239SOL    HW230351   0.111   4.001   5.719 -0.7022 -0.1230  0.1262
 6240SOL     OW30352   1.211   2.921   7.251 -0.5981  0.4848 -0.3804
 6240SOL    HW130353   1.282   2.930   7.187 -0.5479 -2.0176 -0.6528
 6240SOL    HW230354   1.160   2.847   7.218 -1.0462  0.7663 -0.3171
 6241SOL     OW30355   4.654   1.942  12.340 -0.3035  0.2186  0.6239
 6241SOL    HW130356   4.573   1.901  12.310 -0.0328  1.2502 -1.5079
 6241SOL    HW230357   4.665   1.877  12.410  0.0619  1.1387  1.4364
 6242SOL     OW30358   3.310   4.574   8.880  0.4985  0.0421 -0.3711
 6242SOL    HW130359   3.324   4.622   8.962  2.4380 -0.0552 -0.6465
 6242SOL    HW230360   3.300   4.643   8.815  1.2075  0.2758 -0.2229
 6243SOL     OW30361   1.303   2.158   9.522 -0.0864 -0.6764  0.3204
 6243SOL    HW130362   1.314   2.074   9.476  1.6789 -0.9558  1.2359
 6243SOL    HW230363   1.221   2.183   9.480  0.2789  0.8360  0.4978
 6244SOL     OW30364   3.060   4.722  13.133  0.0737 -0.0478 -0.1156
 6244SOL    HW130365   2.987   4.688  13.082 -0.7235 -0.8199  1.5410
 6244SOL    HW230366   3.017   0.030  13.205  3.7135  0.9881  1.3918
 6245SOL     OW30367   0.833   3.603   6.354  0.6623 -0.2166  0.4857
 6245SOL    HW130368   0.746   3.567   6.335 -0.3572  3.0587 -1.2375
 6245SOL    HW230369   0.860   3.640   6.270 -2.4712  1.2084  0.0771
 6246SOL     OW30370   0.841   4.568   6.001 -0.6044 -0.0318  0.4039
 6246SOL    HW130371   0.928   4.607   6.010 -1.0970  1.2147 -0.3905
 6246SOL    HW230372   0.835   4.503   6.072  1.7303  0.8373  1.3973
 6247SOL     OW30373   2.835   0.392   4.253  0.0973 -0.5039  0.1285
 6247SOL    HW130374   2.750   0.367   4.215  0.0387  1.3686 -0.9608
 6247SOL    HW230375   2.891   0.390   4.175  0.3361  1.2703  0.2684
 6248SOL     OW30376   1.444   0.529  11.376  0.5799  0.0247 -0.2525
 6248SOL    HW130377   1.438   0.514  11.281  2.1033 -0.9366 -0.1907
 6248SOL    HW230378   1.397   0.455  11.414 -0.6359  0.5272 -0.7558
 6249SOL     OW30379   0.597   0.331   6.808  0.2216  0.4104 -0.0118
 6249SOL    HW130380   0.536   0.260   6.831 -2.6663  2.7387 -0.3798
 6249SOL    HW230381   0.545   0.379   6.742  1.9034 -2.8804 -3.7509
 6250SOL     OW30382   0.097   1.755  14.624 -0.0319 -0.5805  0.3578
 6250SOL    HW130383   0.027   1.696  14.597 -1.3063  0.3941  1.4954
 6250SOL    HW230384   0.153   1.763  14.546 -0.5643  1.0619  0.1498
 6251SOL     OW30385   0.786   0.070  16.370  0.3227  1.0093 -0.0270
 6251SOL    HW130386   0.856   0.084  16.306  2.3762 -0.0855  1.9924
 6251SOL    HW230387   0.789   4.713  16.373 -1.0617  1.0285  1.9384
 6252SOL     OW30388   1.803   0.800   6.904  0.7646  0.7567  0.0538
 6252SOL    HW130389   1.830   0.789   6.812 -2.7250 -0.0211 -0.9020
 6252SOL    HW230390   1.835   0.721   6.949  0.7101 -0.3731 -1.8617
 6253SOL     OW30391   0.597   0.637   5.997 -0.1828  0.1001 -0.1749
 6253SOL    HW130392   0.520   0.674   5.953 -1.3556 -1.4791  0.5545
 6253SOL    HW230393   0.651   0.714   6.011 -0.0690  0.0589 -0.3854
 6254SOL     OW30394   2.087   3.860  14.101  0.2966 -0.4170  0.1238
 6254SOL    HW130395   2.059   3.914  14.027 -0.8093  2.1332  2.3801
 6254SOL    HW230396   2.130   3.786  14.058  0.7767  0.2634 -0.5565
 6255SOL     OW30397   1.882   4.474   9.848  0.0826  0.6603 -0.0204
 6255SOL    HW130398   1.914   4.496   9.761  0.4966 -0.3011 -0.1096
 6255SOL    HW230399   1.960   4.470   9.903  0.7423  2.7310 -0.8458
 6256SOL     OW30400   1.650   4.653  14.304 -0.2668 -0.0135  0.2401
 6256SOL    HW130401   1.737   4.685  14.281  0.1266 -2.1344 -1.2339
 6256SOL    HW230402   1.640   4.584  14.239  1.4531 -0.2102  0.1931
 6257SOL     OW30403   3.836   0.855   6.146  0.0841 -0.7584 -0.5269
 6257SOL    HW130404   3.786   0.870   6.226  0.6675 -0.8444 -0.1399
 6257SOL    HW230405   3.761   0.852   6.087 -0.8412 -1.0022  0.6518
 6258SOL     OW30406   1.577   1.167   1.648  0.1288  0.4438  0.3795
 6258SOL    HW130407   1.499   1.177   1.701  1.1647  1.3403  1.7313
 6258SOL    HW230408   1.574   1.256   1.613 -0.2666 -1.3394 -4.2245
 6259SOL     OW30409   0.803   3.771   6.794 -0.5059 -0.3265 -0.2623
 6259SOL    HW130410   0.806   3.678   6.773 -0.5272 -0.1703 -0.9872
 6259SOL    HW230411   0.854   3.783   6.873 -1.6586  1.8028  0.1569
 6260SOL     OW30412   4.727   4.057   6.738 -0.1695  0.8841 -0.6537
 6260SOL    HW130413   4.660   4.081   6.674  0.5987 -1.9967 -2.5025
 6260SOL    HW230414   0.017   3.968   6.722 -0.4268  0.6575  0.1441
 6261SOL     OW30415   0.372   0.914   7.529  0.0058 -0.7665  0.0497
 6261SOL    HW130416   0.337   0.859   7.458  1.7967 -1.9819  0.1013
 6261SOL    HW230417   0.458   0.928   7.490 -0.6274  0.6556 -0.8442
 6262SOL     OW30418   4.105   3.246   8.902 -0.6225 -0.1096  0.0514
 6262SOL    HW130419   4.183   3.245   8.847 -1.1739 -1.2037 -0.6888
 6262SOL    HW230420   4.139   3.186   8.968  0.5111 -1.8079 -2.1281
 6263SOL     OW30421   4.236   0.405   2.796  0.0227 -0.8178  0.7897
 6263SOL    HW130422   4.211   0.361   2.715  0.3882  0.0815  0.1888
 6263SOL    HW230423   4.212   0.336   2.859 -2.4223 -2.0842 -1.5437
 6264SOL     OW30424   3.051   4.602   4.558  0.0489 -0.7493 -0.4157
 6264SOL    HW130425   3.085   4.518   4.588 -2.7952 -1.9534 -0.5233
 6264SOL    HW230426   2.960   4.589   4.532  0.3701 -1.1642 -1.3022
 6265SOL     OW30427   0.279   3.218   8.080 -0.1014 -0.3748 -0.0420
 6265SOL    HW130428   0.192   3.223   8.042 -0.5564 -0.2057  1.0309
 6265SOL    HW230429   0.260   3.189   8.169  1.9189 -0.4567  0.3750
 6266SOL     OW30430   3.992   4.595   2.483 -0.1691  0.3174  0.7870
 6266SOL    HW130431   3.919   4.593   2.421 -0.8779 -0.6102  1.6674
 6266SOL    HW230432   3.942   4.579   2.563  0.9026  0.9856  1.5925
 6267SOL     OW30433   1.752   0.797   3.783  0.4408 -0.0897  0.4939
 6267SOL    HW130434   1.694   0.813   3.857  0.1596 -0.9346  0.4637
 6267SOL    HW230435   1.833   0.824   3.826  1.3201 -1.4887 -0.2840
 6268SOL     OW30436   0.907   1.281  11.505  0.2098 -0.3555  0.2868
 6268SOL    HW130437   0.896   1.376  11.501  0.2215 -0.3685 -0.0378
 6268SOL    HW230438   0.849   1.249  11.436 -1.5437  2.6075  0.3664
 6269SOL     OW30439   0.575   3.997   3.476 -0.1112  0.1702 -0.1214
 6269SOL    HW130440   0.480   3.996   3.485 -0.3385  0.4965 -2.3578
 6269SOL    HW230441   0.585   4.042   3.560  1.6012  2.9845 -1.8360
 6270SOL     OW30442   1.909   3.014  10.274  0.6239 -0.3815  0.3735
 6270SOL    HW130443   1.871   3.055  10.352 -0.0768 -0.0998 -0.1126
 6270SOL    HW230444   2.001   3.003  10.297  0.3997 -0.0495  1.4552
 6271SOL     OW30445   0.012   1.936  16.076 -0.0071 -0.3739  0.3168
 6271SOL    HW130446   4.679   1.877  16.054 -1.4494  1.3187  0.5669
 6271SOL    HW230447   4.710   2.011  16.118  2.1080  1.2789 -0.5835
 6272SOL     OW30448   4.534   0.524   5.613  0.5945  0.2746  0.0406
 6272SOL    HW130449   4.443   0.553   5.622  0.6186  0.8022 -1.4287
 6272SOL    HW230450   4.563   0.587   5.547 -2.9230  2.2119  0.3259
 6273SOL     OW30451   3.780   4.120   9.690 -0.8424  0.3371 -0.1413
 6273SOL    HW130452   3.734   4.161   9.763 -1.2887 -0.0989 -0.1739
 6273SOL    HW230453   3.754   4.027   9.693  1.6661 -0.3876 -1.2490
 6274SOL     OW30454   4.135   1.463  16.913 -0.4547 -0.4269 -0.3186
 6274SOL    HW130455   4.040   1.470  16.903 -0.3034 -0.3713 -1.7340
 6274SOL    HW230456   4.145   1.369  16.899 -0.6925 -0.5543  0.3922
 6275SOL     OW30457   1.713   4.000  13.972  0.0825  0.0528 -0.1422
 6275SOL    HW130458   1.654   3.928  13.995 -1.5398  1.3675 -0.1310
 6275SOL    HW230459   1.687   4.064  14.039 -0.9164 -0.2491 -0.2344
 6276SOL     OW30460   4.098   2.418   1.468 -0.1004  0.2834 -0.3744
 6276SOL    HW130461   4.100   2.466   1.551 -1.0750  0.1655 -0.2712
 6276SOL    HW230462   4.085   2.327   1.496  0.0571  0.1557 -0.7171
 6277SOL     OW30463   4.174   2.714   8.323 -0.5247  0.7284  0.4809
 6277SOL    HW130464   4.082   2.691   8.322 -0.4411  0.4419 -0.7179
 6277SOL    HW230465   4.192   2.723   8.229 -0.2765  0.9119  0.5438
 6278SOL     OW30466   2.335   2.168   7.082  0.0200  0.7266 -0.6970
 6278SOL    HW130467   2.422   2.191   7.051  1.5692 -1.8968  1.7089
 6278SOL    HW230468   2.301   2.257   7.079 -1.4918  0.2960  2.8817
 6279SOL     OW30469   4.322   3.405  15.634 -0.2475 -0.3203  0.3578
 6279SOL    HW130470   4.382   3.472  15.667  0.1926 -0.0727 -0.9547
 6279SOL    HW230471   4.257   3.414  15.704  0.9797 -0.6348  1.5444
 6280SOL     OW30472   2.351   3.823   7.847 -0.6629  0.4160  0.0638
 6280SOL    HW130473   2.441   3.855   7.844 -0.1253 -1.0092  0.8212
 6280SOL    HW230474   2.314   3.839   7.934 -1.5150  1.3787 -0.4762
 6281SOL     OW30475   0.593   2.890   5.065  0.3366  0.4709 -0.2247
 6281SOL    HW130476   0.551   2.969   5.099  1.0993  0.2851  1.1503
 6281SOL    HW230477   0.524   2.846   5.016 -0.3190  0.0216  1.0921
 6282SOL     OW30478   2.420   0.276  12.237  0.5937  0.1210 -0.2488
 6282SOL    HW130479   2.347   0.278  12.299  0.9995 -1.4963  0.2965
 6282SOL    HW230480   2.404   0.186  12.208  2.4013 -0.4421  0.4807
 6283SOL     OW30481   2.623   0.938   6.079  0.3783 -0.7337  0.1001
 6283SOL    HW130482   2.593   0.848   6.068  0.3750 -0.6101 -0.8870
 6283SOL    HW230483   2.672   0.943   5.997 -0.2412 -2.6910 -0.3764
 6284SOL     OW30484   3.532   2.577  16.752 -0.3159 -0.1650  0.1340
 6284SOL    HW130485   3.533   2.496  16.803 -1.1382  1.1412  2.2406
 6284SOL    HW230486   3.523   2.538  16.665 -0.3310 -0.5040  0.2869
 6285SOL     OW30487   1.680   1.552  15.496 -0.1910  0.2816  0.0599
 6285SOL    HW130488   1.713   1.517  15.413 -0.5279  0.0066  0.0382
 6285SOL    HW230489   1.716   1.486  15.556  1.0842 -0.5747 -1.6687
 6286SOL     OW30490   1.646   4.580   2.816  0.6011  0.5851 -0.4898
 6286SOL    HW130491   1.610   4.564   2.903  1.4121 -0.7212 -0.3817
 6286SOL    HW230492   1.715   4.516   2.798  0.4860 -0.5151  2.8388
 6287SOL     OW30493   3.317   1.217  10.682  0.0443 -0.4448  0.1633
 6287SOL    HW130494   3.385   1.277  10.714 -1.0745  1.4598 -0.9932
 6287SOL    HW230495   3.327   1.223  10.587  0.6579  1.8110  0.3731
 6288SOL     OW30496   0.481   4.256   3.624 -0.1965  0.1756  0.4031
 6288SOL    HW130497   0.531   4.270   3.704  1.9331 -0.0690 -0.8900
 6288SOL    HW230498   0.534   4.296   3.555 -1.5130 -1.0316 -1.3035
 6289SOL     OW30499   3.708   2.465   5.790 -1.1705 -0.0282 -0.4870
 6289SOL    HW130500   3.735   2.406   5.720 -1.2544 -0.8269  0.1483
 6289SOL    HW230501   3.761   2.544   5.780  0.8489 -1.3443 -0.1100
 6290SOL     OW30502   4.686   3.754   5.819 -0.5964  0.3805  0.0333
 6290SOL    HW130503   0.038   3.727   5.822 -0.9613 -0.7048  1.5902
 6290SOL    HW230504   4.670   3.783   5.909  0.2278  0.4540  0.1527
 6291SOL     OW30505   4.332   1.606   0.846  0.2366 -0.0421 -0.6980
 6291SOL    HW130506   4.261   1.552   0.809  1.4698 -2.3471  0.2683
 6291SOL    HW230507   4.347   1.579   0.937 -1.2037  2.3017  0.2470
 6292SOL     OW30508   3.519   1.532   0.475 -0.1213 -0.1666 -0.4528
 6292SOL    HW130509   3.481   1.534   0.387 -0.3908 -3.2767 -0.4015
 6292SOL    HW230510   3.459   1.467   0.512  0.2787  0.3737  1.1209
 6293SOL     OW30511   4.246   1.612   8.827  0.0737 -0.4530  0.3181
 6293SOL    HW130512   4.240   1.694   8.876 -0.3150  0.2715 -0.9479
 6293SOL    HW230513   4.340   1.602   8.837  0.2665  3.1551  2.1621
 6294SOL     OW30514   3.202   0.199   8.025  0.1535 -0.1194  0.4230
 6294SOL    HW130515   3.121   0.170   7.982 -1.3409  1.3527  2.2660
 6294SOL    HW230516   3.264   0.237   7.962  1.1790 -2.1239  0.2342
 6295SOL     OW30517   3.360   4.441   3.334  0.1637  0.3005 -0.0183
 6295SOL    HW130518   3.365   4.379   3.261 -1.2144  1.5977 -1.2036
 6295SOL    HW230519   3.452   4.433   3.362 -0.0558  1.0014  0.8957
 6296SOL     OW30520   4.259   2.275  11.283  0.2166  0.3102  0.0673
 6296SOL    HW130521   4.223   2.203  11.335  2.8053 -0.4742  0.7752
 6296SOL    HW230522   4.252   2.354  11.337  2.5888 -0.4084  1.4071
 6297SOL     OW30523   4.274   0.299   9.404  0.0355 -0.0560  0.5529
 6297SOL    HW130524   4.189   0.344   9.403  0.5322  0.8271 -1.5276
 6297SOL    HW230525   4.295   0.303   9.497  0.6688  1.3555  0.3518
 6298SOL     OW30526   1.761   1.629  14.313  0.5692  0.5362  0.4788
 6298SOL    HW130527   1.714   1.561  14.265  2.7510  0.5630 -1.6601
 6298SOL    HW230528   1.784   1.676  14.234 -1.7381 -0.0014 -0.5102
 6299SOL     OW30529   4.588   2.257   3.674 -0.3940  0.8431  0.7853
 6299SOL    HW130530   4.533   2.304   3.612 -2.9297 -0.0114  2.3998
 6299SOL    HW230531   4.560   2.305   3.752 -0.6349  0.2295  1.0811
 6300SOL     OW30532   1.389   2.582   7.244 -0.0856 -0.0899 -0.2805
 6300SOL    HW130533   1.395   2.656   7.184 -0.6751  0.9068  0.8969
 6300SOL    HW230534   1.432   2.619   7.321  1.4357 -1.4786 -0.4731
 6301SOL     OW30535   3.607   1.579   5.460 -0.6562  0.1256 -0.0864
 6301SOL    HW130536   3.609   1.672   5.484 -1.5726  0.5118 -1.4927
 6301SOL    HW230537   3.594   1.578   5.365 -3.0318  1.2167  0.2216
 6302SOL     OW30538   1.414   2.786  13.386 -0.0861  1.2153  0.0980
 6302SOL    HW130539   1.479   2.716  13.394 -0.2808  0.9397 -0.8037
 6302SOL    HW230540   1.377   2.771  13.474  0.7654 -0.6618  0.1331
 6303SOL     OW30541   4.247   2.222   3.744 -0.0123 -0.1889 -0.5173
 6303SOL    HW130542   4.239   2.149   3.683 -0.1340  0.1304 -0.8809
 6303SOL    HW230543   4.169   2.274   3.724 -0.0077  0.2145  0.4691
 6304SOL     OW30544   0.884   0.528  14.198  0.3484  0.0103 -0.0886
 6304SOL    HW130545   0.812   0.567  14.246  0.4301  0.1811 -0.1061
 6304SOL    HW230546   0.924   0.480  14.271  0.5703 -1.3009 -1.0636
 6305SOL     OW30547   3.350   4.725  12.801  0.4427 -0.0035  0.7801
 6305SOL    HW130548   3.315   0.075  12.792  1.0313  0.3114  1.6614
 6305SOL    HW230549   3.361   4.716  12.895  0.1117 -0.8727  0.7354
 6306SOL     OW30550   0.503   1.476  11.431  0.6965 -0.0296  0.4427
 6306SOL    HW130551   0.444   1.481  11.356  0.8495  1.4406  0.4196
 6306SOL    HW230552   0.505   1.381  11.440 -3.7296 -0.2762 -1.4330
 6307SOL     OW30553   0.720   0.524   3.078 -0.1591 -0.3782 -0.3614
 6307SOL    HW130554   0.762   0.605   3.049  0.7603 -0.2546  1.2970
 6307SOL    HW230555   0.651   0.512   3.013  0.7009 -2.1817 -0.9593
 6308SOL     OW30556   0.433   4.385   7.362 -0.3698 -0.1415  0.4887
 6308SOL    HW130557   0.367   4.452   7.345 -1.0540 -0.6543  1.0651
 6308SOL    HW230558   0.379   4.345   7.431  1.1716  0.9294  2.2936
 6309SOL     OW30559   0.604   3.927   7.792  0.4040  0.1056  0.2740
 6309SOL    HW130560   0.668   3.884   7.736  1.1933  0.6018  0.7926
 6309SOL    HW230561   0.543   3.954   7.724  0.4266  0.6739  0.4718
 6310SOL     OW30562   2.069   0.290   6.773 -0.2460 -0.9793 -0.3405
 6310SOL    HW130563   2.028   0.243   6.846  0.7622 -0.6847  0.4262
 6310SOL    HW230564   2.079   0.221   6.708 -1.0059 -1.2369 -0.1759
 6311SOL     OW30565   0.682   4.139  14.858 -0.2862  0.5195 -0.3103
 6311SOL    HW130566   0.768   4.098  14.847 -0.6934 -1.2331  2.8331
 6311SOL    HW230567   0.683   4.152  14.953  0.1329  3.6557 -0.7557
 6312SOL     OW30568   2.370   3.197  10.128 -0.0918  0.2013  0.0782
 6312SOL    HW130569   2.416   3.215  10.046  1.0579  4.6403  1.6648
 6312SOL    HW230570   2.373   3.103  10.143 -0.0402  0.3799  1.1875
 6313SOL     OW30571   2.300   0.081  16.463 -0.0923 -0.2865 -0.7824
 6313SOL    HW130572   2.353   0.033  16.399 -1.3010  0.3413 -2.2727
 6313SOL    HW230573   2.262   0.020  16.525 -0.3001  0.9791  0.3376
 6314SOL     OW30574   0.599   4.004   5.830  0.4298  0.4591 -0.4497
 6314SOL    HW130575   0.572   4.095   5.822  1.6881  0.7261 -1.6312
 6314SOL    HW230576   0.679   4.001   5.776 -0.5024 -1.0561 -1.7326
 6315SOL     OW30577   2.918   1.043  15.338  0.3885 -0.0741 -0.6065
 6315SOL    HW130578   3.001   1.008  15.368 -1.5479 -2.6206  1.8061
 6315SOL    HW230579   2.932   1.133  15.367  2.8285  0.1203 -2.4452
 6316SOL     OW30580   1.600   0.445   6.725 -0.3339  0.1141  0.1261
 6316SOL    HW130581   1.608   0.484   6.638  0.6470  3.0252  1.5273
 6316SOL    HW230582   1.655   0.368   6.713 -2.8368 -1.7988  0.7575
 6317SOL     OW30583   0.071   4.441   9.437  0.4031  0.5914  0.5842
 6317SOL    HW130584   0.077   4.442   9.341  1.8821 -4.5126  0.6561
 6317SOL    HW230585   0.009   4.514   9.435 -0.4998 -0.2243 -1.9861
 6318SOL     OW30586   1.810   3.100   7.208 -0.4139 -0.0789 -0.4187
 6318SOL    HW130587   1.815   3.168   7.141  1.9884 -0.1457 -0.3030
 6318SOL    HW230588   1.903   3.103   7.230  0.1963  0.7044 -3.1261
 6319SOL     OW30589   1.757   3.280   8.597 -0.0514  0.1997 -0.4345
 6319SOL    HW130590   1.778   3.187   8.594 -2.2047 -0.3360  1.3253
 6319SOL    HW230591   1.700   3.284   8.674 -2.3513 -0.6028 -2.0841
 6320SOL     OW30592   0.099   0.012   1.062  0.2028  0.2961  0.0245
 6320SOL    HW130593   0.170   0.046   1.117 -1.7149  2.0574  1.3538
 6320SOL    HW230594   0.071   4.670   1.105  2.2077 -0.3396  0.1623
 6321SOL     OW30595   0.260   2.298  13.141 -0.1493  0.3615  1.6280
 6321SOL    HW130596   0.255   2.202  13.136  0.2728  0.4789 -1.0559
 6321SOL    HW230597   0.296   2.313  13.054 -3.6489  0.2827  0.1788
 6322SOL     OW30598   3.846   3.985   6.104 -0.0708 -0.3003  0.4895
 6322SOL    HW130599   3.862   4.014   6.194 -0.7731 -0.8855  0.8015
 6322SOL    HW230600   3.898   4.046   6.052 -1.2539  0.2466 -0.0496
 6323SOL     OW30601   4.316   2.345   2.774 -0.1752  0.2476  0.6874
 6323SOL    HW130602   4.354   2.408   2.835 -2.0906  2.2504 -0.1853
 6323SOL    HW230603   4.299   2.274   2.836 -2.0884 -0.2257 -0.3865
 6324SOL     OW30604   4.424   4.049   3.266  0.0874  0.0081 -0.4820
 6324SOL    HW130605   4.336   4.040   3.301 -0.2336  1.4578 -0.9219
 6324SOL    HW230606   4.415   3.998   3.185  0.6127 -0.2219 -0.3953
 6325SOL     OW30607   4.337   3.967   9.911 -0.5470 -0.6021  0.2582
 6325SOL    HW130608   4.243   3.951   9.901 -0.6257  1.4404 -2.2472
 6325SOL    HW230609   4.340   4.056   9.877 -1.3600 -1.3830 -1.8887
 6326SOL     OW30610   3.855   0.068   9.391 -0.1207 -0.9500  0.0962
 6326SOL    HW130611   3.860   0.146   9.335  0.1813  0.7752  2.5019
 6326SOL    HW230612   3.943   0.080   9.427 -0.7589  2.6798  0.4587
 6327SOL     OW30613   3.523   2.925   3.613  0.0849 -0.4350  0.0933
 6327SOL    HW130614   3.542   2.921   3.707 -0.0788  0.0590  0.1432
 6327SOL    HW230615   3.604   2.951   3.569  0.1429 -0.7322  0.0179
 6328SOL     OW30616   4.431   4.284  17.292  0.4029 -0.2756 -0.7119
 6328SOL    HW130617   4.369   4.296  17.364 -0.3422 -1.2194 -1.2036
 6328SOL    HW230618   4.487   4.219  17.333 -0.8341 -1.8220 -1.4433
 6329SOL     OW30619   4.253   4.325   4.169 -0.2384 -0.1123 -0.6744
 6329SOL    HW130620   4.218   4.338   4.081  2.6128 -0.8188 -1.9178
 6329SOL    HW230621   4.221   4.238   4.193 -0.1066 -0.4963 -1.8803
 6330SOL     OW30622   0.694   2.905   5.564 -0.5942  0.4383 -0.1317
 6330SOL    HW130623   0.731   2.855   5.636 -0.2486  0.3059 -0.4011
 6330SOL    HW230624   0.599   2.895   5.576 -0.7014  1.7885  0.0518
 6331SOL     OW30625   1.535   4.315   6.182 -0.0352 -0.2091 -0.0265
 6331SOL    HW130626   1.597   4.306   6.109 -0.8878 -1.6960 -0.5708
 6331SOL    HW230627   1.514   4.222   6.184  0.1549 -0.3323 -2.7559
 6332SOL     OW30628   3.006   3.567   3.983  0.3879  0.2692  0.2431
 6332SOL    HW130629   3.012   3.519   4.065 -1.0476 -0.4523 -0.0790
 6332SOL    HW230630   2.950   3.503   3.939  0.1936 -0.1055  1.0408
 6333SOL     OW30631   2.911   2.311   7.157  0.5196 -0.2160 -0.0390
 6333SOL    HW130632   2.905   2.307   7.252 -0.2213 -2.2662 -0.1836
 6333SOL    HW230633   3.000   2.345   7.156  1.4984 -2.7842  0.6595
 6334SOL     OW30634   1.219   2.018  10.170 -0.1945  0.3180  0.4546
 6334SOL    HW130635   1.227   2.070  10.091  1.5111  0.5396  0.7759
 6334SOL    HW230636   1.194   2.082  10.236  1.6320  0.7559  0.7386
 6335SOL     OW30637   1.727   3.190   2.530  0.0884 -0.4932  0.6471
 6335SOL    HW130638   1.685   3.148   2.455  0.8349 -0.1606  0.0473
 6335SOL    HW230639   1.808   3.216   2.487 -1.1300  1.6201 -0.3781
 6336SOL     OW30640   0.413   0.156  11.472 -0.6190 -0.5630  0.0039
 6336SOL    HW130641   0.380   0.091  11.410 -1.5546 -1.6442  1.6264
 6336SOL    HW230642   0.467   0.099  11.526  0.1606  0.6391  0.4898
 6337SOL     OW30643   4.162   3.414   9.111 -0.2991 -0.4398 -0.0654
 6337SOL    HW130644   4.158   3.346   9.043 -1.7990 -3.2262  2.8302
 6337SOL    HW230645   4.081   3.454   9.080  0.2140  1.8537  1.6148
 6338SOL     OW30646   3.991   0.777   7.010 -0.2985 -0.5843  0.0239
 6338SOL    HW130647   4.044   0.764   6.931  0.2460  2.2411 -0.0882
 6338SOL    HW230648   3.906   0.745   6.980  0.1985 -0.9867 -0.9630
 6339SOL     OW30649   1.368   2.125  13.607  0.1516  0.0410  0.0623
 6339SOL    HW130650   1.444   2.159  13.653  1.3666 -1.1792 -1.0294
 6339SOL    HW230651   1.302   2.162  13.666 -0.9952 -1.4722 -0.2733
 6340SOL     OW30652   0.812   1.094   8.265 -0.2423  0.1088 -0.4071
 6340SOL    HW130653   0.748   1.098   8.194 -0.6747  3.2469  0.1583
 6340SOL    HW230654   0.771   1.047   8.338  2.5824  1.6343  2.1699
 6341SOL     OW30655   4.440   3.898  12.787 -0.4116 -0.3961 -0.3053
 6341SOL    HW130656   4.417   3.838  12.857  0.7861  0.5271  0.8727
 6341SOL    HW230657   4.499   3.956  12.835  0.0569 -1.2190  0.1073
 6342SOL     OW30658   3.329   1.923   7.146 -0.2294 -0.2301  0.2206
 6342SOL    HW130659   3.304   1.983   7.075 -0.7413 -1.3809 -0.5615
 6342SOL    HW230660   3.265   1.951   7.211  1.6065 -1.4112  2.5220
 6343SOL     OW30661   4.620   4.471   4.594 -0.0898 -0.1359 -0.3436
 6343SOL    HW130662   4.638   4.424   4.675 -1.8441 -1.2343 -0.5939
 6343SOL    HW230663   4.605   4.396   4.535  1.1459 -0.0881 -0.7388
 6344SOL     OW30664   0.899   4.344   2.019  0.2617  0.1954  0.2163
 6344SOL    HW130665   0.941   4.269   2.061 -1.5345 -0.3292  1.0663
 6344SOL    HW230666   0.806   4.333   2.037  0.8487 -0.2514  2.9504
 6345SOL     OW30667   0.753   1.988  16.836  0.0994  0.3362 -0.3786
 6345SOL    HW130668   0.749   2.044  16.914  1.8222 -1.4635  0.9922
 6345SOL    HW230669   0.758   2.057  16.770 -2.8118 -1.0270 -2.0615
 6346SOL     OW30670   1.268   1.415   4.711  0.4070  0.6560  0.2663
 6346SOL    HW130671   1.274   1.468   4.632 -0.5563  2.0813  1.1473
 6346SOL    HW230672   1.337   1.354   4.684 -2.0108 -2.7040  1.7299
 6347SOL     OW30673   4.332   0.295   3.804  0.0016  0.3309 -0.1784
 6347SOL    HW130674   4.255   0.352   3.808  0.5175  0.9347  1.1562
 6347SOL    HW230675   4.392   0.353   3.757 -0.0260 -0.5307 -1.2854
 6348SOL     OW30676   0.635   1.750   2.548 -0.2910 -0.0108 -0.1101
 6348SOL    HW130677   0.563   1.687   2.548 -0.1323 -0.1956 -0.3821
 6348SOL    HW230678   0.654   1.759   2.454  0.0372  1.3760  0.0876
 6349SOL     OW30679   0.212   2.058  12.430 -0.4690  0.1445 -0.3097
 6349SOL    HW130680   0.250   1.975  12.459 -0.8799 -0.2479 -0.9088
 6349SOL    HW230681   0.151   2.078  12.501 -1.0421 -0.3813 -0.6518
 6350SOL     OW30682   2.277   4.681   1.013  0.2809  0.1335  0.4896
 6350SOL    HW130683   2.344   0.010   1.000  0.6958  0.0403  2.0940
 6350SOL    HW230684   2.307   4.624   0.942 -1.3484  0.8106 -0.7431
 6351SOL     OW30685   1.655   4.019  16.362  0.2332 -0.4012  0.0828
 6351SOL    HW130686   1.657   3.943  16.420 -0.9237  1.3173  2.3506
 6351SOL    HW230687   1.582   4.072  16.394 -1.1058 -2.4041  0.3435
 6352SOL     OW30688   2.780   1.899   3.782  0.5158  0.0279 -0.2345
 6352SOL    HW130689   2.770   1.823   3.840 -1.3996  1.8946  1.9246
 6352SOL    HW230690   2.875   1.897   3.769  0.3386 -0.0241 -1.5006
 6353SOL     OW30691   0.978   1.020   2.987 -0.2220 -0.2928  0.5017
 6353SOL    HW130692   1.023   0.989   2.908  2.0511  2.7478  0.6190
 6353SOL    HW230693   1.002   0.947   3.045 -2.3227 -0.5888  1.0216
 6354SOL     OW30694   3.648   0.351   3.983  0.5751  0.7668  0.2731
 6354SOL    HW130695   3.552   0.344   3.985  0.5423  1.0593 -0.8291
 6354SOL    HW230696   3.663   0.410   4.057 -0.4991  1.0212  0.2918
 6355SOL     OW30697   1.130   4.692  10.420 -0.3756 -0.7676 -0.1061
 6355SOL    HW130698   1.127   0.002  10.338 -2.3018 -0.0525  0.3868
 6355SOL    HW230699   1.164   4.610  10.384  1.0140 -0.1068 -0.3028
 6356SOL     OW30700   4.128   2.833   2.279  0.2872  0.5720  0.1243
 6356SOL    HW130701   4.142   2.771   2.208 -0.9537  0.5778 -0.1271
 6356SOL    HW230702   4.078   2.901   2.234 -0.3807  1.2475  1.8887
 6357SOL     OW30703   1.938   2.903   7.772 -0.7872  0.5672 -0.0533
 6357SOL    HW130704   1.880   2.856   7.712 -0.5760 -0.6691  0.7107
 6357SOL    HW230705   1.879   2.928   7.843 -1.0374  2.4015 -0.9043
 6358SOL     OW30706   2.249   2.323  13.027 -0.1717  0.1932  0.2767
 6358SOL    HW130707   2.191   2.247  13.020 -0.2417  0.4393 -1.9369
 6358SOL    HW230708   2.201   2.368  13.096 -0.8987  0.0013 -0.0960
 6359SOL     OW30709   4.431   2.927   1.987 -0.0669  0.3751  0.3349
 6359SOL    HW130710   4.518   2.967   1.999 -0.4041  1.3510 -0.4438
 6359SOL    HW230711   4.381   2.986   1.931 -0.1779  1.5004  1.6117
 6360SOL     OW30712   4.253   2.488  11.430  0.9517 -0.2073 -0.1495
 6360SOL    HW130713   4.268   2.451  11.517  0.2170  0.8366  0.4230
 6360SOL    HW230714   4.162   2.518  11.440  0.4074 -1.9773  0.1481
 6361SOL     OW30715   0.538   2.544  10.069 -0.4615 -0.0414 -0.1698
 6361SOL    HW130716   0.608   2.608  10.086 -0.2851 -0.3067  0.0951
 6361SOL    HW230717   0.515   2.560   9.977  0.1233 -1.3605 -0.5464
 6362SOL     OW30718   3.951   3.916   9.462  0.4870  0.0519 -0.0239
 6362SOL    HW130719   4.018   3.859   9.425 -1.4749 -0.5267 -2.6474
 6362SOL    HW230720   3.970   3.921   9.556  0.8224 -3.1831  0.0748
 6363SOL     OW30721   1.761   1.194   9.231  0.0966  0.0271 -0.1457
 6363SOL    HW130722   1.708   1.143   9.292 -1.7369  1.5321 -0.4853
 6363SOL    HW230723   1.822   1.125   9.204  0.1694  0.8426 -2.0628
 6364SOL     OW30724   3.619   1.653   2.953  0.1940 -0.7887  0.1953
 6364SOL    HW130725   3.707   1.690   2.946 -0.3155  0.3451 -0.2194
 6364SOL    HW230726   3.640   1.567   2.916 -0.1155 -0.8543  0.1701
 6365SOL     OW30727   2.546   4.209   5.872  0.2120 -0.2760  0.4559
 6365SOL    HW130728   2.621   4.199   5.931  0.6299 -2.8293 -0.5224
 6365SOL    HW230729   2.545   4.132   5.815  1.1480 -0.4276  0.6494
 6366SOL     OW30730   2.681   3.847   4.291  0.4655  0.1958  0.3213
 6366SOL    HW130731   2.604   3.860   4.235  0.4375 -1.3141 -0.0129
 6366SOL    HW230732   2.672   3.758   4.325 -0.6763  0.4353  0.6553
 6367SOL     OW30733   3.495   2.843   0.348 -0.0873  0.4605  0.1686
 6367SOL    HW130734   3.577   2.885   0.322  0.2164 -1.1075 -1.4032
 6367SOL    HW230735   3.436   2.909   0.312 -0.8646 -1.2691 -1.7432
 6368SOL     OW30736   0.789   2.955  11.354  0.4627  0.9880  0.3435
 6368SOL    HW130737   0.875   2.991  11.334  2.5964 -3.7112  0.9022
 6368SOL    HW230738   0.792   2.916  11.441  0.0248 -0.1477 -0.1395
 6369SOL     OW30739   3.311   1.639   2.131  0.4685  0.0287 -0.4844
 6369SOL    HW130740   3.403   1.612   2.127  0.8121  1.1646 -0.3304
 6369SOL    HW230741   3.324   1.731   2.106 -0.3361  0.1986 -0.2870
 6370SOL     OW30742   0.534   3.993   6.433  0.1847  0.4082  0.0132
 6370SOL    HW130743   0.544   3.990   6.338  0.2496  1.4288 -0.0200
 6370SOL    HW230744   0.590   3.923   6.465  0.1112  0.5655  0.4830
 6371SOL     OW30745   2.100   1.393   7.138 -0.3062 -0.0204  0.3839
 6371SOL    HW130746   2.044   1.320   7.112  0.7114 -0.5848 -0.2245
 6371SOL    HW230747   2.144   1.353   7.213 -0.5116  0.6068  0.8337
 6372SOL     OW30748   4.504   3.715   2.664 -0.5190  0.0754  0.2338
 6372SOL    HW130749   4.419   3.677   2.686  0.3222 -1.2936  1.1420
 6372SOL    HW230750   4.552   3.644   2.623 -1.0954  1.1935 -2.3976
 6373SOL     OW30751   0.062   0.243   4.311 -0.4794  1.0620 -0.0251
 6373SOL    HW130752   4.710   0.251   4.284 -0.4470 -0.5884 -0.6473
 6373SOL    HW230753   0.099   0.331   4.307 -1.1153  1.4789  3.5535
 6374SOL     OW30754   1.713   1.368   8.519 -0.2744 -0.0559  0.6902
 6374SOL    HW130755   1.792   1.415   8.491 -1.0903  1.2666  0.6499
 6374SOL    HW230756   1.678   1.333   8.437 -1.7775 -0.0729  1.3502
 6375SOL     OW30757   3.232   3.138   7.847  0.1769  0.5295 -0.4167
 6375SOL    HW130758   3.268   3.092   7.923 -2.4136  0.3374  0.6945
 6375SOL    HW230759   3.141   3.129   7.875 -0.6528  0.5285 -3.1598
 6376SOL     OW30760   2.669   0.985   6.855 -0.1814  0.2813 -0.1820
 6376SOL    HW130761   2.675   1.020   6.943 -2.0460 -0.7168  0.3523
 6376SOL    HW230762   2.609   1.047   6.813 -1.3671 -0.7396 -0.0158
 6377SOL     OW30763   3.865   0.877   2.779 -0.1712 -0.2247 -0.0521
 6377SOL    HW130764   3.914   0.795   2.770  1.3876  0.6994 -0.1169
 6377SOL    HW230765   3.928   0.936   2.737  0.2607 -0.2749  0.5284
 6378SOL     OW30766   0.665   1.882   1.498  0.0107 -0.0169 -0.2478
 6378SOL    HW130767   0.680   1.976   1.491  0.0362  0.1733  2.5063
 6378SOL    HW230768   0.709   1.847   1.421  0.8605 -0.2732  0.3616
 6379SOL     OW30769   4.281   0.040  13.732  0.0672  0.4660 -0.0699
 6379SOL    HW130770   4.366   0.017  13.695  0.4438 -0.3843  1.3067
 6379SOL    HW230771   4.263   4.702  13.786  1.2473  2.2346  2.8606
 6380SOL     OW30772   2.940   1.952   5.256 -0.2136 -0.0143 -0.7653
 6380SOL    HW130773   2.974   1.931   5.343 -3.3045 -2.8603 -0.2350
 6380SOL    HW230774   2.903   2.039   5.268  0.0290  0.1150 -0.9671
 6381SOL     OW30775   0.385   3.118   5.743  0.5930 -0.5122 -0.0080
 6381SOL    HW130776   0.290   3.102   5.742  0.6116 -0.5035 -1.7523
 6381SOL    HW230777   0.413   3.049   5.803  1.3338  1.4253  1.8562
 6382SOL     OW30778   2.116   1.937  10.839 -0.6417  0.5484 -0.9093
 6382SOL    HW130779   2.191   1.995  10.822 -0.9037  1.4456  0.9594
 6382SOL    HW230780   2.168   1.865  10.874 -0.5816  0.3665 -1.3815
 6383SOL     OW30781   3.176   0.435   0.951  0.1327 -0.9038  0.2083
 6383SOL    HW130782   3.111   0.505   0.942  0.3380 -0.7921 -0.4070
 6383SOL    HW230783   3.123   0.355   0.958  0.9654 -1.3964  0.8698
 6384SOL     OW30784   1.574   2.839   2.957  0.6052 -0.4854 -0.4267
 6384SOL    HW130785   1.584   2.921   2.909  0.4404 -0.3500 -0.2286
 6384SOL    HW230786   1.489   2.804   2.928 -0.2488 -0.7561  2.3723
 6385SOL     OW30787   2.459   4.475   0.430 -0.1020  0.3421 -0.8389
 6385SOL    HW130788   2.412   4.502   0.352 -1.3833  3.3056  0.9560
 6385SOL    HW230789   2.505   4.558   0.443  1.7953 -0.6108 -1.5067
 6386SOL     OW30790   3.977   2.876   0.887 -0.7965  0.3622 -0.2879
 6386SOL    HW130791   3.969   2.830   0.804  0.6603 -0.1218 -0.1671
 6386SOL    HW230792   4.065   2.907   0.868 -0.6207 -0.6711 -1.1081
 6387SOL     OW30793   2.841   2.626  11.361  0.3467 -0.6235  0.2157
 6387SOL    HW130794   2.778   2.554  11.370 -0.9485  0.7185  1.8776
 6387SOL    HW230795   2.795   2.702  11.326  0.6492 -0.4142  0.2714
 6388SOL     OW30796   1.653   1.724   7.243 -0.1468 -1.0186  0.6119
 6388SOL    HW130797   1.716   1.665   7.201 -0.4425 -0.3463 -0.7723
 6388SOL    HW230798   1.678   1.716   7.336 -0.0112 -2.0628  0.4870
 6389SOL     OW30799   0.830   2.426   1.999 -0.2319 -0.2512  0.2893
 6389SOL    HW130800   0.856   2.334   2.000  0.4468 -0.0926 -2.1232
 6389SOL    HW230801   0.903   2.461   2.050 -0.6179  0.2324  0.5083
 6390SOL     OW30802   1.224   1.806   6.812  0.4676 -0.1119  0.2657
 6390SOL    HW130803   1.167   1.732   6.836  1.4354 -0.7861  0.4725
 6390SOL    HW230804   1.260   1.768   6.732  1.6669 -0.2314  0.8634
 6391SOL     OW30805   3.800   1.307   2.185  0.0680 -0.9382  0.1667
 6391SOL    HW130806   3.796   1.338   2.095 -0.9622  0.5847  0.7251
 6391SOL    HW230807   3.810   1.389   2.233 -0.4423  0.4734 -2.1554
 6392SOL     OW30808   1.117   0.601  11.385 -1.2507 -0.0148  0.1128
 6392SOL    HW130809   1.207   0.635  11.385  0.1377 -3.6330  1.7858
 6392SOL    HW230810   1.108   0.574  11.477 -1.5275  0.8920  0.3505
 6393SOL     OW30811   4.658   1.511   2.184 -0.1823  0.3995 -0.3281
 6393SOL    HW130812   4.627   1.519   2.275  0.7656 -2.4387  0.2318
 6393SOL    HW230813   4.653   1.606   2.171  3.0979  0.3687 -1.7399
 6394SOL     OW30814   3.283   0.132   3.891  0.3086  0.1396 -0.1161
 6394SOL    HW130815   3.192   0.126   3.862  0.5684 -0.4596 -0.8046
 6394SOL    HW230816   3.313   0.205   3.838 -2.4160  1.1775 -0.2514
 6395SOL     OW30817   3.068   3.373   5.402  0.2045  0.7166  0.0256
 6395SOL    HW130818   3.073   3.277   5.404  1.2739  0.7804  0.7074
 6395SOL    HW230819   3.079   3.396   5.494 -0.6548  0.8237  0.0971
 6396SOL     OW30820   0.489   3.103   3.907 -0.1670 -0.7265  0.7296
 6396SOL    HW130821   0.496   3.078   3.999  0.3100  0.9022  1.1373
 6396SOL    HW230822   0.408   3.057   3.884  0.4234 -0.3195 -2.1478
 6397SOL     OW30823   3.260   1.382  14.408 -0.7835 -0.0046 -0.7290
 6397SOL    HW130824   3.352   1.375  14.383  0.1490  1.0443  2.3460
 6397SOL    HW230825   3.263   1.453  14.472 -3.6160  0.5272 -1.2233
 6398SOL     OW30826   2.614   3.258  15.889 -0.4582 -0.2746 -0.0090
 6398SOL    HW130827   2.615   3.300  15.975  0.4972  0.3857 -0.3393
 6398SOL    HW230828   2.682   3.192  15.904 -0.3718 -0.0162  0.7256
 6399SOL     OW30829   3.684   4.058   4.806 -0.1920 -0.5029  0.6224
 6399SOL    HW130830   3.708   4.117   4.735  1.6596  0.1174  1.7525
 6399SOL    HW230831   3.592   4.049   4.783  0.0972 -0.4987 -0.5415
 6400SOL     OW30832   0.669   0.467   4.612 -0.0761 -0.3613  0.3489
 6400SOL    HW130833   0.601   0.532   4.628  0.8217  0.1985  1.8618
 6400SOL    HW230834   0.614   0.402   4.567  1.0996  0.4905 -2.3094
 6401SOL     OW30835   3.081   0.571   5.625  0.4620  0.0618  0.2068
 6401SOL    HW130836   3.110   0.634   5.559  1.2027 -0.1494  0.3342
 6401SOL    HW230837   3.037   0.640   5.675  0.6014 -0.0825  0.5242
 6402SOL     OW30838   1.851   3.060   4.880  0.9102  0.0398  0.7768
 6402SOL    HW130839   1.922   3.111   4.919  0.4402 -0.7932  2.6953
 6402SOL    HW230840   1.898   2.995   4.828 -2.2584  0.1468 -2.2334
 6403SOL     OW30841   3.083   3.261   0.470  0.0807 -0.4819 -0.4212
 6403SOL    HW130842   3.178   3.258   0.460  0.3099 -0.0429  1.5796
 6403SOL    HW230843   3.057   3.174   0.443  2.2611 -1.2872  0.0860
 6404SOL     OW30844   3.108   3.151   5.597 -0.4819 -0.6442 -0.2672
 6404SOL    HW130845   3.056   3.074   5.618 -0.9438 -0.2051  0.1694
 6404SOL    HW230846   3.095   3.206   5.674  0.4185  1.3722 -1.5196
 6405SOL     OW30847   0.221   2.454   5.725 -0.0546  0.3882 -0.5129
 6405SOL    HW130848   0.302   2.472   5.772  0.3395 -0.8894 -0.6979
 6405SOL    HW230849   0.226   2.364   5.693  1.1826  0.1352  0.3967
 6406SOL     OW30850   3.081   4.605   1.545  0.1314  0.0445 -0.3518
 6406SOL    HW130851   3.093   4.666   1.473 -3.3880  0.2113 -0.7919
 6406SOL    HW230852   3.002   4.634   1.590  0.0603 -0.8002  0.0787
 6407SOL     OW30853   4.063   0.853  16.718  0.2422 -0.3648 -0.2506
 6407SOL    HW130854   4.050   0.775  16.771 -1.1299  1.4739  2.1187
 6407SOL    HW230855   4.089   0.916  16.786 -1.6965  1.0470 -0.8361
 6408SOL     OW30856   2.408   1.774   9.290  0.0595  0.0335 -0.6854
 6408SOL    HW130857   2.478   1.718   9.256 -0.4689 -1.5682  0.8231
 6408SOL    HW230858   2.449   1.837   9.350 -0.6692  0.1192 -0.2734
 6409SOL     OW30859   0.217   4.561   6.519 -0.2619  0.8724  0.5494
 6409SOL    HW130860   0.192   4.499   6.451  0.8785  1.3223 -0.2935
 6409SOL    HW230861   0.277   4.501   6.564  3.4095  2.7923 -1.7123
 6410SOL     OW30862   2.115   0.477   1.717 -0.1142 -0.3840 -0.1055
 6410SOL    HW130863   2.038   0.486   1.660  0.0326 -0.7831 -0.3664
 6410SOL    HW230864   2.132   0.565   1.750  0.7671 -0.2417 -0.9380
 6411SOL     OW30865   3.877   3.002   9.351 -0.2498  0.2248 -0.4147
 6411SOL    HW130866   3.907   3.039   9.268  0.1162 -1.1714 -0.9128
 6411SOL    HW230867   3.957   2.952   9.371 -0.2503  0.3040 -0.2122
 6412SOL     OW30868   4.110   3.730   8.745 -0.0505  0.3349 -0.0328
 6412SOL    HW130869   4.164   3.804   8.717  0.1006  1.1466  2.3914
 6412SOL    HW230870   4.181   3.666   8.746  1.2100  1.7339  0.7623
 6413SOL     OW30871   4.256   3.798   3.516 -0.7030 -0.0767 -0.6641
 6413SOL    HW130872   4.346   3.765   3.522 -1.2673 -1.0090  2.8774
 6413SOL    HW230873   4.216   3.757   3.593  0.2214  1.7663  0.8117
 6414SOL     OW30874   1.610   0.493   6.111 -0.0198  0.2476  0.0963
 6414SOL    HW130875   1.528   0.507   6.158  0.0743  2.8637 -0.4767
 6414SOL    HW230876   1.654   0.572   6.142  0.2405  0.1555 -0.0428
 6415SOL     OW30877   1.142   2.037   9.184 -0.1486 -0.6307  0.0314
 6415SOL    HW130878   1.148   2.079   9.098  0.3958  1.0173  0.8706
 6415SOL    HW230879   1.055   1.998   9.183  0.2700 -1.5829 -0.0940
 6416SOL     OW30880   0.579   1.976   0.531  0.1820 -0.2774  0.3581
 6416SOL    HW130881   0.610   1.966   0.441  2.0581 -2.5568  1.2771
 6416SOL    HW230882   0.602   2.068   0.546  0.5821 -0.4522  0.8023
 6417SOL     OW30883   4.051   4.688   3.485 -0.8840 -0.1619  0.9437
 6417SOL    HW130884   4.124   4.735   3.525  1.2650 -1.2078 -1.7870
 6417SOL    HW230885   3.970   4.726   3.519  0.2137  2.5752  0.5063
 6418SOL     OW30886   0.368   2.349   8.594 -0.2604 -0.4754 -0.4907
 6418SOL    HW130887   0.342   2.433   8.558 -3.0775 -0.9416  0.4282
 6418SOL    HW230888   0.355   2.365   8.688  1.4117 -0.0728 -0.3318
 6419SOL     OW30889   1.653   1.481   4.204 -0.1482  0.1666  0.0051
 6419SOL    HW130890   1.615   1.404   4.162  1.4898  0.4727 -1.9975
 6419SOL    HW230891   1.617   1.561   4.166 -0.5255  0.0542  0.1259
 6420SOL     OW30892   1.160   2.322   7.464  0.2789  0.6239 -0.4636
 6420SOL    HW130893   1.066   2.326   7.483  0.2732  0.4263 -0.4526
 6420SOL    HW230894   1.150   2.286   7.376 -0.0882 -0.9266  0.2253
 6421SOL     OW30895   2.555   1.028   3.501 -0.4904 -0.6940  0.0060
 6421SOL    HW130896   2.614   1.004   3.572 -0.3495 -3.1668 -0.9519
 6421SOL    HW230897   2.490   0.959   3.489 -1.0280 -0.1977  0.0235
 6422SOL     OW30898   3.532   2.009   7.311 -0.2348  0.0984 -0.2039
 6422SOL    HW130899   3.489   1.963   7.383 -0.4059  0.4025 -0.1101
 6422SOL    HW230900   3.470   1.983   7.244 -0.8951  0.7228  0.1643
 6423SOL     OW30901   0.877   4.395   4.010  0.3170  0.0912 -0.5646
 6423SOL    HW130902   0.890   4.384   4.105  0.5606 -2.0206 -0.8255
 6423SOL    HW230903   0.879   4.490   4.019 -2.2693  0.0644  0.1899
 6424SOL     OW30904   2.982   1.893   1.577 -0.5308 -0.0336  0.6117
 6424SOL    HW130905   3.077   1.896   1.566 -0.4001  0.5656  1.9348
 6424SOL    HW230906   2.976   1.911   1.671 -1.4403 -0.6855  0.6795
 6425SOL     OW30907   3.935   3.429   1.591 -0.2422 -0.0534 -0.1142
 6425SOL    HW130908   3.953   3.503   1.533  0.2111  0.7332  1.0318
 6425SOL    HW230909   3.969   3.356   1.539 -0.5107 -0.7514  0.6933
 6426SOL     OW30910   0.371   2.757  15.013 -0.2435 -0.2322  0.3992
 6426SOL    HW130911   0.417   2.675  15.033 -0.3114 -0.3475  0.0866
 6426SOL    HW230912   0.281   2.725  15.015 -0.5219  0.5009 -0.3505
 6427SOL     OW30913   1.552   2.951   8.984  0.3109  0.1295 -0.4121
 6427SOL    HW130914   1.610   2.877   8.998  1.5388  1.5083  1.8144
 6427SOL    HW230915   1.594   3.021   9.035  0.7166 -0.9959  0.7997
 6428SOL     OW30916   0.415   3.715  17.284  0.2644  0.3542  0.2934
 6428SOL    HW130917   0.452   3.670  17.208 -1.3424 -1.1287  0.3904
 6428SOL    HW230918   0.352   3.648  17.310 -2.4174  1.9111 -2.1802
 6429SOL     OW30919   2.001   3.690   7.207 -0.0902  0.4113 -0.4250
 6429SOL    HW130920   1.961   3.685   7.120  0.6451  4.7070 -1.0554
 6429SOL    HW230921   2.024   3.783   7.211  0.8458  0.1808 -0.6192
 6430SOL     OW30922   1.151   1.860   7.973 -0.2428  0.0954 -0.0332
 6430SOL    HW130923   1.229   1.840   8.025 -0.1057 -1.5737 -0.8544
 6430SOL    HW230924   1.187   1.861   7.884  3.6500  0.8602  1.5456
 6431SOL     OW30925   1.370   1.129   9.840  0.0960  0.1204  0.0861
 6431SOL    HW130926   1.346   1.161   9.754 -1.0318  1.4592  0.8941
 6431SOL    HW230927   1.283   1.133   9.881 -0.0965  2.2740 -0.5709
 6432SOL     OW30928   3.751   1.858  10.332  0.0908 -0.0255 -0.0169
 6432SOL    HW130929   3.778   1.936  10.381 -0.4282 -0.1637  0.4909
 6432SOL    HW230930   3.833   1.834  10.289 -0.4898  0.0869 -1.1713
 6433SOL     OW30931   4.540   3.268  10.061 -0.5244 -0.0198  0.4798
 6433SOL    HW130932   4.494   3.332  10.007 -0.7719  0.7504  1.5935
 6433SOL    HW230933   4.617   3.244  10.009 -0.4900  1.3943 -0.1246
 6434SOL     OW30934   3.953   2.274  17.248 -0.2243  0.3123  0.6416
 6434SOL    HW130935   4.025   2.285  17.310  0.2967 -2.9834  0.6449
 6434SOL    HW230936   3.983   2.338  17.184 -1.6319  2.0045  1.6789
 6435SOL     OW30937   1.536   3.344  17.728  0.3639 -0.5097  0.2488
 6435SOL    HW130938   1.584   3.403  17.670 -1.9045  1.0807 -0.0198
 6435SOL    HW230939   1.482   3.319  17.653 -0.8115  0.3956  0.8026
 6436SOL     OW30940   2.163   2.254  12.248 -0.5691 -0.0408  0.4269
 6436SOL    HW130941   2.097   2.201  12.293 -1.3095  0.3887 -0.1678
 6436SOL    HW230942   2.111   2.323  12.206 -0.5202  0.0001  0.4337
 6437SOL     OW30943   1.190   0.897  14.704 -0.1586  0.7191  0.0188
 6437SOL    HW130944   1.239   0.838  14.647 -1.7893  1.3251 -2.0045
 6437SOL    HW230945   1.134   0.836  14.752 -1.1427  1.3968 -0.2823
 6438SOL     OW30946   2.272   0.082   5.041 -0.7924  0.2310 -0.3471
 6438SOL    HW130947   2.326   0.100   4.964 -0.2777  2.2005  0.4676
 6438SOL    HW230948   2.185   0.107   5.011 -0.1718  2.1383 -0.5464
 6439SOL     OW30949   4.612   4.177  13.304 -0.3773 -0.2269  0.2486
 6439SOL    HW130950   4.679   4.169  13.236 -0.4480  2.2405 -0.1360
 6439SOL    HW230951   4.576   4.089  13.307 -1.3521  0.1365 -0.7238
 6440SOL     OW30952   3.035   4.085   7.958  0.6370 -0.2253  0.9248
 6440SOL    HW130953   3.008   3.994   7.967 -2.1044  0.6890  1.9527
 6440SOL    HW230954   3.130   4.073   7.945  0.4745 -0.7398  0.2252
 6441SOL     OW30955   3.876   0.748  13.257  0.0329 -0.2041 -0.2968
 6441SOL    HW130956   3.833   0.694  13.191  0.0876 -1.0617  0.3600
 6441SOL    HW230957   3.964   0.767  13.223  0.4308 -3.9139 -1.3187
 6442SOL     OW30958   1.883   1.970   3.089 -0.1927  0.0498 -0.6707
 6442SOL    HW130959   1.859   2.054   3.128  0.3862  0.3432 -0.9385
 6442SOL    HW230960   1.840   1.973   3.004 -1.9583 -1.6386  0.1797
 6443SOL     OW30961   4.178   2.880   3.153 -0.2642 -0.1615 -0.0655
 6443SOL    HW130962   4.156   2.891   3.060 -1.0444  1.9770  0.3596
 6443SOL    HW230963   4.274   2.883   3.157 -0.3152  0.4995  0.7842
 6444SOL     OW30964   3.227   0.003   4.406 -0.7216  0.3631  0.2471
 6444SOL    HW130965   3.153   0.060   4.383 -0.5775  1.0601  1.5293
 6444SOL    HW230966   3.186   4.684   4.471  1.3648  1.0201  2.1256
 6445SOL     OW30967   3.992   3.917   9.917  0.2091 -0.4575 -0.1119
 6445SOL    HW130968   3.968   3.827   9.897  2.1364 -1.2886  1.3472
 6445SOL    HW230969   3.947   3.919  10.002  0.2123  0.9841 -0.1487
 6446SOL     OW30970   1.486   4.523  15.952  0.0261 -0.7568 -0.0902
 6446SOL    HW130971   1.450   4.570  16.027  0.2055  0.3730 -0.7023
 6446SOL    HW230972   1.491   4.432  15.982 -0.7732  0.1586  2.8453
 6447SOL     OW30973   0.697   1.355   5.208 -0.3205 -0.4452  0.2588
 6447SOL    HW130974   0.781   1.385   5.242  0.0835 -1.1614 -0.1298
 6447SOL    HW230975   0.719   1.334   5.118  1.6127 -1.9166  1.0919
 6448SOL     OW30976   3.766   2.379   3.271 -0.5036  0.3022  0.1224
 6448SOL    HW130977   3.729   2.443   3.210  1.3701  0.2622 -1.0522
 6448SOL    HW230978   3.758   2.297   3.221 -0.5042  0.2578  0.1953
 6449SOL     OW30979   3.922   0.656   3.054 -0.1271 -0.0476 -0.3617
 6449SOL    HW130980   3.927   0.571   3.011 -0.5837  0.2634 -1.0301
 6449SOL    HW230981   3.995   0.647   3.116 -1.2252 -0.2941  0.8891
 6450SOL     OW30982   1.577   3.426   7.665 -0.4457 -0.6221  0.0600
 6450SOL    HW130983   1.557   3.510   7.625  1.6215 -0.9659 -1.6771
 6450SOL    HW230984   1.494   3.399   7.705 -0.1489 -0.0566  1.0425
 6451SOL     OW30985   0.302   4.179   5.372  0.3687  0.1720 -0.4399
 6451SOL    HW130986   0.294   4.252   5.433  1.8412 -0.4394  0.4870
 6451SOL    HW230987   0.290   4.105   5.431 -0.6758 -1.0950 -2.2660
 6452SOL     OW30988   0.019   2.823  15.845  0.4383  0.1283 -0.4332
 6452SOL    HW130989   4.719   2.754  15.898  1.4480  0.2034  0.4039
 6452SOL    HW230990   4.682   2.867  15.806  1.0291  2.3333  0.8995
 6453SOL     OW30991   1.385   4.721  12.189 -0.4452 -0.1854  0.3332
 6453SOL    HW130992   1.480   4.710  12.180 -0.1944  1.3359  1.2384
 6453SOL    HW230993   1.394   0.007  12.281  0.9689 -2.3366  0.7764
 6454SOL     OW30994   2.565   0.485   8.363  0.2737 -0.0879 -0.3957
 6454SOL    HW130995   2.634   0.550   8.352  0.3852 -0.4996 -2.2872
 6454SOL    HW230996   2.481   0.522   8.337 -0.9162 -0.1911  3.3664
 6455SOL     OW30997   3.433   3.646   1.509 -0.3798  0.5777  0.0966
 6455SOL    HW130998   3.460   3.643   1.601  1.2623  0.5677 -0.3882
 6455SOL    HW230999   3.513   3.678   1.468 -1.0534  4.7413  1.9863
 6456SOL     OW31000   3.214   4.259  12.980 -0.4777 -0.1107  0.1875
 6456SOL    HW131001   3.240   4.338  12.933 -1.3213 -0.3956 -0.7520
 6456SOL    HW231002   3.143   4.289  13.036 -1.9350 -0.0099 -1.7229
 6457SOL     OW31003   1.411   0.882  14.389  0.2471 -0.6132  0.8497
 6457SOL    HW131004   1.500   0.918  14.391  0.7686 -1.8770 -0.0556
 6457SOL    HW231005   1.420   0.822  14.463 -0.4150  0.0217  1.4439
 6458SOL     OW31006   1.032   0.542  15.052 -0.3843 -0.3148 -0.1130
 6458SOL    HW131007   1.028   0.478  15.124  1.0546 -0.0715  0.1847
 6458SOL    HW231008   1.003   0.485  14.981  0.6714  0.3026 -1.0291
 6459SOL     OW31009   4.666   1.913   5.312 -0.0708 -0.0145 -0.0857
 6459SOL    HW131010   4.584   1.927   5.358  0.6645 -0.7666  1.4615
 6459SOL    HW231011   4.677   1.818   5.316 -0.1285  0.0392  1.6807
 6460SOL     OW31012   2.287   0.322   9.352 -0.7110 -0.2212  0.3960
 6460SOL    HW131013   2.242   0.274   9.421  0.4887  1.7310  2.5452
 6460SOL    HW231014   2.223   0.385   9.319 -2.6443 -0.5231  3.5648
 6461SOL     OW31015   0.589   1.005   7.399 -0.0880 -0.0557 -1.0030
 6461SOL    HW131016   0.662   1.066   7.397  0.8244 -1.0582  1.7349
 6461SOL    HW231017   0.624   0.927   7.356  1.6076 -1.0369  2.1208
 6462SOL     OW31018   4.385   1.003   4.914 -0.1352 -0.1398  0.0793
 6462SOL    HW131019   4.350   0.944   4.847 -0.8168  2.7097 -2.0540
 6462SOL    HW231020   4.357   1.084   4.871 -0.0104  0.5729  1.3672
 6463SOL     OW31021   2.833   4.524  17.470 -0.0562  0.3716 -0.2190
 6463SOL    HW131022   2.829   4.472  17.550 -1.6449  1.0481  0.1322
 6463SOL    HW231023   2.888   4.600  17.487  0.4249 -0.3973  1.6090
 6464SOL     OW31024   4.017   2.930   4.993  0.4345  0.3374  0.1827
 6464SOL    HW131025   4.027   2.906   4.901 -0.3188  1.6187 -0.2406
 6464SOL    HW231026   3.923   2.921   5.007  0.2335  1.5146 -0.3929
 6465SOL     OW31027   4.542   2.618   1.238 -0.0074 -0.0064 -0.3929
 6465SOL    HW131028   4.609   2.558   1.206  0.7293  0.9054 -0.5724
 6465SOL    HW231029   4.502   2.567   1.308 -1.2426  3.8629  1.7837
 6466SOL     OW31030   3.630   4.376   3.425 -0.0100 -0.0102  0.4351
 6466SOL    HW131031   3.698   4.356   3.360 -0.8065  3.0869 -1.3563
 6466SOL    HW231032   3.684   4.385   3.503 -3.0101  1.6636  2.3209
 6467SOL     OW31033   0.171   4.539   2.162 -0.4888 -0.5252  0.0879
 6467SOL    HW131034   0.136   4.529   2.073 -2.4659  1.9641  0.5930
 6467SOL    HW231035   0.165   4.633   2.172  3.8581 -0.2378 -0.0456
 6468SOL     OW31036   1.769   1.263  15.684 -0.0392  0.3595  0.0324
 6468SOL    HW131037   1.773   1.180  15.636 -0.6349 -0.2518  1.0467
 6468SOL    HW231038   1.861   1.276  15.708 -0.5828  1.9650  1.2367
 6469SOL     OW31039   4.578   2.896   8.298 -0.5769  0.7826 -0.5886
 6469SOL    HW131040   4.552   2.813   8.259 -0.0494 -1.1221  3.1448
 6469SOL    HW231041   4.543   2.887   8.387  1.2721 -2.4938 -0.2197
 6470SOL     OW31042   3.439   0.331   7.950  0.3508  0.0766  0.2270
 6470SOL    HW131043   3.526   0.350   7.984  0.3278  2.3379 -0.9953
 6470SOL    HW231044   3.407   0.413   7.988  0.5093 -0.2228  1.0263
 6471SOL     OW31045   1.677   4.044   3.023  0.5269 -0.2554  0.0354
 6471SOL    HW131046   1.612   4.098   3.069  1.5045  0.7724  0.1877
 6471SOL    HW231047   1.615   4.006   2.960 -0.9482  1.8906  0.1738
 6472SOL     OW31048   2.176   2.029  14.192  0.4328 -0.4978  0.2792
 6472SOL    HW131049   2.197   1.940  14.218 -0.8670 -1.2237 -1.1661
 6472SOL    HW231050   2.153   2.073  14.274  1.0814  0.6661 -0.1590
 6473SOL     OW31051   0.783   0.528   3.608  0.5909 -0.8328 -0.0756
 6473SOL    HW131052   0.741   0.491   3.531 -0.8918 -1.8201  1.2052
 6473SOL    HW231053   0.843   0.455   3.627  1.3534 -0.1861 -0.0000
 6474SOL     OW31054   1.799   0.748   8.805  0.3749  0.0805 -0.6556
 6474SOL    HW131055   1.826   0.659   8.784 -1.8433 -0.4787 -1.1864
 6474SOL    HW231056   1.713   0.727   8.842 -0.0911  2.4785 -0.3325
 6475SOL     OW31057   1.088   0.761   7.298  0.3296 -0.5464 -0.1460
 6475SOL    HW131058   1.039   0.732   7.375  0.2577  0.1695  0.0835
 6475SOL    HW231059   1.148   0.687   7.290  0.3006 -0.3031 -2.5745
 6476SOL     OW31060   2.963   1.269   8.200 -0.3601 -0.6612 -0.0831
 6476SOL    HW131061   2.894   1.292   8.138 -0.2788 -0.3113 -0.0423
 6476SOL    HW231062   3.040   1.241   8.151  0.8107 -0.8880  1.9145
 6477SOL     OW31063   1.772   0.712   6.206  0.6067 -0.4148 -0.6257
 6477SOL    HW131064   1.808   0.728   6.294 -2.1235  1.9117  0.0764
 6477SOL    HW231065   1.776   0.797   6.162 -1.1244 -0.7684 -1.4404
 6478SOL     OW31066   0.766   2.396   5.296  0.6087 -0.3902 -0.3776
 6478SOL    HW131067   0.791   2.355   5.213 -0.6452  0.5191 -1.1978
 6478SOL    HW231068   0.734   2.482   5.269  1.3809  0.3391  0.9905
 6479SOL     OW31069   3.996   0.164   8.692 -0.3207  0.3589  0.1392
 6479SOL    HW131070   3.909   0.140   8.724 -0.8864  0.0734 -1.6316
 6479SOL    HW231071   3.991   0.098   8.624  0.7625 -1.7329  2.0802
 6480SOL     OW31072   0.690   3.490   5.797  0.2880  0.2745  0.5226
 6480SOL    HW131073   0.786   3.496   5.797  0.3012  0.0936  0.1076
 6480SOL    HW231074   0.683   3.426   5.726  1.0285  2.1966 -1.2890
 6481SOL     OW31075   4.524   1.825  16.815 -0.2834  0.4685 -0.7639
 6481SOL    HW131076   4.463   1.771  16.866  0.6530 -0.4065 -0.5651
 6481SOL    HW231077   4.544   1.767  16.741 -1.7786  0.8485 -1.4690
 6482SOL     OW31078   1.106   0.507  13.231 -0.1384  0.3404  0.0656
 6482SOL    HW131079   1.153   0.424  13.216 -0.1370  0.9266 -2.9572
 6482SOL    HW231080   1.023   0.467  13.256  0.9392 -1.1302  1.3570
 6483SOL     OW31081   3.150   3.730  10.868  0.1991 -0.3077  0.1374
 6483SOL    HW131082   3.244   3.725  10.884  0.3826 -0.0799 -0.8740
 6483SOL    HW231083   3.117   3.698  10.952  1.6708 -3.8869 -0.6344
 6484SOL     OW31084   1.856   2.331   8.591  0.6520 -0.1616  0.7666
 6484SOL    HW131085   1.821   2.344   8.679 -1.4555  2.4505 -0.4578
 6484SOL    HW231086   1.911   2.410   8.592  0.1577  0.1856  0.5262
 6485SOL     OW31087   3.901   3.965  15.059  0.1864 -0.1165 -0.2652
 6485SOL    HW131088   3.942   4.046  15.029  2.1448 -0.8680  0.3720
 6485SOL    HW231089   3.854   3.948  14.978 -0.3902  0.9421 -0.1412
 6486SOL     OW31090   2.986   3.896  11.677  0.7187 -0.1025  0.4779
 6486SOL    HW131091   2.963   3.883  11.585 -0.5469 -1.2884  0.9639
 6486SOL    HW231092   3.057   3.960  11.681  1.0324 -0.4965  1.3271
 6487SOL     OW31093   3.522   1.236   6.139  0.1476 -0.2965  0.4849
 6487SOL    HW131094   3.505   1.240   6.045  0.9397 -2.4213  0.2489
 6487SOL    HW231095   3.599   1.290   6.154  0.6688 -0.9429  0.1791
 6488SOL     OW31096   4.514   1.796   2.799  0.0713 -0.0344  0.4784
 6488SOL    HW131097   4.518   1.891   2.793 -2.8263 -0.0889 -2.7336
 6488SOL    HW231098   4.501   1.768   2.709 -1.8828  1.8429  0.1625
 6489SOL     OW31099   3.340   0.842   0.441 -0.3225  0.0389 -0.0173
 6489SOL    HW131100   3.284   0.765   0.449 -1.3447  0.7198 -0.6586
 6489SOL    HW231101   3.321   0.874   0.353  0.5700 -0.2453 -0.3180
 6490SOL     OW31102   1.549   3.720   1.893  0.2499  0.0318  0.0472
 6490SOL    HW131103   1.510   3.651   1.839  0.6010 -0.7742  0.7998
 6490SOL    HW231104   1.643   3.698   1.886 -0.5499 -2.7895 -2.1435
 6491SOL     OW31105   2.109   0.525  11.247 -0.0515  0.3460  0.1703
 6491SOL    HW131106   2.115   0.486  11.159 -1.4074  1.1974 -0.2925
 6491SOL    HW231107   2.015   0.514  11.257 -0.2343  0.4269 -1.3739
 6492SOL     OW31108   0.550   4.578   6.916 -0.0836  0.1386  0.1045
 6492SOL    HW131109   0.469   4.529   6.934  0.5539 -0.0466  2.3866
 6492SOL    HW231110   0.612   4.507   6.900 -0.7045 -1.1546  3.4994
 6493SOL     OW31111   2.835   1.928   7.155  0.4313 -0.1507 -0.6047
 6493SOL    HW131112   2.786   1.972   7.086 -0.3000 -1.8430 -1.1499
 6493SOL    HW231113   2.906   1.892   7.102 -0.9336 -2.3248 -0.9388
 6494SOL     OW31114   2.995   0.951   4.713  0.3720  0.3558  0.1151
 6494SOL    HW131115   2.977   0.930   4.622  2.8530 -0.2281 -0.2392
 6494SOL    HW231116   3.070   0.892   4.723  1.4261  1.5472 -0.7640
 6495SOL     OW31117   2.043   2.742   4.710  0.1395 -0.2505 -0.4506
 6495SOL    HW131118   1.971   2.702   4.662 -0.8732 -0.0450  0.8809
 6495SOL    HW231119   2.121   2.688   4.697 -0.3661 -0.8665 -0.9217
 6496SOL     OW31120   2.606   2.125   1.455 -0.1905 -0.2522  0.2897
 6496SOL    HW131121   2.594   2.131   1.550  0.1170  1.4161  0.2223
 6496SOL    HW231122   2.670   2.054   1.451 -0.0336 -0.1938  1.5736
 6497SOL     OW31123   0.102   3.504   7.886 -0.1457 -0.1569 -0.1303
 6497SOL    HW131124   0.035   3.557   7.844  1.2328  1.9416  0.3295
 6497SOL    HW231125   0.058   3.421   7.906 -0.8961  0.2397 -0.1599
 6498SOL     OW31126   0.247   3.561   2.119 -0.2140 -0.1051  0.7655
 6498SOL    HW131127   0.302   3.539   2.044 -1.1810 -1.3196  0.4187
 6498SOL    HW231128   0.188   3.485   2.124  1.9398 -1.8063  0.4495
 6499SOL     OW31129   3.444   2.817   6.298 -0.2182 -0.4027  0.0902
 6499SOL    HW131130   3.512   2.795   6.234 -0.2518  0.4450 -0.2345
 6499SOL    HW231131   3.393   2.865   6.233 -1.7775  0.8043  2.1920
 6500SOL     OW31132   0.547   4.066   8.048  0.1313  0.7850 -0.4276
 6500SOL    HW131133   0.568   4.026   8.133  0.3598  0.8593 -0.4483
 6500SOL    HW231134   0.594   4.003   7.994 -0.8387 -0.3478  0.0431
 6501SOL     OW31135   0.794   3.311   6.128 -0.2911  0.6280 -0.2355
 6501SOL    HW131136   0.778   3.294   6.035  3.5620 -1.7163 -0.4633
 6501SOL    HW231137   0.833   3.398   6.125  1.0556  0.0936  1.8321
 6502SOL     OW31138   1.042   3.057   5.710  0.3719 -0.2021  0.6946
 6502SOL    HW131139   0.995   3.010   5.641 -0.3291 -0.7256  1.5209
 6502SOL    HW231140   1.099   3.114   5.659  2.9781 -3.1032  0.3186
 6503SOL     OW31141   3.136   0.187   5.707  0.1752  0.3370 -0.0567
 6503SOL    HW131142   3.048   0.197   5.672  0.1691 -1.1331 -0.4832
 6503SOL    HW231143   3.182   0.267   5.682  1.0166  0.2364  1.1696
 6504SOL     OW31144   0.702   0.680   6.423 -0.0591 -0.0877 -0.4688
 6504SOL    HW131145   0.678   0.750   6.363  1.3318 -0.2856 -1.2712
 6504SOL    HW231146   0.618   0.637   6.439 -0.3645  1.3201  1.7280
 6505SOL     OW31147   3.778   1.862   1.346  0.2962  0.1140  0.0441
 6505SOL    HW131148   3.802   1.948   1.310  0.0608  0.3422  0.4318
 6505SOL    HW231149   3.777   1.813   1.264 -0.7850  0.4812 -0.1648
 6506SOL     OW31150   1.474   2.888   7.895  0.0416 -0.1820  0.5240
 6506SOL    HW131151   1.566   2.896   7.921 -0.1991  0.7848  1.0758
 6506SOL    HW231152   1.478   2.935   7.811  1.3196 -1.3734 -0.0762
 6507SOL     OW31153   4.066   3.092   6.328  0.3173 -0.5876 -0.2800
 6507SOL    HW131154   3.991   3.051   6.283  0.6575 -0.2422 -1.1710
 6507SOL    HW231155   4.021   3.159   6.379  0.2344 -0.0889 -1.0009
 6508SOL     OW31156   0.541   2.207   8.282 -0.0586 -0.3010 -0.0924
 6508SOL    HW131157   0.451   2.184   8.305 -0.0196 -1.8343 -1.4323
 6508SOL    HW231158   0.582   2.121   8.289 -0.2572 -0.3024  1.0511
 6509SOL     OW31159   2.189   0.493   9.006 -0.0493  0.2882 -0.5575
 6509SOL    HW131160   2.246   0.568   8.987 -1.2868  0.8850 -1.9492
 6509SOL    HW231161   2.187   0.510   9.100  1.1557 -1.2094 -0.2663
 6510SOL     OW31162   2.119   2.807   2.282 -0.2883  0.4526  0.4910
 6510SOL    HW131163   2.141   2.877   2.344  1.5819  0.5540 -0.2777
 6510SOL    HW231164   2.037   2.775   2.319 -1.5627  0.5843 -2.2130
 6511SOL     OW31165   1.546   3.122   5.728  0.3285 -0.0852  0.1968
 6511SOL    HW131166   1.510   3.137   5.641  1.5243 -2.9742 -0.7933
 6511SOL    HW231167   1.640   3.136   5.717  0.4205 -0.8307  0.0984
 6512SOL     OW31168   1.938   0.954   4.249  1.1204 -0.6161 -0.0147
 6512SOL    HW131169   1.994   1.011   4.301  1.8574 -2.2829  1.0005
 6512SOL    HW231170   2.002   0.887   4.227 -0.5154 -2.4620  0.8565
 6513SOL     OW31171   3.710   3.148  14.414 -0.6983 -0.3471 -0.0257
 6513SOL    HW131172   3.780   3.113  14.359  0.3433  1.0218  0.4583
 6513SOL    HW231173   3.639   3.148  14.350  0.4806 -3.1350 -1.3265
 6514SOL     OW31174   1.542   0.923   7.150 -0.4232  0.1374  0.3686
 6514SOL    HW131175   1.605   0.970   7.095  1.2896 -1.4194  0.9880
 6514SOL    HW231176   1.470   0.986   7.148  1.4850  2.3021  0.4203
 6515SOL     OW31177   1.565   3.950   8.921 -0.9701  0.1119  0.3179
 6515SOL    HW131178   1.656   3.919   8.920 -1.1500 -0.5119  2.5315
 6515SOL    HW231179   1.504   3.879   8.944 -2.0908  1.0988  0.3974
 6516SOL     OW31180   0.548   2.768  15.820  0.3557  0.2360  0.8325
 6516SOL    HW131181   0.517   2.678  15.810 -1.5562  0.7270  2.2618
 6516SOL    HW231182   0.607   2.757  15.895  2.4215 -1.3795 -1.0311
 6517SOL     OW31183   4.497   0.106   7.280  0.0907  0.9711  0.0266
 6517SOL    HW131184   4.487   0.142   7.192 -0.2013 -0.2368 -0.4420
 6517SOL    HW231185   4.449   0.023   7.274  0.1185  1.0186 -0.7481
 6518SOL     OW31186   2.237   1.201   5.849  0.4807 -0.1123  0.0041
 6518SOL    HW131187   2.155   1.170   5.811  0.8300 -1.0909  0.0656
 6518SOL    HW231188   2.277   1.226   5.766 -1.2191 -1.4618 -1.2303
 6519SOL     OW31189   0.761   0.153   1.672  0.1012  0.4777 -0.2972
 6519SOL    HW131190   0.722   0.237   1.649  0.2865  0.0774 -2.1327
 6519SOL    HW231191   0.806   0.173   1.754 -1.6964  1.5532  0.4227
 6520SOL     OW31192   2.288   4.125  14.633 -0.2311  0.1186 -0.3900
 6520SOL    HW131193   2.333   4.183  14.572 -1.7442 -0.2690 -1.8493
 6520SOL    HW231194   2.260   4.052  14.578 -0.3261 -2.0168  2.5006
 6521SOL     OW31195   4.685   2.936   4.660  0.2004 -0.1436 -0.2071
 6521SOL    HW131196   4.596   2.925   4.627  0.2111  0.6614 -0.5001
 6521SOL    HW231197   4.728   2.889   4.589  0.9406 -0.0538  0.1841
 6522SOL     OW31198   1.722   1.380   3.032 -0.1910  0.3184  0.4608
 6522SOL    HW131199   1.798   1.376   2.975  0.4459 -0.5616  1.3714
 6522SOL    HW231200   1.746   1.440   3.102 -1.5130  1.3891 -0.0082
 6523SOL     OW31201   3.455   4.352   2.474 -0.2570  0.0194  0.5932
 6523SOL    HW131202   3.546   4.368   2.450 -0.5624  0.1013 -0.4823
 6523SOL    HW231203   3.436   4.306   2.392  0.9875  0.9907 -0.2294
 6524SOL     OW31204   4.123   4.133   5.066  0.1644  0.2288 -0.1637
 6524SOL    HW131205   4.078   4.103   5.145  0.6728  0.3146  0.1580
 6524SOL    HW231206   4.057   4.187   5.024 -0.8776 -1.4516 -0.6784
 6525SOL     OW31207   4.447   2.491  14.930 -0.0660  0.1649  0.0907
 6525SOL    HW131208   4.490   2.571  14.960 -1.0153  0.7853 -0.1681
 6525SOL    HW231209   4.417   2.448  15.010  1.2658 -1.5879 -0.3585
 6526SOL     OW31210   2.063   4.580  13.289  0.1201  0.2740 -0.3512
 6526SOL    HW131211   2.125   4.560  13.360  0.0989 -0.6600 -0.5891
 6526SOL    HW231212   2.005   4.644  13.329 -0.0214  0.4821 -0.8985
 6527SOL     OW31213   4.194   4.438  14.964  0.0418 -0.7711 -0.2053
 6527SOL    HW131214   4.175   4.504  14.898  1.7757  1.7397  1.8201
 6527SOL    HW231215   4.288   4.442  14.984  0.1864  1.0942 -1.3131
 6528SOL     OW31216   0.470   1.016  14.987  0.7124  0.0406 -0.3540
 6528SOL    HW131217   0.459   1.046  14.897  2.4060  0.2851 -0.4736
 6528SOL    HW231218   0.563   0.998  14.977  0.5470 -0.2743 -1.3282
 6529SOL     OW31219   3.070   0.241  14.132 -0.2656 -0.3322  0.1488
 6529SOL    HW131220   3.026   0.175  14.078  1.0686  1.1518 -2.7822
 6529SOL    HW231221   3.005   0.277  14.192 -2.8671  0.2484 -3.0316
 6530SOL     OW31222   3.924   3.823  15.265  0.3750 -0.2949 -0.2387
 6530SOL    HW131223   3.902   3.749  15.209  1.8536 -1.2614  0.4674
 6530SOL    HW231224   3.932   3.887  15.194 -1.7305  1.3273  0.9485
 6531SOL     OW31225   3.865   0.084  14.403  0.1115 -0.2520  0.7543
 6531SOL    HW131226   3.801   0.026  14.363  1.2480 -1.2133  0.3333
 6531SOL    HW231227   3.837   0.174  14.387 -0.4606 -0.5588  0.0650
 6532SOL     OW31228   2.893   4.630   7.544 -0.2900  0.0436 -0.2471
 6532SOL    HW131229   2.884   4.547   7.591 -1.3841 -0.1820 -0.8615
 6532SOL    HW231230   2.842   4.617   7.464  0.2119  2.3706 -0.9277
 6533SOL     OW31231   2.958   0.533   6.148 -0.1451 -0.3023 -0.1416
 6533SOL    HW131232   2.987   0.624   6.141 -0.1614 -0.0391  2.9351
 6533SOL    HW231233   2.876   0.545   6.196  0.6335  2.3255  0.5835
 6534SOL     OW31234   1.691   2.487  11.347 -0.2485  0.3423 -0.0293
 6534SOL    HW131235   1.745   2.419  11.306 -1.3248  0.6832 -1.9984
 6534SOL    HW231236   1.606   2.442  11.349 -1.9818  3.7268  1.2734
 6535SOL     OW31237   2.009   2.176   4.978  0.4826  0.7623 -0.1409
 6535SOL    HW131238   2.044   2.135   4.899 -0.4791 -0.9632  0.3074
 6535SOL    HW231239   1.916   2.174   4.953  0.8514  0.7123 -1.5249
 6536SOL     OW31240   4.654   3.802   9.748 -0.0314  0.3038  0.4929
 6536SOL    HW131241   4.574   3.749   9.742 -1.6671  2.9163 -0.8509
 6536SOL    HW231242   4.609   3.883   9.773  2.0926  1.0577  1.8473
 6537SOL     OW31243   3.617   4.569   8.227 -0.4900  0.1908  0.2171
 6537SOL    HW131244   3.578   4.655   8.211  0.4065  0.5399 -0.0663
 6537SOL    HW231245   3.629   4.580   8.322  0.3895 -1.9349  0.3643
 6538SOL     OW31246   4.672   2.319  15.881 -0.2216 -0.2870  0.0970
 6538SOL    HW131247   4.704   2.243  15.832 -1.9428 -1.1227  0.2687
 6538SOL    HW231248   4.642   2.282  15.964  0.3769 -1.4071 -0.1838
 6539SOL     OW31249   0.319   0.512  14.795 -0.5351  0.0942 -0.1644
 6539SOL    HW131250   0.263   0.436  14.779  0.0865 -0.5534  0.7710
 6539SOL    HW231251   0.362   0.525  14.711  0.5016 -0.1173  0.3313
 6540SOL     OW31252   3.785   4.617   1.182 -0.9315 -0.3562 -0.1021
 6540SOL    HW131253   3.810   4.636   1.092  0.5431 -2.8681 -0.1967
 6540SOL    HW231254   3.832   4.679   1.238  1.1923 -2.0734 -0.0323
 6541SOL     OW31255   3.847   2.928  14.283  0.1969 -0.5253  0.1864
 6541SOL    HW131256   3.913   2.861  14.262 -0.9500 -1.6115  0.0052
 6541SOL    HW231257   3.764   2.880  14.283  0.3970 -0.8694  0.6087
 6542SOL     OW31258   0.741   2.962   4.518 -0.0981 -0.3136 -0.0367
 6542SOL    HW131259   0.656   2.920   4.531 -0.3062  0.5647  1.5092
 6542SOL    HW231260   0.718   3.053   4.538 -2.4203 -0.9055  0.0364
 6543SOL     OW31261   3.523   2.280   7.419  0.0497 -0.4081  0.2484
 6543SOL    HW131262   3.519   2.194   7.376  0.2562 -0.9259  1.2736
 6543SOL    HW231263   3.616   2.294   7.405  0.0688 -0.4767  0.3038
 6544SOL     OW31264   0.957   0.593   5.854  0.7692  0.0567 -0.0750
 6544SOL    HW131265   0.935   0.597   5.761 -1.6669  2.4384  0.5919
 6544SOL    HW231266   0.908   0.511   5.862  3.5635 -1.5825 -0.1267
 6545SOL     OW31267   0.850   4.486   4.608 -0.2342  0.5206  0.2347
 6545SOL    HW131268   0.762   4.516   4.629 -1.0921 -2.4455  0.8802
 6545SOL    HW231269   0.850   4.400   4.652 -1.9474  0.9345  1.0444
 6546SOL     OW31270   1.533   2.947   2.643 -0.1911 -0.1908  0.0257
 6546SOL    HW131271   1.621   2.912   2.627 -0.7299 -0.5943 -2.0996
 6546SOL    HW231272   1.481   2.911   2.571  2.9685  0.3839 -2.5930
 6547SOL     OW31273   0.190   1.522   8.987 -0.1324  0.1394  0.1888
 6547SOL    HW131274   0.253   1.466   8.943  2.8858  0.9436  3.5544
 6547SOL    HW231275   0.245   1.594   9.017 -1.5646  1.3398 -0.0054
 6548SOL     OW31276   1.783   3.788   9.422  0.1499 -0.1460 -0.2248
 6548SOL    HW131277   1.841   3.767   9.495 -0.5183  1.4017  0.7593
 6548SOL    HW231278   1.763   3.708   9.374 -0.9838 -0.9832  1.6444
 6549SOL     OW31279   1.216   3.041   2.516  0.1635  0.2144  0.2097
 6549SOL    HW131280   1.140   3.093   2.542  0.0072  0.1939 -0.2078
 6549SOL    HW231281   1.174   2.956   2.534  0.2741 -0.1768 -1.4022
 6550SOL     OW31282   1.271   3.819  12.507  0.2174  0.4277  0.3055
 6550SOL    HW131283   1.292   3.754  12.439 -0.8054  0.4834 -0.0561
 6550SOL    HW231284   1.320   3.790  12.584 -0.9069 -3.4451 -0.4356
 6551SOL     OW31285   2.658   0.237   8.354 -0.5420 -0.0566  0.2741
 6551SOL    HW131286   2.597   0.309   8.371 -0.5498 -0.0039  0.0119
 6551SOL    HW231287   2.619   0.164   8.403 -1.2475  0.5270  0.5832
 6552SOL     OW31288   4.534   3.339   6.897  0.1204  0.5145  0.2745
 6552SOL    HW131289   4.496   3.252   6.881 -1.0805  0.5652  2.8481
 6552SOL    HW231290   4.485   3.346   6.979 -1.2659  2.1524 -0.6930
 6553SOL     OW31291   4.539   4.096   8.812  0.4686 -0.5812  0.5032
 6553SOL    HW131292   4.482   4.151   8.866 -0.4854 -0.7356 -0.3507
 6553SOL    HW231293   4.554   4.155   8.737 -1.5018  1.8946  2.0744
 6554SOL     OW31294   4.580   4.131   2.239 -0.0741 -0.1946  0.2620
 6554SOL    HW131295   4.532   4.080   2.174 -0.6344  1.5231 -0.6718
 6554SOL    HW231296   4.663   4.084   2.235  0.6311  1.2246 -1.8438
 6555SOL     OW31297   2.625   1.122  13.829  0.1794 -0.4735 -0.2838
 6555SOL    HW131298   2.710   1.094  13.794  0.5914  0.0946  0.2470
 6555SOL    HW231299   2.645   1.207  13.870  0.8331 -0.6844 -0.1722
 6556SOL     OW31300   2.330   1.142  14.947 -0.7082 -0.6833  0.3249
 6556SOL    HW131301   2.320   1.056  14.906  0.4397  0.8220 -3.1241
 6556SOL    HW231302   2.298   1.202  14.880  0.3058 -2.7998 -2.0392
 6557SOL     OW31303   4.172   0.281  13.599 -0.5821  0.2654 -0.1530
 6557SOL    HW131304   4.193   0.237  13.681  1.6325  3.1847  0.8133
 6557SOL    HW231305   4.214   0.214  13.544 -0.9392 -0.0417 -0.0561
 6558SOL     OW31306   2.249   0.299   8.418 -0.0426  0.0082  0.0520
 6558SOL    HW131307   2.290   0.356   8.353  1.2531 -0.7866  0.1877
 6558SOL    HW231308   2.302   0.337   8.487 -0.5290 -0.8663  0.9029
 6559SOL     OW31309   1.257   2.605   1.920 -0.1151 -0.4661  0.1141
 6559SOL    HW131310   1.348   2.634   1.914 -1.2089  3.1373  1.0811
 6559SOL    HW231311   1.258   2.533   1.856  0.0440  0.2174 -0.6547
 6560SOL     OW31312   0.412   2.925   6.247 -0.1755  0.0734 -0.1437
 6560SOL    HW131313   0.410   2.837   6.283 -0.4663  0.7919  1.6331
 6560SOL    HW231314   0.348   2.964   6.306 -0.1254  1.2212 -0.8471
 6561SOL     OW31315   3.907   1.409   7.030  0.0387 -0.0050 -0.1052
 6561SOL    HW131316   3.946   1.485   6.986  0.4940  0.9172  1.8694
 6561SOL    HW231317   3.885   1.347   6.961  0.9625 -2.8443  2.1434
 6562SOL     OW31318   2.646   1.898   3.217 -0.1947 -0.2731  0.3365
 6562SOL    HW131319   2.625   1.912   3.310  2.1455 -2.5564  1.2203
 6562SOL    HW231320   2.569   1.919   3.164  0.0384  0.1883  0.1831
 6563SOL     OW31321   0.978   2.948   8.404  0.2559 -0.1368 -0.5048
 6563SOL    HW131322   1.004   2.865   8.364 -0.2690  0.2510 -1.6355
 6563SOL    HW231323   1.058   3.002   8.400  0.9329 -1.0842  0.2182
 6564SOL     OW31324   0.391   3.425   8.256  0.2009  0.2718 -0.0870
 6564SOL    HW131325   0.315   3.484   8.262 -0.0103  0.0746 -0.8781
 6564SOL    HW231326   0.378   3.393   8.167 -3.5240 -3.4480  1.7967
 6565SOL     OW31327   3.784   3.089   8.487  0.0471  0.1577 -0.0533
 6565SOL    HW131328   3.775   3.177   8.449  0.7049 -0.1084 -0.8363
 6565SOL    HW231329   3.835   3.112   8.564 -0.1826 -1.2268  0.5084
 6566SOL     OW31330   0.646   2.572   7.992  0.3892  0.0049  0.4221
 6566SOL    HW131331   0.685   2.535   8.072  1.6715  0.1079 -0.1429
 6566SOL    HW231332   0.631   2.661   8.024  1.1391  0.1847  0.2829
 6567SOL     OW31333   1.090   4.447   4.883 -0.2389  0.1627  0.3780
 6567SOL    HW131334   1.052   4.399   4.810 -1.1350  1.3429  0.0672
 6567SOL    HW231335   1.184   4.441   4.869 -0.2957  0.9440 -0.3436
 6568SOL     OW31336   1.529   0.840  14.826  0.5696 -0.0092 -0.2626
 6568SOL    HW131337   1.504   0.778  14.757  3.3569 -0.0925 -1.1861
 6568SOL    HW231338   1.610   0.866  14.782  1.6101 -2.7722  0.0167
 6569SOL     OW31339   1.065   3.032   4.341  0.4829  0.2125 -0.0193
 6569SOL    HW131340   1.013   3.112   4.345 -0.1375 -0.1024 -1.9263
 6569SOL    HW231341   1.035   3.000   4.426  1.0898 -2.2446 -0.7443
 6570SOL     OW31342   2.704   0.963   8.802 -0.3584  0.2170  0.5180
 6570SOL    HW131343   2.648   0.891   8.774 -0.2059  0.7589 -1.1592
 6570SOL    HW231344   2.641   1.036   8.802  0.4484  0.9099 -0.8146
 6571SOL     OW31345   1.747   0.199   0.289  0.7449 -0.2875 -0.0215
 6571SOL    HW131346   1.660   0.182   0.253  0.0707 -1.0172  1.9914
 6571SOL    HW231347   1.726   0.290   0.310  0.5828 -0.5205  0.8112
 6572SOL     OW31348   1.357   4.319   5.872  0.4071 -0.2284  0.0764
 6572SOL    HW131349   1.427   4.377   5.843  0.8304 -1.4991 -1.4145
 6572SOL    HW231350   1.400   4.235   5.859 -1.5980 -1.3951  1.0125
 6573SOL     OW31351   0.042   1.156   1.348  0.5316 -0.2965  0.3827
 6573SOL    HW131352   0.079   1.198   1.270 -0.4113 -0.4824 -0.1710
 6573SOL    HW231353   0.074   1.213   1.418  1.3739 -0.5612  0.2185
 6574SOL     OW31354   1.077   4.642   3.792  0.3851 -0.2695 -0.2457
 6574SOL    HW131355   0.989   4.678   3.792  0.1614 -0.7986 -0.6471
 6574SOL    HW231356   1.103   4.671   3.879 -1.0721  1.7553 -0.5044
 6575SOL     OW31357   1.491   0.243   4.571  0.3123 -0.4684 -0.1186
 6575SOL    HW131358   1.427   0.291   4.518 -1.5435 -3.0383 -0.1553
 6575SOL    HW231359   1.511   0.173   4.509 -0.2666  0.1287 -0.9749
 6576SOL     OW31360   2.357   3.854  16.578  0.1184  0.0862  0.1700
 6576SOL    HW131361   2.408   3.884  16.502  0.0439  0.2384  0.1797
 6576SOL    HW231362   2.271   3.874  16.543  0.7750 -0.3105 -1.6857
 6577SOL     OW31363   1.471   3.772   1.047 -0.6839 -0.8460  0.2245
 6577SOL    HW131364   1.480   3.688   1.092 -0.4270 -0.9838 -0.0840
 6577SOL    HW231365   1.418   3.820   1.111 -1.2844 -1.8218  0.4568
 6578SOL     OW31366   1.631   0.425  17.004 -0.6045  0.4209  0.2408
 6578SOL    HW131367   1.695   0.478  17.053  1.8196  0.1605 -2.6679
 6578SOL    HW231368   1.603   0.484  16.934  0.6456 -1.5446 -1.8773
 6579SOL     OW31369   0.018   0.133   2.966 -0.2477  0.6981 -0.6734
 6579SOL    HW131370   4.710   0.080   3.029  1.9905  0.5599  0.8774
 6579SOL    HW231371   4.685   0.195   2.955 -0.7852  0.3479  0.9420
 6580SOL     OW31372   0.878   1.565  17.466  0.4271  0.1101  0.2852
 6580SOL    HW131373   0.823   1.501  17.421 -1.1800  1.3973  0.4339
 6580SOL    HW231374   0.852   1.642  17.415  0.8310  0.5029  0.6749
 6581SOL     OW31375   4.033   3.071   1.112 -0.6381  0.3351 -0.8379
 6581SOL    HW131376   4.123   3.044   1.097 -1.2153 -2.0563  0.0542
 6581SOL    HW231377   4.004   3.052   1.023 -1.2169 -2.6467 -0.0025
 6582SOL     OW31378   0.189   1.497   5.892  0.1419  0.1112  0.3685
 6582SOL    HW131379   0.175   1.422   5.951  1.1299 -0.9956 -0.7943
 6582SOL    HW231380   0.154   1.571   5.941  1.9695  0.8935  0.4943
 6583SOL     OW31381   1.834   2.150   1.787 -0.0507 -0.1546 -0.0714
 6583SOL    HW131382   1.896   2.164   1.716 -0.0273 -2.7379 -0.5549
 6583SOL    HW231383   1.826   2.238   1.825 -1.9899 -0.1289 -0.5354
 6584SOL     OW31384   0.596   0.062  15.343  0.4015  0.3876  0.1605
 6584SOL    HW131385   0.618   0.125  15.274 -0.7508  0.5425 -0.0615
 6584SOL    HW231386   0.534   0.120  15.387 -0.4418  0.6504 -1.3866
 6585SOL     OW31387   2.930   0.570   7.073  0.2054  0.4233  0.0887
 6585SOL    HW131388   2.908   0.526   7.156 -0.0307  0.5375  0.0885
 6585SOL    HW231389   2.861   0.637   7.071  0.2153  0.3384 -2.3937
 6586SOL     OW31390   1.517   0.615  16.789 -0.6768 -0.0955 -0.3266
 6586SOL    HW131391   1.570   0.614  16.709 -1.0470  2.1362 -0.6080
 6586SOL    HW231392   1.485   0.705  16.792 -1.6527 -0.4684  0.2652
 6587SOL     OW31393   3.352   1.477  14.930  0.1343  0.1643  0.0825
 6587SOL    HW131394   3.408   1.512  15.000 -1.5963  1.5621  0.7667
 6587SOL    HW231395   3.396   1.506  14.850 -0.5229  2.3727  0.5390
 6588SOL     OW31396   4.475   3.075   6.889 -0.1452 -0.2965  0.3962
 6588SOL    HW131397   4.492   3.055   6.796 -0.4731 -0.6370  0.4084
 6588SOL    HW231398   4.556   3.047   6.932  0.4325 -0.0073 -0.4999
 6589SOL     OW31399   0.471   3.346   7.691  0.0637  0.2052  0.0385
 6589SOL    HW131400   0.375   3.344   7.687  0.1499 -1.8203 -1.3289
 6589SOL    HW231401   0.484   3.297   7.772 -1.4476 -0.1965  0.0414
 6590SOL     OW31402   1.559   0.679   3.564 -0.0195  0.2902 -0.1887
 6590SOL    HW131403   1.526   0.616   3.628 -1.7528 -0.5074 -1.8620
 6590SOL    HW231404   1.636   0.697   3.617  1.4676 -1.4787 -1.7884
 6591SOL     OW31405   3.106   3.424   5.737 -0.0690 -0.2608  0.1784
 6591SOL    HW131406   3.023   3.416   5.785  1.1433 -1.0286  2.1330
 6591SOL    HW231407   3.159   3.456   5.810  0.6001  0.0012 -0.4204
 6592SOL     OW31408   2.152   0.681  15.804 -0.2209  0.3556 -0.3634
 6592SOL    HW131409   2.109   0.734  15.737 -0.6721  0.9346  0.3843
 6592SOL    HW231410   2.091   0.691  15.877 -1.8431  1.6456 -1.9069
 6593SOL     OW31411   4.190   0.496   6.620 -0.0548 -0.2053  0.5508
 6593SOL    HW131412   4.120   0.439   6.590  0.2289  0.4386 -1.3069
 6593SOL    HW231413   4.264   0.449   6.580 -0.1546 -2.2211  2.7433
 6594SOL     OW31414   4.019   2.991  12.057  0.1759  0.4120  0.4598
 6594SOL    HW131415   3.936   3.017  12.018  0.2372  0.1719  0.1654
 6594SOL    HW231416   4.070   3.071  12.047  1.2331 -0.4078 -0.7064
 6595SOL     OW31417   4.248   4.571  10.138 -0.0046  0.0562 -0.1607
 6595SOL    HW131418   4.254   4.568  10.233  1.6686 -0.2318 -0.2845
 6595SOL    HW231419   4.246   4.479  10.113  2.7313  0.0161 -0.2360
 6596SOL     OW31420   1.130   3.579   7.174  0.6623 -0.7549  0.0156
 6596SOL    HW131421   1.204   3.631   7.205  1.9054 -1.8139 -1.1305
 6596SOL    HW231422   1.167   3.491   7.183  0.0355 -0.6950  3.0048
 6597SOL     OW31423   1.378   1.675   1.206 -0.4169  0.2896 -0.4022
 6597SOL    HW131424   1.355   1.653   1.115 -2.1108 -2.6864  0.7493
 6597SOL    HW231425   1.323   1.610   1.250 -1.7382  1.1978 -0.6890
 6598SOL     OW31426   3.331   4.105  11.775 -0.5640 -0.2753 -0.3620
 6598SOL    HW131427   3.249   4.099  11.727 -1.0386 -0.5182  0.4815
 6598SOL    HW231428   3.384   4.151  11.710  3.8658  0.0647  3.4789
 6599SOL     OW31429   4.192   3.116   1.933 -0.1541 -0.4453  0.0479
 6599SOL    HW131430   4.146   3.163   1.862 -0.3621 -0.0614  0.4329
 6599SOL    HW231431   4.172   3.026   1.907  1.8305 -0.8184 -0.1433
 6600SOL     OW31432   1.741   2.113   4.070  0.1796 -0.0201  0.4141
 6600SOL    HW131433   1.715   2.205   4.070 -1.6691 -0.5476  1.8080
 6600SOL    HW231434   1.807   2.120   4.000  3.0623 -2.8771  2.8425
 6601SOL     OW31435   0.918   1.505  10.439  0.1833 -0.2994  0.2833
 6601SOL    HW131436   0.843   1.563  10.451 -0.3708 -0.9844  0.0822
 6601SOL    HW231437   0.981   1.520  10.509 -0.0222  2.9084 -0.1975
 6602SOL     OW31438   1.843   2.414  16.234 -0.1542  0.9176  0.2946
 6602SOL    HW131439   1.750   2.439  16.234 -0.3186  0.2973 -0.4702
 6602SOL    HW231440   1.876   2.486  16.182  0.6689 -1.6012 -2.6699
 6603SOL     OW31441   3.848   3.570   0.145 -0.0369 -0.2899  0.0466
 6603SOL    HW131442   3.926   3.573   0.201 -1.2484  1.0540  1.6750
 6603SOL    HW231443   3.823   3.662   0.147  4.4984  0.9900 -2.3688
 6604SOL     OW31444   3.058   1.149   9.222  0.2175  0.1036 -0.4513
 6604SOL    HW131445   3.106   1.231   9.233  1.9862 -0.8425 -0.9822
 6604SOL    HW231446   2.995   1.172   9.154  2.1889 -0.2409 -2.4178
 6605SOL     OW31447   0.403   2.992  15.757  0.2857  0.0736 -0.3115
 6605SOL    HW131448   0.468   2.926  15.782 -0.4718  0.1280  1.8053
 6605SOL    HW231449   0.341   2.943  15.703 -0.9581 -1.8796  2.8850
 6606SOL     OW31450   2.735   0.024   9.071  0.4482  0.2546 -0.1128
 6606SOL    HW131451   2.686   4.702   9.126  0.5407  0.0893 -0.2127
 6606SOL    HW231452   2.708   4.723   8.989 -2.0177 -0.4115  1.0560
 6607SOL     OW31453   0.682   0.354   7.061 -0.2503  0.0571 -0.5398
 6607SOL    HW131454   0.596   0.385   7.090  0.0792 -0.8980  1.4721
 6607SOL    HW231455   0.669   0.364   6.967  1.6844 -1.4957 -0.9748
 6608SOL     OW31456   2.982   4.550   5.084  0.0966  0.2759  0.3550
 6608SOL    HW131457   2.991   4.504   5.168 -0.8938 -2.5108 -1.0731
 6608SOL    HW231458   2.891   4.578   5.089 -0.5910 -2.2271  1.7300
 6609SOL     OW31459   3.184   0.476   1.923  0.0767  0.0999  0.2255
 6609SOL    HW131460   3.251   0.541   1.904 -0.1783 -0.0017 -1.0222
 6609SOL    HW231461   3.112   0.531   1.953  0.4337  2.2230 -2.8111
 6610SOL     OW31462   2.814   3.392   3.877  0.3769 -0.4624  0.1273
 6610SOL    HW131463   2.774   3.418   3.793 -4.0964 -0.8032  2.1752
 6610SOL    HW231464   2.752   3.336   3.923 -2.1654  0.6034 -1.9783
 6611SOL     OW31465   1.485   3.241   3.669 -0.0910 -0.0415  0.2371
 6611SOL    HW131466   1.541   3.299   3.721 -0.3774 -0.5221  1.0881
 6611SOL    HW231467   1.473   3.302   3.596 -1.4002  0.3860  0.7953
 6612SOL     OW31468   3.937   1.593   4.417  1.3696  0.0474  0.2916
 6612SOL    HW131469   3.946   1.639   4.500 -1.6818  3.4043 -1.2526
 6612SOL    HW231470   3.997   1.648   4.366 -0.1408  1.4666  0.0568
 6613SOL     OW31471   0.024   3.798   8.677 -0.5385 -0.1768 -0.2235
 6613SOL    HW131472   0.082   3.858   8.724 -1.0781 -1.0814  1.5744
 6613SOL    HW231473   0.075   3.797   8.596 -2.0645 -2.0696 -1.1735
 6614SOL     OW31474   4.202   3.937   9.100 -0.3816  0.4429 -0.0928
 6614SOL    HW131475   4.277   3.984   9.136  0.0439  1.1334 -1.8437
 6614SOL    HW231476   4.240   3.849   9.093  1.5128  1.2679 -0.2315
 6615SOL     OW31477   3.467   3.556   2.930 -0.1084 -0.3265 -0.5055
 6615SOL    HW131478   3.382   3.533   2.968  0.5917 -1.0014  0.6500
 6615SOL    HW231479   3.460   3.499   2.853  0.8281 -0.6659 -0.3301
 6616SOL     OW31480   0.519   1.621  12.216  0.5971 -0.2319  0.2899
 6616SOL    HW131481   0.573   1.579  12.283 -1.0972 -1.6277  0.7900
 6616SOL    HW231482   0.512   1.545  12.158 -0.9854 -0.4202  0.7123
 6617SOL     OW31483   3.676   1.093   9.160 -0.1568 -0.3608 -0.6408
 6617SOL    HW131484   3.663   1.153   9.087 -1.1094  0.5133  0.2523
 6617SOL    HW231485   3.694   1.012   9.112 -0.4426 -1.2337  0.7338
 6618SOL     OW31486   2.790   3.216   0.834  0.0343  0.4011  0.1706
 6618SOL    HW131487   2.786   3.130   0.791  1.3357  0.4716 -0.0812
 6618SOL    HW231488   2.880   3.238   0.812 -0.8356  1.7545 -2.0192
 6619SOL     OW31489   2.348   4.332   8.929  0.2643  0.2859  0.0699
 6619SOL    HW131490   2.403   4.368   8.998  1.6652 -1.3553 -0.2089
 6619SOL    HW231491   2.337   4.410   8.874  0.1802  0.1063 -0.1700
 6620SOL     OW31492   4.198   4.637  12.668 -0.3365 -0.8069 -0.5322
 6620SOL    HW131493   4.125   4.580  12.692 -0.0360 -0.9853 -0.0330
 6620SOL    HW231494   4.163   4.721  12.698 -1.0328 -0.5305 -2.1336
 6621SOL     OW31495   3.736   0.019  10.630 -0.1333 -0.4136 -0.0294
 6621SOL    HW131496   3.778   0.095  10.590  0.8675 -0.8613  0.1778
 6621SOL    HW231497   3.711   0.055  10.715  0.5019  1.5295 -0.6740
 6622SOL     OW31498   0.722   0.502  14.534  0.1250  0.0395 -0.4301
 6622SOL    HW131499   0.646   0.519  14.589  0.1614 -1.0802 -0.0256
 6622SOL    HW231500   0.678   0.494  14.450 -1.8669 -2.3325  0.8626
 6623SOL     OW31501   1.332   4.143  10.465 -0.4848 -0.4417 -0.4249
 6623SOL    HW131502   1.378   4.171  10.544 -2.6410  1.4002  0.1802
 6623SOL    HW231503   1.245   4.165  10.498  0.1795  1.7094 -0.1175
 6624SOL     OW31504   2.517   2.278  12.686 -0.4862  0.2631  0.3605
 6624SOL    HW131505   2.553   2.222  12.617 -2.8201  0.7553 -1.2950
 6624SOL    HW231506   2.520   2.360  12.636  0.9579  0.3585  0.6159
 6625SOL     OW31507   2.601   3.716  16.915  0.1456  0.6473 -0.0158
 6625SOL    HW131508   2.667   3.674  16.860 -0.0143 -1.3529  1.3198
 6625SOL    HW231509   2.585   3.806  16.884  3.1254  0.9950 -0.5104
 6626SOL     OW31510   3.463   0.854   4.354  0.3927  0.2163  0.1379
 6626SOL    HW131511   3.482   0.910   4.429  1.7816 -2.5899  1.8701
 6626SOL    HW231512   3.496   0.772   4.392  0.9412  0.1958 -0.3768
 6627SOL     OW31513   3.591   1.638   2.163  0.6815 -0.3625 -0.7285
 6627SOL    HW131514   3.587   1.706   2.231  0.4993 -1.1656  0.0711
 6627SOL    HW231515   3.671   1.597   2.196  0.2551  0.5690  1.5027
 6628SOL     OW31516   3.935   1.962   9.339 -0.0133  0.2458  0.3145
 6628SOL    HW131517   3.870   1.896   9.315  2.0651 -2.2346  1.5108
 6628SOL    HW231518   3.885   2.023   9.392 -0.7698  0.2124 -0.3580
 6629SOL     OW31519   2.443   1.126  12.675 -0.2268 -0.2419 -0.0040
 6629SOL    HW131520   2.405   1.109  12.589  2.4455  0.9413 -1.3925
 6629SOL    HW231521   2.448   1.222  12.676  1.7641 -0.3542  0.0680
 6630SOL     OW31522   2.593   3.373   5.081 -0.5481 -0.8093 -0.1408
 6630SOL    HW131523   2.651   3.378   5.157 -1.3709  0.3749  0.4176
 6630SOL    HW231524   2.537   3.300   5.108 -1.7973 -0.1729 -0.9941
 6631SOL     OW31525   0.369   3.457   8.706 -0.5548  0.5413 -0.1359
 6631SOL    HW131526   0.435   3.516   8.742  0.7202  0.9096 -3.0778
 6631SOL    HW231527   0.326   3.421   8.784 -0.8271  1.3871  0.1048
 6632SOL     OW31528   1.022   0.119   3.031 -0.4541 -0.3713 -0.1286
 6632SOL    HW131529   1.016   0.214   3.018  1.0534 -0.3529 -0.7202
 6632SOL    HW231530   0.936   0.095   2.999 -0.3779 -0.9105  0.0789
 6633SOL     OW31531   4.232   0.772   7.209 -0.2277  0.0986  0.1312
 6633SOL    HW131532   4.251   0.860   7.243 -1.0009 -0.5371  2.1998
 6633SOL    HW231533   4.145   0.785   7.171  0.3391 -1.1695 -1.5800
 6634SOL     OW31534   4.251   1.340   8.711  0.0721 -0.4098 -0.0396
 6634SOL    HW131535   4.335   1.352   8.668  0.4368  0.1690  0.8334
 6634SOL    HW231536   4.227   1.430   8.731 -1.4140 -0.8033  0.0151
 6635SOL     OW31537   1.489   2.305   3.745  0.0762 -0.0473 -0.2415
 6635SOL    HW131538   1.488   2.234   3.809 -1.4953  1.5380  1.4956
 6635SOL    HW231539   1.537   2.277   3.667 -0.5010  1.0197 -0.9945
 6636SOL     OW31540   2.871   4.605   1.976  0.0382 -0.4843 -0.7616
 6636SOL    HW131541   2.812   4.663   2.024  2.5159  1.0335  0.4389
 6636SOL    HW231542   2.945   4.666   1.972  0.7739 -1.3410 -0.0610
 6637SOL     OW31543   1.592   0.278  11.686 -0.2515 -0.1439 -0.6073
 6637SOL    HW131544   1.629   0.201  11.729 -0.4379 -0.6479 -1.3478
 6637SOL    HW231545   1.659   0.304  11.624  0.3326 -1.9985 -0.7605
 6638SOL     OW31546   2.219   3.668  16.183 -0.5887  0.0649  0.1002
 6638SOL    HW131547   2.273   3.742  16.155 -1.9032  1.2045  0.5988
 6638SOL    HW231548   2.229   3.679  16.277 -2.1195  1.7399  0.0700
 6639SOL     OW31549   1.933   1.895   7.482  0.1198  0.3339 -0.2567
 6639SOL    HW131550   1.889   1.821   7.440  0.4742 -0.7347  1.2335
 6639SOL    HW231551   2.009   1.854   7.525 -0.2156 -2.5613 -2.3862
 6640SOL     OW31552   2.303   3.218  12.002 -0.3173 -0.2813  0.1377
 6640SOL    HW131553   2.362   3.224  12.078 -2.5399  1.0741  1.7634
 6640SOL    HW231554   2.249   3.294  12.025  1.1491  0.9018 -0.3477
 6641SOL     OW31555   1.090   2.832   2.004 -0.3431 -0.4177  0.1068
 6641SOL    HW131556   1.128   2.900   2.060 -0.9035 -0.8710  1.0324
 6641SOL    HW231557   1.158   2.765   2.004  0.2666  0.2030  0.9206
 6642SOL     OW31558   2.033   1.494  14.723 -0.5418  0.5851 -0.3284
 6642SOL    HW131559   2.077   1.578  14.726  0.8654 -0.2222  1.9154
 6642SOL    HW231560   1.964   1.492  14.790 -0.6115 -1.5697 -0.4583
 6643SOL     OW31561   4.448   3.163   3.595 -0.2330  0.2163 -0.4976
 6643SOL    HW131562   4.503   3.213   3.655  0.7763  0.3746 -1.5571
 6643SOL    HW231563   4.498   3.081   3.588  1.1161  1.1511 -1.8258
 6644SOL     OW31564   0.152   1.054   8.707 -0.1439 -0.3125 -0.1830
 6644SOL    HW131565   0.118   0.981   8.758 -1.6493  1.5001  1.4095
 6644SOL    HW231566   0.221   1.016   8.653 -0.5166 -2.1100  0.6214
 6645SOL     OW31567   4.646   1.471   2.536  0.1012  0.6133 -0.1904
 6645SOL    HW131568   4.602   1.556   2.542 -0.3555  0.1456  3.0599
 6645SOL    HW231569   4.593   1.422   2.600  0.7752 -0.8472 -0.7491
 6646SOL     OW31570   3.163   1.610   9.126  0.2226  0.3349 -0.5919
 6646SOL    HW131571   3.205   1.607   9.040  2.3090  3.1440  0.3198
 6646SOL    HW231572   3.074   1.637   9.102  0.3723 -0.2502 -1.7751
 6647SOL     OW31573   1.513   0.894   5.253  0.0513 -0.5135 -0.1054
 6647SOL    HW131574   1.524   0.859   5.341  0.0542 -1.8344 -0.6388
 6647SOL    HW231575   1.593   0.944   5.241  0.7785 -2.2068 -2.1377
 6648SOL     OW31576   0.198   1.247   2.798  0.0336 -0.0359 -0.1071
 6648SOL    HW131577   0.168   1.183   2.863 -2.2416  1.1891  0.0366
 6648SOL    HW231578   0.283   1.213   2.771 -0.0866  0.1869 -0.7542
 6649SOL     OW31579   3.836   2.718   3.806 -0.1118 -0.4025  0.0884
 6649SOL    HW131580   3.835   2.721   3.710 -0.8221 -1.1783  0.0672
 6649SOL    HW231581   3.777   2.787   3.835  0.9326  0.3026  0.5345
 6650SOL     OW31582   3.125   3.306   0.118 -0.1424 -0.3120  0.0161
 6650SOL    HW131583   3.030   3.320   0.115  0.1765  1.6550 -0.4915
 6650SOL    HW231584   3.133   3.270   0.030  0.2236  0.6617 -0.3506
 6651SOL     OW31585   3.253   3.459   3.874 -0.9296  1.1360 -0.4261
 6651SOL    HW131586   3.321   3.525   3.887  0.8299 -0.6143 -0.6828
 6651SOL    HW231587   3.177   3.515   3.889 -0.5413  1.4887  0.2292
 6652SOL     OW31588   3.423   1.973   9.588 -0.5064 -0.1219 -0.2087
 6652SOL    HW131589   3.423   2.042   9.654 -0.5917 -0.9563  0.6676
 6652SOL    HW231590   3.336   1.982   9.548 -0.3893  0.0173 -0.4280
 6653SOL     OW31591   3.191   1.878   8.436 -0.0396  0.2833  0.4331
 6653SOL    HW131592   3.150   1.963   8.421  0.9760  1.2394  3.1146
 6653SOL    HW231593   3.157   1.825   8.364  1.2976 -0.2444  0.1818
 6654SOL     OW31594   3.290   4.039  15.790 -0.6840 -0.1663 -0.4417
 6654SOL    HW131595   3.318   4.121  15.831  0.4519 -0.9529  0.3574
 6654SOL    HW231596   3.300   4.053  15.696  0.1189  0.6736 -0.2283
 6655SOL     OW31597   3.654   3.863   9.722 -0.0670  0.6939 -0.3188
 6655SOL    HW131598   3.581   3.843   9.664  0.0314  0.7781 -0.4683
 6655SOL    HW231599   3.621   3.876   9.811  0.9993  0.0326  0.1808
 6656SOL     OW31600   3.498   4.596   2.237 -0.1410  0.1553 -0.8042
 6656SOL    HW131601   3.424   4.599   2.298  0.6831  1.9966  0.0849
 6656SOL    HW231602   3.497   4.677   2.187  0.7425  0.6556 -0.0044
 6657SOL     OW31603   1.234   3.179  16.264  0.0901 -0.0751  0.3953
 6657SOL    HW131604   1.199   3.237  16.197 -0.4600 -0.8374  0.0204
 6657SOL    HW231605   1.158   3.167  16.321  0.5791  1.7302  1.4202
 6658SOL     OW31606   4.250   1.464   2.473 -0.3569 -0.2516  0.5550
 6658SOL    HW131607   4.280   1.376   2.450 -0.1386 -0.1862  0.5934
 6658SOL    HW231608   4.263   1.471   2.567 -2.2579  1.2122  0.7082
 6659SOL     OW31609   3.034   3.166   5.024 -0.9421 -0.9296 -0.6220
 6659SOL    HW131610   2.960   3.212   4.983 -2.5632 -1.3122  1.8293
 6659SOL    HW231611   3.099   3.236   5.023 -2.8758  0.9444  1.4798
 6660SOL     OW31612   2.833   3.213   2.557 -0.1690 -0.3755  0.5892
 6660SOL    HW131613   2.926   3.232   2.548 -0.4464 -0.2457 -2.0181
 6660SOL    HW231614   2.833   3.118   2.548  1.5802 -0.4941  2.0430
 6661SOL     OW31615   0.548   0.431  11.147 -0.1347  0.2675  0.5640
 6661SOL    HW131616   0.550   0.502  11.211 -1.8342  0.3199  0.5537
 6661SOL    HW231617   0.640   0.406  11.153 -0.8134 -2.5959 -0.9123
 6662SOL     OW31618   2.860   2.370   9.909 -0.1143  0.5525 -0.1697
 6662SOL    HW131619   2.815   2.311   9.850  0.0114 -1.6201  1.8722
 6662SOL    HW231620   2.907   2.307   9.965 -0.5211 -1.0903 -1.6620
 6663SOL     OW31621   2.161   0.115   6.228  0.2320  0.0610 -0.0775
 6663SOL    HW131622   2.173   0.204   6.197  1.3149 -0.9259 -2.5686
 6663SOL    HW231623   2.245   0.090   6.265  0.7378 -0.4566 -1.5355
 6664SOL     OW31624   1.846   0.537   1.650 -0.0504  0.2922 -0.4004
 6664SOL    HW131625   1.757   0.506   1.639  0.3846 -0.7198 -1.1072
 6664SOL    HW231626   1.852   0.538   1.745 -1.9170 -1.7851 -0.2851
 6665SOL     OW31627   2.332   0.807  12.236  0.2061  0.3045 -0.1683
 6665SOL    HW131628   2.298   0.753  12.164  0.7039 -0.3393  0.0760
 6665SOL    HW231629   2.381   0.876  12.192 -0.0986 -0.1001 -1.1453
 6666SOL     OW31630   3.619   3.168   8.710 -0.0460 -0.2224 -0.3848
 6666SOL    HW131631   3.710   3.189   8.690  0.5128 -2.1950  0.1731
 6666SOL    HW231632   3.580   3.255   8.696  2.4657  0.9367 -0.1720
 6667SOL     OW31633   2.784   3.998   6.508 -0.2566  0.2985  0.3472
 6667SOL    HW131634   2.842   3.925   6.531  0.9959  1.7297  1.6988
 6667SOL    HW231635   2.849   4.067   6.494  1.6747 -1.9573 -1.8301
 6668SOL     OW31636   3.099   1.274   4.601 -0.2422  0.0457 -0.0484
 6668SOL    HW131637   3.016   1.277   4.553 -0.1113 -1.2208 -0.3621
 6668SOL    HW231638   3.066   1.263   4.690 -2.0593 -2.1187 -0.9904
 6669SOL     OW31639   1.821   4.242   4.909  0.3219 -0.3779  0.1941
 6669SOL    HW131640   1.857   4.219   4.823 -1.1357  1.2894 -0.8388
 6669SOL    HW231641   1.872   4.318   4.936  2.1815 -1.8686  0.8775
 6670SOL     OW31642   3.627   1.196   0.307  0.4115  0.5067 -0.8254
 6670SOL    HW131643   3.608   1.168   0.218 -0.8658 -0.1426 -0.3414
 6670SOL    HW231644   3.543   1.237   0.327  0.6389 -0.0438  1.2984
 6671SOL     OW31645   0.033   4.549   6.855 -0.8969  0.3014  0.3586
 6671SOL    HW131646   0.037   4.454   6.852  0.6190  0.3637  0.4597
 6671SOL    HW231647   4.681   4.565   6.827 -0.8971  0.6991  0.5847
 6672SOL     OW31648   1.119   4.328   6.795 -0.0336  0.2432  0.4034
 6672SOL    HW131649   1.132   4.406   6.849 -0.4708  0.0873  0.7314
 6672SOL    HW231650   1.203   4.297   6.759  0.9289  1.8248  1.3130
 6673SOL     OW31651   4.134   3.717   4.897  0.0783 -0.6743 -0.4499
 6673SOL    HW131652   4.217   3.729   4.944 -0.7146  2.7278  0.0714
 6673SOL    HW231653   4.131   3.794   4.840 -1.6801 -0.4067  0.0033
 6674SOL     OW31654   2.575   0.256  11.420 -0.5856 -0.8517 -0.5079
 6674SOL    HW131655   2.551   0.224  11.507 -1.3745 -2.0154 -1.1505
 6674SOL    HW231656   2.655   0.304  11.440 -0.0857 -1.8397 -0.1389
 6675SOL     OW31657   1.609   4.666   8.867 -0.0946  0.4410  0.1227
 6675SOL    HW131658   1.559   4.682   8.947  0.7658 -2.6414  1.3117
 6675SOL    HW231659   1.653   0.008   8.843  0.6660 -0.7569 -2.5611
 6676SOL     OW31660   4.599   4.503   2.026  0.0581  0.1933  0.7273
 6676SOL    HW131661   4.519   4.482   1.979  2.8716 -2.6331 -2.8154
 6676SOL    HW231662   4.577   4.513   2.118 -0.7471  0.1121  0.5422
 6677SOL     OW31663   1.721   2.362   4.604 -0.2452  0.1960 -0.2768
 6677SOL    HW131664   1.695   2.375   4.513 -0.1316 -0.8535 -0.4646
 6677SOL    HW231665   1.649   2.391   4.659  0.9813  1.8203  0.4447
 6678SOL     OW31666   3.691   1.159  15.037  0.0120  0.6763  0.0557
 6678SOL    HW131667   3.655   1.158  15.126  0.8049 -1.3101  0.3390
 6678SOL    HW231668   3.684   1.065  15.025  1.7725  0.5695 -0.1095
 6679SOL     OW31669   0.239   3.919   7.054  0.2101  0.2996 -0.3442
 6679SOL    HW131670   0.278   3.885   6.974  1.9531  0.2693  0.5278
 6679SOL    HW231671   0.277   3.878   7.131 -1.0242 -1.8435 -0.8895
 6680SOL     OW31672   1.083   2.802   2.541 -0.0190  0.3787 -0.1001
 6680SOL    HW131673   1.115   2.716   2.513  1.8183  1.6062 -1.7294
 6680SOL    HW231674   1.041   2.774   2.622 -1.4220  1.4747 -0.4640
 6681SOL     OW31675   2.227   4.148   9.110 -0.1876 -0.4870  1.0530
 6681SOL    HW131676   2.286   4.191   9.049 -0.2403  1.2721  2.2546
 6681SOL    HW231677   2.287   4.125   9.181  0.2735 -2.2985  0.0905
 6682SOL     OW31678   4.639   2.556  15.159 -0.0200 -0.0306 -0.3425
 6682SOL    HW131679   4.712   2.509  15.120  0.9991  2.1519 -1.0822
 6682SOL    HW231680   4.621   2.625  15.095  0.8169  1.3533  0.9143
 6683SOL     OW31681   1.977   2.697   1.540  0.5800  0.4346 -0.6614
 6683SOL    HW131682   2.062   2.654   1.551 -0.9264 -1.3128  4.1368
 6683SOL    HW231683   1.937   2.668   1.459 -0.1084  0.9053 -0.4875
 6684SOL     OW31684   1.537   1.176  15.293 -0.1746 -0.4118 -0.6172
 6684SOL    HW131685   1.495   1.220  15.219 -1.5514 -0.9637 -0.1768
 6684SOL    HW231686   1.470   1.115  15.325  1.6210 -2.5967 -1.0739
 6685SOL     OW31687   0.489   0.633   4.939 -0.0001 -0.3216  0.7226
 6685SOL    HW131688   0.571   0.587   4.959  0.4569  0.3449  0.3552
 6685SOL    HW231689   0.423   0.566   4.958 -2.1723  2.2192  2.0933
 6686SOL     OW31690   2.251   1.861  16.267  0.0468  0.1877  0.1117
 6686SOL    HW131691   2.320   1.870  16.332  1.1881 -2.0658 -0.7639
 6686SOL    HW231692   2.300   1.859  16.185 -2.7207 -0.2711 -1.5379
 6687SOL     OW31693   0.552   1.697   7.361  0.5571  0.8139 -0.4857
 6687SOL    HW131694   0.461   1.667   7.362  1.2411 -1.2688 -0.5514
 6687SOL    HW231695   0.579   1.652   7.281  1.6966  0.9062 -0.1598
 6688SOL     OW31696   1.997   0.267   4.225  0.1073  0.1959 -0.5786
 6688SOL    HW131697   1.959   0.312   4.149 -1.4942 -0.0883  0.0457
 6688SOL    HW231698   2.013   0.341   4.283  0.8633  0.5960 -1.2991
 6689SOL     OW31699   2.868   4.333   0.207  0.1853  0.4025  0.4144
 6689SOL    HW131700   2.801   4.396   0.232 -0.5281 -0.0643 -0.3128
 6689SOL    HW231701   2.952   4.375   0.224  0.5473  1.2617 -3.4335
 6690SOL     OW31702   2.092   3.971   5.005  0.2584  0.6559  0.6686
 6690SOL    HW131703   2.072   3.983   5.098  0.4908  0.7441  0.7063
 6690SOL    HW231704   2.186   3.989   4.997 -0.0604  1.3779 -1.3412
 6691SOL     OW31705   3.817   3.676   9.614  0.3501  0.1148  0.8838
 6691SOL    HW131706   3.779   3.762   9.632 -0.6783 -0.3413  0.8747
 6691SOL    HW231707   3.739   3.630   9.582  0.9379 -0.7392  0.6660
 6692SOL     OW31708   4.464   2.875  10.274  0.0635 -0.2970  0.5528
 6692SOL    HW131709   4.443   2.960  10.236  2.5399 -1.2550 -2.9806
 6692SOL    HW231710   4.401   2.867  10.345 -1.1509 -1.5283 -0.6818
 6693SOL     OW31711   4.024   3.544   3.367 -0.1241 -0.2663  0.0378
 6693SOL    HW131712   4.009   3.639   3.359 -1.7854 -0.6261 -1.1953
 6693SOL    HW231713   4.112   3.535   3.403 -0.8916  1.4111  2.3503
 6694SOL     OW31714   1.553   3.532   8.535 -0.1984 -0.8498  0.4704
 6694SOL    HW131715   1.532   3.462   8.472 -1.2750  0.7887 -0.9759
 6694SOL    HW231716   1.539   3.484   8.617  1.9322  0.1508  1.4048
 6695SOL     OW31717   0.759   4.588   4.156 -0.5273 -0.1820 -0.4435
 6695SOL    HW131718   0.803   4.662   4.198 -0.7605  0.3143 -1.0707
 6695SOL    HW231719   0.766   4.517   4.220  0.2940 -0.0687 -0.4161
 6696SOL     OW31720   3.705   0.822  17.700  0.7229 -0.1565  0.1691
 6696SOL    HW131721   3.768   0.807  17.628 -1.5835 -1.0821 -1.6583
 6696SOL    HW231722   3.759   0.883  17.750 -0.5438  1.4382 -0.4346
 6697SOL     OW31723   1.794   3.789   8.952 -0.2824  0.4132  0.1403
 6697SOL    HW131724   1.851   3.836   9.012  0.5234 -1.5482  0.8961
 6697SOL    HW231725   1.774   3.712   9.005  2.0518  1.3360  2.3322
 6698SOL     OW31726   3.142   0.721  12.883  0.3645 -0.2259  0.3094
 6698SOL    HW131727   3.126   0.793  12.823  0.8657 -0.2245  0.1772
 6698SOL    HW231728   3.179   0.773  12.954 -2.6843  2.0127  0.2415
 6699SOL     OW31729   3.093   0.832   7.155 -0.6500 -0.1098  0.3261
 6699SOL    HW131730   3.183   0.838   7.122 -1.0892 -0.4448 -0.9261
 6699SOL    HW231731   3.093   0.752   7.209 -3.7841  1.4959  2.7037
 6700SOL     OW31732   4.498   3.572   4.564 -0.0379 -0.3290 -0.2410
 6700SOL    HW131733   4.500   3.620   4.647  1.6542  1.3502 -1.2585
 6700SOL    HW231734   4.520   3.484   4.593  1.0912 -0.1096 -0.4564
 6701SOL     OW31735   1.114   1.649  12.662 -0.2246  0.1271 -0.0556
 6701SOL    HW131736   1.037   1.667  12.716 -0.6794 -0.1560 -0.6109
 6701SOL    HW231737   1.161   1.584  12.713  1.2820  0.7996 -0.5964
 6702SOL     OW31738   4.165   1.604   2.966 -0.3385 -0.2443 -0.6326
 6702SOL    HW131739   4.106   1.635   3.034  1.1388  0.0665  0.5028
 6702SOL    HW231740   4.250   1.607   3.010 -1.2779 -0.1105  1.1390
 6703SOL     OW31741   3.255   3.850   7.951  0.2324 -0.0591  0.2335
 6703SOL    HW131742   3.291   3.876   8.036 -0.6445 -0.2313  0.6492
 6703SOL    HW231743   3.274   3.756   7.950 -0.7978 -0.2482 -1.3456
 6704SOL     OW31744   2.302   1.472   6.997  0.3766  0.2445 -0.1500
 6704SOL    HW131745   2.222   1.467   7.050 -0.1371  0.8883 -0.8548
 6704SOL    HW231746   2.321   1.566   7.002 -1.4076  0.6002 -0.1134
 6705SOL     OW31747   0.395   2.892   8.094 -0.1616  0.2358 -0.2142
 6705SOL    HW131748   0.356   2.920   8.011 -0.3355  0.6325 -0.0004
 6705SOL    HW231749   0.486   2.882   8.067 -0.4622 -2.4631 -0.1315
 6706SOL     OW31750   0.814   3.991   3.031 -0.7311 -0.5354  0.1752
 6706SOL    HW131751   0.792   3.915   3.086 -1.3015  0.5700  1.4781
 6706SOL    HW231752   0.771   4.058   3.084  0.9016  1.4361 -0.9932
 6707SOL     OW31753   3.901   0.678   7.603  0.1779 -0.3564  0.4729
 6707SOL    HW131754   3.896   0.720   7.688 -0.4812  0.1277  0.1918
 6707SOL    HW231755   3.989   0.640   7.606  0.2200 -0.4211 -1.1399
 6708SOL     OW31756   3.099   2.472   3.742 -0.3201  0.3244 -0.4088
 6708SOL    HW131757   3.192   2.458   3.725  0.2696  2.0707  1.3011
 6708SOL    HW231758   3.096   2.533   3.816  1.8138  0.0320 -0.0843
 6709SOL     OW31759   1.115   4.006   5.558  0.0896  0.0167  0.1761
 6709SOL    HW131760   1.077   3.926   5.522  1.0219  0.0962 -0.9592
 6709SOL    HW231761   1.049   4.067   5.525  0.9487  1.2102  0.6891
 6710SOL     OW31762   4.197   4.008  17.753  0.2325  0.6889  0.7929
 6710SOL    HW131763   4.190   3.975   0.089 -3.0822 -2.5247 -0.6321
 6710SOL    HW231764   4.291   4.021  17.750  0.4983 -1.1983  0.4327
 6711SOL     OW31765   2.189   1.222  15.169 -0.6274 -0.4015  0.7185
 6711SOL    HW131766   2.108   1.171  15.165 -0.3496 -0.8214  0.3271
 6711SOL    HW231767   2.225   1.193  15.085  0.6964  0.9527  0.8084
 6712SOL     OW31768   2.318   3.069   4.350  0.1884  0.6389  0.3931
 6712SOL    HW131769   2.243   3.035   4.399  0.8322  0.7880  1.4617
 6712SOL    HW231770   2.283   3.145   4.304 -0.1767  1.0252  1.3215
 6713SOL     OW31771   4.323   1.524  11.045  1.0760  0.3305 -0.5342
 6713SOL    HW131772   4.414   1.515  11.073  1.0269  0.1298 -0.4341
 6713SOL    HW231773   4.307   1.429  11.051 -2.1722  0.8255 -1.6373
 6714SOL     OW31774   4.701   3.888   2.933  0.0122  0.6610 -0.1083
 6714SOL    HW131775   0.014   3.959   2.971  0.9864  0.6338 -1.3882
 6714SOL    HW231776   0.027   3.861   2.868  1.1726  1.4248  0.7415
 6715SOL     OW31777   2.219   1.188   5.165  0.0737 -0.0005 -0.1164
 6715SOL    HW131778   2.185   1.263   5.213  1.5011  0.9801 -0.6171
 6715SOL    HW231779   2.226   1.125   5.237  2.2420  1.7085  1.1825
 6716SOL     OW31780   1.949   0.259  11.434 -0.0543 -0.1490  0.2059
 6716SOL    HW131781   1.888   0.306  11.491  0.8131  0.5610  0.5347
 6716SOL    HW231782   1.933   0.293  11.346 -0.8917 -0.9109  0.0595
 6717SOL     OW31783   2.600   2.704   7.964 -0.3588  0.3103 -0.1312
 6717SOL    HW131784   2.693   2.685   7.950  0.5331  3.5830  1.4017
 6717SOL    HW231785   2.572   2.704   7.872 -2.8381 -1.1525  0.6145
 6718SOL     OW31786   0.333   2.149   8.079 -0.4342 -0.1857 -0.0662
 6718SOL    HW131787   0.333   2.240   8.110 -0.3742  0.1715 -1.1046
 6718SOL    HW231788   0.410   2.139   8.024 -1.5495  0.1726 -1.6760
 6719SOL     OW31789   3.433   3.363   5.096 -0.2394 -0.4168  0.6141
 6719SOL    HW131790   3.454   3.386   5.187  0.0611  0.6032  0.2930
 6719SOL    HW231791   3.517   3.389   5.057 -0.4219 -0.4683  0.1904
 6720SOL     OW31792   3.466   3.390   8.893  0.3367 -0.0092 -0.3424
 6720SOL    HW131793   3.464   3.473   8.940  0.2962  0.1657 -0.6459
 6720SOL    HW231794   3.548   3.409   8.846  0.8947  0.4920  0.8469
 6721SOL     OW31795   4.053   1.144   8.667 -0.1150 -0.2545  0.1236
 6721SOL    HW131796   4.106   1.074   8.629 -0.1662  0.7579 -1.8044
 6721SOL    HW231797   4.117   1.209   8.697  2.3744 -2.1239 -1.0629
 6722SOL     OW31798   4.404   3.876  11.704  0.1648 -0.0316  0.0140
 6722SOL    HW131799   4.493   3.908  11.687  0.2189 -1.2714 -1.9814
 6722SOL    HW231800   4.372   3.896  11.616 -2.1173 -0.7513  0.6958
 6723SOL     OW31801   2.541   2.643   2.013 -0.3664  0.0978  0.2469
 6723SOL    HW131802   2.555   2.701   1.938 -0.7208  0.5618  0.5370
 6723SOL    HW231803   2.601   2.681   2.078  1.4191 -3.8876  0.9500
 6724SOL     OW31804   0.839   4.500  14.744 -0.0596 -0.2559  0.1115
 6724SOL    HW131805   0.756   4.476  14.785  0.2554 -2.0754 -0.2952
 6724SOL    HW231806   0.903   4.453  14.798 -0.4752 -0.0364  0.7969
 6725SOL     OW31807   1.797   1.503   8.957 -0.5614  0.3944  0.2361
 6725SOL    HW131808   1.746   1.451   9.020  0.3534  0.7528  1.2704
 6725SOL    HW231809   1.883   1.461   8.956 -0.8267 -0.1453 -0.0910
 6726SOL     OW31810   3.185   3.469   6.802 -0.1665 -0.2931  0.0774
 6726SOL    HW131811   3.184   3.374   6.812 -0.9030 -0.3953 -0.9181
 6726SOL    HW231812   3.095   3.501   6.806 -0.4180 -1.0474  0.4896
 6727SOL     OW31813   2.598   2.281   9.332  0.1627  0.0617  0.2630
 6727SOL    HW131814   2.512   2.276   9.291 -0.5015  0.9106  1.5488
 6727SOL    HW231815   2.651   2.283   9.252 -0.8697  1.0717 -0.3936
 6728SOL     OW31816   4.344   0.347   3.198 -0.1594 -0.0128  0.3004
 6728SOL    HW131817   4.389   0.411   3.143  0.8339  0.8781  2.1667
 6728SOL    HW231818   4.416   0.325   3.256 -1.6397 -1.8680  1.4567
 6729SOL     OW31819   1.603   4.002   8.017 -0.3289 -0.1145 -1.0604
 6729SOL    HW131820   1.692   4.034   8.030 -0.5367 -0.0367  0.1894
 6729SOL    HW231821   1.608   3.907   8.013  1.5260 -0.0550  0.1372
 6730SOL     OW31822   0.317   0.253  11.173  0.4545 -0.1152  0.5028
 6730SOL    HW131823   0.392   0.311  11.158  1.9527 -1.5424  2.4861
 6730SOL    HW231824   0.290   0.226  11.085  2.5789 -2.2543  0.5462
 6731SOL     OW31825   1.508   4.651   8.310  0.0718 -0.0630 -0.0584
 6731SOL    HW131826   1.418   4.683   8.321  0.0722 -0.6558  1.7038
 6731SOL    HW231827   1.551   4.687   8.387  1.3898  1.8651 -1.6886
 6732SOL     OW31828   1.044   2.973   5.959 -0.4136  0.1648 -0.0193
 6732SOL    HW131829   1.030   3.026   5.881  0.2445  0.6895  0.2219
 6732SOL    HW231830   1.084   2.900   5.911 -1.2629  1.5183 -2.7339
 6733SOL     OW31831   4.630   2.840   2.358 -0.0556  0.1227 -0.2043
 6733SOL    HW131832   4.546   2.834   2.404  0.3504  0.2570  0.5411
 6733SOL    HW231833   4.639   2.749   2.328 -0.3086 -0.7618  2.3968
 6734SOL     OW31834   0.459   4.480   6.129 -0.7249  0.1937  0.0910
 6734SOL    HW131835   0.374   4.484   6.083 -0.0467 -3.5345 -1.5627
 6734SOL    HW231836   0.437   4.548   6.193  0.7467  0.5244  0.2230
 6735SOL     OW31837   2.634   0.800   2.672  0.0108  0.2045 -0.2364
 6735SOL    HW131838   2.542   0.790   2.646 -0.3709 -0.6911  1.4413
 6735SOL    HW231839   2.639   0.726   2.732  1.6526  0.3614 -0.1665
 6736SOL     OW31840   3.318   4.577   2.421 -0.0653  0.3484 -1.0002
 6736SOL    HW131841   3.331   4.489   2.456 -1.1656 -0.1929 -1.9523
 6736SOL    HW231842   3.234   4.596   2.463  1.6814  0.9406  2.1622
 6737SOL     OW31843   3.505   4.488  16.861  0.3077 -0.1238 -0.6019
 6737SOL    HW131844   3.475   4.529  16.780 -0.2645  2.9356  1.1746
 6737SOL    HW231845   3.427   4.495  16.916  0.6504 -3.0208  0.2595
 6738SOL     OW31846   2.673   4.345   7.360 -0.5359  0.2857 -0.1600
 6738SOL    HW131847   2.712   4.426   7.326  1.9338 -0.3485  1.1855
 6738SOL    HW231848   2.589   4.374   7.398 -0.9669  0.8062 -1.5099
 6739SOL     OW31849   3.897   1.059   0.990 -0.0296  0.2223 -0.2178
 6739SOL    HW131850   3.901   1.050   0.895 -0.4385  2.5649 -0.4568
 6739SOL    HW231851   3.965   0.996   1.016 -1.1191 -0.9761 -0.2624
 6740SOL     OW31852   1.234   3.386   1.888 -0.0587  0.8785 -0.0508
 6740SOL    HW131853   1.160   3.414   1.942  0.1807  0.0941  0.6912
 6740SOL    HW231854   1.309   3.374   1.947  2.1801  2.7198 -2.4871
 6741SOL     OW31855   0.723   0.599   9.341  0.8287 -0.4594 -0.0099
 6741SOL    HW131856   0.782   0.525   9.355  3.2833  1.6016  0.5446
 6741SOL    HW231857   0.657   0.556   9.286  1.4179  0.2741 -1.3070
 6742SOL     OW31858   1.046   4.578   1.975  0.7749 -0.0447 -0.0150
 6742SOL    HW131859   0.995   4.507   2.016 -0.1399  1.9321  2.3060
 6742SOL    HW231860   1.120   4.571   2.034  1.2697 -0.6923 -0.7089
 6743SOL     OW31861   1.093   1.006   8.793  0.6332  0.0260 -0.0383
 6743SOL    HW131862   1.127   0.967   8.713  1.2120  2.2116 -0.8607
 6743SOL    HW231863   1.033   1.074   8.762  2.2648  0.2775 -2.5705
 6744SOL     OW31864   0.500   2.152   7.812  0.0338  0.1102  0.0036
 6744SOL    HW131865   0.464   2.239   7.800 -2.8823 -1.3188 -1.6667
 6744SOL    HW231866   0.568   2.168   7.877 -0.2282  0.7352  0.1224
 6745SOL     OW31867   3.022   4.115   2.803 -0.0838  0.0948  0.0141
 6745SOL    HW131868   3.042   4.206   2.782  0.0959  0.0333 -0.0799
 6745SOL    HW231869   3.106   4.091   2.840  1.2849  1.1345 -2.4432
 6746SOL     OW31870   3.074   3.902   3.317  0.0389 -0.5873 -0.0985
 6746SOL    HW131871   3.122   3.985   3.317 -2.1963  0.6896 -0.7741
 6746SOL    HW231872   3.078   3.865   3.406 -1.3087 -1.2529 -0.3302
 6747SOL     OW31873   1.772   0.600   2.920  0.3460  0.3051  0.2678
 6747SOL    HW131874   1.815   0.622   2.838 -2.5299  2.6329 -0.6056
 6747SOL    HW231875   1.706   0.666   2.942  0.2240  0.1600  0.3348
 6748SOL     OW31876   0.883   1.826  13.139 -0.4187 -0.4332  0.1040
 6748SOL    HW131877   0.811   1.890  13.139 -0.1636 -0.1477  1.5998
 6748SOL    HW231878   0.836   1.746  13.161  0.6850 -1.1019 -0.0196
 6749SOL     OW31879   1.265   0.747   7.887  0.3699  0.1417  0.1612
 6749SOL    HW131880   1.248   0.830   7.842  1.2058  0.6539  0.8059
 6749SOL    HW231881   1.269   0.773   7.979 -1.7045 -0.1314  0.3411
 6750SOL     OW31882   4.192   4.121  16.062 -0.2236  0.0733 -0.3165
 6750SOL    HW131883   4.157   4.043  16.018 -2.9216  1.1652 -0.1072
 6750SOL    HW231884   4.166   4.100  16.152  2.2681 -0.6766  0.2143
 6751SOL     OW31885   0.417   3.539   3.357 -0.4929 -0.0384 -0.2544
 6751SOL    HW131886   0.481   3.476   3.392 -2.5550 -1.7243  0.4936
 6751SOL    HW231887   0.469   3.604   3.310 -3.1465  1.5451 -1.0035
 6752SOL     OW31888   3.746   2.475   0.924 -0.1325 -0.5816 -0.0295
 6752SOL    HW131889   3.682   2.517   0.866  0.1404  1.8933  1.4534
 6752SOL    HW231890   3.769   2.554   0.973 -1.3231  0.1018 -0.5625
 6753SOL     OW31891   1.427   0.428   4.107 -0.5593 -0.1649 -0.3169
 6753SOL    HW131892   1.493   0.428   4.176 -0.8179 -2.2940 -0.0760
 6753SOL    HW231893   1.449   0.506   4.057  0.7113  0.3628  1.0578
 6754SOL     OW31894   2.780   2.680   5.268  0.4632 -0.2536  0.8585
 6754SOL    HW131895   2.766   2.661   5.176  0.6591 -1.7568  1.1429
 6754SOL    HW231896   2.723   2.611   5.302  0.1693 -0.3332  0.2029
 6755SOL     OW31897   2.531   2.261   3.399  0.2239 -0.6546 -0.6451
 6755SOL    HW131898   2.443   2.271   3.365  0.2846 -0.5969 -0.7851
 6755SOL    HW231899   2.551   2.170   3.420  0.6081  0.1791  2.6095
 6756SOL     OW31900   3.972   0.165   4.263  0.0902 -0.0451  0.5907
 6756SOL    HW131901   4.037   0.216   4.213 -0.5113  0.3377  0.1939
 6756SOL    HW231902   3.923   0.120   4.194 -0.7405  1.2049  0.3475
 6757SOL     OW31903   3.141   1.571   3.879 -0.1542 -0.2997 -0.0305
 6757SOL    HW131904   3.217   1.555   3.823  1.5106  2.6144  1.3600
 6757SOL    HW231905   3.072   1.560   3.814  0.6967  2.4639 -1.4235
 6758SOL     OW31906   4.715   1.215  17.720  0.0525  0.2917  0.2653
 6758SOL    HW131907   4.658   1.185  17.649  0.0261  1.1194 -0.0641
 6758SOL    HW231908   4.706   1.310  17.711  0.3554  0.1284 -1.6146
 6759SOL     OW31909   0.940   2.120  17.587  0.0721  0.1503  0.4010
 6759SOL    HW131910   0.859   2.160  17.618 -1.6951 -0.0989 -3.8679
 6759SOL    HW231911   0.912   2.029  17.585  1.5536 -0.2871 -0.4548
 6760SOL     OW31912   3.213   1.080  14.506  0.0145  0.2107  0.0148
 6760SOL    HW131913   3.134   1.065  14.453  1.3638 -1.5554 -1.4907
 6760SOL    HW231914   3.247   1.161  14.468 -1.8742  1.5466  1.1764
 6761SOL     OW31915   1.769   0.904   0.877 -0.1466 -0.6786 -0.8114
 6761SOL    HW131916   1.770   0.989   0.921 -0.9028 -1.3266  0.4379
 6761SOL    HW231917   1.764   0.933   0.786 -3.2834 -3.0118 -1.3751
 6762SOL     OW31918   2.137   0.170   9.543 -0.9851  0.2717  0.1147
 6762SOL    HW131919   2.195   0.187   9.618 -0.5977  0.6507 -0.2659
 6762SOL    HW231920   2.123   0.076   9.556 -0.1846 -0.0560 -1.4176
 6763SOL     OW31921   0.547   4.314   8.456  0.1830  0.0663 -0.2068
 6763SOL    HW131922   0.567   4.276   8.542  2.3640 -0.0366 -0.7520
 6763SOL    HW231923   0.470   4.365   8.481  0.9320  1.5389 -0.9019
 6764SOL     OW31924   2.264   2.203  11.567 -0.3203  0.3656 -0.1478
 6764SOL    HW131925   2.242   2.127  11.622 -1.9908  0.7026 -0.3573
 6764SOL    HW231926   2.172   2.226  11.550 -0.0207  0.9828 -0.8850
 6765SOL     OW31927   2.208   1.176   6.145  0.8121  0.6324  0.0478
 6765SOL    HW131928   2.215   1.188   6.050 -1.8625  1.5642 -0.0500
 6765SOL    HW231929   2.292   1.142   6.174  2.1615  2.1064 -2.1713
 6766SOL     OW31930   3.034   2.228   2.697 -0.5037 -0.2361  0.2179
 6766SOL    HW131931   3.032   2.323   2.709 -0.7338 -0.1018 -0.8901
 6766SOL    HW231932   3.116   2.211   2.651 -1.2528  0.1144 -1.2658
 6767SOL     OW31933   3.628   1.116  11.185 -0.0709 -0.2989 -0.2685
 6767SOL    HW131934   3.717   1.095  11.211  0.8174  1.5032 -1.8140
 6767SOL    HW231935   3.650   1.195  11.135 -1.9023 -0.9743 -2.1342
 6768SOL     OW31936   2.704   1.278   4.041 -0.0553  0.6148  0.0997
 6768SOL    HW131937   2.655   1.352   4.076 -1.8792  0.7774 -2.8768
 6768SOL    HW231938   2.665   1.204   4.087 -1.9351  0.2179 -2.1595
 6769SOL     OW31939   0.454   1.398   3.477  0.1681  0.4803  0.5459
 6769SOL    HW131940   0.515   1.342   3.525  0.3867  0.4286  0.2098
 6769SOL    HW231941   0.514   1.469   3.456  0.9727 -0.1358  0.7750
 6770SOL     OW31942   0.898   3.960  11.824 -0.1226  0.2249  0.3647
 6770SOL    HW131943   0.951   4.037  11.804 -1.0499  0.7303 -0.1367
 6770SOL    HW231944   0.819   4.007  11.849 -1.4508 -2.3488  1.0687
 6771SOL     OW31945   1.323   1.050  16.044 -0.0837  0.0910  0.2572
 6771SOL    HW131946   1.349   0.967  16.005  2.5531  1.1424 -0.2187
 6771SOL    HW231947   1.340   1.115  15.975  1.0523  1.0113  1.3967
 6772SOL     OW31948   1.103   0.964   7.839  0.3416  0.0555 -0.0147
 6772SOL    HW131949   1.020   0.972   7.884  0.3128  0.5270 -0.1447
 6772SOL    HW231950   1.079   1.008   7.757  0.5526 -2.5828 -1.5160
 6773SOL     OW31951   1.584   1.326   2.781  0.7720 -0.3829 -0.0562
 6773SOL    HW131952   1.589   1.377   2.862 -2.4334 -0.8427  0.4134
 6773SOL    HW231953   1.654   1.346   2.719  0.7772 -0.0025  0.0702
 6774SOL     OW31954   0.534   3.786   7.392 -0.0657  0.9286  0.0252
 6774SOL    HW131955   0.615   3.750   7.356 -0.0796 -1.5406  2.5010
 6774SOL    HW231956   0.505   3.716   7.450  3.1925  2.3718  3.4228
 6775SOL     OW31957   1.616   4.311   5.503  0.7204  0.3942  0.4845
 6775SOL    HW131958   1.562   4.233   5.491 -0.5965  1.1768  1.4028
 6775SOL    HW231959   1.580   4.351   5.582 -0.7121 -2.6875  1.4016
 6776SOL     OW31960   4.324   2.572   1.767  0.7895  0.1670 -0.3780
 6776SOL    HW131961   4.359   2.485   1.749 -1.7559 -0.8137 -0.6661
 6776SOL    HW231962   4.299   2.565   1.859  0.6683 -0.7653 -0.4871
 6777SOL     OW31963   1.057   0.394   8.651 -0.2621 -0.2405 -0.1245
 6777SOL    HW131964   0.992   0.324   8.640  1.5923 -1.8016 -1.1219
 6777SOL    HW231965   1.138   0.343   8.649 -0.3831 -0.3912 -1.2154
 6778SOL     OW31966   3.579   3.087  17.220 -0.0301  0.1878 -0.2120
 6778SOL    HW131967   3.601   3.159  17.279 -1.2703  0.2307  0.1939
 6778SOL    HW231968   3.498   3.052  17.257  0.4285 -0.7389 -0.0850
 6779SOL     OW31969   0.724   0.956   1.140  0.1003  0.0514 -0.1172
 6779SOL    HW131970   0.807   0.989   1.175  0.1332 -0.8651  0.6807
 6779SOL    HW231971   0.662   0.995   1.201  0.3127 -0.5769  0.5061
 6780SOL     OW31972   0.933   1.862   2.875 -0.1362  0.5336  0.5181
 6780SOL    HW131973   0.985   1.943   2.870  1.1538 -0.3762 -0.7590
 6780SOL    HW231974   0.929   1.834   2.784  0.9692 -0.1686  0.6756
 6781SOL     OW31975   4.072   2.238   7.958  0.4450 -0.1060  0.2505
 6781SOL    HW131976   4.012   2.278   8.021  0.4785  0.4099 -0.0439
 6781SOL    HW231977   4.028   2.158   7.930  1.4441  0.5929 -3.3557
 6782SOL     OW31978   2.802   2.865   9.279 -0.0204 -0.1771  0.2079
 6782SOL    HW131979   2.827   2.955   9.258 -1.2808  0.2704  0.6077
 6782SOL    HW231980   2.747   2.884   9.355  1.7261 -0.0142  1.4501
 6783SOL     OW31981   0.313   0.359   1.128 -0.0234 -0.6765 -0.5946
 6783SOL    HW131982   0.259   0.419   1.076  1.0769  0.5008 -0.3889
 6783SOL    HW231983   0.351   0.417   1.194 -1.2130 -1.3231  0.6334
 6784SOL     OW31984   2.286   2.348   1.717  0.2264  0.3676  0.3479
 6784SOL    HW131985   2.323   2.406   1.784  3.9594 -2.0716  0.4156
 6784SOL    HW231986   2.365   2.294   1.715 -0.6811 -0.8668 -1.3811
 6785SOL     OW31987   1.073   0.165   2.645  0.1195  0.1065  0.3405
 6785SOL    HW131988   1.168   0.179   2.651  0.0858  1.2343 -1.9105
 6785SOL    HW231989   1.061   0.073   2.622 -2.2314  0.1747  1.2929
 6786SOL     OW31990   0.863   2.178  15.438  0.6957  0.6995  0.0875
 6786SOL    HW131991   0.952   2.179  15.403  1.7580  0.6076  2.8327
 6786SOL    HW231992   0.853   2.265  15.475  1.3697  0.7351  0.1981
 6787SOL     OW31993   2.342   2.797   9.719 -0.4587 -0.4967  0.1740
 6787SOL    HW131994   2.305   2.758   9.797  0.9179  1.8164  1.9695
 6787SOL    HW231995   2.273   2.853   9.684 -1.5006 -3.4800 -2.6509
 6788SOL     OW31996   4.139   2.210  13.450  0.7045 -0.0062 -0.6199
 6788SOL    HW131997   4.232   2.234  13.445  0.8121 -0.1991  0.5631
 6788SOL    HW231998   4.114   2.259  13.529  0.7505  1.9650 -1.8105
 6789SOL     OW31999   0.464   4.528   2.219 -0.2431 -0.0766  0.0595
 6789SOL    HW132000   0.369   4.533   2.216 -0.2077  0.1668 -0.7260
 6789SOL    HW232001   0.485   4.559   2.307  3.5736 -0.9416 -0.5189
 6790SOL     OW32002   0.558   2.568   0.548 -0.3414  0.0834 -0.0151
 6790SOL    HW132003   0.507   2.597   0.473  0.1837  0.5326 -0.1977
 6790SOL    HW232004   0.651   2.575   0.525 -0.0671 -0.0788  1.0313
 6791SOL     OW32005   3.125   1.902   3.185  0.1472  0.3772 -0.1962
 6791SOL    HW132006   3.069   1.829   3.158  1.2229 -0.9069  1.0547
 6791SOL    HW232007   3.062   1.963   3.225  1.3159  0.2107  1.8871
 6792SOL     OW32008   3.525   2.728   4.423  0.2999 -0.3301  0.3850
 6792SOL    HW132009   3.579   2.798   4.386  0.6507 -0.4473  0.6801
 6792SOL    HW232010   3.457   2.777   4.468  0.9289  1.5847 -0.7664
 6793SOL     OW32011   2.649   2.669   8.795 -0.0931 -0.0329  0.3021
 6793SOL    HW132012   2.672   2.754   8.757  0.1989  0.4945  1.6902
 6793SOL    HW232013   2.720   2.642   8.853 -0.8867 -1.5168  0.5684
 6794SOL     OW32014   3.826   3.028  10.520 -0.0807  0.9069  0.0231
 6794SOL    HW132015   3.916   3.041  10.550 -0.0339 -1.6792  0.9750
 6794SOL    HW232016   3.780   3.018  10.603  0.7198  0.6257  0.4340
 6795SOL     OW32017   2.393   1.360   4.610  0.4525  0.1952  0.3227
 6795SOL    HW132018   2.368   1.420   4.681 -1.7976 -1.7117  1.1482
 6795SOL    HW232019   2.448   1.300   4.661  0.4616 -0.3125 -0.2853
 6796SOL     OW32020   0.827   3.556   5.072 -0.1043 -0.0716  0.4976
 6796SOL    HW132021   0.831   3.460   5.069 -0.9989 -0.1609  2.1347
 6796SOL    HW232022   0.813   3.568   5.166  0.0822  0.0613  0.5083
 6797SOL     OW32023   0.535   2.230   7.032  0.0708 -0.2349  0.2701
 6797SOL    HW132024   0.630   2.241   7.041  0.0003 -0.8753  1.9384
 6797SOL    HW232025   0.512   2.201   7.121 -3.3700 -0.1100 -0.5834
 6798SOL     OW32026   4.309   4.208   4.492 -0.7855 -0.5920 -0.2972
 6798SOL    HW132027   4.299   4.209   4.587 -2.8100  2.9899 -0.5711
 6798SOL    HW232028   4.237   4.149   4.472 -0.9134 -0.4100 -0.3733
 6799SOL     OW32029   0.361   0.110   6.353 -0.1448 -0.7164  0.2120
 6799SOL    HW132030   0.444   0.124   6.308  0.6677 -2.1086  1.2820
 6799SOL    HW232031   0.387   0.117   6.445 -0.0768 -0.1451  0.1460
 6800SOL     OW32032   3.479   2.181   5.961  0.0581  0.1815 -0.0747
 6800SOL    HW132033   3.521   2.256   5.919 -2.0638  2.8380  2.5622
 6800SOL    HW232034   3.542   2.178   6.033  0.4830 -0.3962 -0.4700
 6801SOL     OW32035   2.178   3.172   7.857 -0.5130 -0.5651 -0.1868
 6801SOL    HW132036   2.183   3.221   7.939 -1.8500 -0.6926 -0.0212
 6801SOL    HW232037   2.213   3.087   7.884  1.2514  0.3148  0.2953
 6802SOL     OW32038   0.761   0.762   7.546 -0.1403 -0.7366 -0.1204
 6802SOL    HW132039   0.809   0.680   7.536  0.5663 -0.4092  0.5503
 6802SOL    HW232040   0.818   0.827   7.504  1.5003 -0.1851  2.9139
 6803SOL     OW32041   1.635   1.818  15.610  0.1220  0.0204  0.1358
 6803SOL    HW132042   1.639   1.813  15.706 -1.6931  1.8726  0.3042
 6803SOL    HW232043   1.646   1.730  15.575  3.1205  0.4976 -0.1357
 6804SOL     OW32044   0.507   3.573   2.695  0.3554 -0.0438  0.3425
 6804SOL    HW132045   0.592   3.558   2.737  1.0838 -0.3759 -1.2323
 6804SOL    HW232046   0.512   3.512   2.622  1.5100 -1.3426  1.4946
 6805SOL     OW32047   3.288   1.487   5.955 -0.3445 -0.0562  0.1860
 6805SOL    HW132048   3.296   1.558   6.018  0.6295 -0.2474  0.2823
 6805SOL    HW232049   3.376   1.448   5.959  0.3318  1.4824  0.4491
 6806SOL     OW32050   2.960   1.610  13.843  0.4922 -0.2666  0.7971
 6806SOL    HW132051   2.925   1.698  13.832  1.3188  0.2003  1.8531
 6806SOL    HW232052   2.877   1.564  13.856 -0.5084  1.7874  1.7125
 6807SOL     OW32053   1.466   2.073   8.368 -0.2761  0.2992 -0.0545
 6807SOL    HW132054   1.427   2.048   8.451 -1.4567 -0.1246 -0.7424
 6807SOL    HW232055   1.558   2.095   8.384 -0.1284  0.3303 -0.9508
 6808SOL     OW32056   3.548   1.571   2.550  0.2137  0.1051  0.5815
 6808SOL    HW132057   3.604   1.536   2.481  1.6393  2.3856  0.5722
 6808SOL    HW232058   3.559   1.498   2.611  2.8075 -0.3990 -0.4688
 6809SOL     OW32059   0.616   2.236   1.004 -0.4056  0.4421  0.7157
 6809SOL    HW132060   0.631   2.244   1.098  2.4412 -0.2947  0.3141
 6809SOL    HW232061   0.524   2.254   0.983 -0.3531  0.3273  0.3940
 6810SOL     OW32062   0.542   3.091   1.760 -0.1237  0.2173  0.1139
 6810SOL    HW132063   0.505   3.003   1.752 -0.0641  0.3598 -1.9309
 6810SOL    HW232064   0.514   3.113   1.848 -1.6317  2.5073 -0.9492
 6811SOL     OW32065   0.678   4.150   3.185 -0.0998 -0.0308  0.2226
 6811SOL    HW132066   0.588   4.154   3.219 -0.0188 -2.5652  0.7281
 6811SOL    HW232067   0.729   4.165   3.265 -0.9178 -0.5839  0.8597
 6812SOL     OW32068   3.413   0.599  15.125 -0.2671 -0.4673  0.1888
 6812SOL    HW132069   3.383   0.574  15.038 -1.7632  0.5920  0.3923
 6812SOL    HW232070   3.385   0.527  15.182 -0.4270 -0.6933 -0.1786
 6813SOL     OW32071   2.589   0.745   2.329  0.6481  1.0154  0.2338
 6813SOL    HW132072   2.676   0.721   2.363  0.3685  0.2705  0.4250
 6813SOL    HW232073   2.614   0.769   2.240  1.3071  0.8522  0.3722
 6814SOL     OW32074   0.067   2.854  14.719 -0.6009 -0.2053  0.4595
 6814SOL    HW132075   0.061   2.949  14.705  1.9619 -0.3486 -1.6383
 6814SOL    HW232076   4.718   2.829  14.691  0.9196 -3.7645 -1.0761
 6815SOL     OW32077   3.718   0.487   5.890 -0.8239 -0.4374 -0.1940
 6815SOL    HW132078   3.753   0.513   5.804  1.8780  1.8813  1.6233
 6815SOL    HW232079   3.655   0.558   5.903 -1.2509 -0.9108  0.2805
 6816SOL     OW32080   4.196   4.353   2.874 -0.0313 -0.1161  0.3716
 6816SOL    HW132081   4.207   4.336   2.968 -0.2677 -0.1150  0.3984
 6816SOL    HW232082   4.173   4.446   2.876  1.4389  0.3345 -2.9179
 6817SOL     OW32083   2.419   3.680   3.273 -0.2327  0.4046  0.2667
 6817SOL    HW132084   2.439   3.765   3.233 -1.2984  0.1160 -0.8576
 6817SOL    HW232085   2.458   3.616   3.213 -0.9524  0.5995 -0.4020
 6818SOL     OW32086   3.604   0.028   9.482  0.3622 -0.4812  0.0312
 6818SOL    HW132087   3.578   4.680   9.453  2.6790 -1.0988 -0.2206
 6818SOL    HW232088   3.697   0.030   9.459 -0.1017 -3.9880 -2.1208
 6819SOL     OW32089   2.938   4.418   5.599  0.2475  0.7775  0.0174
 6819SOL    HW132090   3.032   4.404   5.607  0.4140  2.0353  0.1807
 6819SOL    HW232091   2.903   4.348   5.654 -1.5393  1.1970 -0.5882
 6820SOL     OW32092   4.000   3.487   4.977 -0.8609 -0.1264 -0.0158
 6820SOL    HW132093   4.048   3.441   5.046 -0.3875  2.3332  1.3139
 6820SOL    HW232094   4.063   3.558   4.966 -0.5318 -0.4445 -0.1804
 6821SOL     OW32095   0.855   1.472  13.279  0.0996  0.8178 -0.3787
 6821SOL    HW132096   0.789   1.539  13.262 -0.6486 -0.4047 -2.3408
 6821SOL    HW232097   0.812   1.403  13.228 -0.8210  1.1699 -0.0837
 6822SOL     OW32098   3.708   2.884  17.369 -0.1600  0.3450 -0.3032
 6822SOL    HW132099   3.649   2.813  17.346 -0.2404  0.7458 -1.3208
 6822SOL    HW232100   3.668   2.955  17.318  0.4983  0.6927 -0.3465
 6823SOL     OW32101   3.104   1.444   5.477 -0.3111 -0.1109  0.6568
 6823SOL    HW132102   3.149   1.521   5.444  1.9390 -1.8783 -0.4234
 6823SOL    HW232103   3.019   1.455   5.435  0.7172  3.2302 -0.5683
 6824SOL     OW32104   2.251   3.452   1.736 -0.3670  0.2301 -0.3771
 6824SOL    HW132105   2.309   3.397   1.683 -1.7140  0.1762 -1.7824
 6824SOL    HW232106   2.322   3.500   1.778  0.5500 -0.2305 -1.3967
 6825SOL     OW32107   2.379   2.850   3.785 -0.0709  0.6443  0.0390
 6825SOL    HW132108   2.451   2.910   3.768  0.8238 -0.5344 -0.2989
 6825SOL    HW232109   2.427   2.785   3.836  1.0183 -0.2399 -2.1507
 6826SOL     OW32110   0.509   0.409   8.353  0.0069  0.4953  0.3611
 6826SOL    HW132111   0.457   0.333   8.375 -0.6990  0.6409 -0.8183
 6826SOL    HW232112   0.590   0.366   8.324 -0.1529  1.7652 -1.9794
 6827SOL     OW32113   4.708   1.503  17.564 -0.4045 -0.9034 -0.1758
 6827SOL    HW132114   4.731   1.488  17.656  0.4503  1.3166 -0.0345
 6827SOL    HW232115   0.056   1.513  17.527 -0.3195 -0.0389  0.2512
 6828SOL     OW32116   1.414   0.162   6.181 -0.1330 -0.6093  0.9203
 6828SOL    HW132117   1.474   0.146   6.254  2.0254 -0.6948 -0.8721
 6828SOL    HW232118   1.464   0.109   6.118 -0.3150 -2.2591  2.1480
 6829SOL     OW32119   1.813   2.936  13.815  0.3525  0.2562  0.4677
 6829SOL    HW132120   1.760   2.986  13.877  0.3578  3.4434 -2.0894
 6829SOL    HW232121   1.739   2.880  13.793  0.8633 -1.2968  2.7345
 6830SOL     OW32122   3.694   3.455   2.178 -0.4118 -0.1180  0.6481
 6830SOL    HW132123   3.620   3.408   2.139  0.1423  0.0233 -0.6002
 6830SOL    HW232124   3.701   3.530   2.119  2.2004 -1.8274 -1.2480
 6831SOL     OW32125   2.145   3.416   4.534  0.7268 -0.0740  0.3210
 6831SOL    HW132126   2.053   3.445   4.532  1.0185  0.9404  2.5053
 6831SOL    HW232127   2.145   3.356   4.608  2.5613  1.2956  1.4431
 6832SOL     OW32128   0.515   4.108  11.677  0.0765  0.1826  0.6687
 6832SOL    HW132129   0.525   4.134  11.585  0.3632 -0.2322  0.5847
 6832SOL    HW232130   0.511   4.013  11.676 -0.6972  0.2044  1.6998
 6833SOL     OW32131   4.707   0.647  17.248  0.1085 -0.5965 -0.1824
 6833SOL    HW132132   0.030   0.584  17.286  0.4970 -0.2511 -0.2483
 6833SOL    HW232133   4.633   0.589  17.227  1.7224 -1.9517 -2.1524
 6834SOL     OW32134   2.967   4.409   5.323  0.6572  0.2720  0.0746
 6834SOL    HW132135   2.927   4.422   5.409  0.4047 -0.0756  0.0092
 6834SOL    HW232136   3.039   4.349   5.342 -1.8095 -2.4534  0.8765
 6835SOL     OW32137   4.546   2.618  12.519  0.6595 -0.1130  0.0614
 6835SOL    HW132138   4.619   2.570  12.480 -0.5838 -0.1339 -2.2597
 6835SOL    HW232139   4.472   2.565  12.488  0.1322 -0.0502  1.2266
 6836SOL     OW32140   4.205   2.191  14.976  0.2640  0.6460  0.4916
 6836SOL    HW132141   4.143   2.204  15.048  1.5401 -0.3528  1.7868
 6836SOL    HW232142   4.143   2.188  14.903  1.3811  0.7014 -0.4508
 6837SOL     OW32143   1.939   1.745  17.351 -0.4217  0.2538  0.4107
 6837SOL    HW132144   1.844   1.756  17.364 -0.0552  0.7775  2.7553
 6837SOL    HW232145   1.966   1.828  17.312 -1.4691 -0.8559 -2.6744
 6838SOL     OW32146   1.189   2.718   4.332 -0.1668  0.0149 -0.2351
 6838SOL    HW132147   1.137   2.732   4.253 -0.9843 -0.3007  0.2513
 6838SOL    HW232148   1.257   2.782   4.311 -1.2658  1.3453  0.2765
 6839SOL     OW32149   4.141   1.067   0.097 -0.4357 -0.4561 -0.1851
 6839SOL    HW132150   4.153   0.995   0.035 -2.1032  0.2846 -1.3820
 6839SOL    HW232151   4.194   1.142   0.072 -0.2843 -0.4171  0.2547
 6840SOL     OW32152   2.638   1.997   6.986 -0.0163  0.7177  0.1024
 6840SOL    HW132153   2.601   2.000   6.898 -3.2151  1.7623  1.4925
 6840SOL    HW232154   2.577   1.939   7.031 -0.1760  0.8764  0.0896
 6841SOL     OW32155   3.333   0.742   9.463 -0.2841  0.0610 -0.1903
 6841SOL    HW132156   3.303   0.829   9.438  1.7216  0.1644 -2.3582
 6841SOL    HW232157   3.250   0.694   9.465 -0.6247  0.6985  0.5023
 6842SOL     OW32158   1.046   1.091   4.254  0.0471  0.2966 -0.1383
 6842SOL    HW132159   0.999   1.015   4.288  0.3433 -0.2617 -0.9987
 6842SOL    HW232160   1.103   1.094   4.331  0.4069 -1.5609 -0.3491
 6843SOL     OW32161   1.082   4.620   6.097 -0.0723 -0.4184 -0.1914
 6843SOL    HW132162   1.075   4.614   6.192  2.8105 -1.3086 -0.0254
 6843SOL    HW232163   1.129   4.537   6.083 -0.1545 -0.1973 -1.8231
 6844SOL     OW32164   4.554   1.042   4.271  0.1700 -0.4211  0.1506
 6844SOL    HW132165   4.489   1.106   4.244  0.8838  1.2813  2.4544
 6844SOL    HW232166   4.597   1.084   4.346 -1.2904  1.6788 -0.1891
 6845SOL     OW32167   3.439   2.626   5.213  0.4084  0.7627  0.0262
 6845SOL    HW132168   3.441   2.554   5.277 -0.6300  1.3163  0.6786
 6845SOL    HW232169   3.518   2.663   5.251  3.1376 -3.7722 -1.2427
 6846SOL     OW32170   1.388   4.170   3.681 -0.5389 -0.4530  0.1348
 6846SOL    HW132171   1.347   4.112   3.746 -2.4941 -0.5247 -1.1740
 6846SOL    HW232172   1.478   4.154   3.708 -0.7631 -0.4263  0.9175
 6847SOL     OW32173   0.205   2.235   4.324  0.0998  0.2317 -0.5318
 6847SOL    HW132174   0.181   2.269   4.411  0.8704  0.6476 -0.4731
 6847SOL    HW232175   0.138   2.170   4.302  0.7968 -0.4432 -0.6513
 6848SOL     OW32176   2.621   2.596   6.737 -0.2092 -0.4184 -0.0747
 6848SOL    HW132177   2.638   2.662   6.804  1.4187 -0.9946  0.0823
 6848SOL    HW232178   2.528   2.617   6.736 -0.2015 -0.4326 -2.1199
 6849SOL     OW32179   4.181   3.798   6.816  0.5889  0.5123 -0.7965
 6849SOL    HW132180   4.157   3.708   6.790  1.8600 -0.8667  2.8430
 6849SOL    HW232181   4.173   3.846   6.734  0.3775 -0.6510 -1.4683
 6850SOL     OW32182   4.291   2.663   6.505  0.0671 -0.3467 -0.3717
 6850SOL    HW132183   4.325   2.678   6.593  0.9745 -0.9377 -0.6200
 6850SOL    HW232184   4.211   2.714   6.502  0.1736 -0.2142 -1.1310
 6851SOL     OW32185   3.114   3.504  17.611  0.2041 -0.2833 -0.1065
 6851SOL    HW132186   3.128   3.535  17.700  0.6459 -0.0205 -0.2696
 6851SOL    HW232187   3.186   3.548  17.566  0.6613 -0.5619  0.3591
 6852SOL     OW32188   0.331   0.058   5.942  0.4406 -0.1445 -0.0266
 6852SOL    HW132189   0.284   4.714   5.938  0.4589 -0.1123 -0.7527
 6852SOL    HW232190   0.273   0.108   5.884 -0.0724 -0.5505  0.1342
 6853SOL     OW32191   1.519   4.531   6.917 -0.4219 -0.3748 -0.2299
 6853SOL    HW132192   1.468   4.474   6.974 -0.5120  0.1045  0.1676
 6853SOL    HW232193   1.570   4.466   6.868  1.2224  1.0429 -0.4116
 6854SOL     OW32194   4.116   4.595  14.404  0.1541 -0.3712  0.2300
 6854SOL    HW132195   4.087   4.530  14.468 -0.3567 -0.8053 -0.4435
 6854SOL    HW232196   4.141   4.671  14.457  0.7629  1.9821 -3.4030
 6855SOL     OW32197   1.128   4.574   9.746 -0.2783 -0.3974  0.0725
 6855SOL    HW132198   1.174   4.493   9.724  1.2117  0.2381  0.8320
 6855SOL    HW232199   1.186   4.645   9.721 -1.4587  0.4975 -0.0934
 6856SOL     OW32200   1.143   2.319   0.184  0.2070  0.0660  0.0208
 6856SOL    HW132201   1.208   2.377   0.143  1.4191 -0.1298  1.6927
 6856SOL    HW232202   1.064   2.352   0.141 -0.4585 -1.5891  0.0003
 6857SOL     OW32203   3.027   0.137   7.482 -0.0108  0.8928 -0.2791
 6857SOL    HW132204   2.969   0.060   7.488  1.6505 -0.3569 -0.1841
 6857SOL    HW232205   3.108   0.092   7.506  1.1726  1.4499 -3.2688
 6858SOL     OW32206   3.007   2.217   9.695  0.0219 -0.7776 -0.0014
 6858SOL    HW132207   2.978   2.232   9.785 -3.2152 -2.2437 -0.8214
 6858SOL    HW232208   2.978   2.296   9.650  2.1949  1.2478  2.1464
 6859SOL     OW32209   3.531   4.010   2.571  0.1416 -0.1417  0.2797
 6859SOL    HW132210   3.471   3.963   2.629  0.7272  0.9441  1.7535
 6859SOL    HW232211   3.597   4.040   2.633 -0.6458  0.8235  0.6507
 6860SOL     OW32212   0.960   1.540   7.840 -0.3122  0.0396 -0.0692
 6860SOL    HW132213   0.977   1.598   7.914  1.5461 -1.0892  0.4113
 6860SOL    HW232214   1.035   1.480   7.844  0.4696  1.0155 -0.0569
 6861SOL     OW32215   3.256   4.042   7.746  0.3580 -0.3787 -0.1514
 6861SOL    HW132216   3.291   3.979   7.683  0.0781 -0.1085 -0.5764
 6861SOL    HW232217   3.250   3.978   7.816 -1.4297 -0.2722 -0.2194
 6862SOL     OW32218   1.304   0.475   6.701 -0.1584  0.2629  1.2063
 6862SOL    HW132219   1.297   0.478   6.605  2.7491 -0.9200  0.9519
 6862SOL    HW232220   1.278   0.383   6.707 -0.2828  0.2338  0.2879
 6863SOL     OW32221   2.608   2.811   2.806  0.2024  0.3586 -0.0963
 6863SOL    HW132222   2.679   2.857   2.851  0.8415 -1.2070  0.5256
 6863SOL    HW232223   2.528   2.848   2.843 -0.8233 -2.2368  0.3302
 6864SOL     OW32224   1.054   3.283   3.964 -0.0988 -0.2675  0.5609
 6864SOL    HW132225   1.118   3.225   4.003  0.1602  0.8297  1.7614
 6864SOL    HW232226   0.974   3.263   4.012  0.1887 -2.6709  0.0240
 6865SOL     OW32227   4.291   2.303   7.538 -0.1410  0.2264 -0.1274
 6865SOL    HW132228   4.328   2.361   7.471  2.3758  0.1836  1.2297
 6865SOL    HW232229   4.309   2.338   7.625  0.8710  0.2406 -0.3407
 6866SOL     OW32230   2.101   3.190   5.286 -1.0847 -0.2999 -0.0643
 6866SOL    HW132231   2.085   3.283   5.303  0.2373 -0.3054  1.2430
 6866SOL    HW232232   2.191   3.193   5.320 -1.3768 -0.8161  0.7524
 6867SOL     OW32233   3.754   4.038  16.876  0.1071  0.2679  0.0469
 6867SOL    HW132234   3.695   3.968  16.851 -0.7056 -0.1455  3.1663
 6867SOL    HW232235   3.692   4.105  16.903  0.8419  1.0892 -0.2828
 6868SOL     OW32236   2.391   0.016   5.738 -0.1729 -0.3354  0.5779
 6868SOL    HW132237   2.318   0.059   5.783 -1.1474 -1.0693 -0.2718
 6868SOL    HW232238   2.382   4.663   5.766 -0.1337 -0.0413  1.5523
 6869SOL     OW32239   2.896   4.328  14.963 -0.1058  0.0459  0.3788
 6869SOL    HW132240   2.828   4.283  15.013  0.5927 -0.7452  0.6037
 6869SOL    HW232241   2.910   4.269  14.889  0.3485  0.8220 -0.1557
 6870SOL     OW32242   0.705   1.194  14.853  0.0196 -0.0177 -0.0678
 6870SOL    HW132243   0.790   1.182  14.809 -0.7169 -1.0379 -1.2059
 6870SOL    HW232244   0.729   1.155  14.937  1.9552  1.5930  0.1176
 6871SOL     OW32245   3.584   3.670   6.466 -0.2919 -0.1929 -0.2699
 6871SOL    HW132246   3.631   3.590   6.491 -1.4253  0.0753  2.7985
 6871SOL    HW232247   3.644   3.707   6.402 -0.9631 -0.3546 -0.9935
 6872SOL     OW32248   1.746   1.118  14.834  0.1783 -0.5254 -0.4642
 6872SOL    HW132249   1.830   1.131  14.789  0.1036  0.3197 -0.3563
 6872SOL    HW232250   1.762   1.037  14.883 -1.5022 -0.6780 -0.1700
 6873SOL     OW32251   1.995   3.147  13.549 -0.5376 -0.0791 -0.2698
 6873SOL    HW132252   2.002   3.114  13.459  0.2793 -1.0273  0.1461
 6873SOL    HW232253   1.916   3.201  13.547 -0.4548  0.0148 -0.9933
 6874SOL     OW32254   0.732   2.820   6.893  0.1366  0.2878  0.0545
 6874SOL    HW132255   0.744   2.731   6.925 -1.4593  0.8205  2.1030
 6874SOL    HW232256   0.639   2.829   6.914  0.2636 -1.4660  1.3897
 6875SOL     OW32257   1.444   1.384   6.320  0.4266  0.4594 -0.0562
 6875SOL    HW132258   1.475   1.438   6.247 -0.4593  0.0888 -0.6974
 6875SOL    HW232259   1.350   1.376   6.307  0.4995 -1.3085  0.6298
 6876SOL     OW32260   1.409   2.004  15.622  0.2139  0.0220 -0.2146
 6876SOL    HW132261   1.497   2.028  15.652  0.9490  0.6471 -2.9498
 6876SOL    HW232262   1.408   1.913  15.653 -1.1750 -1.0748 -3.4872
 6877SOL     OW32263   1.045   0.330   3.906  0.0759  0.0074  0.0740
 6877SOL    HW132264   1.064   0.321   3.999  1.4873  1.0173 -0.1135
 6877SOL    HW232265   1.121   0.374   3.867  0.6158 -0.5761  0.4598
 6878SOL     OW32266   2.518   2.758   5.917  0.1469 -0.0781 -0.4941
 6878SOL    HW132267   2.604   2.798   5.934  0.6238 -1.0614 -0.5912
 6878SOL    HW232268   2.543   2.705   5.841  0.1056 -1.2528  0.3262
 6879SOL     OW32269   2.665   1.773  15.604  0.1485  0.3798  0.1338
 6879SOL    HW132270   2.638   1.732  15.522 -0.5141 -0.0921  0.5836
 6879SOL    HW232271   2.755   1.801  15.585 -0.7109  2.7810 -0.3665
 6880SOL     OW32272   0.554   1.828   5.670 -0.3455  0.0605 -0.1788
 6880SOL    HW132273   0.482   1.778   5.708 -0.6753  0.5146 -0.2074
 6880SOL    HW232274   0.510   1.894   5.617  1.0734  0.4442 -0.8784
 6881SOL     OW32275   4.062   0.907   9.106 -0.2264 -0.0153  0.0194
 6881SOL    HW132276   4.025   0.985   9.148 -1.7652 -0.2376 -0.8878
 6881SOL    HW232277   4.142   0.894   9.156 -2.3171 -1.7270  2.8932
 6882SOL     OW32278   4.417   1.661   3.062  0.0878  0.3212 -0.2106
 6882SOL    HW132279   4.390   1.733   3.119  1.2473 -1.5593  2.6945
 6882SOL    HW232280   4.434   1.720   2.989  0.5880 -0.4097 -0.6852
 6883SOL     OW32281   2.795   2.125   3.097 -0.0881  0.2768  0.2859
 6883SOL    HW132282   2.748   2.052   3.135 -0.2093 -0.1178 -0.6114
 6883SOL    HW232283   2.725   2.179   3.058 -0.9498  0.1251  1.6189
 6884SOL     OW32284   0.858   2.995   5.085 -0.1810 -0.7668 -0.0240
 6884SOL    HW132285   0.769   2.960   5.080 -0.4421  0.1804 -1.9111
 6884SOL    HW232286   0.911   2.937   5.030  2.0868  0.2234  1.0934
 6885SOL     OW32287   1.864   4.378  15.465 -0.7921 -0.0495  0.2714
 6885SOL    HW132288   1.866   4.402  15.558 -0.7578 -1.3501  0.6021
 6885SOL    HW232289   1.860   4.283  15.473 -0.3188 -0.0311  0.7348
 6886SOL     OW32290   0.257   1.231  11.304 -0.2133 -0.1268 -0.2400
 6886SOL    HW132291   0.312   1.278  11.241  0.9216 -1.3061 -0.1087
 6886SOL    HW232292   0.310   1.234  11.383 -1.5185 -0.5440  0.6511
 6887SOL     OW32293   4.187   0.875   1.916  0.5572  0.0107  0.0493
 6887SOL    HW132294   4.209   0.782   1.924 -1.8907 -0.4760  1.0735
 6887SOL    HW232295   4.150   0.888   2.003  2.1039  0.2828  0.6668
 6888SOL     OW32296   3.219   2.236   7.990 -0.3439 -0.1732 -0.3098
 6888SOL    HW132297   3.280   2.244   7.917 -0.0616  2.8062  0.2290
 6888SOL    HW232298   3.195   2.324   8.020  2.1164 -0.7717  3.3867
 6889SOL     OW32299   4.408   4.053   2.010  0.0617  0.0024  0.7339
 6889SOL    HW132300   4.456   4.002   1.945  0.2245  0.2362  0.6743
 6889SOL    HW232301   4.391   3.991   2.081  0.0517 -1.5164 -0.5962
 6890SOL     OW32302   3.556   2.640   8.133  0.1181  0.2427 -0.2295
 6890SOL    HW132303   3.644   2.677   8.136 -0.0483  0.3376  4.2673
 6890SOL    HW232304   3.543   2.620   8.040 -0.7716  1.0250 -0.2760
 6891SOL     OW32305   3.763   3.426   6.684 -0.5924  0.5823 -0.3653
 6891SOL    HW132306   3.674   3.413   6.719 -0.2415 -2.5724 -0.6671
 6891SOL    HW232307   3.790   3.510   6.723 -1.5163  0.4649  0.5398
 6892SOL     OW32308   0.518   0.694   4.682 -0.0037  0.3691  0.4778
 6892SOL    HW132309   0.509   0.673   4.775  1.9353  0.4900  0.6830
 6892SOL    HW232310   0.425   0.713   4.666 -0.0711 -0.2062  0.1668
 6893SOL     OW32311   2.221   3.599   3.461  0.3629 -0.2840  0.4760
 6893SOL    HW132312   2.269   3.643   3.390  0.0246  1.0587  1.0850
 6893SOL    HW232313   2.287   3.535   3.487 -0.2041 -0.9944  0.1484
 6894SOL     OW32314   0.169   2.712   3.371 -0.4444 -0.1520 -0.3359
 6894SOL    HW132315   0.233   2.783   3.367 -0.8378  0.2573  0.6605
 6894SOL    HW232316   0.205   2.655   3.304 -0.2122 -1.5774  1.0069
 6895SOL     OW32317   4.180   1.325  13.810 -0.2058 -0.0380  0.1961
 6895SOL    HW132318   4.232   1.367  13.878  1.0653 -0.1039 -0.7227
 6895SOL    HW232319   4.251   1.275  13.770 -0.6056 -0.4512  0.0017
 6896SOL     OW32320   0.957   0.688  12.539  0.8929 -0.1389 -0.3224
 6896SOL    HW132321   1.019   0.621  12.511  0.4360 -1.5641  1.9923
 6896SOL    HW232322   1.013   0.738  12.599  2.1735  0.3722 -1.9510
 6897SOL     OW32323   1.024   4.400  14.877 -0.0987 -0.5965 -0.6796
 6897SOL    HW132324   1.037   4.310  14.908 -0.3531  0.1296  1.5489
 6897SOL    HW232325   1.071   4.447  14.945 -1.9978 -0.2518  0.4001
 6898SOL     OW32326   2.689   4.641   4.308  0.9197  0.0503 -0.3520
 6898SOL    HW132327   2.665   4.635   4.216 -2.5654  3.0451  0.3402
 6898SOL    HW232328   2.784   4.636   4.310  0.9060 -0.3207 -0.6219
 6899SOL     OW32329   2.457   0.973  16.949 -0.0792 -0.1543  0.0215
 6899SOL    HW132330   2.414   0.946  16.868  0.0214  0.7786 -0.3522
 6899SOL    HW232331   2.440   1.067  16.946  0.5393  0.0324  2.5031
 6900SOL     OW32332   0.692   1.852  10.573 -0.0461  0.0720 -0.1471
 6900SOL    HW132333   0.735   1.818  10.652 -0.6928  2.1645  1.1140
 6900SOL    HW232334   0.776   1.878  10.533  0.4943 -0.5532  0.5800
 6901SOL     OW32335   3.406   2.979  11.312 -0.1476 -0.5949 -0.0617
 6901SOL    HW132336   3.332   2.919  11.321 -1.4061  0.9627 -0.0442
 6901SOL    HW232337   3.366   3.051  11.263  0.7921  0.8260  1.2509
 6902SOL     OW32338   3.273   0.407   2.492 -0.0695  0.2763  0.5317
 6902SOL    HW132339   3.336   0.341   2.519 -0.3987 -0.0896  0.3994
 6902SOL    HW232340   3.197   0.395   2.549 -0.7750 -0.5110 -0.5721
 6903SOL     OW32341   0.332   4.524  16.859 -0.3006 -0.3159 -0.1664
 6903SOL    HW132342   0.417   4.543  16.818 -0.6599  1.8567  0.0901
 6903SOL    HW232343   0.359   4.466  16.931  0.0514  0.4129  0.2950
 6904SOL     OW32344   3.119   4.348   1.869 -0.2453 -0.4647 -0.1296
 6904SOL    HW132345   3.181   4.405   1.914 -0.2823  0.0027 -0.6679
 6904SOL    HW232346   3.143   4.258   1.893  0.3605 -0.4142 -0.5406
 6905SOL     OW32347   1.578   1.549   3.521 -0.0693 -0.6437 -0.0988
 6905SOL    HW132348   1.560   1.496   3.444  1.1376  1.2202 -1.6657
 6905SOL    HW232349   1.491   1.589   3.528  0.0952 -0.9445  3.6644
 6906SOL     OW32350   0.504   2.744   3.066  0.3905 -0.1181  0.6452
 6906SOL    HW132351   0.577   2.754   3.126  0.9087  0.0974 -0.0192
 6906SOL    HW232352   0.442   2.691   3.116 -1.1847 -1.6048 -2.8362
 6907SOL     OW32353   0.473   1.868  10.866 -0.0087 -0.2400 -0.1325
 6907SOL    HW132354   0.509   1.783  10.891 -0.4903 -0.6675 -0.8948
 6907SOL    HW232355   0.446   1.901  10.952 -2.4600 -0.8724 -0.6810
 6908SOL     OW32356   1.372   0.472   0.654 -0.7458  0.6349 -0.7416
 6908SOL    HW132357   1.317   0.469   0.577  0.5118  1.8982 -1.6819
 6908SOL    HW232358   1.437   0.535   0.625 -1.3635  2.0434  0.9167
 6909SOL     OW32359   3.030   4.506  11.556  0.1917  0.6652  0.0172
 6909SOL    HW132360   2.946   4.550  11.549  0.5376  1.2492 -0.5123
 6909SOL    HW232361   3.005   4.437  11.617 -0.0282  1.0280  0.3384
 6910SOL     OW32362   3.222   4.606   6.506 -0.7719  0.2703  0.7966
 6910SOL    HW132363   3.305   4.590   6.551 -0.1209  1.8514  0.1595
 6910SOL    HW232364   3.236   4.700   6.501  0.0824  0.1053  0.1026
 6911SOL     OW32365   0.209   0.680   8.173  0.3325  0.3436  0.1190
 6911SOL    HW132366   0.217   0.659   8.080 -0.6311  3.1855 -0.5907
 6911SOL    HW232367   0.138   0.622   8.199 -1.0806  2.0842  0.1274
 6912SOL     OW32368   0.919   0.605   8.496 -0.0332 -0.6015 -0.0147
 6912SOL    HW132369   0.994   0.564   8.539 -0.5608  0.2386  1.6681
 6912SOL    HW232370   0.861   0.530   8.507  1.8452 -1.8606  1.2371
 6913SOL     OW32371   1.682   2.387  12.402 -0.0205 -0.5327 -0.6681
 6913SOL    HW132372   1.591   2.412  12.387 -1.0279 -2.6550  1.9063
 6913SOL    HW232373   1.718   2.454  12.461  0.2451 -1.0530 -0.2424
 6914SOL     OW32374   1.002   1.516   7.519  0.2780 -0.5627 -0.2186
 6914SOL    HW132375   0.937   1.472   7.573  2.0238 -1.3307  1.2732
 6914SOL    HW232376   0.951   1.588   7.483  1.1026 -0.5851 -1.4281
 6915SOL     OW32377   0.813   0.327  17.548  0.0222  0.1180  0.5802
 6915SOL    HW132378   0.772   0.241  17.542  0.3422 -0.0131  0.2580
 6915SOL    HW232379   0.846   0.330  17.458  1.5356 -0.3549  1.1234
 6916SOL     OW32380   0.299   4.612   9.027 -0.0708 -0.0100  0.2397
 6916SOL    HW132381   0.383   4.659   9.019 -0.9117  1.6851  1.3974
 6916SOL    HW232382   0.334   4.526   9.051 -0.8315 -0.1506  0.8357
 6917SOL     OW32383   0.374   2.200   6.212  0.4833 -0.4261 -0.0791
 6917SOL    HW132384   0.463   2.217   6.243  0.9661  0.0985 -1.7392
 6917SOL    HW232385   0.378   2.221   6.119 -0.8808 -2.7824 -0.6713
 6918SOL     OW32386   0.175   1.791   0.603 -0.4151 -0.8479  0.2637
 6918SOL    HW132387   0.125   1.781   0.685 -0.1917  0.7795  0.5873
 6918SOL    HW232388   0.197   1.884   0.605  1.4948 -1.1704 -5.0581
 6919SOL     OW32389   3.126   0.793   5.465  0.0380  0.8351  0.0499
 6919SOL    HW132390   3.073   0.873   5.473 -2.2603 -0.7715  1.0157
 6919SOL    HW232391   3.126   0.778   5.371 -1.2624 -3.0110  0.6801
 6920SOL     OW32392   1.493   0.702  14.584 -0.0327  0.0143 -0.0537
 6920SOL    HW132393   1.581   0.680  14.553 -0.3101  1.4704 -1.8767
 6920SOL    HW232394   1.450   0.617  14.590 -1.6263  0.8541  0.4481
 6921SOL     OW32395   2.347   1.380   1.283 -0.1609  0.5391 -0.4353
 6921SOL    HW132396   2.362   1.328   1.361 -0.9603  0.6475 -0.2049
 6921SOL    HW232397   2.352   1.314   1.214  0.0113 -0.0267  0.1275
 6922SOL     OW32398   4.455   1.321   7.947 -0.2335 -0.1774  0.2063
 6922SOL    HW132399   4.405   1.241   7.957  1.7815 -1.3678  0.7803
 6922SOL    HW232400   4.421   1.366   8.024  1.5028 -0.2624  1.0370
 6923SOL     OW32401   3.645   4.547   8.515 -0.0373 -0.7327  0.0259
 6923SOL    HW132402   3.719   4.488   8.526  1.3689  1.7884  4.2794
 6923SOL    HW232403   3.603   4.540   8.601 -1.0001  0.2223 -0.3674
 6924SOL     OW32404   2.800   3.333   9.661  0.7339  0.1586 -0.2931
 6924SOL    HW132405   2.893   3.313   9.676  0.1432 -1.0821  1.5730
 6924SOL    HW232406   2.810   3.420   9.622 -1.5934  0.8227  0.6394
 6925SOL     OW32407   4.506   0.031   4.064  0.4393 -0.0291 -0.2215
 6925SOL    HW132408   4.445   0.045   4.136  0.0230  0.5854 -0.6971
 6925SOL    HW232409   4.524   4.680   4.091 -1.0836 -0.7294 -1.5253
 6926SOL     OW32410   1.633   0.651  10.160  0.1174 -0.0805  0.2102
 6926SOL    HW132411   1.705   0.714  10.163 -1.8112  2.0919  0.2601
 6926SOL    HW232412   1.568   0.688  10.101  1.4915  1.4938 -0.3004
 6927SOL     OW32413   4.399   4.384   6.402  0.1245 -0.0635 -0.1028
 6927SOL    HW132414   4.419   4.414   6.313  4.2608 -1.5467  0.3294
 6927SOL    HW232415   4.487   4.382   6.441  0.0363 -1.9048 -0.0090
 6928SOL     OW32416   2.987   0.693   8.550 -0.7704 -0.1527  0.6073
 6928SOL    HW132417   3.062   0.643   8.581  0.1185 -0.4206 -1.9902
 6928SOL    HW232418   2.963   0.736   8.632 -1.2240  0.1329  0.3288
 6929SOL     OW32419   3.621   0.184   2.317 -0.1291 -0.0261 -0.1610
 6929SOL    HW132420   3.592   0.130   2.243 -2.3025  0.8552  0.0539
 6929SOL    HW232421   3.606   0.270   2.278  0.7826  0.1169 -0.2020
 6930SOL     OW32422   4.704   0.711   2.051 -0.7239 -0.1461  0.0835
 6930SOL    HW132423   0.040   0.713   2.111 -1.2276 -1.3227  0.7584
 6930SOL    HW232424   4.739   0.660   1.977 -1.3057  0.1599 -0.3959
 6931SOL     OW32425   4.171   0.009   5.770 -0.0396  0.1975 -0.3583
 6931SOL    HW132426   4.224   0.074   5.723  1.2438 -1.5315 -1.2983
 6931SOL    HW232427   4.127   0.068   5.831 -0.7527 -2.6396  1.8617
 6932SOL     OW32428   3.006   2.738  13.238  0.1109 -0.4806  0.0764
 6932SOL    HW132429   2.980   2.693  13.318  0.9432 -2.0973 -0.5583
 6932SOL    HW232430   3.076   2.799  13.260  1.8201 -2.1006 -0.8222
 6933SOL     OW32431   1.330   1.638   3.506  0.0326 -0.0339 -0.3623
 6933SOL    HW132432   1.283   1.720   3.497 -2.2093 -1.1976  0.8189
 6933SOL    HW232433   1.271   1.598   3.569  0.6794 -0.6159 -0.1178
 6934SOL     OW32434   0.514   2.883  11.332 -0.5406 -0.6296 -0.3538
 6934SOL    HW132435   0.609   2.890  11.325 -0.2373 -4.4795  0.3727
 6934SOL    HW232436   0.507   2.796  11.293  0.9439 -1.7773  1.9296
 6935SOL     OW32437   3.099   1.513   7.042  0.0043 -0.1016  0.1874
 6935SOL    HW132438   3.012   1.479   7.024 -0.2515  0.7868 -0.2261
 6935SOL    HW232439   3.163   1.471   6.984 -1.6669 -1.5853 -0.5705
 6936SOL     OW32440   3.822   0.018  12.580 -0.7355 -0.2831 -0.3017
 6936SOL    HW132441   3.842   4.686  12.519  0.4531 -0.2598  0.0584
 6936SOL    HW232442   3.739   4.721  12.611  0.2721 -1.1996  1.3183
 6937SOL     OW32443   2.910   3.527   6.767  0.0347  0.0021  0.0292
 6937SOL    HW132444   2.836   3.582   6.743  0.3478 -1.1301 -3.4358
 6937SOL    HW232445   2.903   3.457   6.703  1.6241  0.5213 -0.7252
 6938SOL     OW32446   3.765   4.535  15.874  0.1127 -0.2539 -0.3655
 6938SOL    HW132447   3.836   4.528  15.939  0.2856  1.5009 -0.3647
 6938SOL    HW232448   3.778   4.623  15.840 -0.3932  1.1320  2.9945
 6939SOL     OW32449   4.256   3.505   2.833 -0.6108  0.0539 -0.2745
 6939SOL    HW132450   4.182   3.481   2.778 -0.1754 -2.9012  0.4673
 6939SOL    HW232451   4.320   3.437   2.813  1.6383  2.1326 -0.1574
 6940SOL     OW32452   1.923   3.271   7.049  0.4020 -0.2746  0.1102
 6940SOL    HW132453   2.011   3.253   7.015  0.1925  0.3223 -0.7607
 6940SOL    HW232454   1.955   3.326   7.121 -0.1143 -0.8577  0.7853
 6941SOL     OW32455   0.020   1.427  10.951  0.5280 -0.2823 -0.2154
 6941SOL    HW132456   0.068   1.469  10.879  1.4986 -0.1719  0.4949
 6941SOL    HW232457   0.088   1.421  11.018 -0.6771  0.6622  1.1019
 6942SOL     OW32458   2.120   3.805   4.327  0.1119 -0.6483  0.2511
 6942SOL    HW132459   2.097   3.732   4.269  0.2151 -0.5928  0.1394
 6942SOL    HW232460   2.045   3.864   4.329 -0.5338 -1.4565 -0.4271
 6943SOL     OW32461   2.020   1.356   8.946 -0.2663 -0.0163 -0.1061
 6943SOL    HW132462   2.063   1.415   8.884  1.8688 -1.2071  0.2321
 6943SOL    HW232463   2.056   1.278   8.905  2.3906  0.4752  1.2883
 6944SOL     OW32464   3.768   4.315  15.134  0.4597  0.3122 -0.3346
 6944SOL    HW132465   3.767   4.343  15.042  1.8898  0.7420 -0.2298
 6944SOL    HW232466   3.853   4.272  15.123 -1.0353 -3.2008  2.0706
 6945SOL     OW32467   2.181   3.063   3.252 -0.4337  0.7495 -0.2203
 6945SOL    HW132468   2.142   3.134   3.303 -2.3203 -0.5878  0.2204
 6945SOL    HW232469   2.258   3.112   3.223  0.4592  0.4028  1.5155
 6946SOL     OW32470   0.481   2.381  12.020 -0.3444  0.2578 -0.3754
 6946SOL    HW132471   0.434   2.455  11.982  0.4927 -0.1733 -2.2358
 6946SOL    HW232472   0.446   2.308  11.970 -2.7503  0.5291  0.8989
 6947SOL     OW32473   1.679   4.551  15.669 -0.1638 -0.1135  0.1416
 6947SOL    HW132474   1.700   4.587  15.583  0.9609 -0.6536  0.1922
 6947SOL    HW232475   1.601   4.499  15.649 -0.2090  0.3648 -0.9230
 6948SOL     OW32476   4.052   1.097  13.056 -0.5724 -0.3852  0.5159
 6948SOL    HW132477   4.111   1.077  13.128  0.3593  1.0294  0.1662
 6948SOL    HW232478   4.065   1.021  13.000  1.2506  0.8173 -0.6979
 6949SOL     OW32479   1.243   2.934   5.406 -0.3330  0.3581 -0.0163
 6949SOL    HW132480   1.268   2.927   5.498  1.1124  0.2730 -0.4003
 6949SOL    HW232481   1.154   2.905   5.423 -0.0595 -0.1806  0.4707
 6950SOL     OW32482   3.350   1.022   8.279 -0.0248  0.0014 -0.6421
 6950SOL    HW132483   3.389   0.936   8.263  0.5714 -0.2868  2.2456
 6950SOL    HW232484   3.313   1.007   8.366  0.1043 -0.4619 -0.6681
 6951SOL     OW32485   1.428   0.217   2.291 -0.2020 -0.1060 -0.0602
 6951SOL    HW132486   1.384   0.301   2.303 -0.1050 -0.1191  0.4011
 6951SOL    HW232487   1.524   0.221   2.289 -0.2627  1.5294  0.0933
 6952SOL     OW32488   4.535   2.933   8.568 -0.3584  0.2564 -0.2936
 6952SOL    HW132489   4.451   2.935   8.615  1.1913  0.1946  2.4600
 6952SOL    HW232490   4.602   2.890   8.621 -1.0931  0.2554  0.6413
 6953SOL     OW32491   0.988   2.817   3.743 -0.5952 -0.2626 -0.0982
 6953SOL    HW132492   1.028   2.731   3.735 -1.8348 -1.0034  1.8480
 6953SOL    HW232493   0.987   2.840   3.650 -2.3613 -0.6663 -0.1741
 6954SOL     OW32494   2.136   2.102   2.441 -0.1622 -0.4843 -0.0665
 6954SOL    HW132495   2.055   2.079   2.487 -0.5996 -0.0317 -0.6067
 6954SOL    HW232496   2.106   2.085   2.352  0.5373 -0.0083 -0.4015
 6955SOL     OW32497   1.737   3.529   3.535  0.2444 -0.2857  0.6148
 6955SOL    HW132498   1.724   3.552   3.443  0.0616  0.7719  0.9074
 6955SOL    HW232499   1.767   3.613   3.571  1.1834 -0.6005  0.5616
 6956SOL     OW32500   1.407   1.091   1.019  0.1886  0.1644 -0.1468
 6956SOL    HW132501   1.387   1.002   1.049  1.9375 -0.6341 -1.3091
 6956SOL    HW232502   1.327   1.120   0.976 -1.5802  0.1358  3.2178
 6957SOL     OW32503   1.866   3.292   9.230 -0.0750  0.1247 -0.1134
 6957SOL    HW132504   1.955   3.278   9.196 -0.0207  0.1512  0.0194
 6957SOL    HW232505   1.860   3.258   9.319  0.2852 -1.4246 -0.6643
 6958SOL     OW32506   2.453   0.754  16.203 -0.5490 -0.2740  0.0283
 6958SOL    HW132507   2.474   0.801  16.284 -2.5228 -1.7764  1.4012
 6958SOL    HW232508   2.494   0.812  16.139 -0.8159  0.9121  0.9263
 6959SOL     OW32509   3.302   3.058   6.522 -0.5092  0.9098  0.3569
 6959SOL    HW132510   3.257   2.978   6.548  1.5529 -0.0435  0.9976
 6959SOL    HW232511   3.234   3.089   6.462 -1.7585 -2.2847  0.0922
 6960SOL     OW32512   1.783   4.432  17.328  0.2288 -0.1961  0.4567
 6960SOL    HW132513   1.760   4.438  17.421  2.4304 -0.5276  1.0095
 6960SOL    HW232514   1.863   4.381  17.320  0.8531  0.7768  0.4577
 6961SOL     OW32515   3.224   4.569   6.149 -0.0055 -0.3551  0.1898
 6961SOL    HW132516   3.159   4.549   6.216  1.7094 -0.5325  1.8132
 6961SOL    HW232517   3.202   4.653   6.108 -0.6152 -1.3428 -1.4903
 6962SOL     OW32518   3.850   0.414   7.453  0.3016 -0.1350 -0.3631
 6962SOL    HW132519   3.941   0.387   7.462 -0.0685 -0.1818  3.2997
 6962SOL    HW232520   3.856   0.500   7.493 -1.5105 -0.1592 -0.0427
 6963SOL     OW32521   0.811   1.699   7.059  0.0924 -0.0744  0.3050
 6963SOL    HW132522   0.784   1.651   7.137 -0.2604  1.1101  0.9053
 6963SOL    HW232523   0.802   1.634   6.989 -0.5187  0.9716 -0.5950
 6964SOL     OW32524   0.964   2.806   9.783  0.1649  0.1251  0.3862
 6964SOL    HW132525   0.896   2.854   9.736  0.5347 -0.2432 -0.5184
 6964SOL    HW232526   0.988   2.724   9.739 -2.4480 -1.5336  2.0717
 6965SOL     OW32527   3.018   3.435  11.316  0.0371 -0.8319 -0.1043
 6965SOL    HW132528   2.925   3.432  11.337  0.1826  0.4486  0.7281
 6965SOL    HW232529   3.062   3.433  11.401 -3.1499 -2.3754  1.5136
 6966SOL     OW32530   1.727   4.227   8.202  0.5264  0.6788  0.6749
 6966SOL    HW132531   1.768   4.146   8.172  1.5636  1.3892  0.1859
 6966SOL    HW232532   1.725   4.278   8.122 -0.8368  0.8294  0.8102
 6967SOL     OW32533   2.728   4.585   5.560  0.3673  0.5120  0.0108
 6967SOL    HW132534   2.786   4.512   5.584 -0.5882  0.1014  1.0961
 6967SOL    HW232535   2.755   4.665   5.605  0.5008 -0.5885  1.9176
 6968SOL     OW32536   1.709   1.056   6.946 -0.4166  0.1826 -0.0882
 6968SOL    HW132537   1.773   1.110   6.993  0.3106 -1.6163  0.9947
 6968SOL    HW232538   1.744   0.966   6.953 -0.0243  0.3938  0.7198
 6969SOL     OW32539   2.208   3.336   2.697  0.3182 -0.5606 -0.5750
 6969SOL    HW132540   2.248   3.366   2.616  0.9892 -1.2131 -0.4845
 6969SOL    HW232541   2.137   3.282   2.664  1.5172 -0.9454 -2.4992
 6970SOL     OW32542   0.026   4.230   3.229  0.0258 -0.5261  0.5736
 6970SOL    HW132543   0.020   4.172   3.305  1.5121 -1.1012  0.2521
 6970SOL    HW232544   4.674   4.251   3.208  0.9086  2.1137 -0.6399
 6971SOL     OW32545   4.408   1.513  11.390  0.1926 -0.3742 -0.1723
 6971SOL    HW132546   4.319   1.527  11.361  0.3402 -0.9143 -0.8800
 6971SOL    HW232547   4.465   1.515  11.313  1.7433  0.5923  0.9780
 6972SOL     OW32548   3.652   2.634   3.407 -0.3799 -0.3359  0.1889
 6972SOL    HW132549   3.692   2.553   3.376  0.4875 -0.9382  2.8024
 6972SOL    HW232550   3.729   2.660   3.458  0.8923 -2.7708 -0.4932
 6973SOL     OW32551   0.134   0.066  12.054  0.0272  0.3493  0.5955
 6973SOL    HW132552   0.055   0.069  12.001 -0.9513 -0.2950  2.0124
 6973SOL    HW232553   0.103   0.034  12.139 -1.0755  0.4081  0.2195
 6974SOL     OW32554   4.495   4.019   7.802 -0.3176  0.5128  0.4567
 6974SOL    HW132555   4.495   3.929   7.833  3.1597  1.4419  3.2723
 6974SOL    HW232556   4.502   4.069   7.884 -1.5074  1.3349  0.0619
 6975SOL     OW32557   3.469   1.713  11.693 -0.0526  0.3434  0.1020
 6975SOL    HW132558   3.480   1.630  11.739  1.1596  0.8710  0.7373
 6975SOL    HW232559   3.481   1.684  11.602 -0.4297 -1.7912  0.7373
 6976SOL     OW32560   3.708   4.073   7.697  0.5033 -0.4919 -0.1394
 6976SOL    HW132561   3.676   4.027   7.775 -2.7498 -0.5194 -1.5030
 6976SOL    HW232562   3.722   4.158   7.740 -0.7362 -0.0696 -0.5871
 6977SOL     OW32563   1.020   2.836  17.017 -0.1155  0.4219  0.2307
 6977SOL    HW132564   1.031   2.780  16.941  0.6475  1.2092 -0.2380
 6977SOL    HW232565   1.008   2.769  17.085  0.4948  0.3498  0.2634
 6978SOL     OW32566   1.661   2.380   4.335 -0.1615  0.1434  0.1852
 6978SOL    HW132567   1.700   2.397   4.249 -0.3653 -0.5356 -0.0435
 6978SOL    HW232568   1.577   2.426   4.333 -0.9931 -1.3604  0.4301
 6979SOL     OW32569   3.614   4.625   5.674 -0.0054 -0.1585 -0.0365
 6979SOL    HW132570   3.685   4.643   5.735 -0.6461 -1.0985  0.9774
 6979SOL    HW232571   3.556   4.697   5.699  0.6991  0.0713  0.9064
 6980SOL     OW32572   2.560   1.375   5.699 -0.0631 -0.4444  0.1763
 6980SOL    HW132573   2.652   1.382   5.723  0.2002  0.3538 -1.0480
 6980SOL    HW232574   2.530   1.455   5.743 -0.9954  0.7291 -2.5800
 6981SOL     OW32575   2.985   4.352  17.280  0.1449 -0.6182  0.4615
 6981SOL    HW132576   2.931   4.342  17.201  1.0913  4.4337 -0.8302
 6981SOL    HW232577   2.932   4.415  17.330 -0.2733 -0.9830  0.4842
 6982SOL     OW32578   0.565   0.347   2.295 -0.0047  0.0740  0.8036
 6982SOL    HW132579   0.518   0.267   2.319 -2.0945  1.4029  1.1760
 6982SOL    HW232580   0.649   0.316   2.328  0.1021  0.6330  1.0698
 6983SOL     OW32581   1.543   0.679  17.712 -1.1214  0.2064 -0.5029
 6983SOL    HW132582   1.555   0.735  17.636  0.6354  0.1836 -0.2469
 6983SOL    HW232583   1.631   0.688  17.750 -1.8189  0.4399  1.0800
 6984SOL     OW32584   2.032   2.367  10.016  0.1804  0.1095  0.1657
 6984SOL    HW132585   2.034   2.289  10.071 -3.6353  0.2590  0.4758
 6984SOL    HW232586   1.959   2.414  10.055 -1.7719 -2.7323 -0.0503
 6985SOL     OW32587   3.416   1.331  13.503  0.4525 -0.3375  0.3369
 6985SOL    HW132588   3.499   1.336  13.551  0.7190 -0.1878 -0.1362
 6985SOL    HW232589   3.451   1.372  13.424  1.5562 -1.2636  0.3416
 6986SOL     OW32590   3.840   4.708   5.854 -0.7887  0.9113  0.9604
 6986SOL    HW132591   3.898   4.737   5.783 -2.2834 -1.2189 -1.1445
 6986SOL    HW232592   3.889   0.006   5.927  0.3946  2.2648 -0.5161
 6987SOL     OW32593   0.124   0.722   6.184  0.0931  0.4037  0.3820
 6987SOL    HW132594   0.092   0.719   6.274 -0.7554 -0.8243  0.0411
 6987SOL    HW232595   0.046   0.747   6.134  0.0962  0.1307  0.2373
 6988SOL     OW32596   1.144   1.408  16.725 -0.1921  0.6220  0.0611
 6988SOL    HW132597   1.210   1.461  16.770  2.0515 -1.7692 -0.4039
 6988SOL    HW232598   1.200   1.352  16.670  2.4538  1.1451  2.2369
 6989SOL     OW32599   4.156   1.506  15.543 -0.0909 -0.4540 -0.5920
 6989SOL    HW132600   4.234   1.471  15.586  1.3764 -1.1839 -3.8385
 6989SOL    HW232601   4.190   1.594  15.527  0.9795 -0.7106  0.3027
 6990SOL     OW32602   0.733   2.493  17.052  0.2554  0.1222  0.2212
 6990SOL    HW132603   0.733   2.529  16.963  0.7366  0.4722  0.3584
 6990SOL    HW232604   0.787   2.561  17.094 -1.6495  0.9335  1.3540
 6991SOL     OW32605   0.156   2.898  13.361  0.6149  0.0456  0.2448
 6991SOL    HW132606   0.224   2.837  13.333  0.9989  0.0444  1.1686
 6991SOL    HW232607   0.192   2.984  13.339 -1.5551  0.8734 -0.0363
 6992SOL     OW32608   1.457   2.035   7.135 -0.1832  0.3006  0.0547
 6992SOL    HW132609   1.408   2.083   7.068 -2.0219 -1.3909  0.2219
 6992SOL    HW232610   1.529   2.093   7.162 -0.6171  0.6392  0.4674
 6993SOL     OW32611   2.431   1.139   2.924  0.9973  0.6116  0.1375
 6993SOL    HW132612   2.491   1.162   2.853  1.5465  2.3266  1.1580
 6993SOL    HW232613   2.483   1.074   2.971 -0.5820 -0.8734 -0.1614
 6994SOL     OW32614   3.362   0.703  11.330 -0.4471 -0.0752 -0.5257
 6994SOL    HW132615   3.388   0.681  11.240 -1.6972 -2.9115 -0.2148
 6994SOL    HW232616   3.271   0.731  11.326  0.3080  2.4081 -0.3483
 6995SOL     OW32617   3.074   2.467   1.045 -0.4148 -0.5191  0.1577
 6995SOL    HW132618   3.149   2.504   0.999  0.4599 -0.0593  1.9922
 6995SOL    HW232619   3.030   2.431   0.968  0.1685 -2.5456  0.7712
 6996SOL     OW32620   0.533   0.623  11.393 -0.6708 -0.2659  0.3940
 6996SOL    HW132621   0.513   0.550  11.452 -1.2216  0.4957  1.1596
 6996SOL    HW232622   0.455   0.670  11.422 -0.4577  0.8220 -0.8394
 6997SOL     OW32623   3.977   4.479  10.355  0.2049  0.0867  0.4724
 6997SOL    HW132624   3.943   4.465  10.443  0.2998 -0.8364  0.3719
 6997SOL    HW232625   4.068   4.448  10.362 -0.1660 -1.3886 -1.0924
 6998SOL     OW32626   1.654   3.133  10.464  0.0920 -0.4397 -0.2337
 6998SOL    HW132627   1.593   3.151  10.536  1.5604  1.3251  0.5511
 6998SOL    HW232628   1.601   3.081  10.404 -0.2494 -1.4923  0.9652
 6999SOL     OW32629   2.022   0.205   8.528  0.3264 -0.0365 -0.1874
 6999SOL    HW132630   1.977   0.208   8.443 -0.4829 -0.2406  0.2305
 6999SOL    HW232631   2.101   0.231   8.482  1.2793 -1.2575  0.7472
 7000SOL     OW32632   0.381   0.260  15.404  0.4838  0.4946 -0.2055
 7000SOL    HW132633   0.288   0.249  15.423  0.9746 -0.8154  1.4552
 7000SOL    HW232634   0.407   0.309  15.481 -0.7616 -0.5378  0.8717
 7001SOL     OW32635   2.691   1.892   4.854 -0.2492  0.1435 -0.1635
 7001SOL    HW132636   2.705   1.985   4.875 -1.0717  0.4254 -0.8771
 7001SOL    HW232637   2.606   1.877   4.894 -0.8249  1.1313 -1.0170
 7002SOL     OW32638   2.130   2.703   2.730 -0.0146 -0.0456 -0.2705
 7002SOL    HW132639   2.192   2.765   2.693 -1.5793  1.4327 -0.4225
 7002SOL    HW232640   2.168   2.622   2.696 -0.4891 -0.8833  1.1574
 7003SOL     OW32641   2.640   4.188   1.813 -0.1685 -0.6901 -0.2705
 7003SOL    HW132642   2.706   4.227   1.869 -0.6708  1.1100 -0.9300
 7003SOL    HW232643   2.649   4.243   1.735  2.1183 -1.0661 -0.2668
 7004SOL     OW32644   4.672   2.166  14.166 -0.4538 -0.2240 -0.7393
 7004SOL    HW132645   0.017   2.149  14.209 -0.7366 -1.5314 -0.7068
 7004SOL    HW232646   4.675   2.090  14.108  0.6562 -1.2351  0.6335
 7005SOL     OW32647   3.820   3.748  12.190 -0.4614  0.6498 -0.7368
 7005SOL    HW132648   3.911   3.759  12.219 -0.4128 -4.5444  1.0222
 7005SOL    HW232649   3.791   3.695  12.265  0.5259  0.6132 -0.3785
 7006SOL     OW32650   1.648   4.339  13.490  0.1844  0.4682 -0.2510
 7006SOL    HW132651   1.694   4.292  13.420  2.5619 -1.0874  2.3220
 7006SOL    HW232652   1.680   4.289  13.566 -2.6559 -0.3268  0.4023
 7007SOL     OW32653   2.658   4.140   3.673  0.8158 -0.4329 -0.4500
 7007SOL    HW132654   2.583   4.198   3.684  0.5444 -1.3097  2.2835
 7007SOL    HW232655   2.612   4.057   3.690 -2.4316  1.6411  0.9826
 7008SOL     OW32656   2.350   0.523   2.416  0.4399 -0.2258  0.5148
 7008SOL    HW132657   2.314   0.437   2.438 -3.0706  1.1493  0.1486
 7008SOL    HW232658   2.355   0.522   2.321 -0.6691  3.1032  0.4315
 7009SOL     OW32659   2.474   1.551   3.477 -0.2587  0.2045 -0.6579
 7009SOL    HW132660   2.508   1.468   3.511 -1.8127  0.4822  1.5610
 7009SOL    HW232661   2.532   1.612   3.522  0.9504 -1.4625  0.0716
 7010SOL     OW32662   2.539   4.043   5.328 -0.4537  0.2909  0.3935
 7010SOL    HW132663   2.544   4.126   5.281  0.1477 -0.3446 -0.6673
 7010SOL    HW232664   2.617   4.050   5.383  1.6953  0.1299 -2.6462
 7011SOL     OW32665   3.268   2.541   9.623  0.3102 -0.3352 -0.1141
 7011SOL    HW132666   3.249   2.548   9.717  0.2989  1.1317 -0.2285
 7011SOL    HW232667   3.361   2.521   9.618  0.5178  0.0809  1.9179
 7012SOL     OW32668   0.676   4.528   5.105 -0.2040  0.1298 -0.8352
 7012SOL    HW132669   0.581   4.523   5.113 -0.1485 -0.6882 -0.7301
 7012SOL    HW232670   0.686   4.555   5.014 -2.5951 -0.4314 -1.2693
 7013SOL     OW32671   2.354   2.094  12.142 -0.4956 -0.0340 -0.1866
 7013SOL    HW132672   2.440   2.135  12.154 -0.8111  0.2311  1.0930
 7013SOL    HW232673   2.297   2.153  12.191 -1.6782 -1.0063 -0.4096
 7014SOL     OW32674   2.567   2.187  16.319  0.3704 -0.5856 -0.1519
 7014SOL    HW132675   2.544   2.279  16.326  1.0062 -0.6360  3.0625
 7014SOL    HW232676   2.556   2.166  16.227  1.1312  0.6375 -0.5148
 7015SOL     OW32677   3.937   3.101   9.112  0.2990  0.1920 -0.5403
 7015SOL    HW132678   3.924   3.196   9.113  1.2461  0.3773 -3.8058
 7015SOL    HW232679   4.024   3.086   9.073  0.5768 -1.1877  0.6436
 7016SOL     OW32680   3.597   4.000   2.099  0.2671  0.0266  0.1332
 7016SOL    HW132681   3.671   3.976   2.043 -1.1528  2.5742 -2.8219
 7016SOL    HW232682   3.639   4.033   2.178  0.5600 -1.5068  0.6075
 7017SOL     OW32683   3.731   2.820   8.769  0.1360 -0.1072  0.3959
 7017SOL    HW132684   3.817   2.839   8.805  1.6750 -2.2890 -2.0669
 7017SOL    HW232685   3.749   2.749   8.706 -1.4697  0.3929 -0.6198
 7018SOL     OW32686   0.543   2.485  16.301  0.6941 -1.2875  0.6678
 7018SOL    HW132687   0.536   2.531  16.385 -1.6683 -0.1177 -0.1829
 7018SOL    HW232688   0.475   2.419  16.315 -0.1021 -0.6753 -0.3269
 7019SOL     OW32689   1.291   4.570   7.962  0.0158  0.1719  0.7547
 7019SOL    HW132690   1.282   4.475   7.955 -0.3725  0.1440  1.5780
 7019SOL    HW232691   1.220   4.582   8.026  0.4731  2.3217  0.8608
 7020SOL     OW32692   0.593   1.600  10.783 -0.0356  0.1747 -0.0803
 7020SOL    HW132693   0.674   1.647  10.765  0.2595 -0.5638 -0.6930
 7020SOL    HW232694   0.536   1.654  10.728 -2.2525 -0.6648  1.3758
 7021SOL     OW32695   0.953   1.234   0.631  0.3223  0.0344 -0.5952
 7021SOL    HW132696   1.015   1.279   0.689  1.1849  0.4473 -1.8407
 7021SOL    HW232697   0.863   1.244   0.662  0.1206  0.8275 -1.4643
 7022SOL     OW32698   0.508   3.381   1.426 -0.3521  0.3152  0.1432
 7022SOL    HW132699   0.447   3.440   1.471 -0.4667  1.5408 -1.6119
 7022SOL    HW232700   0.452   3.341   1.359  1.8891 -2.3578 -0.1418
 7023SOL     OW32701   4.014   1.118   6.099  0.8447  0.0901  0.0801
 7023SOL    HW132702   3.969   1.159   6.173 -1.1109 -1.7268 -0.1028
 7023SOL    HW232703   3.958   1.041   6.091 -1.3575  1.2636  3.9919
 7024SOL     OW32704   0.927   2.561  10.976  0.4302  0.2166  0.1169
 7024SOL    HW132705   0.973   2.538  10.896  2.8785 -0.9442  1.8530
 7024SOL    HW232706   0.951   2.487  11.032  1.0152  0.5463  0.3095
 7025SOL     OW32707   0.059   0.587  11.420  0.0124 -0.9933  0.2936
 7025SOL    HW132708   0.104   0.505  11.400 -2.8105 -2.0444 -1.6947
 7025SOL    HW232709   0.009   0.557  11.496  1.1794  1.9653  2.2107
 7026SOL     OW32710   0.202   0.791  12.976  0.1398  0.1201  0.7995
 7026SOL    HW132711   0.144   0.720  13.002  0.4929 -0.2003  0.7291
 7026SOL    HW232712   0.243   0.756  12.896 -1.6972  1.3062 -0.6449
 7027SOL     OW32713   1.906   2.162   3.874 -0.2389 -0.0314  0.1623
 7027SOL    HW132714   1.892   2.100   3.803 -1.5387  1.1812 -0.6361
 7027SOL    HW232715   1.870   2.239   3.831 -1.8704 -0.1574  1.3043
 7028SOL     OW32716   1.649   1.889  13.066 -0.1071  0.0957 -0.4088
 7028SOL    HW132717   1.711   1.832  13.111 -1.4649 -0.8000  0.3277
 7028SOL    HW232718   1.589   1.899  13.140 -0.2027  1.6339 -0.6863
 7029SOL     OW32719   0.787   2.606  12.989  0.6036 -0.3112 -0.6569
 7029SOL    HW132720   0.717   2.558  12.944 -0.7713  1.3765 -0.3047
 7029SOL    HW232721   0.728   2.651  13.050  0.4137 -1.7462  0.2249
 7030SOL     OW32722   4.472   3.720   8.608 -0.3410 -0.5373  0.1150
 7030SOL    HW132723   4.437   3.721   8.697 -2.4078 -2.0217 -0.6799
 7030SOL    HW232724   4.552   3.771   8.617 -1.3602  1.0285  0.4066
 7031SOL     OW32725   2.554   0.362   6.832  0.0096 -0.3289 -0.2610
 7031SOL    HW132726   2.521   0.287   6.881 -1.4335  0.0022 -0.7347
 7031SOL    HW232727   2.469   0.389   6.798  1.0486  2.3034 -0.8173
 7032SOL     OW32728   3.334   2.220  16.822  0.4808 -0.4867  0.5112
 7032SOL    HW132729   3.261   2.281  16.813  0.0805 -1.1906 -0.9517
 7032SOL    HW232730   3.400   2.265  16.875  0.0194  0.7602  0.0201
 7033SOL     OW32731   3.705   2.585  13.769 -0.3322  0.1492  0.2260
 7033SOL    HW132732   3.657   2.557  13.847 -0.8043  0.7852  0.1619
 7033SOL    HW232733   3.642   2.575  13.697  0.9940 -1.7763 -0.6680
 7034SOL     OW32734   1.120   2.962   0.367 -0.3655 -0.6613  0.0485
 7034SOL    HW132735   1.126   3.047   0.410 -1.5445 -0.9290  0.7602
 7034SOL    HW232736   1.205   2.943   0.328  0.8562  3.5112  0.6759
 7035SOL     OW32737   0.043   1.656   5.320  0.2588 -0.0079 -0.1424
 7035SOL    HW132738   0.093   1.652   5.238 -0.0518  0.7040 -0.3697
 7035SOL    HW232739   0.048   1.572   5.365  0.3969  0.4927  0.7859
 7036SOL     OW32740   1.700   2.949   7.465 -0.2420  0.3903 -0.6628
 7036SOL    HW132741   1.724   3.041   7.477  0.1132  0.1493  0.4989
 7036SOL    HW232742   1.684   2.940   7.371 -1.4299 -0.1080 -0.4144
 7037SOL     OW32743   3.886   2.036   1.964  0.2438 -0.0877 -0.3903
 7037SOL    HW132744   3.869   1.984   2.043 -2.8532  0.0008 -0.9998
 7037SOL    HW232745   3.882   2.125   1.999 -1.6861 -0.3345 -0.0038
 7038SOL     OW32746   3.993   3.661   7.809  0.2757 -0.3221  0.3394
 7038SOL    HW132747   3.956   3.657   7.898  0.3684  1.0489  0.4500
 7038SOL    HW232748   4.082   3.688   7.833  0.2853  0.4779 -0.6253
 7039SOL     OW32749   2.714   3.913  11.773 -0.1906 -0.1211  0.4926
 7039SOL    HW132750   2.713   4.001  11.737  0.7647 -0.3259 -0.0261
 7039SOL    HW232751   2.804   3.884  11.755 -1.4975 -2.7164 -1.8249
 7040SOL     OW32752   0.497   0.618  17.481 -0.7574 -0.2481 -0.3056
 7040SOL    HW132753   0.473   0.535  17.440  1.3348 -1.5871  1.1513
 7040SOL    HW232754   0.429   0.679  17.452 -0.0644  1.7922  2.3237
 7041SOL     OW32755   0.670   2.969  10.228 -0.4551 -0.0047  0.1552
 7041SOL    HW132756   0.663   3.003  10.318 -1.7419 -0.6587  0.3078
 7041SOL    HW232757   0.674   3.054  10.185 -0.5662  1.0929  2.2950
 7042SOL     OW32758   4.573   3.046  15.000  0.3258 -0.5528 -0.1217
 7042SOL    HW132759   4.531   3.117  14.952  1.5275 -1.2354 -2.2206
 7042SOL    HW232760   4.619   3.094  15.069 -0.5502 -1.6771  1.2336
 7043SOL     OW32761   2.774   1.821   1.978 -0.8697  0.0288 -0.3865
 7043SOL    HW132762   2.680   1.823   1.994 -0.8555 -0.7762 -0.1763
 7043SOL    HW232763   2.808   1.792   2.063 -0.6869  2.4947  0.3835
 7044SOL     OW32764   4.702   0.217  11.887  0.8059 -0.5351  0.0008
 7044SOL    HW132765   4.666   0.265  11.961  2.7424 -1.5124  1.5541
 7044SOL    HW232766   4.641   0.238  11.816 -0.1087 -1.4306  0.5102
 7045SOL     OW32767   2.905   3.454   8.763  0.6848  0.0388  0.2843
 7045SOL    HW132768   2.986   3.505   8.756  0.5029 -0.0139 -2.1090
 7045SOL    HW232769   2.865   3.511   8.828  0.6379  0.3744 -0.0350
 7046SOL     OW32770   4.347   2.317   5.691 -0.8905  0.1116 -0.1029
 7046SOL    HW132771   4.313   2.331   5.603  2.5466  2.0733 -1.1302
 7046SOL    HW232772   4.336   2.404   5.730  0.0490 -0.7108  2.0278
 7047SOL     OW32773   0.467   2.539   4.270 -0.3420  0.2897 -0.4315
 7047SOL    HW132774   0.499   2.449   4.282 -1.3923 -0.1033 -0.5818
 7047SOL    HW232775   0.532   2.561   4.203 -1.4153 -1.6435 -2.1063
 7048SOL     OW32776   4.609   0.545   7.055  0.3081 -0.7190 -0.3426
 7048SOL    HW132777   4.659   0.497   7.121  1.5617 -0.1928 -0.9193
 7048SOL    HW232778   4.520   0.543   7.092  0.7261  0.6043  0.7338
 7049SOL     OW32779   1.197   3.260   5.604  0.0494  0.0731  0.2311
 7049SOL    HW132780   1.274   3.255   5.547 -0.9000  1.9454 -1.2324
 7049SOL    HW232781   1.240   3.294   5.682  1.4820 -0.8548 -0.1567
 7050SOL     OW32782   4.126   0.423   7.526 -0.1564  0.5288  0.2325
 7050SOL    HW132783   4.177   0.342   7.529  1.0706  1.2680 -0.6063
 7050SOL    HW232784   4.183   0.479   7.578 -0.8248  0.0312  1.4894
 7051SOL     OW32785   4.480   4.003   6.309 -0.2567  0.2858 -0.3511
 7051SOL    HW132786   4.519   4.047   6.233  0.1161 -0.5373 -0.6503
 7051SOL    HW232787   4.561   3.982   6.355 -1.4392 -0.8863  1.1836
 7052SOL     OW32788   3.389   0.980   1.005  0.6273  0.4361  0.6138
 7052SOL    HW132789   3.474   1.003   1.044 -0.0978  1.7587  1.4239
 7052SOL    HW232790   3.425   0.925   0.935 -1.7914  0.6634 -0.7995
 7053SOL     OW32791   4.473   0.323   8.251  0.5428  0.1417  0.2177
 7053SOL    HW132792   4.385   0.352   8.228 -0.2516  0.2324  3.4745
 7053SOL    HW232793   4.497   0.286   8.165  0.6046  0.6861  0.0022
 7054SOL     OW32794   0.944   1.429   3.070  0.1726  0.3614  0.3630
 7054SOL    HW132795   1.023   1.448   3.020  0.8282 -0.6823  0.9789
 7054SOL    HW232796   0.906   1.516   3.078 -1.8848 -0.5496  0.4157
 7055SOL     OW32797   1.542   1.752   4.362  0.1365  0.1624 -0.2092
 7055SOL    HW132798   1.590   1.672   4.339 -0.7279 -0.2118 -0.7317
 7055SOL    HW232799   1.602   1.813   4.320 -0.3041  0.9211  0.2765
 7056SOL     OW32800   0.594   2.034   7.253 -0.3680 -0.0314  1.1069
 7056SOL    HW132801   0.525   1.991   7.203 -0.5427  3.3284 -1.4854
 7056SOL    HW232802   0.673   2.000   7.210 -1.1396  1.6958 -1.6901
 7057SOL     OW32803   4.177   3.377   4.473  0.4007 -0.0389 -0.3650
 7057SOL    HW132804   4.262   3.333   4.482  0.1435 -0.2404  1.0923
 7057SOL    HW232805   4.131   3.297   4.499  0.8077  1.2553  4.3122
 7058SOL     OW32806   0.468   1.750   4.099  0.0277 -0.5694 -0.0965
 7058SOL    HW132807   0.459   1.704   4.015  0.3761 -1.0880  0.1516
 7058SOL    HW232808   0.408   1.695   4.151 -0.1185  0.5484  0.9098
 7059SOL     OW32809   4.598   2.200  16.096  0.5816 -0.3463  0.4357
 7059SOL    HW132810   4.503   2.210  16.101  0.8712  2.4823  0.3961
 7059SOL    HW232811   4.620   2.175  16.186 -0.9967  2.0929  1.5163
 7060SOL     OW32812   3.233   2.786   5.391 -0.0397  0.1934 -0.4962
 7060SOL    HW132813   3.156   2.842   5.400  0.2215  0.9090 -2.6101
 7060SOL    HW232814   3.227   2.726   5.465  0.2393 -0.1163 -0.7206
 7061SOL     OW32815   4.606   3.188   8.407  0.3298  0.0684  0.1530
 7061SOL    HW132816   4.594   3.096   8.432 -1.3555  0.8668  2.2392
 7061SOL    HW232817   4.651   3.228   8.481  0.1235 -0.5389  0.6090
 7062SOL     OW32818   1.460   3.667   4.823  0.2049 -0.1284 -0.2751
 7062SOL    HW132819   1.500   3.580   4.819 -1.6707 -1.0107  0.2385
 7062SOL    HW232820   1.528   3.721   4.864 -0.9445  1.0658  0.0549
 7063SOL     OW32821   0.290   3.101   1.980  0.1618 -0.5115 -0.0752
 7063SOL    HW132822   0.198   3.126   1.977  0.2157 -0.4149 -1.0979
 7063SOL    HW232823   0.285   3.005   1.982  1.3317 -0.5524  0.7506
 7064SOL     OW32824   4.515   2.943   6.613 -0.1839  0.5615 -0.2640
 7064SOL    HW132825   4.589   2.966   6.557  0.0819  1.5260  0.4775
 7064SOL    HW232826   4.439   2.976   6.564 -1.6092 -0.2693  1.3782
 7065SOL     OW32827   0.015   4.285   5.529  0.1897 -0.3622 -0.6882
 7065SOL    HW132828   0.045   4.197   5.504 -1.3345 -1.5942  1.7264
 7065SOL    HW232829   0.081   4.339   5.486  0.2473 -0.7690 -1.1137
 7066SOL     OW32830   3.192   0.795   6.581 -0.2564  0.2061 -0.8633
 7066SOL    HW132831   3.170   0.758   6.667  0.1971  0.4323 -0.6525
 7066SOL    HW232832   3.249   0.867   6.609  0.0644  0.0863 -1.1985
 7067SOL     OW32833   0.223   2.125   3.025  0.4281  0.2591  0.3211
 7067SOL    HW132834   0.201   2.051   3.081 -1.2072  2.1619  2.1881
 7067SOL    HW232835   0.141   2.165   2.997  0.9947  0.7891 -0.6097
 7068SOL     OW32836   2.440   4.331   3.917 -0.1077 -0.0640 -0.0554
 7068SOL    HW132837   2.534   4.318   3.933  0.2316  2.1848 -0.2376
 7068SOL    HW232838   2.431   4.424   3.937  0.4151 -0.6619  2.9540
 7069SOL     OW32839   1.325   2.393   1.074  0.1353 -0.1834 -0.2250
 7069SOL    HW132840   1.320   2.309   1.030 -1.3610  0.5893 -1.4997
 7069SOL    HW232841   1.337   2.358   1.163  0.5964  1.7580  0.4819
 7070SOL     OW32842   4.046   2.215  16.971  0.5198  0.1337  0.5492
 7070SOL    HW132843   4.054   2.309  16.988 -0.7172  0.6813 -1.7835
 7070SOL    HW232844   4.106   2.200  16.898  0.3456 -0.9514  0.6303
 7071SOL     OW32845   1.802   4.536   8.189  0.6481  0.1921  0.4409
 7071SOL    HW132846   1.803   4.588   8.269  1.0625 -1.9766  1.8404
 7071SOL    HW232847   1.718   4.552   8.147 -0.0588 -1.4449  1.2587
 7072SOL     OW32848   2.129   2.074   7.751  0.6223  0.2681  0.6211
 7072SOL    HW132849   2.189   2.071   7.676  1.4668  0.0779  1.3075
 7072SOL    HW232850   2.086   1.989   7.748 -2.6112  1.9657 -2.2770
 7073SOL     OW32851   2.456   2.701   4.017 -0.1139 -0.8378 -0.0661
 7073SOL    HW132852   2.484   2.617   3.983 -0.5102 -1.2413  0.5976
 7073SOL    HW232853   2.362   2.683   4.026 -0.5223  1.0909 -0.2739
 7074SOL     OW32854   2.574   0.069   6.970  0.2977 -0.5500  0.0576
 7074SOL    HW132855   2.616   0.035   6.891  0.3116 -2.2012  0.7911
 7074SOL    HW232856   2.651   0.086   7.025  0.2047 -2.3769  0.7484
 7075SOL     OW32857   2.573   0.232   8.886  0.0413 -0.8011 -0.2895
 7075SOL    HW132858   2.593   0.146   8.850 -0.6535 -0.0277 -2.5273
 7075SOL    HW232859   2.479   0.232   8.868  0.5692  1.5398 -2.9841
 7076SOL     OW32860   0.718   2.625   4.123 -0.1348 -0.3821 -0.0393
 7076SOL    HW132861   0.755   2.663   4.203  0.5064  0.3928 -0.7151
 7076SOL    HW232862   0.793   2.610   4.066  0.9614  0.5984  1.1357
 7077SOL     OW32863   4.336   3.106  10.136  0.2280 -0.1037 -0.3472
 7077SOL    HW132864   4.264   3.168  10.124 -0.7478 -1.1667  0.1013
 7077SOL    HW232865   4.411   3.158  10.106 -0.6693  0.8327 -0.9889
 7078SOL     OW32866   1.124   2.373   3.943 -0.0174  0.9058  0.1080
 7078SOL    HW132867   1.107   2.280   3.934 -0.8775  1.0195  0.5533
 7078SOL    HW232868   1.152   2.385   3.853 -0.3143 -1.9798 -0.3373
 7079SOL     OW32869   0.413   4.236   2.313  0.3704  0.4879  0.7756
 7079SOL    HW132870   0.383   4.319   2.351  2.3116  0.3572  2.5853
 7079SOL    HW232871   0.431   4.185   2.392  0.5082 -0.1194  0.3526
 7080SOL     OW32872   3.771   2.747   1.399  0.4460 -0.3572  0.4049
 7080SOL    HW132873   3.757   2.683   1.469  0.6006  0.6756  1.3967
 7080SOL    HW232874   3.713   2.818   1.428  1.3807  0.2023  0.9129
 7081SOL     OW32875   3.521   3.914  13.189 -0.5148  0.2436  0.1505
 7081SOL    HW132876   3.468   3.854  13.137  1.8574 -1.2933 -0.4951
 7081SOL    HW232877   3.508   3.997  13.144 -2.1011  0.4968  1.0495
 7082SOL     OW32878   2.286   3.795   6.358 -0.0645 -0.1123  0.5786
 7082SOL    HW132879   2.287   3.726   6.292  2.9065 -1.2220  1.7968
 7082SOL    HW232880   2.192   3.786   6.371  0.0163  0.0051  1.2386
 7083SOL     OW32881   0.597   3.139  16.525 -0.1453  0.4323  0.2360
 7083SOL    HW132882   0.636   3.109  16.608 -5.7011 -2.9535  1.6484
 7083SOL    HW232883   0.537   3.208  16.555  0.8791  1.3842  0.0659
 7084SOL     OW32884   2.097   4.710   8.213  0.2857 -0.0874 -0.0946
 7084SOL    HW132885   2.075   4.735   8.123  2.5179 -0.8364 -0.8602
 7084SOL    HW232886   2.131   4.621   8.208 -2.5358 -1.1511 -0.1116
 7085SOL     OW32887   2.802   0.160   4.032  0.1615  0.4839 -0.3662
 7085SOL    HW132888   2.892   0.128   4.040 -0.1483 -0.4458 -0.5008
 7085SOL    HW232889   2.804   0.232   3.970  0.6635  2.5886  2.0800
 7086SOL     OW32890   3.995   1.389   4.037  0.1273 -0.2981 -0.5289
 7086SOL    HW132891   3.996   1.293   4.036 -0.9639 -0.3265  0.1649
 7086SOL    HW232892   3.910   1.417   4.004 -0.1076 -0.5241 -0.1222
 7087SOL     OW32893   4.230   2.306  14.183  0.2902  0.0858  0.1080
 7087SOL    HW132894   4.242   2.291  14.090  0.8953 -0.8973  0.3493
 7087SOL    HW232895   4.225   2.402  14.180  1.7282  0.2084  2.0232
 7088SOL     OW32896   4.301   1.946  14.984 -0.0329 -0.1428  0.2095
 7088SOL    HW132897   4.295   1.943  15.079 -0.3485  1.3098  0.2389
 7088SOL    HW232898   4.274   2.036  14.965 -0.9931 -0.3456  0.6301
 7089SOL     OW32899   1.066   2.217  17.355 -0.5061 -0.3438  0.6379
 7089SOL    HW132900   0.991   2.241  17.300  0.3935 -0.6512 -0.7280
 7089SOL    HW232901   1.022   2.195  17.437  0.2329  0.4313  1.2379
 7090SOL     OW32902   3.553   3.087   6.569 -0.2745  0.1253 -0.3315
 7090SOL    HW132903   3.580   3.007   6.525  3.5741  0.9249  0.5553
 7090SOL    HW232904   3.459   3.074   6.556  0.4526 -2.5049 -2.8806
 7091SOL     OW32905   1.124   1.052  17.632 -0.2044  0.7498 -0.6154
 7091SOL    HW132906   1.180   1.123  17.664  1.4651 -0.1672 -1.5343
 7091SOL    HW232907   1.127   0.996  17.709 -0.8721  1.3113 -0.1746
 7092SOL     OW32908   2.394   0.236   5.488  0.0507 -0.0743  0.0565
 7092SOL    HW132909   2.322   0.198   5.437 -1.1547  0.4561  1.3684
 7092SOL    HW232910   2.430   0.153   5.518 -0.6799 -0.2669  0.4069
 7093SOL     OW32911   4.682   2.600   2.227  0.6790  0.4900 -0.4137
 7093SOL    HW132912   4.721   2.518   2.258  1.8971  1.7464  1.3390
 7093SOL    HW232913   4.646   2.581   2.140 -1.6738  1.4389  0.3452
 7094SOL     OW32914   0.218   1.993   6.614 -0.5246  0.1666  0.1302
 7094SOL    HW132915   0.268   2.062   6.569  1.2334  0.0595  1.9473
 7094SOL    HW232916   0.136   2.010   6.568 -1.5750 -2.1624  1.1777
 7095SOL     OW32917   0.741   3.488   4.154 -0.2428  0.2103 -0.3813
 7095SOL    HW132918   0.792   3.540   4.092 -0.9367  0.3887 -0.7923
 7095SOL    HW232919   0.763   3.524   4.240  0.4683 -0.1727 -0.3986
 7096SOL     OW32920   4.444   2.466   0.433  0.1176  0.5170 -0.2693
 7096SOL    HW132921   4.390   2.544   0.420  0.5217  1.0076  1.0316
 7096SOL    HW232922   4.377   2.401   0.455  0.2925  0.2035 -0.6572
 7097SOL     OW32923   4.665   3.400   8.884 -0.0556  0.5668  0.0709
 7097SOL    HW132924   4.738   3.412   8.945  2.2529  0.6148 -2.7159
 7097SOL    HW232925   4.632   3.490   8.886  2.1298  1.3590 -0.6973
 7098SOL     OW32926   0.449   3.470   6.820 -0.6570  0.2177  0.5543
 7098SOL    HW132927   0.434   3.420   6.740  0.7471  0.7664 -0.0610
 7098SOL    HW232928   0.534   3.509   6.798  0.0592 -0.2253  2.5382
 7099SOL     OW32929   1.678   1.134   0.953 -0.0534  0.6432 -0.1984
 7099SOL    HW132930   1.589   1.120   0.985  0.0770 -1.7300 -0.8922
 7099SOL    HW232931   1.654   1.198   0.886 -0.2264  1.1477  0.3451
 7100SOL     OW32932   1.115   0.758  11.861 -0.4855  0.5042  0.2235
 7100SOL    HW132933   1.189   0.817  11.873 -0.4111  0.1364  1.5327
 7100SOL    HW232934   1.067   0.813  11.799 -0.0395  0.0117 -0.5629
 7101SOL     OW32935   3.057   4.504   3.140  0.7963  0.3178  0.1471
 7101SOL    HW132936   2.988   4.546   3.090  0.1403 -2.0499 -0.9684
 7101SOL    HW232937   3.093   4.464   3.061 -0.7000  3.3175 -2.0226
 7102SOL     OW32938   1.932   2.737   9.506 -0.4612  0.1343  0.3206
 7102SOL    HW132939   1.973   2.713   9.423 -0.6014 -3.5544  1.3417
 7102SOL    HW232940   1.849   2.763   9.466  0.3785  1.3042 -0.6510
 7103SOL     OW32941   1.579   0.891   8.405  0.3654 -0.1404 -1.0068
 7103SOL    HW132942   1.666   0.866   8.373 -0.5770 -2.3833 -1.8506
 7103SOL    HW232943   1.580   0.840   8.486  1.0961 -0.5888 -1.2931
 7104SOL     OW32944   2.481   0.254  10.713 -0.4722 -0.1413  0.5511
 7104SOL    HW132945   2.396   0.282  10.677 -0.3453  0.4049  0.6721
 7104SOL    HW232946   2.527   0.249  10.629 -1.6416  0.9772 -0.1620
 7105SOL     OW32947   2.987   0.041   9.230  0.1176 -0.4643  0.2979
 7105SOL    HW132948   2.894   0.018   9.234  0.1222 -0.7484 -1.2239
 7105SOL    HW232949   3.006   0.062   9.322 -0.4352 -0.0504  0.3148
 7106SOL     OW32950   2.265   1.846   6.361  0.1825 -0.2153 -0.2167
 7106SOL    HW132951   2.332   1.797   6.410 -0.1449  0.5421  0.9906
 7106SOL    HW232952   2.327   1.898   6.310 -0.5936 -0.2355 -1.1746
 7107SOL     OW32953   2.431   1.388   8.910 -0.1852 -0.0852 -0.6434
 7107SOL    HW132954   2.508   1.440   8.887  0.0098  0.5642  1.4893
 7107SOL    HW232955   2.455   1.384   9.002 -1.8106 -2.0872 -0.3131
 7108SOL     OW32956   3.676   0.473  14.919  0.0353 -0.2547  0.2659
 7108SOL    HW132957   3.715   0.555  14.889  0.6298 -0.5032  0.3432
 7108SOL    HW232958   3.594   0.512  14.949 -0.3490 -0.4120 -0.5856
 7109SOL     OW32959   4.240   4.462   9.830  0.4055 -0.0097  0.0578
 7109SOL    HW132960   4.184   4.508   9.767 -0.4038  0.5009  1.1374
 7109SOL    HW232961   4.182   4.431   9.900 -0.2185 -0.2014 -0.5437
 7110SOL     OW32962   2.603   2.054  16.706 -0.3561 -0.4333 -1.2153
 7110SOL    HW132963   2.537   1.999  16.749  0.2780  0.7754  1.3280
 7110SOL    HW232964   2.655   1.990  16.658  0.0179  0.3380 -1.8317
 7111SOL     OW32965   4.646   1.776  12.816  0.2132 -0.0579  0.3901
 7111SOL    HW132966   4.579   1.722  12.859 -0.7075  1.0168  0.3158
 7111SOL    HW232967   4.700   1.801  12.891  1.9793 -1.0525 -0.5524
 7112SOL     OW32968   0.193   1.735   4.572 -1.1824 -0.9845 -0.5622
 7112SOL    HW132969   0.184   1.804   4.637  0.5714  0.9338 -2.3429
 7112SOL    HW232970   0.191   1.666   4.638  0.1271  0.2989  0.8100
 7113SOL     OW32971   0.503   0.141   4.945  0.7778  0.0007 -0.1806
 7113SOL    HW132972   0.484   0.136   5.038  0.2726 -1.1297 -0.3416
 7113SOL    HW232973   0.451   0.069   4.910  1.2432 -0.0973 -0.6733
 7114SOL     OW32974   0.164   1.654   7.594  0.5679 -0.0954 -0.1306
 7114SOL    HW132975   0.134   1.598   7.665  1.0204 -0.8252 -0.5157
 7114SOL    HW232976   0.198   1.728   7.644  4.1911 -1.7812 -0.1238
 7115SOL     OW32977   3.044   4.405   2.668 -0.8051  0.1724  0.4120
 7115SOL    HW132978   2.952   4.393   2.690 -0.8803  1.2426  0.6939
 7115SOL    HW232979   3.051   4.500   2.663  1.8645 -0.1478 -2.2192
 7116SOL     OW32980   2.592   4.593   9.635  0.0172 -0.0022 -0.2090
 7116SOL    HW132981   2.585   4.647   9.714 -0.4141 -0.4535  0.0646
 7116SOL    HW232982   2.685   4.580   9.621 -0.1926 -2.4661  0.6522
 7117SOL     OW32983   2.415   4.375   9.810  0.3158  0.0112 -0.2335
 7117SOL    HW132984   2.406   4.400   9.902 -1.8619 -1.8289  0.0587
 7117SOL    HW232985   2.481   4.307   9.816 -1.7680 -1.9144  0.9223
 7118SOL     OW32986   3.058   2.606   1.290 -0.1033 -0.5935 -0.0365
 7118SOL    HW132987   2.962   2.599   1.293 -0.1407  0.3084  0.7235
 7118SOL    HW232988   3.081   2.568   1.205 -0.0626  2.2047 -1.2789
 7119SOL     OW32989   2.099   3.409   3.804 -0.2184 -0.7102  0.3908
 7119SOL    HW132990   2.049   3.382   3.727  1.1001 -0.2740 -0.6254
 7119SOL    HW232991   2.098   3.504   3.796  1.1950 -0.5512  2.1176
 7120SOL     OW32992   3.753   1.363   6.173  0.0474 -0.1034  0.8294
 7120SOL    HW132993   3.791   1.329   6.254  0.4202  1.0288  1.1313
 7120SOL    HW232994   3.828   1.396   6.124 -0.0348 -1.7468 -0.3906
 7121SOL     OW32995   2.259   3.761   9.486  0.1181  0.8380 -0.0853
 7121SOL    HW132996   2.292   3.849   9.501 -1.0709  1.3394 -0.3697
 7121SOL    HW232997   2.218   3.747   9.572  1.2081  0.6704  0.4063
 7122SOL     OW32998   2.222   0.965   3.539  0.2384 -0.1068 -0.2731
 7122SOL    HW132999   2.138   1.011   3.543  0.5003  0.2619  0.9857
 7122SOL    HW233000   2.244   0.962   3.632 -2.7827  2.5073  0.5135
 7123SOL     OW33001   3.364   4.700  15.402  0.2092 -0.4855 -0.1064
 7123SOL    HW133002   3.405   4.617  15.377 -0.0716 -1.4055  2.4367
 7123SOL    HW233003   3.404   0.020  15.338  0.9516 -1.5201 -0.5993
 7124SOL     OW33004   2.638   0.834  14.428 -0.5068  0.0490 -0.3334
 7124SOL    HW133005   2.624   0.804  14.518  1.0160 -0.9783 -0.4544
 7124SOL    HW233006   2.654   0.928  14.434 -0.2178 -0.2439  3.6283
 7125SOL     OW33007   3.987   2.423   3.447 -0.1545  0.4200  0.1021
 7125SOL    HW133008   4.035   2.350   3.409 -1.0321  0.6743 -1.4830
 7125SOL    HW233009   3.906   2.406   3.398 -1.1667 -1.4323  2.3658
 7126SOL     OW33010   0.054   2.623  15.454 -0.2789  0.0400  0.3720
 7126SOL    HW133011   0.103   2.595  15.376  0.4566  1.8475  0.1931
 7126SOL    HW233012   0.091   2.572  15.526  1.2586 -0.0082 -0.4537
 7127SOL     OW33013   2.887   0.503   4.948  0.1103 -0.9570  0.0238
 7127SOL    HW133014   2.824   0.439   4.913  0.2111 -1.4967  0.8209
 7127SOL    HW233015   2.956   0.489   4.883 -0.0740  1.4952 -0.6854
 7128SOL     OW33016   0.372   1.602   1.446 -0.7884  0.1252  0.0343
 7128SOL    HW133017   0.446   1.575   1.501  0.0338 -0.3703 -1.3213
 7128SOL    HW233018   0.299   1.558   1.489 -0.1677 -1.2753 -0.3618
 7129SOL     OW33019   4.529   3.127   8.152  0.3183  0.4022 -0.0288
 7129SOL    HW133020   4.533   3.165   8.239 -0.9170  0.0145  0.1994
 7129SOL    HW233021   4.532   3.034   8.177  3.0658  0.4350 -0.1621
 7130SOL     OW33022   0.653   0.320   2.047 -0.2488  0.1283 -0.0991
 7130SOL    HW133023   0.573   0.269   2.038  0.3617 -0.5658 -1.5458
 7130SOL    HW233024   0.637   0.354   2.135 -1.7554  2.0437 -1.1248
 7131SOL     OW33025   0.096   0.959   3.320 -0.3507  0.5577  0.3349
 7131SOL    HW133026   0.036   1.030   3.341 -1.0359 -0.3032  1.2961
 7131SOL    HW233027   0.179   1.006   3.319 -1.0156  1.7145 -0.1665
 7132SOL     OW33028   3.126   2.413   5.375 -0.4161  0.3116 -0.0020
 7132SOL    HW133029   3.189   2.352   5.338  0.3742  1.0184  0.1668
 7132SOL    HW233030   3.119   2.465   5.294  1.7100  0.6932  0.0500
 7133SOL     OW33031   2.788   4.721  11.318 -0.3144  0.6203 -0.2678
 7133SOL    HW133032   2.705   4.681  11.290 -0.6548 -0.1965  1.9080
 7133SOL    HW233033   2.813   0.042  11.247  0.8953  2.0678  1.3843
 7134SOL     OW33034   4.419   1.527   9.098  0.2167 -0.2028 -0.5521
 7134SOL    HW133035   4.468   1.552   9.019 -0.7925  1.5870 -0.6107
 7134SOL    HW233036   4.435   1.433   9.103 -0.0490 -0.1243  1.6585
 7135SOL     OW33037   4.413   3.417   9.836  0.2353  0.2740 -0.4865
 7135SOL    HW133038   4.468   3.491   9.863 -0.3930  0.5892 -0.0529
 7135SOL    HW233039   4.327   3.455   9.816 -0.8869 -1.2977  1.3139
 7136SOL     OW33040   2.762   2.171   4.872  0.1003 -0.3449  0.1668
 7136SOL    HW133041   2.749   2.181   4.967 -0.0816  0.4420  0.0584
 7136SOL    HW233042   2.711   2.243   4.837  0.0789 -0.1237  0.6480
 7137SOL     OW33043   1.959   1.910   4.393 -0.1995  0.2860 -0.3301
 7137SOL    HW133044   2.001   1.825   4.393 -1.1827 -0.2092 -1.4609
 7137SOL    HW233045   1.952   1.926   4.487 -1.7991  1.1139 -0.5688
 7138SOL     OW33046   1.167   1.251  15.546  0.2189 -0.0865 -0.5859
 7138SOL    HW133047   1.158   1.275  15.638  0.9992  0.5375 -0.6737
 7138SOL    HW233048   1.261   1.233  15.539  1.0107  4.0245 -0.0531
 7139SOL     OW33049   0.631   3.115   8.864 -0.4294 -0.1875 -0.6015
 7139SOL    HW133050   0.573   3.183   8.899  0.4412  0.1032  0.2848
 7139SOL    HW233051   0.642   3.153   8.776  2.9491 -0.5855 -0.3315
 7140SOL     OW33052   3.246   0.824  14.629  0.2268  0.2014  0.1257
 7140SOL    HW133053   3.198   0.842  14.710 -0.9419 -0.6535 -0.3838
 7140SOL    HW233054   3.248   0.906  14.579  0.9019  0.7668  1.0701
 7141SOL     OW33055   2.127   2.391   6.080 -0.5976 -0.2248  0.2183
 7141SOL    HW133056   2.165   2.388   5.992  0.4686  0.2620  0.6615
 7141SOL    HW233057   2.204   2.413   6.134  0.2595 -1.3857 -0.5362
 7142SOL     OW33058   3.638   3.489   7.781  0.4335 -0.4496  0.9718
 7142SOL    HW133059   3.608   3.399   7.787  0.3577 -0.3186  2.4571
 7142SOL    HW233060   3.624   3.529   7.866  0.1313 -0.5582  0.9746
 7143SOL     OW33061   2.495   4.572  16.516  0.6217 -0.0047 -0.2623
 7143SOL    HW133062   2.485   4.621  16.434 -0.2787 -0.8686 -0.6541
 7143SOL    HW233063   2.575   4.527  16.489  0.2026 -0.1732 -1.2160
 7144SOL     OW33064   4.454   2.682  14.431  0.4883 -0.0151  0.0706
 7144SOL    HW133065   4.464   2.603  14.378 -0.8459 -0.2794  0.2123
 7144SOL    HW233066   4.368   2.712  14.403  0.7671  0.8536  0.1433
 7145SOL     OW33067   2.782   0.378  10.471 -0.4507  0.1302  0.3675
 7145SOL    HW133068   2.743   0.291  10.457  0.5728 -0.5568  1.7556
 7145SOL    HW233069   2.792   0.378  10.566  2.2596 -1.1359  0.0963
 7146SOL     OW33070   2.175   3.235   4.734  0.4424 -0.6386  0.1142
 7146SOL    HW133071   2.114   3.231   4.808  1.2800 -1.6213  0.7402
 7146SOL    HW233072   2.261   3.216   4.769  0.2818 -0.6860  0.4840
 7147SOL     OW33073   3.652   3.941   3.121 -0.6428  0.6462 -0.5189
 7147SOL    HW133074   3.704   3.970   3.046  1.4599 -0.0182  0.6596
 7147SOL    HW233075   3.646   3.848   3.097  2.4504  0.4475 -0.6442
 7148SOL     OW33076   0.602   0.278  15.179  0.3328 -0.1738 -0.2462
 7148SOL    HW133077   0.524   0.274  15.233  0.6583 -1.5431  0.1213
 7148SOL    HW233078   0.591   0.356  15.124 -1.7125  0.6668  1.3500
 7149SOL     OW33079   1.177   0.601   8.801  0.5843 -0.6055 -0.5520
 7149SOL    HW133080   1.119   0.666   8.842  1.7507  1.1461 -1.6643
 7149SOL    HW233081   1.116   0.538   8.763 -1.5805  3.0876 -3.1916
 7150SOL     OW33082   4.175   3.443   5.202 -0.4988  0.2006  0.2133
 7150SOL    HW133083   4.232   3.520   5.201 -1.7429  1.1164 -0.4481
 7150SOL    HW233084   4.210   3.383   5.137 -0.9446  0.0631  0.1049
 7151SOL     OW33085   4.345   2.016   8.227 -0.3121 -0.1210  0.1404
 7151SOL    HW133086   4.406   2.029   8.300 -0.5540  0.7055  0.2046
 7151SOL    HW233087   4.261   1.997   8.269  1.0719  0.6857  3.2937
 7152SOL     OW33088   2.563   3.246  16.194  0.8124  0.2275 -0.1654
 7152SOL    HW133089   2.518   3.304  16.255  0.8060  0.1300 -0.0788
 7152SOL    HW233090   2.510   3.168  16.207 -0.9418  1.0869 -2.0689
 7153SOL     OW33091   1.427   1.686   3.899  0.7677 -0.2822 -0.9035
 7153SOL    HW133092   1.520   1.690   3.922  0.3744  0.9150  0.4556
 7153SOL    HW233093   1.417   1.604   3.948  0.7178 -0.4742 -1.2289
 7154SOL     OW33094   2.531   0.118  11.646  0.4536 -0.2816 -0.5163
 7154SOL    HW133095   2.532   0.058  11.721 -2.2419  0.1922 -0.0768
 7154SOL    HW233096   2.440   0.100  11.621  0.2706 -1.4406  0.9395
 7155SOL     OW33097   3.876   3.942  11.455  0.0378 -0.3566  0.4708
 7155SOL    HW133098   3.853   4.018  11.509  2.6406  1.3854 -0.8591
 7155SOL    HW233099   3.848   3.870  11.512 -0.6018  0.0732  0.6852
 7156SOL     OW33100   1.718   0.225  12.204 -0.0874 -0.4458 -0.0374
 7156SOL    HW133101   1.804   0.251  12.238 -0.2386  0.7137 -0.5646
 7156SOL    HW233102   1.651   0.259  12.263 -1.6616 -3.1075 -0.2761
 7157SOL     OW33103   1.593   2.686  15.266  1.1690  0.2031 -0.0775
 7157SOL    HW133104   1.605   2.775  15.233  1.5386 -0.4662 -1.7925
 7157SOL    HW233105   1.605   2.629  15.189  1.0485 -1.5296  1.1764
 7158SOL     OW33106   0.958   3.086  16.846  0.1510 -0.4058  0.0240
 7158SOL    HW133107   0.992   3.001  16.875 -2.4957 -0.9629  1.4872
 7158SOL    HW233108   1.039   3.132  16.823  0.1612  0.0868  1.0654
 7159SOL     OW33109   1.191   3.622  13.017  0.2039 -0.2464  0.1481
 7159SOL    HW133110   1.276   3.584  12.998 -0.8143 -2.0449 -0.8473
 7159SOL    HW233111   1.136   3.558  12.971 -0.8721  2.0851 -1.8578
 7160SOL     OW33112   3.943   2.670   5.192 -0.0659  0.1703 -0.3187
 7160SOL    HW133113   3.848   2.681   5.185  0.1213  0.9093 -1.5956
 7160SOL    HW233114   3.954   2.714   5.277  1.6430 -2.3819  0.7964
 7161SOL     OW33115   0.757   0.925   5.980  0.2690 -0.3489  0.0243
 7161SOL    HW133116   0.689   0.970   6.029 -0.7906 -1.3261 -0.5637
 7161SOL    HW233117   0.725   0.936   5.891 -0.4379  0.4941  0.3858
 7162SOL     OW33118   4.515   4.404   2.579  0.3268 -0.4598  0.3012
 7162SOL    HW133119   4.458   4.421   2.503  0.8699  1.4278  0.3215
 7162SOL    HW233120   4.543   4.489   2.612  0.4799  0.4030 -2.0579
 7163SOL     OW33121   1.615   1.916   5.592  0.7940 -0.6234  0.3438
 7163SOL    HW133122   1.528   1.945   5.619  0.0967 -2.4070  0.0356
 7163SOL    HW233123   1.597   1.824   5.573  2.0866 -0.8251  0.0949
 7164SOL     OW33124   0.136   4.475  16.103  0.5370  0.0179  0.2133
 7164SOL    HW133125   0.048   4.463  16.068  1.6919 -2.9132 -1.6642
 7164SOL    HW233126   0.130   4.565  16.137 -1.3839 -0.1431  0.2518
 7165SOL     OW33127   1.291   3.518  11.861  0.0483  0.1520  0.0080
 7165SOL    HW133128   1.280   3.560  11.776 -1.8481  0.0964  0.2088
 7165SOL    HW233129   1.359   3.454  11.839 -0.0593  0.4067 -1.0644
 7166SOL     OW33130   4.287   3.725   7.287 -0.0990  0.5063  0.1368
 7166SOL    HW133131   4.318   3.811   7.257  1.1106 -0.0036 -0.0896
 7166SOL    HW233132   4.233   3.746   7.363  2.0706  0.6069  1.6431
 7167SOL     OW33133   1.214   1.024   1.347  0.2136  0.1129  0.4262
 7167SOL    HW133134   1.213   0.957   1.278 -1.1302  2.7326 -2.1089
 7167SOL    HW233135   1.298   1.009   1.390 -0.5413 -1.5652  1.2962
 7168SOL     OW33136   4.070   3.534   7.157 -0.2764 -0.1865  0.7016
 7168SOL    HW133137   4.071   3.553   7.250 -3.6748 -1.0927  0.9408
 7168SOL    HW233138   4.048   3.619   7.120 -1.1245 -0.9911 -0.6549
 7169SOL     OW33139   2.000   0.899   5.898 -0.0601 -0.8405 -0.7545
 7169SOL    HW133140   2.061   0.952   5.845 -0.0999  0.8744  0.9207
 7169SOL    HW233141   1.940   0.863   5.833 -0.8461 -2.5418  0.9164
 7170SOL     OW33142   2.828   2.750  16.954 -0.1134  0.3422  0.5859
 7170SOL    HW133143   2.858   2.822  16.899 -0.6397  0.1354  0.0336
 7170SOL    HW233144   2.784   2.792  17.028 -1.1485 -0.9375  0.6902
 7171SOL     OW33145   3.688   0.478   3.647 -0.5055 -0.1618 -0.0563
 7171SOL    HW133146   3.636   0.492   3.568 -2.2000  2.8727  1.6174
 7171SOL    HW233147   3.619   0.474   3.713  0.6216  0.9115  1.1897
 7172SOL     OW33148   0.233   4.238   3.857 -0.1644 -0.0373 -0.1133
 7172SOL    HW133149   0.172   4.209   3.789  0.5945  0.5797 -1.0585
 7172SOL    HW233150   0.238   4.327   3.823 -0.7460 -0.0109 -0.1249
 7173SOL     OW33151   0.642   3.150  10.466  0.5011  0.0866  0.3875
 7173SOL    HW133152   0.637   3.057  10.489  1.7443 -0.4440 -1.4310
 7173SOL    HW233153   0.578   3.190  10.524  1.0478  1.1836  0.2194
 7174SOL     OW33154   4.022   2.362   8.810  0.0308 -0.1650 -0.9395
 7174SOL    HW133155   4.056   2.276   8.835  0.4310  0.4083  0.5164
 7174SOL    HW233156   3.972   2.332   8.735 -0.7080 -0.2150 -0.4274
 7175SOL     OW33157   2.985   0.966   2.699  0.7121 -0.5871  0.0780
 7175SOL    HW133158   2.976   0.990   2.607 -1.0987 -3.6136 -0.5062
 7175SOL    HW233159   3.048   1.037   2.718  1.7966 -1.4047 -0.4489
 7176SOL     OW33160   1.006   0.228  17.718 -0.0819  0.2827 -0.1991
 7176SOL    HW133161   1.014   0.135  17.701 -1.7162  0.4941 -2.1371
 7176SOL    HW233162   0.931   0.257  17.665  0.1532 -0.8858 -1.1510
 7177SOL     OW33163   0.062   1.782   3.901  0.7172 -0.4363 -0.9483
 7177SOL    HW133164   0.035   1.869   3.872 -0.4193 -1.0584 -1.7801
 7177SOL    HW233165   4.723   1.728   3.886 -0.5885  2.0156 -2.9223
 7178SOL     OW33166   2.410   4.413   8.388 -0.3894 -0.6070  0.4682
 7178SOL    HW133167   2.434   4.496   8.346  0.3164 -1.3826 -0.6659
 7178SOL    HW233168   2.433   4.425   8.480 -1.9369 -0.9242  0.8982
 7179SOL     OW33169   1.237   0.758   0.578  0.3567  0.2513 -0.4759
 7179SOL    HW133170   1.203   0.846   0.569 -2.0183 -0.4932  1.2225
 7179SOL    HW233171   1.312   0.783   0.633 -1.8102  0.5074  2.3815
 7180SOL     OW33172   3.701   1.377   4.045  0.5193 -0.6557  0.0500
 7180SOL    HW133173   3.706   1.449   4.106 -1.7008  0.1142 -0.7112
 7180SOL    HW233174   3.690   1.308   4.110 -0.3717 -1.2691 -0.7401
 7181SOL     OW33175   1.575   0.214  14.446 -0.1443  0.6759  0.2404
 7181SOL    HW133176   1.650   0.240  14.392  0.3076 -1.2149 -0.0437
 7181SOL    HW233177   1.595   0.130  14.487 -0.9986 -0.4773 -1.6952
 7182SOL     OW33178   1.811   2.899   5.745  0.2299 -0.5859 -0.3367
 7182SOL    HW133179   1.841   2.941   5.825 -0.2788  0.7871 -0.8575
 7182SOL    HW233180   1.808   2.980   5.695 -2.8408 -0.8426 -0.6043
 7183SOL     OW33181   0.863   0.528   1.279 -0.2135 -0.2691 -0.3306
 7183SOL    HW133182   0.886   0.435   1.274 -0.5050 -0.3115 -0.9370
 7183SOL    HW233183   0.953   0.560   1.286  0.5368 -2.5206  0.5760
 7184SOL     OW33184   2.276   1.641   5.042  0.5129 -0.3141 -0.0212
 7184SOL    HW133185   2.289   1.554   5.003 -1.4900 -0.1521 -1.0446
 7184SOL    HW233186   2.187   1.631   5.075  0.9263 -1.8957  0.6331
 7185SOL     OW33187   1.630   2.046   6.576  1.0115 -0.1973  0.2664
 7185SOL    HW133188   1.582   2.013   6.653  0.6296 -2.0358 -0.7586
 7185SOL    HW233189   1.556   2.088   6.534 -0.5296 -2.0161  1.1210
 7186SOL     OW33190   3.097   3.067   2.112  0.6968 -0.0896 -0.0827
 7186SOL    HW133191   3.143   3.148   2.131 -1.7773  0.7549  2.4098
 7186SOL    HW233192   3.061   3.090   2.027  0.7575 -0.6167 -0.2517
 7187SOL     OW33193   3.443   1.671   9.567  0.4167 -0.4815 -0.0518
 7187SOL    HW133194   3.405   1.673   9.479  1.5204  2.2941 -0.4693
 7187SOL    HW233195   3.479   1.760   9.576  0.9487 -0.9917  2.8125
 7188SOL     OW33196   3.898   4.406  14.275 -0.4140 -0.1174 -0.2690
 7188SOL    HW133197   3.828   4.412  14.340  0.5229 -0.3416  0.7748
 7188SOL    HW233198   3.973   4.464  14.288  1.5627 -3.2236  2.2194
 7189SOL     OW33199   4.161   2.215   3.343  0.2415  0.0174 -0.2248
 7189SOL    HW133200   4.143   2.241   3.252  1.0940 -1.4693 -0.8177
 7189SOL    HW233201   4.256   2.223   3.351  0.3639 -1.7097  0.1730
 7190SOL     OW33202   2.206   0.421  15.281  0.0786  0.3789  0.4994
 7190SOL    HW133203   2.286   0.449  15.325  0.9142  0.4060 -1.0721
 7190SOL    HW233204   2.196   0.345  15.340  0.0899 -0.9921 -1.2710
 7191SOL     OW33205   2.896   4.053  16.362  0.3822  0.1618  0.1771
 7191SOL    HW133206   2.969   4.104  16.326  1.6845 -0.4864  1.9077
 7191SOL    HW233207   2.855   4.118  16.421 -0.9044 -0.3042 -0.2065
 7192SOL     OW33208   1.615   1.596  15.067 -0.5118 -0.0392 -0.3813
 7192SOL    HW133209   1.622   1.624  15.158 -2.3200 -0.9838  0.0533
 7192SOL    HW233210   1.692   1.540  15.057 -0.0842  0.8576 -2.2753
 7193SOL     OW33211   4.304   4.055  11.211  0.5608 -0.1056 -0.1088
 7193SOL    HW133212   4.338   4.010  11.134 -0.3014 -2.5215  0.9214
 7193SOL    HW233213   4.230   4.101  11.171 -0.1869 -2.2095 -1.1158
 7194SOL     OW33214   4.403   4.243   8.982 -0.6208 -0.1847 -0.6500
 7194SOL    HW133215   4.308   4.254   8.983 -0.5976  0.1797 -1.9616
 7194SOL    HW233216   4.411   4.180   9.054 -0.6958  1.3650  0.7145
 7195SOL     OW33217   1.315   1.581  12.440 -0.2714  0.6720  0.3018
 7195SOL    HW133218   1.272   1.645  12.495 -0.1117  0.8614  0.2051
 7195SOL    HW233219   1.262   1.501  12.445  1.2900 -0.5688 -2.6782
 7196SOL     OW33220   4.058   3.111   3.979  0.1563  0.6586  0.3092
 7196SOL    HW133221   3.992   3.047   3.950 -0.1953 -0.0508  2.6544
 7196SOL    HW233222   4.021   3.195   3.951  0.1525  0.4226 -0.3920
 7197SOL     OW33223   0.977   4.170  15.280  0.2896  0.9461 -0.2770
 7197SOL    HW133224   1.023   4.178  15.364  0.4605 -4.1432  0.1359
 7197SOL    HW233225   0.969   4.074  15.273 -0.6023  0.8074  2.3713
 7198SOL     OW33226   3.242   1.567  17.048  0.4611 -0.1944 -0.2719
 7198SOL    HW133227   3.291   1.631  17.099  1.3450 -0.4293 -0.8176
 7198SOL    HW233228   3.174   1.539  17.109 -0.1042  0.6194 -0.5345
 7199SOL     OW33229   2.390   0.755   3.422  0.1736 -0.1086  0.0387
 7199SOL    HW133230   2.306   0.786   3.456 -0.0186 -0.8497  0.2459
 7199SOL    HW233231   2.375   0.784   3.332  0.0857  0.3475  0.2033
 7200SOL     OW33232   1.124   2.476   6.844 -0.3442  0.8502  0.2577
 7200SOL    HW133233   1.157   2.563   6.867  0.5071  0.2429  1.3378
 7200SOL    HW233234   1.196   2.455   6.786  0.0940  0.3561  0.9778
 7201SOL     OW33235   1.625   1.375   8.776  0.1529  0.1811 -0.0411
 7201SOL    HW133236   1.672   1.432   8.838 -1.1579  2.3623 -1.0284
 7201SOL    HW233237   1.655   1.410   8.692  1.7131  1.3900  1.0195
 7202SOL     OW33238   0.224   2.828   1.987  0.1477  0.3756  0.1502
 7202SOL    HW133239   0.223   2.753   1.928  1.8258 -0.3775  1.0729
 7202SOL    HW233240   0.133   2.857   1.989  0.5895  1.6499  1.5728
 7203SOL     OW33241   0.712   2.117  11.958  0.6242 -0.3476  0.1953
 7203SOL    HW133242   0.747   2.033  11.928  2.2760  1.1616 -2.0357
 7203SOL    HW233243   0.639   2.128  11.898  1.6783 -0.0785 -1.0263
 7204SOL     OW33244   1.956   2.647   4.427  0.5382 -0.2385  0.0762
 7204SOL    HW133245   1.888   2.677   4.487  0.7785 -0.3656  0.4119
 7204SOL    HW233246   1.944   2.688   4.341 -0.1574 -2.6559 -0.9953
 7205SOL     OW33247   4.098   0.453   8.709  0.2989 -0.1178  0.2338
 7205SOL    HW133248   4.154   0.491   8.642  1.6907 -0.5576  1.1528
 7205SOL    HW233249   4.106   0.515   8.781 -1.4528 -0.8568  1.0813
 7206SOL     OW33250   2.659   2.220   5.949  0.1248 -0.2017  0.3573
 7206SOL    HW133251   2.710   2.242   5.871  0.2286  1.0227  0.7857
 7206SOL    HW233252   2.717   2.178   6.012  0.3246  1.0219  0.9794
 7207SOL     OW33253   3.809   1.508   3.558 -0.1894  0.9907 -0.1297
 7207SOL    HW133254   3.891   1.481   3.516  0.2002 -0.4945  1.5774
 7207SOL    HW233255   3.768   1.422   3.570 -1.8326  1.7471 -0.3112
 7208SOL     OW33256   1.612   1.273  17.653 -0.1697 -0.6737  0.1954
 7208SOL    HW133257   1.695   1.247  17.692 -1.1975 -3.0963  0.7904
 7208SOL    HW233258   1.633   1.363  17.628  0.1290 -0.7154  0.2895
 7209SOL     OW33259   1.618   0.424   0.340  0.3612 -0.5346  0.4330
 7209SOL    HW133260   1.640   0.482   0.266  1.0805  0.0926  1.1392
 7209SOL    HW233261   1.522   0.426   0.338  0.3414 -1.9463 -0.2269
 7210SOL     OW33262   2.966   4.115   2.370 -0.2418  0.0126  0.2112
 7210SOL    HW133263   3.052   4.126   2.412 -0.6430  1.0982  0.7399
 7210SOL    HW233264   2.921   4.105   2.454  2.3100  0.7498  1.6904
 7211SOL     OW33265   3.352   0.012   9.122 -0.2734 -0.3541  0.1457
 7211SOL    HW133266   3.309   0.089   9.085 -1.3268 -0.5620  0.9461
 7211SOL    HW233267   3.335   0.029   9.215 -1.0176 -0.7409  0.0825
 7212SOL     OW33268   0.242   2.679  15.961 -0.2049 -0.0649  0.2178
 7212SOL    HW133269   0.184   2.754  15.974 -0.7175 -0.4732  0.2981
 7212SOL    HW233270   0.278   2.667  16.049  0.2598 -0.7832 -0.0695
 7213SOL     OW33271   2.420   2.588   7.094  0.4567  0.0390  0.6069
 7213SOL    HW133272   2.438   2.565   7.185 -2.0263 -0.3443  0.9911
 7213SOL    HW233273   2.365   2.514   7.069 -1.4482  0.4079  3.6280
 7214SOL     OW33274   3.984   1.419  17.554 -0.5563 -0.1717 -0.0160
 7214SOL    HW133275   4.059   1.401  17.497 -0.1194  1.5701  0.0204
 7214SOL    HW233276   3.959   1.502  17.512 -0.0796  0.9316  1.9126
 7215SOL     OW33277   2.811   3.086  15.993  0.2372 -0.3726 -0.3097
 7215SOL    HW133278   2.779   3.024  16.058  1.0195 -0.6979 -0.2325
 7215SOL    HW233279   2.903   3.059  15.989  0.4891  0.7756 -2.4908
 7216SOL     OW33280   3.841   0.353   5.568  0.6301  0.2468  0.0049
 7216SOL    HW133281   3.760   0.384   5.607  1.1990  2.9026 -0.9088
 7216SOL    HW233282   3.824   0.259   5.574 -0.5396  0.3981 -0.8800
 7217SOL     OW33283   2.467   1.122  12.376 -0.4079  0.2177  0.7434
 7217SOL    HW133284   2.478   1.214  12.398  0.8580  0.2489 -0.0009
 7217SOL    HW233285   2.476   1.117  12.281 -1.3716  0.2165  0.6501
 7218SOL     OW33286   1.084   0.108   7.195 -0.0889  0.4209 -0.6157
 7218SOL    HW133287   1.167   0.099   7.242 -0.7922  0.3937  0.6221
 7218SOL    HW233288   1.111   0.063   7.115 -1.5401  0.5531 -1.1653
 7219SOL     OW33289   3.777   0.808  11.344 -0.1717 -0.2513 -0.1373
 7219SOL    HW133290   3.798   0.814  11.251  1.5805  1.2418  0.3533
 7219SOL    HW233291   3.786   0.898  11.376 -2.2891  0.9914 -3.0592
 7220SOL     OW33292   0.218   0.201  17.269  0.0230  0.3772  0.1506
 7220SOL    HW133293   0.261   0.168  17.190  0.3197 -0.2074  0.5563
 7220SOL    HW233294   0.229   0.121  17.321  2.3605  1.7259  1.7211
 7221SOL     OW33295   2.758   1.195  16.187 -0.3815  0.4316 -0.5042
 7221SOL    HW133296   2.845   1.166  16.213 -0.1138  2.8482  1.2489
 7221SOL    HW233297   2.779   1.261  16.121 -2.0272 -0.4941 -1.9660
 7222SOL     OW33298   1.530   2.118   3.260 -0.0084  0.3783 -0.7060
 7222SOL    HW133299   1.615   2.085   3.290 -1.9875 -3.2880  0.8881
 7222SOL    HW233300   1.546   2.131   3.167  1.6225 -0.0479 -0.4947
 7223SOL     OW33301   1.935   1.003   7.617  0.4917 -1.0489 -0.3273
 7223SOL    HW133302   1.908   1.000   7.525 -0.1694 -1.3795 -0.1193
 7223SOL    HW233303   2.000   0.933   7.616  2.1170  0.4002  3.1417
 7224SOL     OW33304   3.724   1.110   4.886 -0.0527  0.0741 -0.1341
 7224SOL    HW133305   3.632   1.109   4.861 -0.3875 -1.3645  1.1691
 7224SOL    HW233306   3.768   1.170   4.826 -1.9083  0.0560 -1.5175
 7225SOL     OW33307   1.885   4.302   5.423  0.4190  0.7833  0.2259
 7225SOL    HW133308   1.795   4.321   5.452  0.2871  2.1184 -1.0247
 7225SOL    HW233309   1.896   4.371   5.358 -0.0344 -0.5483 -1.2666
 7226SOL     OW33310   2.388   2.194  14.813  0.7193 -0.7335  0.1056
 7226SOL    HW133311   2.369   2.246  14.735  0.8554 -1.9580 -0.7384
 7226SOL    HW233312   2.386   2.254  14.888  0.2538 -0.9935  0.2991
 7227SOL     OW33313   2.960   2.822   2.215 -0.5010  0.7667  0.0981
 7227SOL    HW133314   2.865   2.839   2.219 -0.8144 -0.9677 -0.1895
 7227SOL    HW233315   2.993   2.899   2.169  0.3768  0.0890 -0.3932
 7228SOL     OW33316   2.004   2.575   5.453  0.4228  0.8031  0.4280
 7228SOL    HW133317   1.985   2.669   5.450 -2.4067  0.2285  1.0566
 7228SOL    HW233318   1.979   2.534   5.371 -1.0925  1.6906  0.4604
 7229SOL     OW33319   0.747   4.068   9.690  0.1458 -0.5905  0.1990
 7229SOL    HW133320   0.746   3.990   9.746  1.3093 -1.7851 -1.4220
 7229SOL    HW233321   0.671   4.109   9.732 -0.5655 -1.0943 -0.5946
 7230SOL     OW33322   2.087   4.586   8.576  0.3024  0.0241  0.1299
 7230SOL    HW133323   2.021   4.555   8.514  0.6362 -2.6919  1.1089
 7230SOL    HW233324   2.040   4.585   8.659  0.0100  0.7651 -0.0251
 7231SOL     OW33325   2.439   3.956   7.187  0.3736 -0.1325 -0.4821
 7231SOL    HW133326   2.396   3.884   7.140 -2.9240  0.7043  1.2763
 7231SOL    HW233327   2.446   4.025   7.120 -0.5243 -0.4095 -0.8609
 7232SOL     OW33328   2.563   4.056   9.709  0.1675  0.3603 -0.1667
 7232SOL    HW133329   2.612   3.993   9.655 -0.4082 -0.1794 -0.0496
 7232SOL    HW233330   2.576   4.141   9.665  2.3632 -0.4923 -1.2031
 7233SOL     OW33331   2.722   0.463  15.097  0.5391 -0.0873  0.1865
 7233SOL    HW133332   2.803   0.509  15.121  0.3238  0.0617  0.6210
 7233SOL    HW233333   2.706   0.413  15.176 -0.4831 -1.0975 -0.6682
 7234SOL     OW33334   2.878   2.171   2.034  0.5331 -0.4648  0.2982
 7234SOL    HW133335   2.875   2.232   2.108  1.6828 -1.6943  1.3688
 7234SOL    HW233336   2.794   2.195   1.996  0.2289  1.2203  2.0187
 7235SOL     OW33337   4.100   2.286   9.211 -0.1093  0.3924 -0.0486
 7235SOL    HW133338   4.120   2.379   9.205 -1.0295  0.6801  1.3427
 7235SOL    HW233339   4.009   2.282   9.183  0.4021 -2.7024 -1.2920
 7236SOL     OW33340   4.661   1.985   3.033  0.7573  0.0111 -0.2035
 7236SOL    HW133341   4.631   2.074   3.051  0.6459 -0.1965  0.6504
 7236SOL    HW233342   4.581   1.935   3.047  0.1130  1.2636  0.6558
 7237SOL     OW33343   1.786   2.405   1.880 -0.3381 -0.5082  0.1304
 7237SOL    HW133344   1.777   2.438   1.791  2.6597 -1.1088 -0.4108
 7237SOL    HW233345   1.701   2.420   1.922 -0.2572  0.8897 -0.2186
 7238SOL     OW33346   0.209   3.603   8.137 -0.2180 -0.7260  0.3112
 7238SOL    HW133347   0.147   3.538   8.169 -0.7468 -0.6775 -0.6019
 7238SOL    HW233348   0.196   3.581   8.044  0.8335  0.8648 -0.2052
 7239SOL     OW33349   3.829   0.265   9.640 -0.3355 -0.5563 -0.2446
 7239SOL    HW133350   3.769   0.334   9.668  0.5139  1.8617 -4.3169
 7239SOL    HW233351   3.774   0.203   9.593 -1.2518 -1.3395  1.8567
 7240SOL     OW33352   0.729   2.147   1.505 -0.6434  0.2534  0.3180
 7240SOL    HW133353   0.810   2.170   1.460 -0.7360 -0.6839 -0.3249
 7240SOL    HW233354   0.722   2.213   1.574 -1.6038  0.6520 -0.1575
 7241SOL     OW33355   0.635   0.797   7.795  0.0260 -0.5946  0.6100
 7241SOL    HW133356   0.674   0.798   7.708 -0.7044  0.7953  0.3041
 7241SOL    HW233357   0.720   0.784   7.836 -0.9456 -1.4875  2.3524
 7242SOL     OW33358   0.001   1.252   2.192 -0.2259  0.7804 -0.2559
 7242SOL    HW133359   0.084   1.253   2.241  0.2519 -0.2156 -1.0458
 7242SOL    HW233360   4.719   1.346   2.192  0.3764  0.9155 -0.0997
 7243SOL     OW33361   3.360   4.501   6.905  0.3304  0.4558 -0.0494
 7243SOL    HW133362   3.292   4.506   6.973  1.0451 -0.3138  0.7252
 7243SOL    HW233363   3.410   4.424   6.933  0.5035 -0.6304 -3.3910
 7244SOL     OW33364   0.132   4.344   7.932  0.0895 -0.0840  0.2826
 7244SOL    HW133365   0.103   4.424   7.889  2.1459  2.0874  2.8901
 7244SOL    HW233366   0.153   4.290   7.856  0.0233 -1.3414  1.1675
 7245SOL     OW33367   2.613   0.523   8.796 -0.1904 -0.0135  0.2659
 7245SOL    HW133368   2.630   0.429   8.799 -0.7605 -0.1280 -0.1052
 7245SOL    HW233369   2.638   0.564   8.879 -0.8555 -0.9649  0.9313
 7246SOL     OW33370   4.473   0.300  16.508  0.0584 -0.4588  0.5885
 7246SOL    HW133371   4.450   0.373  16.565  0.8563  0.2627 -0.0138
 7246SOL    HW233372   4.568   0.308  16.501 -0.3479  1.1139 -2.6170
 7247SOL     OW33373   2.556   0.982   3.101 -0.0769  0.3681  0.0314
 7247SOL    HW133374   2.625   0.920   3.078 -0.0373  0.2562  0.4535
 7247SOL    HW233375   2.604   1.057   3.137 -2.5329  1.5082  0.9275
 7248SOL     OW33376   3.833   1.844   7.005 -0.1977 -0.5616  0.0944
 7248SOL    HW133377   3.759   1.826   6.946 -0.3716  1.2824 -0.2387
 7248SOL    HW233378   3.889   1.907   6.960  1.0196 -2.0813 -0.5147
 7249SOL     OW33379   4.537   0.827  16.309 -0.4776 -0.0273  0.3740
 7249SOL    HW133380   4.612   0.853  16.255 -0.4826  1.6972  1.2207
 7249SOL    HW233381   4.546   0.892  16.379  1.8094 -1.5248  1.4818
 7250SOL     OW33382   1.925   2.752  11.476 -0.9728 -0.4584 -0.1440
 7250SOL    HW133383   1.930   2.818  11.546 -3.5325 -1.7370  1.2323
 7250SOL    HW233384   2.001   2.696  11.492 -1.2551 -1.1154 -1.1490
 7251SOL     OW33385   1.944   2.949   1.631 -0.5121  0.2147 -0.4776
 7251SOL    HW133386   1.944   2.858   1.601 -0.3233 -0.0655  0.3654
 7251SOL    HW233387   1.934   2.938   1.726 -0.6754 -0.8852 -0.6268
 7252SOL     OW33388   2.304   3.225  15.358  0.4817 -0.3183  0.2312
 7252SOL    HW133389   2.348   3.310  15.368 -0.1124  0.1448 -1.1283
 7252SOL    HW233390   2.236   3.259  15.300 -0.9271 -0.4172  1.8086
 7253SOL     OW33391   0.359   0.729   1.235 -0.7153 -0.1471  0.4260
 7253SOL    HW133392   0.434   0.690   1.189 -1.7241  0.0421 -1.3932
 7253SOL    HW233393   0.399   0.736   1.321 -2.6298 -2.2638  1.4602
 7254SOL     OW33394   1.614   1.762  15.311 -0.1405 -0.4088  0.2545
 7254SOL    HW133395   1.531   1.761  15.263 -0.6508 -1.7974  1.1759
 7254SOL    HW233396   1.584   1.770  15.401 -2.8079 -1.4103 -0.5591
 7255SOL     OW33397   4.540   0.498   1.208 -0.3824 -0.5991 -0.7549
 7255SOL    HW133398   4.575   0.586   1.222  0.3351 -1.0373  0.2702
 7255SOL    HW233399   4.613   0.440   1.229  0.3147  0.0395 -1.4333
 7256SOL     OW33400   2.265   2.961   8.581 -0.1987 -0.2635 -0.2607
 7256SOL    HW133401   2.302   3.034   8.631  1.4160 -1.9444  0.9617
 7256SOL    HW233402   2.329   2.959   8.510 -1.3095  1.1526 -1.3189
 7257SOL     OW33403   1.416   3.421  17.266 -0.6501 -0.2247  0.0435
 7257SOL    HW133404   1.335   3.428  17.216 -1.0261 -0.4690  0.6175
 7257SOL    HW233405   1.426   3.511  17.297  0.9820 -0.7801  1.0666
 7258SOL     OW33406   1.148   4.307  16.727 -0.5825  0.4228  0.4364
 7258SOL    HW133407   1.099   4.259  16.660 -0.6636  1.0047  0.0741
 7258SOL    HW233408   1.090   4.382  16.740  0.5717  1.6187 -1.2511
 7259SOL     OW33409   4.366   3.042   7.431  0.1885 -0.6568 -0.5811
 7259SOL    HW133410   4.439   3.104   7.432 -2.8034  2.9337 -0.5660
 7259SOL    HW233411   4.286   3.095   7.423 -1.2376 -2.9007 -1.2108
 7260SOL     OW33412   0.164   1.625   2.373 -0.4451  0.8374 -0.5101
 7260SOL    HW133413   0.177   1.658   2.462 -0.6760 -0.5480  0.0375
 7260SOL    HW233414   0.141   1.704   2.324 -1.8774  0.8403  0.1574
 7261SOL     OW33415   0.338   0.186   4.648 -0.4136 -0.1049 -0.2112
 7261SOL    HW133416   0.396   0.185   4.571  0.2133  1.9398  0.2368
 7261SOL    HW233417   0.394   0.202   4.724 -1.4432  2.2254  0.0426
 7262SOL     OW33418   3.735   1.309  14.803 -0.0814  0.0700  0.6485
 7262SOL    HW133419   3.721   1.265  14.887  2.5765  0.3173  1.2272
 7262SOL    HW233420   3.830   1.317  14.795 -0.0650 -0.7985  0.0133
 7263SOL     OW33421   2.959   3.812  16.523 -0.2783 -0.1911 -0.2783
 7263SOL    HW133422   2.953   3.850  16.436  0.9979 -1.4114 -0.9001
 7263SOL    HW233423   2.937   3.889  16.576 -1.2484  0.7007 -1.9766
 7264SOL     OW33424   3.875   2.912   7.003 -0.1004 -0.2146 -0.0555
 7264SOL    HW133425   3.795   2.936   6.956  0.0286  0.5623  0.1245
 7264SOL    HW233426   3.867   2.817   6.997  0.2169 -0.4583  3.3956
 7265SOL     OW33427   1.876   1.712   2.580 -0.7136 -0.6757  0.3481
 7265SOL    HW133428   1.932   1.704   2.658 -2.4307 -0.1885  1.6331
 7265SOL    HW233429   1.894   1.802   2.555 -0.1887 -1.0777 -0.7059
 7266SOL     OW33430   2.755   0.149  11.785 -0.3402  0.5156 -0.8462
 7266SOL    HW133431   2.750   0.076  11.847  0.5244  1.1300 -0.0465
 7266SOL    HW233432   2.665   0.150  11.755 -0.0159 -0.1407 -1.8367
 7267SOL     OW33433   0.764   3.062   9.917 -0.4364 -0.0543  0.7256
 7267SOL    HW133434   0.851   3.022   9.924  0.5848  2.4885  2.4040
 7267SOL    HW233435   0.749   3.032   9.827  3.2056 -0.9306  0.4043
 7268SOL     OW33436   4.584   0.342   2.957  0.0305  0.0849 -0.2878
 7268SOL    HW133437   4.669   0.386   2.950 -0.1228  0.6839  1.4135
 7268SOL    HW233438   4.531   0.408   3.001  0.9806  1.0493 -0.5858
 7269SOL     OW33439   1.172   2.552  14.900  0.4231 -0.1280 -0.6548
 7269SOL    HW133440   1.158   2.493  14.975 -1.3603  0.1869 -0.7402
 7269SOL    HW233441   1.217   2.623  14.945 -1.9229 -0.1397  1.7320
 7270SOL     OW33442   2.249   0.388   7.958  0.5680  0.2235 -0.6567
 7270SOL    HW133443   2.169   0.343   7.985  0.4166  0.4142 -0.7898
 7270SOL    HW233444   2.222   0.472   7.921 -1.8213 -0.8955 -1.4218
 7271SOL     OW33445   3.641   2.804   9.361 -0.2752 -0.2236 -0.5390
 7271SOL    HW133446   3.662   2.757   9.280  1.7375 -0.1280 -0.0952
 7271SOL    HW233447   3.717   2.862   9.356 -0.9561  0.6448 -0.6361
 7272SOL     OW33448   0.017   1.334   1.108 -0.2584  0.4541  0.4143
 7272SOL    HW133449   4.733   1.266   1.044 -1.0015  2.0289 -1.0110
 7272SOL    HW233450   4.675   1.338   1.158 -0.9136  1.8247 -0.7264
 7273SOL     OW33451   3.427   4.046  16.434  0.1484 -0.2955 -0.3091
 7273SOL    HW133452   3.358   4.101  16.396  0.8967  2.1339  1.7915
 7273SOL    HW233453   3.400   4.072  16.522  1.6816 -0.8179  0.3023
 7274SOL     OW33454   3.723   3.699  10.017  0.0349 -0.3458  0.6070
 7274SOL    HW133455   3.748   3.698  10.109  0.1930  2.0377  0.5788
 7274SOL    HW233456   3.646   3.755  10.027  0.5376  0.7238 -1.6662
 7275SOL     OW33457   4.326   2.325   4.432 -0.2003 -0.2554  0.0466
 7275SOL    HW133458   4.266   2.259   4.467 -0.5858 -0.9745 -2.0164
 7275SOL    HW233459   4.272   2.404   4.435 -1.1164 -0.9041  1.0107
 7276SOL     OW33460   3.448   3.886  14.391  0.2657 -0.0127  0.0308
 7276SOL    HW133461   3.542   3.899  14.376  0.1059  2.3878  0.9838
 7276SOL    HW233462   3.427   3.847  14.307 -3.0480  0.6079  0.5877
 7277SOL     OW33463   3.368   4.409   4.087  0.7481  0.3477 -0.2647
 7277SOL    HW133464   3.454   4.374   4.111  0.1815  0.3187  1.7283
 7277SOL    HW233465   3.360   4.380   3.996  3.6454 -1.9541  0.2110
 7278SOL     OW33466   0.809   4.111   7.839 -0.2340  0.4211  0.2457
 7278SOL    HW133467   0.733   4.054   7.833  1.5355 -1.8417 -0.9192
 7278SOL    HW233468   0.771   4.188   7.798  0.9240  0.9304  0.1355
 7279SOL     OW33469   2.351   3.230   3.138  0.2950  0.4502 -0.1540
 7279SOL    HW133470   2.373   3.321   3.121  1.2269  0.1274 -0.7029
 7279SOL    HW233471   2.300   3.213   3.058  0.6156 -0.0495 -0.2529
 7280SOL     OW33472   3.961   1.931  14.774  0.5719  0.3691  0.3046
 7280SOL    HW133473   3.958   2.024  14.750  0.0085  0.0805 -0.7289
 7280SOL    HW233474   4.025   1.901  14.711 -1.5896 -0.5794 -1.4346
 7281SOL     OW33475   0.275   0.892   0.046  0.2221 -0.4702 -0.0641
 7281SOL    HW133476   0.186   0.882   0.013  0.7095 -2.8790 -0.6511
 7281SOL    HW233477   0.300   0.803   0.070 -0.8650 -0.5144  0.9044
 7282SOL     OW33478   1.229   0.612  11.024  0.1346  0.2577  0.3110
 7282SOL    HW133479   1.200   0.672  10.955 -1.2566  0.6544  1.2338
 7282SOL    HW233480   1.318   0.644  11.036  1.1990 -2.0149 -1.5250
 7283SOL     OW33481   2.916   3.705   5.435  0.5147  0.5743 -0.2105
 7283SOL    HW133482   2.969   3.742   5.364  1.2194 -3.2018 -1.6162
 7283SOL    HW233483   2.965   3.745   5.508  1.8793 -2.0490  0.3178
 7284SOL     OW33484   1.806   1.580   5.706  0.4077  0.1525  0.2263
 7284SOL    HW133485   1.892   1.539   5.710 -0.1796 -1.2335 -1.0294
 7284SOL    HW233486   1.841   1.668   5.694 -1.6055  0.7251 -1.5976
 7285SOL     OW33487   3.206   1.138  10.918 -0.0805 -0.3712  0.1089
 7285SOL    HW133488   3.256   1.193  10.857  0.6133 -1.0175  0.0849
 7285SOL    HW233489   3.260   1.107  10.991 -2.0122 -2.4539  0.6461
 7286SOL     OW33490   4.292   2.272   1.183 -0.2486 -0.2688  0.0950
 7286SOL    HW133491   4.282   2.205   1.250  1.0889  0.5189  1.0887
 7286SOL    HW233492   4.237   2.228   1.119 -0.0649  0.3001 -0.4553
 7287SOL     OW33493   4.099   2.848   6.527 -0.7106 -0.6383  0.3333
 7287SOL    HW133494   4.164   2.912   6.495 -0.8557 -0.5181  0.2750
 7287SOL    HW233495   4.022   2.865   6.472  0.5948  1.0560 -1.0083
 7288SOL     OW33496   2.119   1.122   8.865 -0.1245  0.0675  0.1821
 7288SOL    HW133497   2.041   1.081   8.826  0.0846  0.3870 -0.5609
 7288SOL    HW233498   2.193   1.062   8.857  0.3576  0.8916 -1.3942
 7289SOL     OW33499   3.932   4.130   8.319 -0.3108  0.3847  0.0299
 7289SOL    HW133500   3.878   4.079   8.378 -0.2251 -0.9247 -1.0402
 7289SOL    HW233501   3.868   4.168   8.259  0.1058  0.8776 -0.1039
 7290SOL     OW33502   4.387   1.698   6.376 -0.4390  0.1431 -0.1557
 7290SOL    HW133503   4.331   1.773   6.358  0.8830  0.7946 -1.4935
 7290SOL    HW233504   4.345   1.677   6.460 -0.1020 -2.2199 -0.5670
 7291SOL     OW33505   3.939   2.345   7.000 -0.0784 -0.0140 -0.1054
 7291SOL    HW133506   3.899   2.334   7.087  0.7331 -2.5329 -0.0591
 7291SOL    HW233507   3.861   2.352   6.945 -0.1520 -0.0243 -0.0019
 7292SOL     OW33508   0.545   0.232  10.905 -0.4255 -0.0035  0.6350
 7292SOL    HW133509   0.574   0.298  10.968  2.1863 -0.9930  0.4518
 7292SOL    HW233510   0.450   0.243  10.896 -0.6502 -1.6295  1.1743
 7293SOL     OW33511   0.447   4.730   8.147  0.0980  0.5702  0.3795
 7293SOL    HW133512   0.380   4.664   8.165  0.6344 -0.4517 -1.3660
 7293SOL    HW233513   0.458   4.715   8.053  0.4325  0.9456  0.3578
 7294SOL     OW33514   3.849   1.456  16.536 -0.1525 -0.0460 -0.0554
 7294SOL    HW133515   3.825   1.372  16.497  0.7588 -0.8586  1.1290
 7294SOL    HW233516   3.904   1.490  16.466  0.1845  1.1296  0.7721
 7295SOL     OW33517   0.680   0.193   5.715  0.5756 -0.0513 -0.0035
 7295SOL    HW133518   0.764   0.148   5.712  0.8329  0.2217  2.7246
 7295SOL    HW233519   0.692   0.272   5.769 -0.4940 -0.4668  0.8631
 7296SOL     OW33520   1.614   1.104  10.437  0.1251 -0.0195  0.1031
 7296SOL    HW133521   1.697   1.057  10.447  0.6290  0.9120  0.3765
 7296SOL    HW233522   1.547   1.040  10.414 -0.5800  0.0316  2.0384
 7297SOL     OW33523   1.838   4.170   7.711 -0.1096  0.2109 -0.5922
 7297SOL    HW133524   1.918   4.120   7.729  1.0142  1.9038 -0.8650
 7297SOL    HW233525   1.833   4.228   7.787 -0.6926  0.1330 -0.5679
 7298SOL     OW33526   4.502   1.529  12.559 -0.3064 -0.1010 -0.4517
 7298SOL    HW133527   4.424   1.537  12.614 -0.9755  2.0789 -1.6896
 7298SOL    HW233528   4.456   1.515  12.476 -0.5914 -1.1980 -0.1113
 7299SOL     OW33529   4.608   0.422   3.296 -0.1315  0.4783  0.2224
 7299SOL    HW133530   4.695   0.386   3.317  0.4097  1.7808  0.2199
 7299SOL    HW233531   4.628   0.515   3.281 -1.6903  0.4992 -1.6277
 7300SOL     OW33532   1.030   1.580   3.861 -0.2979  0.0612  0.0926
 7300SOL    HW133533   0.951   1.550   3.815 -0.2336  0.8116 -0.5065
 7300SOL    HW233534   1.043   1.510   3.925 -2.1098 -0.2112  0.1705
 7301SOL     OW33535   0.562   1.969  15.412  0.8211 -0.3191 -0.5369
 7301SOL    HW133536   0.503   1.997  15.343 -0.7947 -0.2396  0.8786
 7301SOL    HW233537   0.540   1.877  15.425  1.5178 -0.5220 -0.7713
 7302SOL     OW33538   4.691   4.517   3.726  0.1379 -0.6500 -0.6104
 7302SOL    HW133539   4.717   4.609   3.715  0.1213 -0.5206  0.4204
 7302SOL    HW233540   4.734   4.497   3.809 -3.1015 -1.3881  0.8930
 7303SOL     OW33541   1.590   4.648  17.753  0.3116  0.1654 -0.7044
 7303SOL    HW133542   1.507   4.695  17.741 -0.7578 -1.6983 -0.5663
 7303SOL    HW233543   1.633   4.694   0.071  1.7222  1.1281 -2.1619
 7304SOL     OW33544   0.286   4.620   8.731 -0.3614  0.3152  0.0010
 7304SOL    HW133545   0.297   4.712   8.709 -0.0075 -0.1879 -1.8750
 7304SOL    HW233546   0.275   4.622   8.826 -1.3674  0.8451 -0.1334
 7305SOL     OW33547   3.215   0.782   8.039 -0.0862  0.3000 -0.6196
 7305SOL    HW133548   3.141   0.775   8.099 -0.3395  0.6978 -0.8852
 7305SOL    HW233549   3.162   0.799   7.962  0.4595 -1.3445 -1.3522
 7306SOL     OW33550   1.976   2.252  16.080 -1.0361  0.1017  0.7793
 7306SOL    HW133551   2.064   2.279  16.105 -1.1560  2.1147 -0.9748
 7306SOL    HW233552   1.928   2.319  16.129 -0.9546  2.3210 -2.1759
 7307SOL     OW33553   0.106   0.110   5.453 -0.3080  0.2129  0.5788
 7307SOL    HW133554   0.198   0.088   5.472 -0.6736 -0.0886  1.9478
 7307SOL    HW233555   0.048   0.035   5.461 -0.6084  0.2487 -1.1354
 7308SOL     OW33556   2.697   1.588   6.847  0.4096 -0.3722  0.8661
 7308SOL    HW133557   2.664   1.504   6.817 -0.0363  0.5547 -1.2511
 7308SOL    HW233558   2.769   1.554   6.900 -0.7460 -2.2933  1.1754
 7309SOL     OW33559   0.193   1.857   3.099 -0.1786 -0.0834 -0.4322
 7309SOL    HW133560   0.203   1.783   3.158 -1.0020  0.6269  0.5895
 7309SOL    HW233561   0.099   1.872   3.109  0.5905  3.7221  1.1304
 7310SOL     OW33562   0.930   3.553   6.035  0.5210 -0.0080 -0.4746
 7310SOL    HW133563   0.986   3.546   5.958  0.3162 -0.2476 -0.6043
 7310SOL    HW233564   0.848   3.564   5.986 -1.1161  0.6059  2.4205
 7311SOL     OW33565   0.166   2.448   9.653  0.2763  0.4559 -0.4884
 7311SOL    HW133566   0.074   2.433   9.632  0.8098 -2.3092 -0.8481
 7311SOL    HW233567   0.173   2.468   9.747 -1.1398 -2.6118  0.2548
 7312SOL     OW33568   3.923   1.093   2.980 -0.2141 -0.2824  0.2002
 7312SOL    HW133569   3.925   1.018   2.921  0.8901 -1.0526  1.2003
 7312SOL    HW233570   3.830   1.112   2.996 -0.7355 -0.7081 -2.3482
 7313SOL     OW33571   0.215   0.545  15.045 -0.1972 -0.2764 -0.4039
 7313SOL    HW133572   0.268   0.617  15.079  1.3122 -1.3503 -0.4222
 7313SOL    HW233573   0.234   0.541  14.951 -0.7264 -0.4303 -0.5041
 7314SOL     OW33574   1.479   0.984   1.435  0.0603 -0.3694 -0.3604
 7314SOL    HW133575   1.519   1.039   1.503  1.7984 -0.2048 -1.5153
 7314SOL    HW233576   1.549   0.999   1.372  1.9020 -0.1456  1.7448
 7315SOL     OW33577   1.030   1.090  15.093 -0.2338 -0.2352  0.1979
 7315SOL    HW133578   1.055   1.005  15.057 -2.1444 -1.3184  1.4357
 7315SOL    HW233579   1.090   1.097  15.167  0.5629 -0.2498 -0.4472
 7316SOL     OW33580   4.128   0.578   0.334 -0.0170  0.4963 -0.6752
 7316SOL    HW133581   4.140   0.483   0.342 -0.7374  0.4750  0.1098
 7316SOL    HW233582   4.134   0.603   0.426  0.3950  1.0576 -0.8539
 7317SOL     OW33583   2.378   4.610  16.741  0.3381 -0.2779 -0.1298
 7317SOL    HW133584   2.422   4.588  16.658  1.7179  0.5937  0.3674
 7317SOL    HW233585   2.291   4.632  16.708 -1.0788  0.1488  3.8657
 7318SOL     OW33586   0.976   2.995   2.863  0.3275  0.5152 -0.0989
 7318SOL    HW133587   0.922   2.934   2.814  1.6737 -0.7356 -0.0237
 7318SOL    HW233588   0.940   2.988   2.951  0.9028  0.6135  0.1486
 7319SOL     OW33589   0.305   0.267   1.562  0.4394 -0.5366 -0.8179
 7319SOL    HW133590   0.222   0.224   1.583  1.2179 -2.4749 -1.6959
 7319SOL    HW233591   0.329   0.312   1.643  1.3853  0.4815 -1.6724
 7320SOL     OW33592   2.320   2.700   6.751  0.0218  0.3874 -0.4625
 7320SOL    HW133593   2.272   2.711   6.833 -0.9754 -0.0149 -0.9868
 7320SOL    HW233594   2.298   2.609   6.729 -0.7192  0.7489 -1.2163
 7321SOL     OW33595   2.903   2.060   8.581  0.0792  0.5865  0.3494
 7321SOL    HW133596   2.968   2.073   8.512 -0.4707 -1.3443 -0.5362
 7321SOL    HW233597   2.952   2.107   8.649  2.7037  0.7779 -1.6822
 7322SOL     OW33598   1.494   1.402   1.553 -0.1694 -0.4394  0.3362
 7322SOL    HW133599   1.401   1.422   1.548  0.2632  1.0449 -1.6623
 7322SOL    HW233600   1.547   1.481   1.558 -0.7804  0.1728 -2.8280
 7323SOL     OW33601   1.948   4.149   4.560 -0.0469 -0.2986  0.7085
 7323SOL    HW133602   1.887   4.163   4.487  1.2586  0.3283 -0.2675
 7323SOL    HW233603   2.010   4.222   4.552  0.3011 -0.7734 -1.0168
 7324SOL     OW33604   2.358   1.878   3.961 -0.0562  0.0373  0.7363
 7324SOL    HW133605   2.330   1.917   3.878 -2.6702  0.0926  1.6277
 7324SOL    HW233606   2.426   1.939   3.986  1.0123 -0.8281 -0.0361
 7325SOL     OW33607   4.354   0.065   1.991  1.1937 -0.1973  0.4367
 7325SOL    HW133608   4.314   0.115   1.921 -0.3452  0.9072  2.0891
 7325SOL    HW233609   4.371   4.718   1.953 -2.1006 -1.3896  1.6347
 7326SOL     OW33610   2.063   2.040   4.066  0.2127 -0.2333 -0.1152
 7326SOL    HW133611   1.990   2.087   4.025  0.9004  1.2896  0.3904
 7326SOL    HW233612   2.127   2.052   3.996  2.9633  0.2933  2.4903
 7327SOL     OW33613   3.278   4.377   7.162 -0.5750  0.3074  0.0082
 7327SOL    HW133614   3.293   4.283   7.170 -1.5264 -0.0429 -2.3180
 7327SOL    HW233615   3.195   4.391   7.208 -1.5335  1.7479 -2.1899
 7328SOL     OW33616   1.218   2.100   0.323 -0.5725 -0.2337 -0.2934
 7328SOL    HW133617   1.221   2.059   0.236 -1.0210  2.8611 -1.7739
 7328SOL    HW233618   1.206   2.192   0.299 -1.0836 -0.2127  0.0412
 7329SOL     OW33619   1.644   2.157  13.101  0.1940 -0.0731  0.8491
 7329SOL    HW133620   1.654   2.067  13.070  1.2984  0.5694 -0.7160
 7329SOL    HW233621   1.649   2.190  13.011 -1.3502 -0.2047  0.7270
 7330SOL     OW33622   3.389   1.514   6.556  0.1532 -0.2355 -0.2141
 7330SOL    HW133623   3.404   1.601   6.519  4.2147 -1.1485 -0.7551
 7330SOL    HW233624   3.339   1.474   6.485  0.6766  0.5793 -1.0480
 7331SOL     OW33625   4.723   3.848   3.869 -0.3432 -0.1279  0.3789
 7331SOL    HW133626   0.028   3.862   3.785  0.6279 -3.0103  0.4109
 7331SOL    HW233627   4.685   3.936   3.875 -1.4185 -0.5607 -0.0425
 7332SOL     OW33628   3.962   0.409   2.957 -0.1611 -0.0852  0.0846
 7332SOL    HW133629   3.931   0.327   2.920 -1.9673  0.7051 -0.1514
 7332SOL    HW233630   3.999   0.379   3.039 -1.2439 -0.9695  0.2390
 7333SOL     OW33631   1.941   3.281  11.429 -0.4142  0.2660  0.0247
 7333SOL    HW133632   1.983   3.359  11.395 -0.9834  1.0811  1.1832
 7333SOL    HW233633   2.017   3.238  11.468 -1.0429 -0.9020 -0.0268
 7334SOL     OW33634   0.503   2.037   9.808  0.5963 -0.3767  0.4075
 7334SOL    HW133635   0.493   2.124   9.770 -1.5971 -1.7310 -2.1089
 7334SOL    HW233636   0.536   1.975   9.742 -0.2339 -1.3377  0.8910
 7335SOL     OW33637   2.343   3.581  10.788 -0.3517  0.0531  0.1861
 7335SOL    HW133638   2.384   3.634  10.856  0.7986  1.9137 -1.9733
 7335SOL    HW233639   2.388   3.500  10.814 -1.1070 -0.9185 -1.5774
 7336SOL     OW33640   1.213   0.944   8.557  0.4631 -0.0505 -0.1038
 7336SOL    HW133641   1.251   0.856   8.564 -0.2040 -0.3732 -0.5996
 7336SOL    HW233642   1.184   0.942   8.466 -0.0855  1.1725  0.0448
 7337SOL     OW33643   1.478   3.197   0.190 -0.3417  0.8037  0.0533
 7337SOL    HW133644   1.480   3.237   0.278 -0.2508  0.9247 -0.0039
 7337SOL    HW233645   1.533   3.260   0.145 -1.5624  1.1562 -0.9583
 7338SOL     OW33646   2.312   2.242   9.203  0.7242  0.6930 -0.1612
 7338SOL    HW133647   2.339   2.173   9.142  1.4510  0.2043  0.7191
 7338SOL    HW233648   2.278   2.314   9.148 -0.6746  0.3623  0.2710
 7339SOL     OW33649   0.950   3.312  17.180 -0.3399 -0.7348  0.1901
 7339SOL    HW133650   0.855   3.298  17.190 -0.5640  0.2295 -0.6252
 7339SOL    HW233651   0.979   3.221  17.179 -0.9476 -0.9129 -1.1321
 7340SOL     OW33652   4.308   2.770  15.065 -0.1545  0.5900 -0.3854
 7340SOL    HW133653   4.393   2.748  15.026  2.2264  3.0530  3.4751
 7340SOL    HW233654   4.326   2.830  15.137 -0.8365  0.8713 -0.4557
 7341SOL     OW33655   2.247   0.948  16.279  0.3374  0.2379 -0.8942
 7341SOL    HW133656   2.202   0.868  16.306 -1.4442  1.1406 -1.1439
 7341SOL    HW233657   2.227   0.956  16.186  0.5499 -3.4643 -1.2425
 7342SOL     OW33658   1.163   2.760   6.810 -0.1188 -0.4073  0.0995
 7342SOL    HW133659   1.158   2.778   6.716 -0.3365 -0.4701  0.0971
 7342SOL    HW233660   1.159   2.843   6.858  1.8269 -0.2546  0.0038
 7343SOL     OW33661   0.573   4.289   5.836 -0.7012  0.5006 -0.1808
 7343SOL    HW133662   0.661   4.295   5.799 -1.2273 -0.2945 -1.5383
 7343SOL    HW233663   0.595   4.257   5.924  2.5172  1.2275 -0.7369
 7344SOL     OW33664   2.688   4.294   9.619  0.0870  0.0260  0.3270
 7344SOL    HW133665   2.632   4.290   9.541  2.9518  3.5917 -1.9701
 7344SOL    HW233666   2.764   4.347   9.595 -0.6565  0.8959 -0.1269
 7345SOL     OW33667   4.065   1.885   7.287  0.6492  0.1321  0.5229
 7345SOL    HW133668   4.058   1.790   7.297  0.9762  0.2185  1.5544
 7345SOL    HW233669   3.977   1.921   7.274 -0.6137 -1.6888  3.9390
 7346SOL     OW33670   4.345   2.471  12.449  0.2361 -0.1873 -0.2179
 7346SOL    HW133671   4.350   2.453  12.355  3.0096  1.5074 -0.4025
 7346SOL    HW233672   4.259   2.437  12.474  0.3720 -0.3897 -0.0266
 7347SOL     OW33673   0.184   2.410   6.569  0.2008  0.2838  0.0513
 7347SOL    HW133674   0.242   2.476   6.531  1.6276 -1.3011 -0.5049
 7347SOL    HW233675   0.231   2.334   6.535  1.2376  1.2393 -0.6516
 7348SOL     OW33676   1.352   0.468  12.266 -0.8837 -0.0043  0.0256
 7348SOL    HW133677   1.289   0.520  12.216  0.6815  0.6899 -1.2327
 7348SOL    HW233678   1.314   0.455  12.353  0.1599 -2.0271  0.1871
 7349SOL     OW33679   2.589   4.220   8.836 -0.0446 -0.2469 -0.9400
 7349SOL    HW133680   2.511   4.263   8.870  0.1798 -1.0779  0.6315
 7349SOL    HW233681   2.552   4.132   8.828  0.2727 -0.5489  0.9271
 7350SOL     OW33682   1.971   1.378   2.894  0.4948  0.3464 -0.5451
 7350SOL    HW133683   2.030   1.453   2.881  0.0836  0.2438 -2.8338
 7350SOL    HW233684   1.971   1.343   2.805 -0.3939 -0.9642 -0.0241
 7351SOL     OW33685   0.698   1.268  11.713  0.4708 -0.5523 -0.6991
 7351SOL    HW133686   0.707   1.199  11.780  1.1072 -0.5136 -0.7413
 7351SOL    HW233687   0.792   1.285  11.699  0.5351  0.6559  1.1893
 7352SOL     OW33688   1.344   1.696   4.943 -0.6859  0.5695  0.4102
 7352SOL    HW133689   1.365   1.728   5.030  0.3676 -4.1834  1.9414
 7352SOL    HW233690   1.263   1.745   4.929 -1.6282 -1.3167 -0.8556
 7353SOL     OW33691   1.730   1.545   4.637 -0.9679 -0.0823 -0.3916
 7353SOL    HW133692   1.653   1.598   4.655  0.1614 -0.0140  4.2264
 7353SOL    HW233693   1.706   1.476   4.575  1.2583 -0.9811 -0.2748
 7354SOL     OW33694   0.877   3.357   2.807 -0.0903 -0.1305  0.6940
 7354SOL    HW133695   0.796   3.308   2.825 -1.2906  1.9553  1.0315
 7354SOL    HW233696   0.843   3.440   2.773  0.4034 -1.4077 -2.8849
 7355SOL     OW33697   1.294   2.053  13.083 -0.4605 -0.0483  0.1070
 7355SOL    HW133698   1.330   1.993  13.018  1.3723 -0.9376  1.9349
 7355SOL    HW233699   1.346   2.035  13.161 -0.8748  1.5779  0.7774
 7356SOL     OW33700   3.341   1.117  15.341  0.6811  0.0424  0.0501
 7356SOL    HW133701   3.357   1.163  15.258  3.4084 -2.3772 -0.7924
 7356SOL    HW233702   3.433   1.100  15.363  0.9677  0.0421 -1.1091
 7357SOL     OW33703   0.878   1.195   1.888 -0.2052  0.2233 -0.0400
 7357SOL    HW133704   0.883   1.102   1.866  0.2324  0.2084  0.1261
 7357SOL    HW233705   0.971   1.213   1.903 -0.3421 -0.4083  1.6349
 7358SOL     OW33706   4.551   2.022   2.422 -0.0281 -0.0656 -0.4150
 7358SOL    HW133707   4.478   2.079   2.400 -0.1906  0.0566  0.4624
 7358SOL    HW233708   4.627   2.080   2.418  0.4260 -0.6323  0.0123
 7359SOL     OW33709   4.021   4.080   0.961 -0.0811 -0.1717 -0.0944
 7359SOL    HW133710   4.107   4.084   1.003  0.1168 -1.8776 -0.3399
 7359SOL    HW233711   3.966   4.094   1.038  0.3426  0.4652  0.0911
 7360SOL     OW33712   3.704   4.103   2.364 -0.6499  0.1623 -0.5637
 7360SOL    HW133713   3.701   4.196   2.383 -1.8221 -0.4234  2.1157
 7360SOL    HW233714   3.641   4.062   2.423  0.6463  2.7403  2.5984
 7361SOL     OW33715   2.804   2.464   7.983 -0.3425 -0.2456 -0.1341
 7361SOL    HW133716   2.745   2.396   7.950  1.8839 -2.2240  0.0643
 7361SOL    HW233717   2.860   2.465   7.905  0.0630  0.9922  0.1688
 7362SOL     OW33718   0.800   0.051   6.844 -0.5512 -0.0467  0.0068
 7362SOL    HW133719   0.705   0.062   6.846 -0.5824 -0.4025  0.5546
 7362SOL    HW233720   0.804   4.701   6.808 -1.2956 -0.2115  0.3245
 7363SOL     OW33721   0.572   2.573   7.240 -0.3509  1.0614 -0.2564
 7363SOL    HW133722   0.579   2.507   7.309  0.7170  1.3720 -0.0666
 7363SOL    HW233723   0.476   2.580   7.243 -0.1440  3.9182  0.4095
 7364SOL     OW33724   3.574   0.425   5.368 -0.7580  0.3166 -0.5558
 7364SOL    HW133725   3.557   0.407   5.460  0.9208 -1.7611 -0.6499
 7364SOL    HW233726   3.552   0.339   5.332  1.1668 -0.3921 -0.0562
 7365SOL     OW33727   3.225   2.118   4.942  0.7750 -0.2610  0.1977
 7365SOL    HW133728   3.300   2.090   4.889  2.2378 -0.4622  2.4099
 7365SOL    HW233729   3.152   2.107   4.880 -0.1572 -1.5110  1.5187
 7366SOL     OW33730   4.495   3.460  10.252  0.5672  0.4247 -0.2212
 7366SOL    HW133731   4.576   3.471  10.302  0.0016  1.0975  0.5375
 7366SOL    HW233732   4.519   3.384  10.199  0.0010  1.3644 -1.8238
 7367SOL     OW33733   3.673   0.318  13.397  0.5664  0.4401  0.1433
 7367SOL    HW133734   3.714   0.384  13.341 -0.1743  0.8235  0.0578
 7367SOL    HW233735   3.663   0.357  13.483 -1.4069 -1.7695  0.9255
 7368SOL     OW33736   0.844   1.724   1.978  0.1049 -0.5725 -0.2158
 7368SOL    HW133737   0.848   1.629   1.984  0.0283 -0.6270 -1.0568
 7368SOL    HW233738   0.816   1.738   1.888 -1.0740 -1.1935  0.0667
 7369SOL     OW33739   1.619   0.625   4.430  0.4249  0.1761 -0.1751
 7369SOL    HW133740   1.650   0.551   4.377  2.4854  1.3332 -0.5434
 7369SOL    HW233741   1.533   0.637   4.390  0.4158 -0.1102 -0.2423
 7370SOL     OW33742   2.642   2.884   8.207  0.7212 -0.1773 -0.2004
 7370SOL    HW133743   2.699   2.953   8.174  2.0687 -1.1934  0.0312
 7370SOL    HW233744   2.637   2.811   8.145 -0.6522 -1.4943  1.4472
 7371SOL     OW33745   4.176   1.379   0.744  0.4649 -0.1357  0.1671
 7371SOL    HW133746   4.082   1.381   0.726  0.6516  1.4005 -0.5700
 7371SOL    HW233747   4.209   1.342   0.662 -0.3739  0.5051 -0.4578
 7372SOL     OW33748   4.237   2.579   3.560  0.4681 -0.2603 -0.3022
 7372SOL    HW133749   4.213   2.663   3.521  1.2824 -1.0659 -2.5185
 7372SOL    HW233750   4.168   2.524   3.522 -0.0092  1.1833 -1.5467
 7373SOL     OW33751   1.696   4.061   9.453  0.1258 -0.0832 -0.2696
 7373SOL    HW133752   1.736   3.974   9.449 -0.5850 -0.4674  0.9262
 7373SOL    HW233753   1.607   4.042   9.481  0.8701  0.0005  2.2439
 7374SOL     OW33754   0.855   0.478   4.275 -0.3495 -0.0205  0.2692
 7374SOL    HW133755   0.792   0.477   4.202 -2.0069  2.1543  1.6450
 7374SOL    HW233756   0.937   0.463   4.228 -0.0103 -0.7940  1.1108
 7375SOL     OW33757   1.996   2.936  17.229  0.1206  0.3097  0.1272
 7375SOL    HW133758   1.923   2.944  17.168  0.3435 -0.4501 -0.2436
 7375SOL    HW233759   2.075   2.944  17.175 -0.3058 -2.0195 -0.8682
 7376SOL     OW33760   1.617   4.334  13.891 -0.5618  0.2521 -0.7523
 7376SOL    HW133761   1.620   4.252  13.941 -0.4176  1.4665  1.2413
 7376SOL    HW233762   1.662   4.300  13.814  0.2478  0.9262 -0.5804
 7377SOL     OW33763   0.306   1.067  16.462 -0.1380  0.6035  0.7548
 7377SOL    HW133764   0.347   0.988  16.498 -0.1585  0.1429 -0.2389
 7377SOL    HW233765   0.378   1.105  16.412 -0.6996 -0.7320 -1.0869
 7378SOL     OW33766   1.102   3.387   6.275 -0.2745  0.4224 -0.0981
 7378SOL    HW133767   1.049   3.311   6.250 -1.4416 -0.2169  4.2560
 7378SOL    HW233768   1.052   3.416   6.351 -1.7034  0.5157 -1.0815
 7379SOL     OW33769   0.791   3.188   5.879 -0.5700 -0.1064 -0.2204
 7379SOL    HW133770   0.881   3.197   5.848 -1.4951  2.8684 -2.1432
 7379SOL    HW233771   0.745   3.165   5.798  0.6435  1.5662 -1.3924
 7380SOL     OW33772   3.750   3.678   7.114 -0.0108  0.2260 -0.2184
 7380SOL    HW133773   3.732   3.641   7.200 -1.8618  2.7997  0.4819
 7380SOL    HW233774   3.837   3.717   7.126 -1.4988  2.4958  3.0084
 7381SOL     OW33775   1.479   3.811   4.548  0.3624 -0.1430 -0.7116
 7381SOL    HW133776   1.420   3.780   4.617  1.9825  0.1212  0.8116
 7381SOL    HW233777   1.460   3.904   4.541 -1.3216 -0.4434 -0.2102
 7382SOL     OW33778   4.028   3.050   7.172  0.4776 -0.6893 -0.5513
 7382SOL    HW133779   3.981   2.994   7.110  0.3180 -0.4022 -0.6862
 7382SOL    HW233780   4.120   3.045   7.147  0.3091  1.6215 -1.6289
 7383SOL     OW33781   2.300   0.202   8.888  0.2998 -0.6998 -0.7580
 7383SOL    HW133782   2.261   0.254   8.958  0.5932 -1.3535 -0.1126
 7383SOL    HW233783   2.277   0.112   8.910 -1.4293 -0.3760 -1.2140
 7384SOL     OW33784   0.026   2.898  11.690 -0.1454 -0.4130  0.3417
 7384SOL    HW133785   0.113   2.860  11.700  0.0315 -0.8857 -2.8301
 7384SOL    HW233786   4.714   2.882  11.769 -0.7287 -0.0197  0.0425
 7385SOL     OW33787   3.609   3.971   5.637 -0.4791  0.0814 -0.4811
 7385SOL    HW133788   3.670   3.926   5.695 -0.6282  0.3786 -0.0962
 7385SOL    HW233789   3.672   4.026   5.590  0.0722  1.3094  1.7471
 7386SOL     OW33790   0.179   4.211   7.431 -0.8104 -0.5700 -0.4098
 7386SOL    HW133791   0.189   4.131   7.380  1.4708 -0.7913  0.3889
 7386SOL    HW233792   0.124   4.255   7.366  1.2638 -0.3723 -2.0415
 7387SOL     OW33793   1.974   3.240  12.137 -0.1232 -0.5035 -0.1438
 7387SOL    HW133794   1.982   3.175  12.067 -0.4005 -0.3766 -0.2949
 7387SOL    HW233795   1.881   3.259  12.151 -0.2327 -1.0249 -0.1346
 7388SOL     OW33796   2.654   3.231   7.907 -0.2131  1.1201  0.0209
 7388SOL    HW133797   2.693   3.167   7.848 -1.4764 -0.9602  1.4530
 7388SOL    HW233798   2.573   3.187   7.933  0.2033  0.2775 -0.1211
 7389SOL     OW33799   0.828   3.750   4.893  0.4486  0.2521  1.0571
 7389SOL    HW133800   0.912   3.788   4.867  0.5055 -0.9310 -0.4914
 7389SOL    HW233801   0.856   3.701   4.970  1.8149  0.6419  0.8086
 7390SOL     OW33802   3.842   2.296   2.951  0.2010  0.1905  0.0064
 7390SOL    HW133803   3.823   2.283   2.858 -1.1256 -3.0268  0.7309
 7390SOL    HW233804   3.785   2.233   2.995 -1.1578  1.4742  0.1089
 7391SOL     OW33805   3.556   3.617   7.373  0.2630  0.6219  0.3675
 7391SOL    HW133806   3.531   3.626   7.465 -0.5722  3.8605 -0.1759
 7391SOL    HW233807   3.589   3.528   7.376 -2.6510 -0.3658  2.8886
 7392SOL     OW33808   0.258   2.676   0.762 -0.4452  0.0216 -0.8025
 7392SOL    HW133809   0.313   2.722   0.698 -1.1214  0.3684 -1.1471
 7392SOL    HW233810   0.271   2.720   0.846 -1.8408 -2.5431  0.7557
 7393SOL     OW33811   0.232   2.702   8.220 -0.3646  0.0364 -0.5052
 7393SOL    HW133812   0.304   2.763   8.206 -0.8097  0.8560  0.8671
 7393SOL    HW233813   0.172   2.756   8.271  1.3810  0.6701  0.8687
 7394SOL     OW33814   4.487   1.583  15.856  0.3756 -0.1598  0.2781
 7394SOL    HW133815   4.439   1.660  15.886 -0.6741 -1.4976  1.9856
 7394SOL    HW233816   4.569   1.631  15.844 -0.0534  0.2474 -1.1243
 7395SOL     OW33817   0.600   3.615   8.827 -0.5777 -0.0006 -0.2309
 7395SOL    HW133818   0.592   3.666   8.746 -0.3272 -2.8611 -2.0801
 7395SOL    HW233819   0.592   3.681   8.895  1.6913  0.7641 -0.6963
 7396SOL     OW33820   1.313   2.075   1.732  0.0135  0.5097  0.2764
 7396SOL    HW133821   1.399   2.105   1.761  1.3112 -4.0694  1.1316
 7396SOL    HW233822   1.342   2.040   1.648  0.2809  1.5739 -0.0781
 7397SOL     OW33823   2.691   1.071   7.142 -0.3631  0.6113  0.4179
 7397SOL    HW133824   2.643   1.152   7.160 -1.2135  0.3334 -0.5953
 7397SOL    HW233825   2.670   1.020   7.220 -3.7242  0.1213 -0.8085
 7398SOL     OW33826   2.310   1.373   2.986  0.8570  0.8017  0.0944
 7398SOL    HW133827   2.370   1.400   3.055  1.9894 -0.9182 -0.2119
 7398SOL    HW233828   2.355   1.291   2.967  0.5763  0.8964 -0.9916
 7399SOL     OW33829   1.386   4.167  15.225  0.0693 -0.1200  0.7817
 7399SOL    HW133830   1.339   4.150  15.307  1.1281  1.0325  1.6298
 7399SOL    HW233831   1.340   4.114  15.161 -0.3405  0.9075  0.2259
 7400SOL     OW33832   1.160   1.379   7.351  0.1778 -0.1960 -0.4579
 7400SOL    HW133833   1.120   1.440   7.413 -0.5545 -1.0769 -0.0694
 7400SOL    HW233834   1.212   1.430   7.288  1.0215  0.2389  0.5784
 7401SOL     OW33835   4.226   2.070  12.379  0.3578 -0.1539 -0.2110
 7401SOL    HW133836   4.150   2.118  12.345 -0.1705 -1.1413 -0.4488
 7401SOL    HW233837   4.234   2.123  12.458  0.5481  1.4547 -1.3325
 7402SOL     OW33838   1.006   0.814  15.055 -0.7460  0.8309 -0.1441
 7402SOL    HW133839   0.989   0.775  14.969 -0.4605 -0.2669  0.3025
 7402SOL    HW233840   0.989   0.736  15.108  1.2771  0.2252 -0.3653
 7403SOL     OW33841   3.943   3.586  14.863  0.2683 -0.4292 -0.9964
 7403SOL    HW133842   3.968   3.589  14.770  0.6721  1.0551 -0.8482
 7403SOL    HW233843   3.991   3.507  14.890 -1.1678 -1.1515 -0.5784
 7404SOL     OW33844   1.403   3.969   0.080 -0.0542  0.4350  0.2058
 7404SOL    HW133845   1.332   3.984   0.017  0.2501  1.1011  0.0185
 7404SOL    HW233846   1.361   3.936   0.160  0.0773  0.7374  0.3990
 7405SOL     OW33847   4.127   2.644   7.707 -0.8505 -0.0821  0.5562
 7405SOL    HW133848   4.113   2.599   7.790 -3.1386 -1.9429 -0.8451
 7405SOL    HW233849   4.168   2.724   7.741  1.3411 -0.6495 -0.7798
 7406SOL     OW33850   1.716   1.303   2.523  1.0229 -0.1211  0.1124
 7406SOL    HW133851   1.635   1.268   2.486  0.2401  0.6889  1.0605
 7406SOL    HW233852   1.744   1.371   2.462 -0.2339 -0.7327 -1.1217
 7407SOL     OW33853   2.333   3.919  12.311  0.1633  0.1401 -0.0477
 7407SOL    HW133854   2.416   3.904  12.358 -1.4664  0.3822  2.9452
 7407SOL    HW233855   2.268   3.881  12.370 -0.6384 -0.2864 -1.2086
 7408SOL     OW33856   4.058   2.233   5.876  0.0743 -0.1518  0.1122
 7408SOL    HW133857   4.049   2.253   5.783  1.7136 -1.7252 -0.3721
 7408SOL    HW233858   3.985   2.173   5.895  1.0587 -1.1277  0.7653
 7409SOL     OW33859   4.296   3.400   6.081 -0.5716 -0.1040 -0.3090
 7409SOL    HW133860   4.206   3.430   6.095 -0.7044  0.7152 -2.9468
 7409SOL    HW233861   4.288   3.315   6.037  1.5668 -1.6898  2.3174
 7410SOL     OW33862   0.930   1.409   8.406  0.2359  0.5293  0.1463
 7410SOL    HW133863   0.861   1.414   8.340  0.6526  0.5538 -0.2872
 7410SOL    HW233864   0.900   1.342   8.469  0.8910 -0.5543 -0.7031
 7411SOL     OW33865   3.218   4.373   5.946 -0.0378 -0.2437 -0.2922
 7411SOL    HW133866   3.203   4.446   6.006  1.0933  1.2696 -1.8433
 7411SOL    HW233867   3.255   4.426   5.875 -0.7336 -1.9442 -1.9331
 7412SOL     OW33868   2.662   3.022  10.209 -0.2084 -0.6311 -0.1237
 7412SOL    HW133869   2.744   2.972  10.210 -1.3266 -2.4706 -1.1041
 7412SOL    HW233870   2.691   3.105  10.173 -2.2857  0.2665  0.3039
 7413SOL     OW33871   1.525   4.107   4.191  0.0146 -0.0294  0.4418
 7413SOL    HW133872   1.546   4.023   4.150  0.9992  0.1733  0.5269
 7413SOL    HW233873   1.518   4.160   4.111  0.9288 -0.9262 -0.2438
 7414SOL     OW33874   3.486   3.380   5.405  0.0693 -0.3894 -0.6871
 7414SOL    HW133875   3.498   3.406   5.496 -0.9991 -0.0850 -0.6362
 7414SOL    HW233876   3.429   3.305   5.418  1.1989 -0.9429  0.9988
 7415SOL     OW33877   1.353   1.158   7.821  0.4187 -0.2916  0.1089
 7415SOL    HW133878   1.437   1.113   7.810 -0.3951 -1.6602 -0.4985
 7415SOL    HW233879   1.342   1.140   7.915 -1.4770 -2.7038 -0.5766
 7416SOL     OW33880   3.231   2.804  11.380 -0.4086 -0.2105  0.0350
 7416SOL    HW133881   3.147   2.775  11.414 -0.6557 -0.3853 -0.7154
 7416SOL    HW233882   3.271   2.727  11.339  0.1623  2.0063 -3.5532
 7417SOL     OW33883   3.154   3.888   0.733 -0.2788 -0.6713  0.6801
 7417SOL    HW133884   3.109   3.804   0.743 -1.3893 -0.0582  0.7823
 7417SOL    HW233885   3.124   3.943   0.805  2.2661  3.4556 -1.3824
 7418SOL     OW33886   4.420   3.290   2.817  0.4387  0.3020  0.5006
 7418SOL    HW133887   4.451   3.219   2.873  1.8191 -1.1044 -2.0304
 7418SOL    HW233888   4.369   3.238   2.756  0.0324 -0.9285  1.8968
 7419SOL     OW33889   1.432   1.840   3.272  0.1052  0.1977 -0.0611
 7419SOL    HW133890   1.429   1.921   3.222  0.2389 -0.5153 -1.2240
 7419SOL    HW233891   1.346   1.843   3.313 -0.0174 -2.8760 -0.0835
 7420SOL     OW33892   4.054   1.070   2.664 -0.0192 -0.0323  0.0622
 7420SOL    HW133893   4.145   1.068   2.634 -0.4655 -1.5971 -1.1988
 7420SOL    HW233894   4.013   1.111   2.587  0.2511 -0.4089 -0.2822
 7421SOL     OW33895   2.841   3.080   8.138 -0.4040 -0.0566  0.0137
 7421SOL    HW133896   2.820   3.099   8.047 -0.9143  0.6628  0.2769
 7421SOL    HW233897   2.936   3.078   8.147 -0.3228  0.2534 -0.7927
 7422SOL     OW33898   1.873   0.711   6.446 -0.2163  0.1237  0.3195
 7422SOL    HW133899   1.939   0.779   6.454 -2.4519  2.4093 -0.7444
 7422SOL    HW233900   1.898   0.660   6.523 -0.0413 -0.1562  0.0768
 7423SOL     OW33901   3.162   3.009   2.457  0.3603  0.5917 -0.7465
 7423SOL    HW133902   3.129   3.013   2.367  0.8443 -0.6978 -0.9815
 7423SOL    HW233903   3.255   3.027   2.446  0.4679 -0.9469 -2.2157
 7424SOL     OW33904   2.681   0.917   5.806  0.5170 -0.3463 -0.0132
 7424SOL    HW133905   2.728   1.001   5.806  0.1510 -0.1427 -0.1594
 7424SOL    HW233906   2.614   0.935   5.740  1.8223  2.5966 -0.5795
 7425SOL     OW33907   1.593   1.312   5.239  0.4786  0.0843 -0.3195
 7425SOL    HW133908   1.599   1.353   5.325 -1.5261  0.3986 -0.3140
 7425SOL    HW233909   1.505   1.273   5.242  1.6183 -2.6366 -1.6675
 7426SOL     OW33910   4.007   2.460   1.905  0.0123 -0.5556  0.0843
 7426SOL    HW133911   3.970   2.418   1.827  1.5420  0.1409 -1.0022
 7426SOL    HW233912   4.057   2.384   1.935  1.0907  0.7901  1.6814
 7427SOL     OW33913   4.443   3.263   4.493  0.4750  1.0551 -0.1214
 7427SOL    HW133914   4.534   3.243   4.513  0.1661 -0.0190  0.2181
 7427SOL    HW233915   4.438   3.183   4.439  0.4363 -0.2120  1.7605
 7428SOL     OW33916   2.295   1.962   7.939  0.3670  0.1542  0.4936
 7428SOL    HW133917   2.239   2.026   7.894  1.2453 -0.7547 -1.8792
 7428SOL    HW233918   2.230   1.892   7.945 -1.5810  1.9199  0.4326
 7429SOL     OW33919   2.055   4.522   5.979 -0.0718 -0.6634 -0.5932
 7429SOL    HW133920   2.125   4.469   6.016  1.5888  1.7036 -0.3026
 7429SOL    HW233921   2.081   4.520   5.887 -2.8401  0.3477 -1.4205
 7430SOL     OW33922   1.116   3.444   2.550 -0.0773  0.5258 -0.2616
 7430SOL    HW133923   1.088   3.354   2.566  2.8554 -0.0175  1.9033
 7430SOL    HW233924   1.102   3.458   2.457 -1.3898 -1.4285 -0.3735
 7431SOL     OW33925   0.423   3.465   4.999  0.0421 -0.3575 -0.3287
 7431SOL    HW133926   0.426   3.498   4.910 -0.0794 -1.2689 -0.6729
 7431SOL    HW233927   0.386   3.376   4.999  0.6911 -0.6133 -1.5341
 7432SOL     OW33928   1.999   3.001   6.549 -0.0459  0.2532  1.0358
 7432SOL    HW133929   2.078   2.947   6.555  0.9935  1.3447 -2.6874
 7432SOL    HW233930   1.988   2.979   6.456  0.2571 -1.0025  1.2979
 7433SOL     OW33931   1.903   2.714   0.598 -0.4252  0.1839 -0.0375
 7433SOL    HW133932   1.819   2.686   0.561  0.6050  0.6550 -2.6946
 7433SOL    HW233933   1.881   2.716   0.692 -1.5809 -1.6941 -0.2637
 7434SOL     OW33934   2.807   2.369   1.714 -0.1568  0.0370  0.0075
 7434SOL    HW133935   2.766   2.339   1.795  0.0267  0.4919  0.2694
 7434SOL    HW233936   2.901   2.368   1.732 -0.3424 -1.9437  0.8368
 7435SOL     OW33937   3.335   2.168   2.577  0.2259 -0.0911  0.1136
 7435SOL    HW133938   3.383   2.181   2.495  1.5787  0.9700  1.0569
 7435SOL    HW233939   3.323   2.259   2.604  1.8729 -0.3131  1.6135
 7436SOL     OW33940   2.016   0.225   5.423 -0.3166  0.2695  0.4479
 7436SOL    HW133941   2.019   0.255   5.332 -1.9063 -0.4737  0.1566
 7436SOL    HW233942   2.020   0.303   5.478 -2.1936  0.5898  0.1252
 7437SOL     OW33943   3.138   1.674   5.779 -0.2407 -0.2729  0.2137
 7437SOL    HW133944   3.170   1.587   5.803  0.2900 -0.8169 -2.3928
 7437SOL    HW233945   3.171   1.730   5.849 -1.6218  0.9237 -0.0919
 7438SOL     OW33946   0.466   2.751   5.675  0.2690  0.4441 -0.4740
 7438SOL    HW133947   0.407   2.758   5.751 -0.1326 -1.7380 -0.5865
 7438SOL    HW233948   0.533   2.687   5.703  0.2620  1.0640  0.9710
 7439SOL     OW33949   0.807   1.905  17.511 -0.8331  0.2910  0.1248
 7439SOL    HW133950   0.790   1.901  17.417 -1.4662 -3.7896  0.3960
 7439SOL    HW233951   0.747   1.835  17.539  0.6183 -0.2946  1.7852
 7440SOL     OW33952   1.465   3.058   7.649 -0.1152  0.1291  0.1361
 7440SOL    HW133953   1.528   3.060   7.577 -0.6056  0.3754 -0.2823
 7440SOL    HW233954   1.389   3.021   7.605 -1.0765 -0.2142  2.0560
 7441SOL     OW33955   1.324   2.720  13.650 -0.3498  0.1265 -0.4573
 7441SOL    HW133956   1.286   2.807  13.635  0.0430  0.1198 -1.4481
 7441SOL    HW233957   1.320   2.718  13.745  0.5038 -2.4557 -0.4967
 7442SOL     OW33958   3.343   4.268   2.240  0.3311  0.4325 -0.8626
 7442SOL    HW133959   3.334   4.353   2.198 -1.2849  0.6683 -0.0130
 7442SOL    HW233960   3.280   4.215   2.192  0.2258  0.7978 -1.1190
 7443SOL     OW33961   0.356   1.245  10.496 -0.5301 -0.7298 -0.3801
 7443SOL    HW133962   0.290   1.266  10.430  0.6167  0.7649 -1.0567
 7443SOL    HW233963   0.310   1.169  10.532  0.5715 -0.8011  0.8462
 7444SOL     OW33964   0.599   1.128  15.763  0.0217 -0.1247 -0.1522
 7444SOL    HW133965   0.630   1.056  15.707  0.1073 -0.3484  0.1791
 7444SOL    HW233966   0.579   1.194  15.697  3.4126  0.8051 -0.2364
 7445SOL     OW33967   1.872   1.469  13.116  0.1028  0.2065 -0.5627
 7445SOL    HW133968   1.836   1.515  13.192  0.4154 -1.2060  0.4549
 7445SOL    HW233969   1.962   1.442  13.136 -1.5720 -3.3495  2.1807
 7446SOL     OW33970   1.599   1.187   8.358  0.5636  0.1520  0.2639
 7446SOL    HW133971   1.621   1.183   8.265  1.5772 -1.3410  0.5678
 7446SOL    HW233972   1.542   1.110   8.367 -0.1292  0.7861  1.3803
 7447SOL     OW33973   4.313   0.709   5.577  0.7894  0.3312 -0.3364
 7447SOL    HW133974   4.300   0.724   5.671 -0.6024  2.7185 -0.9025
 7447SOL    HW233975   4.237   0.756   5.543  2.0060  3.0499  0.7009
 7448SOL     OW33976   3.877   0.056   7.400 -0.2707  0.3708  0.3089
 7448SOL    HW133977   3.875   0.068   7.495  1.3076  1.6865  0.1919
 7448SOL    HW233978   3.860   4.701   7.395  0.8640  0.3179 -3.1751
 7449SOL     OW33979   4.476   4.273   5.448  0.5464  0.0924  0.1772
 7449SOL    HW133980   4.546   4.240   5.391  0.8863  1.6361 -0.3073
 7449SOL    HW233981   4.529   4.282   5.527  0.5065  1.8829  0.0040
 7450SOL     OW33982   2.455   0.989   3.800  0.7085 -0.1525  0.6790
 7450SOL    HW133983   2.414   1.073   3.778 -0.1673 -0.3984  1.4033
 7450SOL    HW233984   2.546   1.017   3.807  0.5886  0.4765 -0.2959
 7451SOL     OW33985   2.330   0.606  11.689 -0.5458 -0.2273 -0.4236
 7451SOL    HW133986   2.316   0.604  11.594 -1.8468 -1.3678 -0.2030
 7451SOL    HW233987   2.413   0.563  11.708 -0.5167  0.3647  0.8044
 7452SOL     OW33988   2.691   2.525   7.582  0.0387  0.2697 -0.4806
 7452SOL    HW133989   2.734   2.541   7.498 -1.0006 -0.7878 -1.2255
 7452SOL    HW233990   2.627   2.597   7.581  1.7527  1.8189  1.1462
 7453SOL     OW33991   4.120   4.435   8.621 -0.0152  0.4520 -0.3125
 7453SOL    HW133992   4.131   4.479   8.705  2.6659 -2.3957  0.8163
 7453SOL    HW233993   4.026   4.442   8.603 -0.4006 -1.5678  0.8665
 7454SOL     OW33994   0.853   3.897   5.714 -0.2300  0.2500 -0.6641
 7454SOL    HW133995   0.772   3.847   5.708  0.8579 -1.4508 -1.1834
 7454SOL    HW233996   0.892   3.873   5.630 -2.1419 -1.1241 -1.1349
 7455SOL     OW33997   3.566   3.361   4.512  0.0946  0.7464  0.0968
 7455SOL    HW133998   3.573   3.440   4.566 -1.3045  1.5601 -0.9016
 7455SOL    HW233999   3.622   3.307   4.568  1.2362  1.6437 -0.1846
 7456SOL     OW34000   1.228   2.089   4.977  0.1622  0.0539  0.0179
 7456SOL    HW134001   1.189   2.130   5.054  2.3244 -0.5128  1.4272
 7456SOL    HW234002   1.162   2.085   4.908 -0.3289  0.3004  0.4840
 7457SOL     OW34003   3.517   3.172   3.160 -0.3047 -0.2866  0.2208
 7457SOL    HW134004   3.552   3.255   3.193  1.3876 -1.3682  1.2127
 7457SOL    HW234005   3.603   3.137   3.135 -1.1219 -2.3857  0.3091
 7458SOL     OW34006   0.001   1.196   0.627  0.0481 -0.0256 -0.3597
 7458SOL    HW134007   4.660   1.235   0.589 -0.7320  0.2059  1.5421
 7458SOL    HW234008   4.721   1.104   0.609  1.5428 -0.1712 -1.2081
 7459SOL     OW34009   3.566   1.161   9.789  0.1848 -0.6966  0.0288
 7459SOL    HW134010   3.517   1.079   9.794 -1.6606  0.3541 -0.9033
 7459SOL    HW234011   3.512   1.227   9.830 -0.3668 -1.0336 -0.1510
 7460SOL     OW34012   2.561   3.073   4.477  0.0535 -0.3747 -0.3609
 7460SOL    HW134013   2.550   2.982   4.505  1.4270  0.0489  1.5744
 7460SOL    HW234014   2.472   3.088   4.445 -0.4351 -1.8853  0.2567
 7461SOL     OW34015   3.583   0.156   4.591 -0.6661  0.2155 -0.2729
 7461SOL    HW134016   3.618   0.167   4.680 -0.6564  0.3663 -0.2947
 7461SOL    HW234017   3.645   0.210   4.542  1.7425 -1.1949  1.2538
 7462SOL     OW34018   3.706   2.665   9.141  0.5389 -0.2051  0.3681
 7462SOL    HW134019   3.663   2.719   9.075  2.5583 -1.8365 -2.2567
 7462SOL    HW234020   3.733   2.594   9.084 -1.2823  1.4162 -2.5204
 7463SOL     OW34021   3.956   0.368   8.951  0.1321 -0.5282  0.4632
 7463SOL    HW134022   3.999   0.340   8.870  1.0890 -0.5893  0.9957
 7463SOL    HW234023   4.004   0.450   8.962  0.3719 -0.6976  0.6932
 7464SOL     OW34024   3.604   3.033   7.224  0.2594 -0.2905 -0.1561
 7464SOL    HW134025   3.536   3.021   7.158 -1.1949  0.4317  1.1915
 7464SOL    HW234026   3.673   3.076   7.174  0.7308 -0.8008  0.0598
 7465SOL     OW34027   1.065   0.313   7.490 -0.0796  0.2089 -0.0073
 7465SOL    HW134028   1.121   0.273   7.556  0.4242  1.7989  0.5139
 7465SOL    HW234029   1.039   0.230   7.449  0.8076  1.0832 -2.3157
 7466SOL     OW34030   0.744   0.923  14.994 -0.1108 -0.2956 -0.2778
 7466SOL    HW134031   0.790   0.871  14.928  0.5363 -2.4947  1.9055
 7466SOL    HW234032   0.819   0.956  15.044 -0.8424  0.5861  0.2394
 7467SOL     OW34033   1.083   0.846   0.095 -0.9800 -0.8451 -0.8310
 7467SOL    HW134034   1.177   0.830   0.106 -1.0998  0.1363  1.5899
 7467SOL    HW234035   1.034   0.765   0.081 -2.6486  0.5572 -3.2800
 7468SOL     OW34036   4.677   0.765   9.850  0.7546  0.4305 -0.0535
 7468SOL    HW134037   4.714   0.746   9.936 -0.9600 -3.7868 -0.2229
 7468SOL    HW234038   0.009   0.801   9.798  0.7591  0.5141  0.0099
 7469SOL     OW34039   1.682   1.268   2.198  0.2895  0.1387  0.2987
 7469SOL    HW134040   1.630   1.344   2.225 -2.1521 -1.4994  0.1950
 7469SOL    HW234041   1.715   1.312   2.120  0.1067 -1.2774 -0.5810
 7470SOL     OW34042   0.384   3.056   1.173 -0.7150  0.5650 -0.2756
 7470SOL    HW134043   0.385   3.151   1.170 -0.2412  0.6043  0.9856
 7470SOL    HW234044   0.353   3.035   1.261 -0.2192 -0.4677 -0.3492
 7471SOL     OW34045   1.580   1.954   7.938  0.0652 -0.2936 -0.2599
 7471SOL    HW134046   1.488   1.980   7.929 -0.0623  0.0872  2.1180
 7471SOL    HW234047   1.611   2.008   7.866  0.7457 -0.5907 -0.1854
 7472SOL     OW34048   0.309   3.963   9.212 -0.7713  0.4774  0.7006
 7472SOL    HW134049   0.291   3.907   9.287  2.1649 -0.5602  0.6420
 7472SOL    HW234050   0.265   4.042   9.240 -1.1260  0.2105  0.8920
 7473SOL     OW34051   4.416   1.216  16.394  0.0606  0.2108 -0.2636
 7473SOL    HW134052   4.473   1.189  16.322 -0.2119  2.3562 -1.2795
 7473SOL    HW234053   4.360   1.276  16.345  0.7697  0.8776 -0.2692
 7474SOL     OW34054   3.181   3.108  17.175  0.2642  0.6641  0.0661
 7474SOL    HW134055   3.108   3.054  17.146  0.3431 -0.0011  1.1098
 7474SOL    HW234056   3.222   3.140  17.095  1.9035  2.6220  1.6845
 7475SOL     OW34057   4.570   1.769   2.201  0.4564  0.4536 -0.0291
 7475SOL    HW134058   4.499   1.823   2.235 -0.0560  0.9188 -1.7955
 7475SOL    HW234059   4.641   1.833   2.207  0.2196  0.5008  2.3496
 7476SOL     OW34060   4.008   0.671  12.248 -0.2384  0.5521  0.3048
 7476SOL    HW134061   4.054   0.652  12.166 -0.4019  0.3825  0.2526
 7476SOL    HW234062   3.917   0.681  12.219 -0.1651  1.2910  0.3139
 7477SOL     OW34063   2.471   3.397  12.693 -0.2913 -0.1060  0.4111
 7477SOL    HW134064   2.466   3.402  12.789  1.3700 -2.7427  0.6432
 7477SOL    HW234065   2.386   3.434  12.669 -0.0938  0.8532  1.1722
 7478SOL     OW34066   1.366   2.123   2.481  0.2138 -0.5473  0.1052
 7478SOL    HW134067   1.313   2.197   2.453  1.2695 -0.8168 -2.7016
 7478SOL    HW234068   1.378   2.077   2.397  3.7037 -0.2031  0.4176
 7479SOL     OW34069   2.353   0.142  15.904 -0.4332 -0.1627  0.9162
 7479SOL    HW134070   2.438   0.102  15.920 -0.2298 -0.5240 -1.0368
 7479SOL    HW234071   2.380   0.234  15.903  1.1968 -0.6495  0.4189
 7480SOL     OW34072   0.288   0.320  15.141  0.9677  0.1941  0.1016
 7480SOL    HW134073   0.284   0.339  15.235 -0.0803  1.7469 -0.2449
 7480SOL    HW234074   0.252   0.396  15.095  1.4298 -0.3260 -1.1339
 7481SOL     OW34075   2.314   1.148   8.431  0.2259  0.3814  0.3180
 7481SOL    HW134076   2.282   1.219   8.486  1.4365  0.7853  0.4972
 7481SOL    HW234077   2.366   1.092   8.490 -2.1378 -0.3478  1.7201
 7482SOL     OW34078   3.190   0.899   5.850 -0.5640 -0.2215 -0.4317
 7482SOL    HW134079   3.238   0.858   5.777 -0.3351  1.5727 -1.2867
 7482SOL    HW234080   3.234   0.855   5.923 -0.5228  2.1796  0.9807
 7483SOL     OW34081   1.947   1.781   8.274 -0.0891  0.4095 -0.5243
 7483SOL    HW134082   1.883   1.784   8.345 -0.7982 -0.0387 -1.1508
 7483SOL    HW234083   1.909   1.717   8.213  1.4250 -1.5106  0.5533
 7484SOL     OW34084   4.484   1.758  14.901  0.1200 -0.4542  0.3665
 7484SOL    HW134085   4.481   1.777  14.807 -2.3691  0.5871  0.6554
 7484SOL    HW234086   4.430   1.832  14.930 -0.6029 -1.1654  0.8156
 7485SOL     OW34087   3.202   0.968   2.437  0.1312  0.1244  0.5852
 7485SOL    HW134088   3.108   0.981   2.430  0.1339 -0.3829 -0.3831
 7485SOL    HW234089   3.194   0.873   2.450 -2.6168  0.4016  0.8951
 7486SOL     OW34090   0.309   0.603   7.627  0.3820  0.0126  0.1754
 7486SOL    HW134091   0.231   0.640   7.586  0.5789 -0.5326 -0.6885
 7486SOL    HW234092   0.292   0.620   7.720  0.4294  0.3524  0.1227
 7487SOL     OW34093   1.841   2.285   7.677  0.2334  0.4379 -0.6783
 7487SOL    HW134094   1.854   2.380   7.686  0.0736  0.2464  1.4746
 7487SOL    HW234095   1.924   2.249   7.707 -0.7784 -1.1732  0.1355
 7488SOL     OW34096   3.475   0.505   8.655  0.3158  0.3178  0.0970
 7488SOL    HW134097   3.501   0.578   8.599  1.1066  0.5685  0.7956
 7488SOL    HW234098   3.498   0.437   8.592  0.2468  0.1060  0.2970
 7489SOL     OW34099   1.686   1.176   3.230  0.1425  0.4504  0.2411
 7489SOL    HW134100   1.615   1.168   3.294  0.3287 -0.1959  0.3645
 7489SOL    HW234101   1.631   1.223   3.167 -0.4252 -2.1118 -1.1634
 7490SOL     OW34102   0.803   3.996   5.057 -0.5079 -0.1730 -0.0684
 7490SOL    HW134103   0.750   4.028   5.130 -0.7385 -0.7621  0.0222
 7490SOL    HW234104   0.748   3.925   5.026 -0.4082 -0.3114  0.0716
 7491SOL     OW34105   3.486   1.837   5.285  0.3872 -0.0491  0.0458
 7491SOL    HW134106   3.573   1.828   5.325 -0.0938 -2.1855  0.6413
 7491SOL    HW234107   3.427   1.824   5.360 -1.0059  0.8381 -0.9058
 7492SOL     OW34108   0.130   1.513  11.218  0.0089  0.0238 -0.8577
 7492SOL    HW134109   0.145   1.480  11.307  1.0067 -2.4313 -1.9309
 7492SOL    HW234110   0.220   1.526  11.187  0.3646  2.2898  1.0980
 7493SOL     OW34111   0.944   4.389   9.240  0.1885  0.0352  0.0486
 7493SOL    HW134112   1.009   4.391   9.170 -0.3531  2.0214 -0.3789
 7493SOL    HW234113   0.971   4.458   9.299  0.8217 -0.3446  0.1965
 7494SOL     OW34114   4.467   4.022   0.033 -0.0604 -0.6772  0.0540
 7494SOL    HW134115   4.508   3.954   0.086  0.4133 -1.9166 -1.9122
 7494SOL    HW234116   4.518   4.100   0.052 -1.8507  0.3771  0.5453
 7495SOL     OW34117   0.510   0.158   5.237  0.1490  0.5095 -0.2638
 7495SOL    HW134118   0.517   0.198   5.324 -0.7672  2.0587 -0.8901
 7495SOL    HW234119   0.599   0.185   5.211  1.1039 -0.9788  1.4544
 7496SOL     OW34120   1.181   3.906  17.650  0.5414 -0.1342  0.1950
 7496SOL    HW134121   1.217   3.923  17.563 -2.5909 -0.5935 -1.1977
 7496SOL    HW234122   1.201   3.812  17.644 -0.4855 -0.2080 -1.9592
 7497SOL     OW34123   0.014   3.076   2.318 -0.5207 -0.5153 -0.1148
 7497SOL    HW134124   0.101   3.077   2.356 -0.2849 -0.6556 -0.6458
 7497SOL    HW234125   4.731   2.984   2.333  0.6324 -1.1328 -2.1461
 7498SOL     OW34126   0.820   1.984   9.468  0.2994  0.0808 -0.3164
 7498SOL    HW134127   0.871   1.904   9.477 -1.6750 -0.8404  2.9582
 7498SOL    HW234128   0.747   1.959   9.525  1.4873 -0.1808  1.0551
 7499SOL     OW34129   1.858   4.045   6.781 -0.4372  0.0308  0.5664
 7499SOL    HW134130   1.868   3.953   6.806 -0.7001  0.2074  1.3373
 7499SOL    HW234131   1.796   4.082   6.844 -0.6586 -0.3923  0.5969
 7500SOL     OW34132   0.831   1.199  17.741 -0.6505  0.0184  0.3354
 7500SOL    HW134133   0.920   1.231  17.746 -1.1395  1.2375  1.1662
 7500SOL    HW234134   0.797   1.265  17.681 -0.2219 -1.5933 -1.6956
 7501SOL     OW34135   1.196   0.422   3.173  0.0529 -0.8483  0.3148
 7501SOL    HW134136   1.123   0.420   3.110  1.8812 -0.1133 -1.8058
 7501SOL    HW234137   1.160   0.404   3.260  0.6304  2.1008  1.1413
 7502SOL     OW34138   4.124   3.634   4.384 -0.5658  0.1680  0.3478
 7502SOL    HW134139   4.133   3.553   4.433  3.0438  2.4832  3.5636
 7502SOL    HW234140   4.053   3.684   4.425 -1.3612 -0.7574  0.0774
 7503SOL     OW34141   3.384   2.621   7.357  0.1119  0.5838  0.0838
 7503SOL    HW134142   3.387   2.583   7.270 -0.6850  0.1390  0.2540
 7503SOL    HW234143   3.452   2.688   7.345 -1.0689  1.9484  0.9371
 7504SOL     OW34144   3.215   0.761   3.350  0.2843 -0.3836 -0.4033
 7504SOL    HW134145   3.259   0.683   3.316  2.7511  1.1295 -0.6644
 7504SOL    HW234146   3.232   0.827   3.283 -0.9562  0.4695  0.1262
 7505SOL     OW34147   0.723   1.329   6.522  0.0806 -0.0486 -0.1013
 7505SOL    HW134148   0.629   1.319   6.507 -0.0076 -0.7462  0.9258
 7505SOL    HW234149   0.725   1.415   6.564  3.2679 -1.1386  1.9738
 7506SOL     OW34150   2.663   2.136   3.826 -0.2683 -0.2321 -0.2539
 7506SOL    HW134151   2.736   2.190   3.858  0.6480 -0.1911 -2.3869
 7506SOL    HW234152   2.709   2.057   3.800 -0.8362 -0.2873 -1.1145
 7507SOL     OW34153   2.957   2.360   8.198  0.2666  0.4826 -0.5167
 7507SOL    HW134154   2.890   2.400   8.143 -2.1819 -0.9653  1.4031
 7507SOL    HW234155   2.942   2.404   8.281 -1.7638 -0.4493 -0.3825
 7508SOL     OW34156   0.585   1.495  15.246  0.4420 -0.7560 -0.4416
 7508SOL    HW134157   0.666   1.542  15.228 -0.3621  1.5549  1.9577
 7508SOL    HW234158   0.576   1.442  15.167 -0.6992 -1.0793 -0.1010
 7509SOL     OW34159   4.608   2.433   0.689  0.0952  0.4800 -0.7078
 7509SOL    HW134160   4.593   2.339   0.699 -0.5105  0.6347 -0.1117
 7509SOL    HW234161   4.554   2.462   0.615 -1.2870  0.4448  0.2726
 7510SOL     OW34162   3.438   3.187   5.824  0.2498 -0.0707  0.0174
 7510SOL    HW134163   3.477   3.205   5.909 -0.1855  0.6727  0.0622
 7510SOL    HW234164   3.447   3.092   5.818  1.9570  0.1444 -1.1461
 7511SOL     OW34165   3.336   1.305   9.863 -0.1191  0.7456  0.1854
 7511SOL    HW134166   3.278   1.230   9.850  1.0978 -0.3748  1.3829
 7511SOL    HW234167   3.301   1.360   9.793 -2.0400  1.8846  2.0135
 7512SOL     OW34168   4.300   2.012   3.940 -0.2755 -0.1025 -0.0195
 7512SOL    HW134169   4.263   2.101   3.931 -0.0005 -0.0493 -0.6657
 7512SOL    HW234170   4.316   1.993   3.848 -1.1480  1.3611 -0.4851
 7513SOL     OW34171   2.757   1.391   7.301 -0.0885 -0.4263 -0.2687
 7513SOL    HW134172   2.675   1.434   7.325  0.4220 -0.7557  2.0142
 7513SOL    HW234173   2.819   1.434   7.358  1.3692 -0.7203 -1.6286
 7514SOL     OW34174   2.371   1.257   7.702 -0.1601 -0.0079 -0.2226
 7514SOL    HW134175   2.379   1.352   7.688  0.2254 -0.1227 -0.7780
 7514SOL    HW234176   2.394   1.257   7.795  1.2235 -0.0041 -0.5594
 7515SOL     OW34177   1.315   2.704   3.511  0.0507  0.5040  0.2110
 7515SOL    HW134178   1.352   2.793   3.505 -2.7666  1.7693  1.7125
 7515SOL    HW234179   1.400   2.663   3.526 -0.3770 -0.3913  0.1867
 7516SOL     OW34180   1.851   2.198   2.098  0.0753  0.2184 -0.0503
 7516SOL    HW134181   1.890   2.237   2.176  0.9895 -3.0980  1.1497
 7516SOL    HW234182   1.834   2.270   2.037 -1.9797  1.5566  2.1355
 7517SOL     OW34183   0.918   3.881   6.303 -0.0356 -0.4365 -0.1820
 7517SOL    HW134184   0.862   3.882   6.381  1.0160 -1.0863  0.5829
 7517SOL    HW234185   0.853   3.918   6.243 -0.0405  0.4539  0.3733
 7518SOL     OW34186   2.932   1.070   7.554  0.2606  0.6544 -0.0485
 7518SOL    HW134187   2.954   1.147   7.607  1.6836 -0.7840  1.4045
 7518SOL    HW234188   3.017   1.054   7.514  0.4765 -3.2036  2.0623
 7519SOL     OW34189   2.678   2.929   8.684 -0.5009  0.2469 -0.1868
 7519SOL    HW134190   2.603   2.967   8.638 -0.0414  0.7393 -0.5225
 7519SOL    HW234191   2.694   2.994   8.752  2.0369 -0.0525 -0.5087
 7520SOL     OW34192   3.072   1.590   9.444  0.8300  1.0859 -0.2132
 7520SOL    HW134193   3.033   1.655   9.502 -2.1335 -1.4229  0.6509
 7520SOL    HW234194   3.002   1.529   9.419  2.3713 -2.2196  3.6039
 7521SOL     OW34195   0.927   0.168   8.536  0.1834 -0.2732  0.3562
 7521SOL    HW134196   0.932   0.106   8.463  1.0969 -0.4262  0.5495
 7521SOL    HW234197   0.945   0.117   8.615  0.6163  0.2136  0.5685
 7522SOL     OW34198   3.988   0.617   9.239 -0.4254 -0.1009 -0.1295
 7522SOL    HW134199   4.073   0.659   9.248  0.0461 -1.6705  2.8889
 7522SOL    HW234200   3.926   0.678   9.281  0.1620 -0.0307  0.6374
 7523SOL     OW34201   2.832   3.309   6.529 -0.6023  0.1861  0.8217
 7523SOL    HW134202   2.765   3.350   6.473  0.8316  0.8523 -0.4095
 7523SOL    HW234203   2.913   3.353   6.502 -0.9401 -0.8417 -1.9592
 7524SOL     OW34204   2.464   2.126   1.741  0.2868  0.2655 -0.2626
 7524SOL    HW134205   2.414   2.104   1.819  2.4063 -3.0896  0.1323
 7524SOL    HW234206   2.553   2.098   1.763  0.0170 -0.6128 -0.3169
 7525SOL     OW34207   4.145   2.742   2.670 -0.1273  0.7196  0.6176
 7525SOL    HW134208   4.059   2.702   2.670 -0.6081  1.7552  0.0395
 7525SOL    HW234209   4.195   2.664   2.693 -2.1320 -0.3790  1.2039
 7526SOL     OW34210   3.610   3.267  15.836 -0.6424  0.1129 -0.2585
 7526SOL    HW134211   3.544   3.277  15.767 -0.4480  1.3670 -0.2538
 7526SOL    HW234212   3.675   3.334  15.815 -0.5309 -0.1688 -0.8228
 7527SOL     OW34213   2.954   4.597   4.291  0.5673 -0.6935  0.0545
 7527SOL    HW134214   2.990   4.662   4.231 -0.4038  1.1401  1.4253
 7527SOL    HW234215   3.025   4.534   4.304  0.7258 -0.5788 -0.2668
 7528SOL     OW34216   4.483   3.291   2.150  0.7266  0.2315  0.1119
 7528SOL    HW134217   4.453   3.290   2.059 -0.3548  1.3675  0.4611
 7528SOL    HW234218   4.422   3.226   2.184  0.7794  0.4393  0.5927
 7529SOL     OW34219   1.311   2.976   3.276 -0.5068  0.0222  0.1607
 7529SOL    HW134220   1.311   3.055   3.330 -0.7607 -0.3742  0.7465
 7529SOL    HW234221   1.303   3.012   3.188  1.3522  1.3346  0.5276
 7530SOL     OW34222   2.348   0.133   2.625  0.9063 -0.4110  0.4797
 7530SOL    HW134223   2.261   0.106   2.597  1.3246 -1.9090  0.6038
 7530SOL    HW234224   2.327   0.180   2.706  0.0225 -1.4521  0.8593
 7531SOL     OW34225   2.038   3.378   6.327 -0.2954 -1.1151  0.0258
 7531SOL    HW134226   2.116   3.324   6.339 -0.1262 -1.8299 -4.4969
 7531SOL    HW234227   1.991   3.348   6.405 -0.0009 -3.2523 -0.6231
 7532SOL     OW34228   3.136   3.861   6.717  0.1246 -0.1550  0.2511
 7532SOL    HW134229   3.190   3.797   6.763 -0.3231  0.0061  1.0125
 7532SOL    HW234230   3.200   3.884   6.650 -2.0614  2.6819 -0.8399
 7533SOL     OW34231   1.300   0.175   0.607 -0.3478 -0.4668 -0.3626
 7533SOL    HW134232   1.355   0.247   0.637 -1.5193  0.0217  0.6176
 7533SOL    HW234233   1.346   0.094   0.625  0.8720  1.3139  4.6460
 7534SOL     OW34234   0.359   1.248  13.731 -0.1286 -0.0692  0.1725
 7534SOL    HW134235   0.278   1.298  13.729 -0.0236  0.0574 -1.2054
 7534SOL    HW234236   0.422   1.318  13.712  0.5014 -0.0069  2.4834
 7535SOL     OW34237   1.958   3.946  13.880 -0.1065  0.3701  0.0351
 7535SOL    HW134238   1.871   3.969  13.913  0.3093  0.9131  0.7350
 7535SOL    HW234239   2.004   4.030  13.883 -0.6501  0.6458  0.6225
 7536SOL     OW34240   4.097   0.995   4.734 -0.1163 -0.6759  0.4211
 7536SOL    HW134241   4.156   0.931   4.693 -1.2606 -1.2741 -0.3078
 7536SOL    HW234242   4.069   1.034   4.651 -0.4131 -0.4591  0.6250
 7537SOL     OW34243   2.195   3.079   0.916 -0.0209 -0.0695 -0.3927
 7537SOL    HW134244   2.203   3.143   0.987 -2.2665 -0.5646  0.3099
 7537SOL    HW234245   2.285   3.077   0.884 -0.1619 -2.3167 -0.6542
 7538SOL     OW34246   1.913   2.825   5.465  0.0716  0.2387  0.2125
 7538SOL    HW134247   1.835   2.849   5.414 -0.7365  0.6377  1.6241
 7538SOL    HW234248   1.882   2.848   5.553  1.5713  0.2151  0.7401
 7539SOL     OW34249   0.569   0.394   6.379 -0.1110  0.6603  0.3121
 7539SOL    HW134250   0.658   0.412   6.347 -0.6466  0.8104 -1.1160
 7539SOL    HW234251   0.590   0.328   6.444  0.0067  0.0916 -0.2987
 7540SOL     OW34252   2.293   2.284  13.396 -0.4696  0.0794 -0.2756
 7540SOL    HW134253   2.365   2.320  13.448  0.8842 -0.3438 -1.8347
 7540SOL    HW234254   2.228   2.274  13.465  2.6323  0.2112  2.6679
 7541SOL     OW34255   0.618   4.522   9.949  0.5103  0.3615 -0.0334
 7541SOL    HW134256   0.589   4.613   9.943  0.9374  0.3773 -2.0821
 7541SOL    HW234257   0.651   4.530  10.038  0.2050  0.4106  0.0756
 7542SOL     OW34258   1.615   1.044   5.756  0.4285  0.3894 -0.1673
 7542SOL    HW134259   1.655   1.124   5.789 -0.8508  0.3951  1.3619
 7542SOL    HW234260   1.527   1.058   5.790  1.3248  2.4105  1.2906
 7543SOL     OW34261   3.481   0.882   3.591 -0.0098  0.0159  0.3723
 7543SOL    HW134262   3.428   0.836   3.656 -2.4904  1.6259 -0.5080
 7543SOL    HW234263   3.437   0.966   3.602  1.5948  1.2073 -2.2349
 7544SOL     OW34264   0.027   2.808  17.074  0.1330  0.0713  0.7424
 7544SOL    HW134265   4.734   2.860  17.147  0.1439  1.8705 -0.5196
 7544SOL    HW234266   4.713   2.841  17.001 -0.4798  0.0013  1.1604
 7545SOL     OW34267   1.833   3.716   8.687 -0.5771 -0.4031  0.3777
 7545SOL    HW134268   1.832   3.807   8.655  0.3290 -0.7288 -0.5873
 7545SOL    HW234269   1.829   3.740   8.779  0.2007  1.1664  0.0154
 7546SOL     OW34270   1.933   1.408   0.040 -0.0762 -0.4135 -0.0576
 7546SOL    HW134271   1.906   1.320   0.014 -0.1264 -0.2934 -0.4108
 7546SOL    HW234272   1.968   1.448  17.713 -0.3544 -1.2087 -0.5759
 7547SOL     OW34273   2.091   1.033  13.618  0.1789  0.3200  0.0591
 7547SOL    HW134274   1.999   1.035  13.592  0.4028  1.6507 -0.5999
 7547SOL    HW234275   2.075   1.049  13.711  0.9591 -0.7147  0.3783
 7548SOL     OW34276   1.709   2.812   4.052  0.3320 -0.1309  0.2972
 7548SOL    HW134277   1.636   2.813   3.990  0.9250  2.2443 -0.3821
 7548SOL    HW234278   1.765   2.742   4.017  0.4510  0.5367 -0.8676
 7549SOL     OW34279   3.610   3.416   3.810  0.3886  0.1649  0.3011
 7549SOL    HW134280   3.606   3.403   3.715 -0.0075  0.6231  0.2552
 7549SOL    HW234281   3.567   3.501   3.812  0.7640  0.3572  0.1618
 7550SOL     OW34282   0.978   2.122   1.046  0.4996  0.0244  0.5775
 7550SOL    HW134283   1.043   2.055   1.067  1.9784  1.6195  1.1358
 7550SOL    HW234284   0.998   2.130   0.953 -0.4502 -1.3115  0.2560
 7551SOL     OW34285   1.887   4.114   6.526 -0.2170 -0.0052  0.8319
 7551SOL    HW134286   1.858   4.104   6.617  0.2662  4.5794  1.4910
 7551SOL    HW234287   1.870   4.026   6.493  2.1855 -0.0786 -0.2108
 7552SOL     OW34288   2.707   1.735   9.307  0.1414 -0.3518 -0.2734
 7552SOL    HW134289   2.780   1.779   9.263  0.0216  2.1679  1.9854
 7552SOL    HW234290   2.741   1.646   9.308  0.5046 -0.2230 -1.5818
 7553SOL     OW34291   0.392   4.244   8.236 -0.3902 -0.4742 -0.5638
 7553SOL    HW134292   0.455   4.207   8.174  1.8935 -1.8116  2.5914
 7553SOL    HW234293   0.443   4.223   8.314  0.4937 -1.5755 -1.4312
 7554SOL     OW34294   2.674   0.551   2.030  0.2679  0.0573 -0.1699
 7554SOL    HW134295   2.648   0.479   1.973 -0.0626 -1.9278  2.4766
 7554SOL    HW234296   2.596   0.605   2.036 -1.5141 -2.8194  2.6571
 7555SOL     OW34297   2.462   3.013  15.252  0.4005 -0.1495 -0.4785
 7555SOL    HW134298   2.402   3.080  15.284  0.3923 -1.2926  1.8932
 7555SOL    HW234299   2.414   2.989  15.173 -1.9399 -1.2645  1.2933
 7556SOL     OW34300   0.399   2.882   1.664  0.6969 -0.7153  0.2177
 7556SOL    HW134301   0.308   2.861   1.684  0.2680  0.3920 -0.5628
 7556SOL    HW234302   0.399   2.925   1.578  0.7477  0.1310  0.6416
 7557SOL     OW34303   1.404   1.669   7.804  0.0288  0.1705 -0.1504
 7557SOL    HW134304   1.440   1.753   7.774  0.1352  0.0424 -0.3765
 7557SOL    HW234305   1.328   1.650   7.749 -0.2456 -2.4412  1.1377
 7558SOL     OW34306   4.548   2.063   1.391 -0.3719  0.2173  0.0259
 7558SOL    HW134307   4.628   2.039   1.344 -0.2563 -1.8161  1.2728
 7558SOL    HW234308   4.568   2.154   1.416 -0.6783  0.7845 -1.8034
 7559SOL     OW34309   2.690   0.720   7.061 -0.3073 -0.3567  0.6266
 7559SOL    HW134310   2.666   0.811   7.041  0.0139 -0.4600 -0.2394
 7559SOL    HW234311   2.616   0.674   7.022  1.7128  0.4638 -4.2235
 7560SOL     OW34312   1.401   4.499  12.819  0.0817 -0.0244 -0.2978
 7560SOL    HW134313   1.402   4.489  12.914 -1.9042 -0.1716 -0.3013
 7560SOL    HW234314   1.333   4.438  12.791  0.9149 -0.3922 -1.5419
 7561SOL     OW34315   2.788   1.661   3.885 -0.5367 -0.4919  0.0107
 7561SOL    HW134316   2.830   1.647   3.970 -0.0539 -0.4566 -0.2166
 7561SOL    HW234317   2.843   1.608   3.827  2.4855  2.3811  0.2654
 7562SOL     OW34318   0.890   0.602   0.401  0.1489  0.2527  0.1273
 7562SOL    HW134319   0.822   0.669   0.409 -0.7507 -0.4680 -1.4500
 7562SOL    HW234320   0.891   0.605   0.305 -0.2989  1.1745  0.1501
 7563SOL     OW34321   3.231   0.775   2.063  0.2657  0.2775 -0.3701
 7563SOL    HW134322   3.277   0.778   1.979  1.7199  5.5626  0.6304
 7563SOL    HW234323   3.277   0.843   2.112  0.8382  0.9496 -1.8178
 7564SOL     OW34324   2.287   3.720   0.182 -0.2157  0.1334 -0.1913
 7564SOL    HW134325   2.318   3.632   0.204 -0.5453  0.0438 -0.0951
 7564SOL    HW234326   2.198   3.706   0.212  0.2072  0.9671  1.4459
 7565SOL     OW34327   2.250   1.710  14.747  0.0518  0.8895  0.0731
 7565SOL    HW134328   2.329   1.725  14.695 -1.0355 -0.7627 -2.0858
 7565SOL    HW234329   2.217   1.798  14.731  0.2651  0.8951 -0.3462
 7566SOL     OW34330   2.060   1.750   7.197 -0.0355  0.0615  0.5871
 7566SOL    HW134331   2.093   1.838   7.183 -1.1899  0.2271 -1.0738
 7566SOL    HW234332   1.997   1.752   7.125 -1.1541  0.1469  1.5607
 7567SOL     OW34333   2.129   3.178  11.613  0.5060  0.0094 -0.2026
 7567SOL    HW134334   2.213   3.222  11.598  1.4673 -2.2052 -1.4266
 7567SOL    HW234335   2.153   3.118  11.684  0.4376 -0.1168 -0.2857
 7568SOL     OW34336   1.647   0.229   8.827 -0.1253 -0.0130 -0.1777
 7568SOL    HW134337   1.660   0.254   8.918 -0.1455  2.0167 -0.7223
 7568SOL    HW234338   1.737   0.206   8.805  0.3225  0.1640  1.5049
 7569SOL     OW34339   1.779   4.641  11.288 -0.2305  0.2246  0.6140
 7569SOL    HW134340   1.695   4.595  11.281  0.4782 -1.2172  1.4451
 7569SOL    HW234341   1.786   4.693  11.209  2.6131 -1.4383 -0.2404
 7570SOL     OW34342   4.512   1.668   3.814 -0.3508 -0.1048  0.6305
 7570SOL    HW134343   4.456   1.703   3.882 -2.2774  1.2479 -1.6745
 7570SOL    HW234344   4.477   1.712   3.737  1.5433  0.0623 -0.1567
 7571SOL     OW34345   0.542   0.961   6.936 -0.7159 -0.3968  0.5162
 7571SOL    HW134346   0.462   0.915   6.912 -0.8688  1.6669 -2.8477
 7571SOL    HW234347   0.515   1.023   7.004  0.2273  0.8022 -0.2187
 7572SOL     OW34348   1.375   1.705   6.613 -0.3275  0.1632  0.0497
 7572SOL    HW134349   1.434   1.681   6.541 -0.9136 -1.0460 -0.0269
 7572SOL    HW234350   1.381   1.631   6.674 -1.0099  0.5051  0.5403
 7573SOL     OW34351   3.367   2.408   3.741 -0.4863  0.1662  0.5408
 7573SOL    HW134352   3.392   2.476   3.679  4.2380 -1.0768  1.0634
 7573SOL    HW234353   3.436   2.404   3.808  0.6577 -0.2073 -0.6406
 7574SOL     OW34354   1.184   0.960   6.055  0.1782  0.3088  0.0534
 7574SOL    HW134355   1.122   0.888   6.069  0.3150  0.4175  1.2170
 7574SOL    HW234356   1.127   1.037   6.055  0.9713  0.9268 -2.5135
 7575SOL     OW34357   3.759   2.725   9.718  1.0827 -0.1822  0.0675
 7575SOL    HW134358   3.815   2.742   9.794  3.0847  0.5359 -1.5607
 7575SOL    HW234359   3.731   2.815   9.699  2.5455  0.2223 -0.2251
 7576SOL     OW34360   3.183   4.228   2.512 -0.0878  0.6066  0.0638
 7576SOL    HW134361   3.262   4.279   2.495  0.8307 -0.5060  1.0090
 7576SOL    HW234362   3.142   4.290   2.571  1.0171  1.0743  0.3253
 7577SOL     OW34363   4.480   0.994   1.651 -0.1180  0.3534 -0.7331
 7577SOL    HW134364   4.393   1.031   1.661  0.7728  1.6663  2.0503
 7577SOL    HW234365   4.473   0.919   1.711  1.5334  1.3997  0.7500
 7578SOL     OW34366   0.566   3.978  16.151 -0.1562  0.1622  0.2800
 7578SOL    HW134367   0.510   3.963  16.075  1.9215 -0.1457 -1.1935
 7578SOL    HW234368   0.573   4.073  16.155  1.2284 -0.0516  2.9161
 7579SOL     OW34369   4.606   4.003  13.031  0.4048 -0.2261  0.4580
 7579SOL    HW134370   4.631   3.944  13.101  1.7392  0.6090  0.6737
 7579SOL    HW234371   4.678   4.066  13.027 -1.0959  1.4493 -0.9010
 7580SOL     OW34372   1.833   2.496   9.068 -0.3172 -0.1807  0.2589
 7580SOL    HW134373   1.803   2.461   8.984 -1.2409 -0.1344  0.5611
 7580SOL    HW234374   1.889   2.427   9.101 -0.5649 -0.1417  0.7570
 7581SOL     OW34375   1.954   2.284   9.208  0.3205 -0.6628  0.1636
 7581SOL    HW134376   1.952   2.285   9.303  0.7174 -1.8338  0.1886
 7581SOL    HW234377   2.048   2.290   9.194 -0.1298 -0.6581 -3.0440
 7582SOL     OW34378   4.258   4.556   0.536  0.0217 -0.4697 -0.0181
 7582SOL    HW134379   4.314   4.592   0.468 -0.9467  0.7278 -0.1771
 7582SOL    HW234380   4.315   4.540   0.611  1.4505 -0.0468 -1.0221
 7583SOL     OW34381   2.022   1.445   7.513 -0.5106  0.0007 -0.4163
 7583SOL    HW134382   2.051   1.354   7.523 -1.3330 -0.1678  0.4285
 7583SOL    HW234383   2.064   1.490   7.440 -2.5081  2.1670 -0.2485
 7584SOL     OW34384   0.041   2.093  12.661  0.2689  0.5652  0.6760
 7584SOL    HW134385   4.730   2.042  12.725  0.7013 -1.1346 -0.3405
 7584SOL    HW234386   4.711   2.145  12.620  0.5505 -0.3329 -0.9161
 7585SOL     OW34387   0.376   2.992   4.697  0.3620 -0.4279 -0.1582
 7585SOL    HW134388   0.327   3.031   4.625  0.0949  0.8287  0.6993
 7585SOL    HW234389   0.429   2.927   4.651  0.4188 -0.4588 -0.0502
 7586SOL     OW34390   1.965   1.068  10.860  0.0050 -0.2355  0.0407
 7586SOL    HW134391   1.959   1.162  10.877 -0.2621 -0.2669  0.1222
 7586SOL    HW234392   1.875   1.048  10.833  0.1103 -1.9470  0.9534
 7587SOL     OW34393   3.835   2.856   5.820 -0.2168 -0.4227 -0.1442
 7587SOL    HW134394   3.745   2.862   5.789 -0.3381 -0.5044  0.1945
 7587SOL    HW234395   3.859   2.949   5.826 -1.5330 -0.0346 -1.1016
 7588SOL     OW34396   4.048   2.154   5.600  0.6807  0.1530  0.5402
 7588SOL    HW134397   3.954   2.136   5.607  0.4773  1.6611  1.7559
 7588SOL    HW234398   4.048   2.218   5.528 -0.6414 -0.9711 -0.4566
 7589SOL     OW34399   4.625   4.685   5.365 -0.5803  0.0592  0.0789
 7589SOL    HW134400   4.627   4.635   5.446 -0.7324 -1.7461 -1.0214
 7589SOL    HW234401   4.578   4.624   5.308 -0.4640 -0.5590  0.6568
 7590SOL     OW34402   4.382   3.911   3.023  0.3221  0.6431  0.3997
 7590SOL    HW134403   4.475   3.915   2.998  0.2868  0.5667  0.2536
 7590SOL    HW234404   4.366   3.819   3.041  1.7763  1.0944  3.9087
 7591SOL     OW34405   3.571   4.086   6.055  0.2342 -0.1380  0.0318
 7591SOL    HW134406   3.658   4.071   6.017 -0.6779 -1.4686 -1.5426
 7591SOL    HW234407   3.542   3.995   6.051 -0.0012 -0.1316  1.5586
 7592SOL     OW34408   2.207   3.516   9.247  0.3994  0.2800  0.1036
 7592SOL    HW134409   2.190   3.607   9.222  0.1804 -0.0823 -1.0890
 7592SOL    HW234410   2.152   3.514   9.325 -1.6753  1.4613 -1.3150
 7593SOL     OW34411   4.450   4.275   1.435 -0.1461  0.1888 -0.2965
 7593SOL    HW134412   4.459   4.180   1.440 -1.4954  0.1098  0.5916
 7593SOL    HW234413   4.456   4.286   1.340  0.9349  0.6779 -0.1725
 7594SOL     OW34414   1.990   0.287   5.133 -0.1467  0.0437 -0.1306
 7594SOL    HW134415   1.911   0.342   5.132 -1.0797 -1.3178 -1.1457
 7594SOL    HW234416   1.975   0.210   5.078 -0.9387 -0.1784  0.3918
 7595SOL     OW34417   4.678   0.452   6.667 -0.0027  0.1173 -0.5428
 7595SOL    HW134418   4.720   0.496   6.593 -1.0025  0.0992 -1.1258
 7595SOL    HW234419   0.010   0.394   6.693 -1.2637 -0.8609  0.7382
 7596SOL     OW34420   1.844   3.043   4.008  0.1303  0.0742 -0.1142
 7596SOL    HW134421   1.797   2.960   4.002 -1.1926  0.7169  1.6776
 7596SOL    HW234422   1.838   3.064   3.915  1.7736 -0.3409 -0.3115
 7597SOL     OW34423   2.707   2.039   1.826  0.5740 -0.3478  0.0699
 7597SOL    HW134424   2.798   2.064   1.807 -0.0979  1.1740 -1.1527
 7597SOL    HW234425   2.723   1.983   1.902 -1.4235 -1.7290 -0.5359
 7598SOL     OW34426   0.522   1.198  11.491  0.2149 -0.3797 -0.4763
 7598SOL    HW134427   0.591   1.234  11.547 -1.8533  2.0102  0.5762
 7598SOL    HW234428   0.517   1.116  11.540  1.9265 -1.1747 -1.6635
 7599SOL     OW34429   0.580   3.722   5.085 -0.0286 -0.3211  0.1918
 7599SOL    HW134430   0.633   3.655   5.040 -0.3198 -0.7632  0.5069
 7599SOL    HW234431   0.521   3.741   5.013  1.2955 -1.8692 -1.3167
 7600SOL     OW34432   1.915   3.594   4.627  0.2037 -0.0686 -0.2302
 7600SOL    HW134433   1.984   3.646   4.669 -0.6588  0.0333  1.0458
 7600SOL    HW234434   1.850   3.661   4.606  0.6288  0.8723  1.4874
 7601SOL     OW34435   3.376   0.707  11.044 -0.3111 -0.7262  0.1821
 7601SOL    HW134436   3.386   0.802  11.035  2.5869 -1.3251 -3.4269
 7601SOL    HW234437   3.459   0.677  11.006 -0.4597  1.7500 -2.1130
 7602SOL     OW34438   1.212   0.534   3.835 -0.5162 -0.3797  0.4677
 7602SOL    HW134439   1.244   0.584   3.759 -0.6576 -1.7973 -0.5191
 7602SOL    HW234440   1.216   0.609   3.895 -2.2035 -0.4347  0.6241
 7603SOL     OW34441   1.436   3.016   5.250 -0.1285 -0.3376  0.4243
 7603SOL    HW134442   1.456   2.942   5.192 -2.6966 -0.6019 -0.1396
 7603SOL    HW234443   1.358   2.991   5.299 -1.6042  3.0281 -0.2481
 7604SOL     OW34444   3.557   4.013   3.639 -0.2154 -0.4644 -0.1793
 7604SOL    HW134445   3.629   4.071   3.663  0.4711 -0.6226 -1.7991
 7604SOL    HW234446   3.552   4.027   3.544 -2.9954 -1.9521 -0.2690
 7605SOL     OW34447   1.907   2.631   2.421 -0.6291  0.0949  0.6373
 7605SOL    HW134448   1.986   2.585   2.450 -1.2234 -0.9715  0.5859
 7605SOL    HW234449   1.832   2.572   2.423 -0.1979 -0.4705  0.1412
 7606SOL     OW34450   4.482   1.381   1.274 -0.5715  0.2975  0.9900
 7606SOL    HW134451   4.480   1.294   1.313  0.9349  0.6027  1.7094
 7606SOL    HW234452   4.498   1.440   1.347 -2.2132  1.8545  0.1148
 7607SOL     OW34453   0.953   4.150   2.198  0.4087 -0.1637  0.8057
 7607SOL    HW134454   1.029   4.096   2.220 -0.5406 -1.9330 -0.2295
 7607SOL    HW234455   0.875   4.098   2.216  1.9670 -2.9590 -0.5561
 7608SOL     OW34456   2.398   2.427   1.961 -0.4087 -0.0600 -0.5024
 7608SOL    HW134457   2.432   2.490   2.025  1.0271 -1.3964  0.0651
 7608SOL    HW234458   2.309   2.407   1.989 -0.3608 -0.0053 -0.3027
 7609SOL     OW34459   1.020   3.055  17.176 -0.5521 -0.5678 -0.0527
 7609SOL    HW134460   1.108   3.069  17.210 -0.6823 -0.6776  0.3229
 7609SOL    HW234461   1.030   2.980  17.117  1.5812 -0.1728 -0.1982
 7610SOL     OW34462   1.616   0.332  11.196  0.2560 -0.1111  0.2528
 7610SOL    HW134463   1.526   0.360  11.179  0.1590 -2.3492 -2.8890
 7610SOL    HW234464   1.610   0.237  11.187 -1.9116  0.1529 -1.2763
 7611SOL     OW34465   2.149   0.113   7.225  0.0131 -0.3476  0.4928
 7611SOL    HW134466   2.060   0.078   7.220  0.3398 -0.9019 -1.2290
 7611SOL    HW234467   2.194   0.043   7.272 -1.6311 -3.1264 -2.0877
 7612SOL     OW34468   4.584   2.913   3.594  0.0630 -0.5159  0.1166
 7612SOL    HW134469   4.642   2.871   3.657 -1.0235  0.0681  1.5131
 7612SOL    HW234470   4.548   2.834   3.553 -0.1789 -0.3688  0.0417
 7613SOL     OW34471   2.910   1.137   3.396 -0.4781  0.2282  0.3161
 7613SOL    HW134472   2.844   1.134   3.327 -0.2980  2.6360  0.0724
 7613SOL    HW234473   2.923   1.042   3.395  0.5112  0.3506  1.6157
 7614SOL     OW34474   2.802   3.047   7.274  0.4824 -0.4844 -0.1004
 7614SOL    HW134475   2.740   3.097   7.221 -0.4488 -0.7435  0.7282
 7614SOL    HW234476   2.863   3.041   7.201  1.4832  0.3778  0.6484
 7615SOL     OW34477   2.588   3.306   9.873 -0.0314  0.0003  0.1320
 7615SOL    HW134478   2.625   3.332   9.789  1.3794 -2.1999  0.0965
 7615SOL    HW234479   2.530   3.233   9.853  0.1574 -0.2266  0.4200
 7616SOL     OW34480   0.002   3.779   3.609  0.1856  0.1468  0.2083
 7616SOL    HW134481   4.713   3.817   3.526  2.2012 -0.9977 -1.0047
 7616SOL    HW234482   0.094   3.757   3.590  0.6141  0.1570  2.2789
 7617SOL     OW34483   2.914   1.265   4.804  0.0344 -0.1688  0.2257
 7617SOL    HW134484   2.858   1.341   4.821  2.8559  1.1589  3.5148
 7617SOL    HW234485   2.862   1.190   4.833 -0.9054  0.3158 -0.1892
 7618SOL     OW34486   4.602   1.111   1.952 -0.3875  0.0358  0.0853
 7618SOL    HW134487   4.676   1.142   2.005  0.3170 -1.0547 -0.2513
 7618SOL    HW234488   4.642   1.032   1.914  0.0960  1.8323 -3.2166
 7619SOL     OW34489   2.436   2.176   9.738  0.1513  0.1131 -0.6827
 7619SOL    HW134490   2.420   2.185   9.832 -1.9940 -0.7339 -0.9635
 7619SOL    HW234491   2.383   2.243   9.693  1.2793  2.1140  0.9788
 7620SOL     OW34492   1.258   3.383   8.871  0.0194 -0.4295  0.6048
 7620SOL    HW134493   1.229   3.457   8.817  0.0160  0.6679  2.0983
 7620SOL    HW234494   1.317   3.419   8.937  0.7853 -0.6823  0.0684
 7621SOL     OW34495   2.509   3.910  11.967 -0.1768 -0.6233 -0.0542
 7621SOL    HW134496   2.544   3.824  11.991  2.0467  0.2875  0.0280
 7621SOL    HW234497   2.583   3.933  11.910 -0.5144  0.9417  0.1517
 7622SOL     OW34498   1.875   0.415  11.202 -0.8142  0.1380  0.4018
 7622SOL    HW134499   1.921   0.372  11.131 -0.5265 -0.8493  1.1932
 7622SOL    HW234500   1.782   0.417  11.180  0.4099 -0.7545 -4.7620
 7623SOL     OW34501   2.477   4.120  17.624 -0.3440  0.4083 -0.0062
 7623SOL    HW134502   2.543   4.058  17.654 -1.0923  0.5970  2.0742
 7623SOL    HW234503   2.433   4.133  17.708  0.4195  2.6166  0.0537
 7624SOL     OW34504   4.090   0.832   6.212 -0.3108 -0.2413 -0.3973
 7624SOL    HW134505   4.099   0.905   6.273  2.4324  0.9214 -2.1903
 7624SOL    HW234506   3.996   0.839   6.195 -0.4115  0.5426  0.5038
 7625SOL     OW34507   0.823   1.463   2.013 -0.3547 -0.3725  0.1352
 7625SOL    HW134508   0.801   1.399   2.080  1.6723 -2.5231 -1.2634
 7625SOL    HW234509   0.890   1.424   1.957 -0.4008  2.4613 -1.9069
 7626SOL     OW34510   2.932   1.300   4.210  0.3017  0.2385 -0.2176
 7626SOL    HW134511   2.915   1.293   4.304  1.1206  0.5336 -0.0534
 7626SOL    HW234512   2.853   1.267   4.167  0.6488 -0.9028  0.0255
 7627SOL     OW34513   3.389   1.022   2.236 -1.0068  0.2409 -0.0442
 7627SOL    HW134514   3.322   1.005   2.302  0.0371  2.3870  1.5627
 7627SOL    HW234515   3.429   1.092   2.287  1.6767 -0.8082 -0.7089
 7628SOL     OW34516   4.563   0.070   3.170  0.4506  0.1189 -0.5379
 7628SOL    HW134517   4.622   0.002   3.203  0.1941  0.1177 -0.0796
 7628SOL    HW234518   4.561   0.124   3.249 -0.3563 -0.2251 -0.3158
 7629SOL     OW34519   0.033   0.912  11.506 -0.0712  0.4098  0.0694
 7629SOL    HW134520   0.039   0.927  11.601 -0.3359  2.4903 -0.2464
 7629SOL    HW234521   0.124   0.912  11.476 -0.1797  0.4293 -0.2557
 7630SOL     OW34522   1.755   4.210  17.731 -0.4121  0.0667 -0.1847
 7630SOL    HW134523   1.710   4.132  17.699  1.1242 -1.3924  1.1868
 7630SOL    HW234524   1.816   4.175   0.042 -1.8443 -0.5779  0.8084
 7631SOL     OW34525   0.176   0.765   9.151  0.2698 -0.6451 -0.4910
 7631SOL    HW134526   0.120   0.794   9.223 -1.3398 -0.1239 -1.9685
 7631SOL    HW234527   0.170   0.670   9.161 -0.1195 -0.7917 -2.1020
 7632SOL     OW34528   2.168   2.171   6.673 -0.1458 -0.0102  0.1094
 7632SOL    HW134529   2.168   2.096   6.733  1.4115 -0.1595 -0.0746
 7632SOL    HW234530   2.077   2.178   6.646 -0.4440  0.0962  1.1400
 7633SOL     OW34531   0.039   3.882   4.769  0.4496  0.1030  0.0063
 7633SOL    HW134532   0.116   3.890   4.713  0.3102  2.3998  0.1569
 7633SOL    HW234533   4.713   3.876   4.699  0.0832  0.0990  0.3412
 7634SOL     OW34534   4.224   2.528   3.085  0.6525  0.1722  0.2166
 7634SOL    HW134535   4.167   2.597   3.117  2.9934  1.5335  1.4755
 7634SOL    HW234536   4.170   2.449   3.092 -0.5252  0.9292 -0.3127
 7635SOL     OW34537   1.718   3.543  17.235 -0.5129  0.3580 -0.5578
 7635SOL    HW134538   1.656   3.614  17.222  0.1652  1.6249  3.2002
 7635SOL    HW234539   1.792   3.581  17.187 -0.6496 -0.0562 -1.1064
 7636SOL     OW34540   1.100   3.950   4.300  0.1157  0.3750  0.8079
 7636SOL    HW134541   1.150   4.022   4.338  1.1489 -0.4070  0.9387
 7636SOL    HW234542   1.133   3.880   4.356 -0.7424 -0.4166  0.3103
 7637SOL     OW34543   0.265   0.264   5.192 -0.3393  0.1378  0.0107
 7637SOL    HW134544   0.213   0.186   5.173  0.3853 -1.0055  2.7486
 7637SOL    HW234545   0.343   0.232   5.238  0.4296  2.0145  0.0482
 7638SOL     OW34546   3.402   0.116   3.118  0.5051 -0.5499  0.2288
 7638SOL    HW134547   3.383   0.104   3.025  1.7269 -0.4133 -0.0307
 7638SOL    HW234548   3.496   0.129   3.118  0.6185 -1.3555  1.5362
 7639SOL     OW34549   3.955   2.531  14.804  0.2489  0.5362  0.0609
 7639SOL    HW134550   4.002   2.539  14.887  1.9826 -1.9732 -0.6718
 7639SOL    HW234551   4.016   2.561  14.736 -1.0188 -0.3137 -1.4514
 7640SOL     OW34552   2.296   2.090   5.679 -0.4291  0.5361  0.1631
 7640SOL    HW134553   2.274   2.008   5.723 -2.7743  1.7431  1.2596
 7640SOL    HW234554   2.267   2.074   5.590  0.5689  1.6166 -0.3614
 7641SOL     OW34555   3.634   2.283   3.497  0.5626 -0.4907 -0.0712
 7641SOL    HW134556   3.542   2.263   3.485  0.6831  0.1731 -2.2320
 7641SOL    HW234557   3.660   2.295   3.405 -0.1726 -0.4842 -0.2749
 7642SOL     OW34558   2.463   3.737   6.557  0.3335  0.7183 -0.1123
 7642SOL    HW134559   2.410   3.766   6.483 -2.0525  0.6252  1.5881
 7642SOL    HW234560   2.450   3.806   6.622  0.5946 -0.1526  0.8638
 7643SOL     OW34561   4.103   1.655  17.207  0.1464 -0.2086 -0.7190
 7643SOL    HW134562   4.052   1.574  17.210 -1.4061  0.8385  1.0367
 7643SOL    HW234563   4.185   1.621  17.242 -2.0970 -2.7755  2.0695
 7644SOL     OW34564   2.590   2.028   2.406 -0.0517 -0.2360  0.1243
 7644SOL    HW134565   2.499   2.044   2.430 -0.3847 -0.9360 -0.6858
 7644SOL    HW234566   2.638   2.006   2.486  1.5541 -1.1168 -1.0684
 7645SOL     OW34567   0.265   3.932   4.648  0.5749  0.2770  0.1254
 7645SOL    HW134568   0.229   3.977   4.572  0.2772 -0.6233 -0.2531
 7645SOL    HW234569   0.327   3.869   4.612  1.5824  0.0781  2.2022
 7646SOL     OW34570   0.120   3.978   9.515 -0.1745  0.6612  0.4310
 7646SOL    HW134571   0.179   3.920   9.563 -3.5424 -1.2443  2.2763
 7646SOL    HW234572   0.067   4.014   9.586 -0.4873  1.2466 -0.1040
 7647SOL     OW34573   2.805   2.348   0.633  0.0393 -0.0775  0.1531
 7647SOL    HW134574   2.715   2.330   0.606  0.4455 -0.2757 -1.0654
 7647SOL    HW234575   2.807   2.442   0.617  1.6587  0.2453  2.3277
 7648SOL     OW34576   2.551   3.998   2.924 -0.0418 -0.2209  0.3144
 7648SOL    HW134577   2.491   4.072   2.920 -0.8134 -0.8054  1.1069
 7648SOL    HW234578   2.525   3.960   3.008 -1.9282 -2.8170 -1.4235
 7649SOL     OW34579   0.336   2.932   3.325  0.8219  0.2995  0.4789
 7649SOL    HW134580   0.318   2.971   3.239  1.4365 -0.4378  0.0202
 7649SOL    HW234581   0.352   3.011   3.377  2.6014  0.7249 -0.7112
 7650SOL     OW34582   4.231   3.176   5.939  0.0105 -0.2385 -0.3776
 7650SOL    HW134583   4.244   3.083   5.922  0.3240 -0.1664 -0.5283
 7650SOL    HW234584   4.232   3.209   5.849  1.8540  0.1213 -0.2197
 7651SOL     OW34585   2.067   2.105   3.514  0.4520 -0.8110  0.1475
 7651SOL    HW134586   2.059   2.183   3.460  1.4098 -0.2427  0.8318
 7651SOL    HW234587   1.973   2.084   3.520 -0.3142  2.6481  0.0248
 7652SOL     OW34588   0.149   1.757   5.543 -0.1474  0.4555 -0.5622
 7652SOL    HW134589   0.067   1.752   5.592  1.9874 -1.2966  2.8822
 7652SOL    HW234590   0.122   1.732   5.455 -1.1628  0.4631 -0.2538
 7653SOL     OW34591   2.638   2.097  16.050  0.0314 -0.3352  0.3348
 7653SOL    HW134592   2.720   2.048  16.050  1.0275  1.3758 -1.6978
 7653SOL    HW234593   2.670   2.161  15.987 -0.1609  1.4327  2.0533
 7654SOL     OW34594   3.238   0.356   2.216 -0.2025  0.2033 -0.1579
 7654SOL    HW134595   3.172   0.425   2.224  1.1695  1.5583 -0.3998
 7654SOL    HW234596   3.258   0.337   2.308 -0.4348 -0.8520 -0.3260
 7655SOL     OW34597   3.705   0.400  13.664 -0.1723 -0.1569  0.1481
 7655SOL    HW134598   3.791   0.382  13.701 -0.6615  0.1551  1.4329
 7655SOL    HW234599   3.709   0.493  13.640  0.5396 -0.9877 -2.9001
 7656SOL     OW34600   2.153   2.573   7.826 -0.1398  0.2666 -0.6940
 7656SOL    HW134601   2.190   2.654   7.791 -1.2388  2.3620  2.9360
 7656SOL    HW234602   2.184   2.521   7.752  1.3259  1.0355 -0.6409
 7657SOL     OW34603   0.479   2.758   7.001  0.1687  0.0076  0.0787
 7657SOL    HW134604   0.393   2.751   6.961  0.2257 -2.4413  0.3917
 7657SOL    HW234605   0.468   2.689   7.067 -0.7315 -0.4241 -0.5316
 7658SOL     OW34606   1.884   0.996   3.996  0.5543  0.0086  0.0579
 7658SOL    HW134607   1.921   1.082   3.974 -3.3252  1.6490 -0.0968
 7658SOL    HW234608   1.909   0.981   4.087 -0.6610  2.6618  0.8517
 7659SOL     OW34609   3.122   1.326  11.575 -0.1235  0.4207 -0.0451
 7659SOL    HW134610   3.030   1.346  11.557 -0.3720  1.3000  2.1856
 7659SOL    HW234611   3.139   1.246  11.525 -1.3017 -0.3763  0.8152
 7660SOL     OW34612   4.683   2.829  14.102 -0.0054  0.1468 -0.0907
 7660SOL    HW134613   4.713   2.865  14.018 -0.4760  2.3001  0.6481
 7660SOL    HW234614   0.019   2.857  14.154  0.3702 -1.7057  0.3585
 7661SOL     OW34615   1.730   1.949  12.616  0.3906 -0.0131 -0.9959
 7661SOL    HW134616   1.728   1.861  12.654 -1.5376 -0.1409 -1.3935
 7661SOL    HW234617   1.676   1.940  12.537 -0.0563  1.3331 -0.8491
 7662SOL     OW34618   0.035   3.593   7.463  0.2447 -0.4798 -0.2683
 7662SOL    HW134619   0.001   3.531   7.398 -2.5689  0.7754  0.0299
 7662SOL    HW234620   0.111   3.625   7.414  2.1172 -1.5611  1.9388
 7663SOL     OW34621   3.216   3.112   7.531  0.5741  0.2686  0.0387
 7663SOL    HW134622   3.252   3.083   7.615  0.2691 -3.6925 -1.1652
 7663SOL    HW234623   3.257   3.039   7.483 -1.2765 -0.2619 -0.7231
 7664SOL     OW34624   0.732   1.613   6.001  0.1358 -0.3210 -0.1230
 7664SOL    HW134625   0.637   1.601   6.003 -0.0340  1.0180 -0.4036
 7664SOL    HW234626   0.737   1.703   5.969  1.2433  0.0275  1.0184
 7665SOL     OW34627   0.811   0.190   3.954 -0.1006  0.7173  0.7425
 7665SOL    HW134628   0.898   0.230   3.946 -0.1116  0.7930  1.0042
 7665SOL    HW234629   0.758   0.229   3.885 -1.2468  1.1449  1.8569
 7666SOL     OW34630   1.858   1.074   8.503  1.0151  0.2469  0.3058
 7666SOL    HW134631   1.809   1.049   8.581 -1.7716 -1.6488 -2.0577
 7666SOL    HW234632   1.807   1.146   8.466  0.6573 -0.3738 -0.4159
 7667SOL     OW34633   3.375   2.420   3.119 -0.3332  0.0482 -0.2629
 7667SOL    HW134634   3.316   2.416   3.195 -1.6424  4.3394 -1.0332
 7667SOL    HW234635   3.332   2.352   3.067  0.6074 -1.8159  1.4256
 7668SOL     OW34636   3.894   1.307   7.866 -0.0358  0.4351 -0.1695
 7668SOL    HW134637   3.860   1.234   7.918  0.0452  0.8998  0.5362
 7668SOL    HW234638   3.850   1.380   7.909 -1.8977 -0.5728 -0.3561
 7669SOL     OW34639   1.822   0.900  15.674 -0.4129 -0.0695  0.2190
 7669SOL    HW134640   1.895   0.848  15.639 -0.3799  0.7645 -0.9710
 7669SOL    HW234641   1.761   0.829  15.695 -1.0090 -0.1452 -1.7124
 7670SOL     OW34642   2.352   4.005   3.560 -0.4731  0.2622 -0.0187
 7670SOL    HW134643   2.348   4.077   3.497  1.6631  0.5514  0.1811
 7670SOL    HW234644   2.382   4.051   3.639  0.3161 -1.0644  0.4652
 7671SOL     OW34645   2.503   0.588   7.991 -0.6334 -0.2906  0.2128
 7671SOL    HW134646   2.490   0.651   8.062 -2.5043  1.0178 -1.2951
 7671SOL    HW234647   2.489   0.653   7.922 -0.3344  0.4558  0.8575
 7672SOL     OW34648   4.509   2.290  13.807 -0.0304 -0.6084  0.5250
 7672SOL    HW134649   4.571   2.223  13.779 -0.3556 -1.5950  2.1741
 7672SOL    HW234650   4.561   2.348  13.862 -2.3730  0.7671  1.2898
 7673SOL     OW34651   0.676   0.531  15.701 -0.0122  0.0303  0.7400
 7673SOL    HW134652   0.628   0.473  15.643  1.5326 -0.7120  0.2116
 7673SOL    HW234653   0.667   0.618  15.662  2.3469 -0.9122 -1.8956
 7674SOL     OW34654   4.582   4.362  14.336 -0.1143 -0.5030 -0.2616
 7674SOL    HW134655   4.663   4.341  14.287  0.7165 -1.9407  1.7159
 7674SOL    HW234656   4.622   4.330  14.417  0.1239  0.1375 -0.1297
 7675SOL     OW34657   0.921   1.643  12.197  0.3797  0.2486  0.0510
 7675SOL    HW134658   0.863   1.704  12.243 -0.4783 -1.0516  0.7040
 7675SOL    HW234659   0.970   1.589  12.258 -1.2979 -1.5835 -0.2070
 7676SOL     OW34660   3.972   4.547  11.846  0.2229 -0.2201 -0.1399
 7676SOL    HW134661   3.938   4.490  11.777  0.2918  0.2066 -0.5313
 7676SOL    HW234662   3.895   4.582  11.889 -1.0855  0.2762 -2.8873
 7677SOL     OW34663   1.728   2.701   8.194 -0.4074  0.1182 -0.1662
 7677SOL    HW134664   1.691   2.613   8.200  0.9537 -0.6326 -2.8086
 7677SOL    HW234665   1.821   2.680   8.194 -0.2475  0.8470 -0.9483
 7678SOL     OW34666   2.169   2.059   3.768 -0.4648  0.0343 -0.1063
 7678SOL    HW134667   2.256   2.030   3.739 -0.6988  1.7275 -2.4895
 7678SOL    HW234668   2.126   2.085   3.686  1.0186 -0.0800 -0.9274
 7679SOL     OW34669   2.649   3.383   7.529  0.1526  0.2190  0.6692
 7679SOL    HW134670   2.708   3.311   7.552 -0.1722 -0.5617 -0.8896
 7679SOL    HW234671   2.652   3.433   7.610 -2.4713 -0.9037  1.4638
 7680SOL     OW34672   0.362   0.227   4.026  0.3367 -0.1997 -0.0081
 7680SOL    HW134673   0.280   0.245   3.982 -0.3594 -2.0090  0.5764
 7680SOL    HW234674   0.374   0.133   4.012 -1.2720 -0.4557  0.3882
 7681SOL     OW34675   2.990   2.529   2.271 -0.5032 -0.1256 -0.3507
 7681SOL    HW134676   2.977   2.620   2.246 -0.9711 -0.7533 -2.4242
 7681SOL    HW234677   3.066   2.504   2.218 -0.9186 -2.1465  0.0098
 7682SOL     OW34678   4.623   2.776   5.719  0.2823  0.0998  0.4785
 7682SOL    HW134679   4.670   2.750   5.640  0.6153 -3.1851  1.7548
 7682SOL    HW234680   4.678   2.741   5.789  0.9565 -0.5354 -0.3747
 7683SOL     OW34681   2.378   1.018   7.224 -0.5437 -0.3914  0.5135
 7683SOL    HW134682   2.417   1.049   7.142  0.1336  1.3688  1.5027
 7683SOL    HW234683   2.302   1.076   7.231  0.4369  0.7677  1.5214
 7684SOL     OW34684   2.478   0.818   4.151  0.0700 -0.1856  0.0464
 7684SOL    HW134685   2.405   0.789   4.097 -0.9954 -2.0376  2.4540
 7684SOL    HW234686   2.537   0.831   4.077 -1.1997  2.0167 -0.5723
 7685SOL     OW34687   1.248   1.312   4.252  0.2991 -0.2960  0.1187
 7685SOL    HW134688   1.316   1.245   4.249 -0.3056 -0.7918 -2.5325
 7685SOL    HW234689   1.208   1.313   4.339  1.8745  0.8572  0.8162
 7686SOL     OW34690   1.546   2.144   4.429 -0.3383 -0.1103 -0.0524
 7686SOL    HW134691   1.582   2.224   4.392 -0.2448 -0.0469  0.1783
 7686SOL    HW234692   1.595   2.075   4.383  0.9150  0.1356  0.9267
 7687SOL     OW34693   0.886   3.904   5.987 -0.2792 -0.1295  0.1978
 7687SOL    HW134694   0.875   3.888   5.894  1.7356  1.4544 -0.3041
 7687SOL    HW234695   0.978   3.903   6.011 -0.1748 -0.6289 -0.2467
 7688SOL     OW34696   3.556   3.660  11.386  0.1169 -0.1003 -0.8499
 7688SOL    HW134697   3.600   3.741  11.358  0.9859 -0.8602 -1.6680
 7688SOL    HW234698   3.629   3.610  11.352  0.3984 -1.2691  1.5079
 7689SOL     OW34699   4.006   0.632   6.398  1.0153 -0.3680  0.3289
 7689SOL    HW134700   3.971   0.682   6.471  3.5650  1.9322  0.0024
 7689SOL    HW234701   4.067   0.698   6.365 -1.5761  1.1686 -1.3644
 7690SOL     OW34702   1.091   4.555   6.983  0.2361  0.4120  0.5632
 7690SOL    HW134703   1.013   4.507   7.010  1.0287 -1.5777 -0.7377
 7690SOL    HW234704   1.154   4.548   7.055  0.2008 -1.3516  0.4223
 7691SOL     OW34705   3.593   0.610   4.393 -0.6915  0.0974 -0.8071
 7691SOL    HW134706   3.642   0.613   4.311  1.7341 -0.2038  0.6482
 7691SOL    HW234707   3.655   0.643   4.458  1.1010 -2.4690 -1.2098
 7692SOL     OW34708   0.241   1.571   8.033  0.1917 -0.1841 -0.1288
 7692SOL    HW134709   0.216   1.563   7.940  0.5265  0.8321 -0.3014
 7692SOL    HW234710   0.299   1.647   8.030  0.1506 -0.2058 -1.6484
 7693SOL     OW34711   2.007   3.793  15.869  0.1619 -0.3140  0.7430
 7693SOL    HW134712   2.021   3.701  15.889  1.0584 -0.4206 -0.3394
 7693SOL    HW234713   1.916   3.804  15.896 -1.0758 -0.0170 -3.4992
 7694SOL     OW34714   3.267   2.752   5.737  0.2245 -0.0960 -0.4320
 7694SOL    HW134715   3.334   2.683   5.742  0.2615  0.1101  1.8489
 7694SOL    HW234716   3.193   2.700   5.705  0.7895  0.1483 -2.1226
 7695SOL     OW34717   1.964   1.154   5.026  0.4810 -0.3095 -0.0256
 7695SOL    HW134718   1.884   1.134   5.075 -0.0920  3.0986  0.3711
 7695SOL    HW234719   2.034   1.150   5.091 -1.6361 -1.5506  2.2079
 7696SOL     OW34720   0.526   3.745   5.919  1.0704 -0.3418 -0.0535
 7696SOL    HW134721   0.570   3.709   5.842 -0.5481 -0.2987 -0.9903
 7696SOL    HW234722   0.539   3.840   5.909  0.8160 -0.3160 -0.1440
 7697SOL     OW34723   4.197   1.282   4.780  0.8390 -0.1438 -0.5387
 7697SOL    HW134724   4.147   1.200   4.777  0.5337 -0.0982  3.1290
 7697SOL    HW234725   4.142   1.336   4.837  2.9281  1.4258 -0.0493
 7698SOL     OW34726   2.389   3.385  16.390 -0.5598  0.2023  0.7394
 7698SOL    HW134727   2.408   3.463  16.442 -0.8155 -0.5147  1.9137
 7698SOL    HW234728   2.343   3.333  16.456 -0.8890  0.5510  0.7842
 7699SOL     OW34729   1.577   1.127   8.974 -0.6742  0.3024  0.1380
 7699SOL    HW134730   1.545   1.131   8.883  0.5441 -2.1272 -0.3757
 7699SOL    HW234731   1.640   1.198   8.968  0.4485 -0.5324  2.1268
 7700SOL     OW34732   2.095   0.377  15.723  0.2958 -0.2266 -0.2115
 7700SOL    HW134733   2.118   0.460  15.765 -0.9914 -0.0679  0.1696
 7700SOL    HW234734   2.083   0.338  15.809 -1.0643 -3.1902 -1.7472
 7701SOL     OW34735   3.916   2.009  15.066 -0.0320  0.1811  0.2000
 7701SOL    HW134736   3.989   2.037  15.122  0.9229  1.4573 -1.6970
 7701SOL    HW234737   3.962   1.982  14.986 -0.6269 -2.2357  0.6820
 7702SOL     OW34738   2.919   2.645   2.517  0.1586  0.3251  0.0480
 7702SOL    HW134739   2.933   2.594   2.437  0.0253 -0.8682  0.7852
 7702SOL    HW234740   3.010   2.657   2.543  0.3662  0.4836 -0.7567
 7703SOL     OW34741   2.271   2.426   6.751 -0.5497 -0.0090  0.1222
 7703SOL    HW134742   2.340   2.383   6.802  0.5955  0.7089 -0.8110
 7703SOL    HW234743   2.235   2.355   6.698  1.0238  0.9943 -2.2726
 7704SOL     OW34744   3.337   4.443   4.465 -0.1107 -0.4303  0.5640
 7704SOL    HW134745   3.375   4.486   4.542 -0.3363  1.1045 -0.1893
 7704SOL    HW234746   3.287   4.366   4.492  0.6447 -0.6108  1.4757
 7705SOL     OW34747   2.106   2.151   2.738  0.0447 -0.5146 -0.2117
 7705SOL    HW134748   2.123   2.083   2.803  2.4202  0.6567  0.3663
 7705SOL    HW234749   2.017   2.128   2.710  0.5666 -0.3363 -1.9930
 7706SOL     OW34750   1.345   0.126  13.601 -0.8082 -0.2591 -0.2077
 7706SOL    HW134751   1.318   0.209  13.561 -1.2060 -1.9422 -3.4752
 7706SOL    HW234752   1.307   0.132  13.688  1.1124  2.8746  0.4079
 7707SOL     OW34753   2.950   3.962   4.372 -0.3505  0.5537  0.9338
 7707SOL    HW134754   2.858   3.946   4.351 -0.1148 -1.3109  1.2860
 7707SOL    HW234755   2.937   3.958   4.467 -2.7898  1.1359  0.6293
 7708SOL     OW34756   3.879   0.852   3.902  0.0970  0.0614 -0.2113
 7708SOL    HW134757   3.914   0.926   3.853 -1.6231  0.3092 -1.0674
 7708SOL    HW234758   3.923   0.776   3.865 -1.3405 -1.0054  0.2596
 7709SOL     OW34759   4.192   2.835   0.168  0.6616  0.3436 -0.5940
 7709SOL    HW134760   4.229   2.752   0.136  0.2223 -0.9586  2.2554
 7709SOL    HW234761   4.189   2.887   0.087  1.2772  0.4122 -0.5682
 7710SOL     OW34762   4.282   1.681   9.851 -0.4008  0.0808  0.9175
 7710SOL    HW134763   4.277   1.754   9.789  2.4419 -0.7401 -0.2760
 7710SOL    HW234764   4.239   1.624   9.787  0.8845 -0.2643  0.3683
 7711SOL     OW34765   2.427   4.030   7.509  0.5515  0.0788 -0.1275
 7711SOL    HW134766   2.414   3.937   7.527 -0.0535  0.4679  1.4482
 7711SOL    HW234767   2.436   4.019   7.414  0.1321  0.0421 -0.1616
 7712SOL     OW34768   0.804   2.392   6.488 -0.3822 -0.6712  0.7377
 7712SOL    HW134769   0.833   2.456   6.553 -1.5166  1.2201 -0.5869
 7712SOL    HW234770   0.881   2.390   6.431 -0.5886 -2.6685  0.5378
 7713SOL     OW34771   3.141   1.962   6.475 -0.1489  0.0247  0.4519
 7713SOL    HW134772   3.089   1.964   6.395 -0.3816  0.6485  0.6186
 7713SOL    HW234773   3.095   1.891   6.519 -0.6155  0.9290  1.4276
 7714SOL     OW34774   0.706   4.472  16.500 -0.0690 -0.0248  0.5301
 7714SOL    HW134775   0.683   4.388  16.540  0.3401 -0.7038 -0.6591
 7714SOL    HW234776   0.774   4.440  16.440 -0.4665 -0.7370  0.4583
 7715SOL     OW34777   2.799   3.757  10.086 -0.2643 -0.0882  0.0627
 7715SOL    HW134778   2.746   3.765  10.166 -2.8530  0.2082 -1.6919
 7715SOL    HW234779   2.747   3.682  10.055 -0.9422  0.2979  0.2634
 7716SOL     OW34780   4.699   4.406   3.475 -0.0172  0.4886 -0.1045
 7716SOL    HW134781   4.730   4.444   3.557 -2.4209 -0.5787  1.3185
 7716SOL    HW234782   4.695   4.314   3.501  1.5720  0.2359 -0.7459
 7717SOL     OW34783   3.853   2.377   2.529  0.5517  0.6548  0.0450
 7717SOL    HW134784   3.840   2.340   2.442 -0.9359 -0.2872  0.6752
 7717SOL    HW234785   3.859   2.468   2.500 -0.1962  0.6877 -0.0005
 7718SOL     OW34786   2.618   0.787   7.589 -0.7184  0.4338 -0.9954
 7718SOL    HW134787   2.656   0.769   7.503  1.4684  1.7239 -0.2950
 7718SOL    HW234788   2.577   0.871   7.568  0.0008 -0.0756 -4.4720
 7719SOL     OW34789   4.056   3.236   2.923 -0.1445 -0.0532  0.1525
 7719SOL    HW134790   4.041   3.145   2.897  1.2774 -0.4392  0.6493
 7719SOL    HW234791   4.114   3.219   2.998 -1.8699 -1.6991  1.1127
 7720SOL     OW34792   4.700   3.367   6.307  0.8952  0.3189 -0.6182
 7720SOL    HW134793   0.038   3.424   6.311  1.5455 -0.6422  0.5415
 7720SOL    HW234794   4.632   3.435   6.301 -0.3062 -0.8414 -0.1248
 7721SOL     OW34795   3.962   1.826   8.111  0.4868  0.4787  0.0275
 7721SOL    HW134796   4.029   1.811   8.045  0.3778  1.0685 -0.2210
 7721SOL    HW234797   3.920   1.907   8.080 -1.8368 -0.3704  0.9748
 7722SOL     OW34798   3.574   2.934   7.901 -0.6115 -0.5017  0.4854
 7722SOL    HW134799   3.655   2.982   7.881 -1.3901  1.0615  1.1075
 7722SOL    HW234800   3.602   2.845   7.880 -1.5888 -0.9564  1.1288
 7723SOL     OW34801   0.397   0.839  15.811  0.3161  0.0774  0.0462
 7723SOL    HW134802   0.351   0.761  15.843  1.1072 -1.0597 -1.6201
 7723SOL    HW234803   0.327   0.902  15.794 -0.0003  0.2983  2.0973
 7724SOL     OW34804   0.451   0.360   7.762 -0.0449  0.5149  0.2431
 7724SOL    HW134805   0.456   0.346   7.857 -0.1508 -0.0189  0.1693
 7724SOL    HW234806   0.403   0.279   7.745 -0.8506  1.6554 -2.9917
 7725SOL     OW34807   1.646   4.577   4.969 -0.0318 -0.1161  0.6549
 7725SOL    HW134808   1.565   4.532   4.945  1.1701 -0.8357 -2.0156
 7725SOL    HW234809   1.691   4.568   4.885 -1.0051 -0.1183  0.1359
 7726SOL     OW34810   3.399   3.125   8.431 -0.2847  0.0233  0.0418
 7726SOL    HW134811   3.455   3.114   8.508 -1.3715 -0.1916  0.8137
 7726SOL    HW234812   3.335   3.056   8.451  0.7965 -0.6609  1.1406
 7727SOL     OW34813   4.487   4.517   5.229 -0.0981  0.0709 -0.0102
 7727SOL    HW134814   4.466   4.424   5.218 -1.2565  0.5072 -1.6008
 7727SOL    HW234815   4.403   4.549   5.195 -0.5052  2.2486  3.0215
 7728SOL     OW34816   4.592   4.060   9.757 -0.1303  0.0238  0.9558
 7728SOL    HW134817   4.643   4.121   9.703 -0.5892  0.3118  0.8454
 7728SOL    HW234818   4.508   4.104   9.774 -1.3354 -1.2749 -1.6126
 7729SOL     OW34819   1.939   1.516   3.351 -0.3654 -0.6364  0.0292
 7729SOL    HW134820   2.033   1.521   3.370 -0.3230  1.5729 -0.7908
 7729SOL    HW234821   1.928   1.425   3.324  1.2053 -1.2418  1.3904
 7730SOL     OW34822   2.685   3.594   7.370  0.1722 -0.3537 -0.0954
 7730SOL    HW134823   2.592   3.593   7.349  0.0819  1.1816  0.2446
 7730SOL    HW234824   2.695   3.514   7.422  2.7801  0.3355  0.4665
 7731SOL     OW34825   0.829   2.186   3.428 -0.2519 -0.3377  0.8546
 7731SOL    HW134826   0.880   2.240   3.488 -0.3611  1.3026 -0.5458
 7731SOL    HW234827   0.903   2.156   3.374 -0.4048  0.9610 -0.0722
 7732SOL     OW34828   4.117   4.128  13.039 -0.2733 -0.4276 -0.0526
 7732SOL    HW134829   4.122   4.048  12.986 -3.6057 -0.3109 -0.5554
 7732SOL    HW234830   4.208   4.156  13.033 -0.0953 -0.8659  0.5657
 7733SOL     OW34831   0.938   4.733   7.844 -0.1588  0.1283 -0.9460
 7733SOL    HW134832   1.006   4.684   7.890 -0.6071  1.2169  0.8555
 7733SOL    HW234833   0.866   4.713   7.904  2.2076  0.8194  2.1414
 7734SOL     OW34834   0.668   2.860   8.014 -0.0027 -0.4383  0.5619
 7734SOL    HW134835   0.715   2.923   8.067  0.2441  1.4419 -1.8904
 7734SOL    HW234836   0.746   2.813   7.984  0.1256 -1.4377  2.4951
 7735SOL     OW34837   0.796   3.527   7.057  0.7108  0.7221 -0.2364
 7735SOL    HW134838   0.792   3.488   6.970  1.8346 -0.1939  0.1109
 7735SOL    HW234839   0.727   3.480   7.104  1.4370 -2.3188 -2.2012
 7736SOL     OW34840   2.709   3.667   6.420 -0.4232 -0.0255  0.0090
 7736SOL    HW134841   2.778   3.699   6.479  0.4351  0.1720 -1.0981
 7736SOL    HW234842   2.634   3.715   6.455 -0.2033 -0.3094  0.8548
 7737SOL     OW34843   4.280   0.034   3.621  0.4556  0.1202 -0.1388
 7737SOL    HW134844   4.330   0.090   3.562  0.6583 -0.1246 -0.1980
 7737SOL    HW234845   4.253   0.092   3.693 -0.0269  0.1722 -0.3595
 7738SOL     OW34846   4.322   2.378   6.900  0.3989  0.1135  0.0369
 7738SOL    HW134847   4.244   2.353   6.851  0.3778 -2.5698  1.4153
 7738SOL    HW234848   4.398   2.347   6.852 -0.3707 -0.1238 -1.0314
 7739SOL     OW34849   0.953   1.040   0.896 -0.4641  0.1723 -0.3982
 7739SOL    HW134850   0.875   1.023   0.843 -0.6025  1.7411 -0.6740
 7739SOL    HW234851   1.011   0.970   0.867  0.9365  0.8036  0.8723
 7740SOL     OW34852   2.912   1.663  14.882  0.6973 -0.5041  0.6273
 7740SOL    HW134853   2.974   1.591  14.894  0.3917 -0.5851  1.7006
 7740SOL    HW234854   2.957   1.745  14.904  0.9085 -1.0556  2.2738
 7741SOL     OW34855   2.593   1.186   9.681  0.0127 -0.2466  0.2908
 7741SOL    HW134856   2.622   1.229   9.601  0.9439  1.3776  1.5072
 7741SOL    HW234857   2.520   1.244   9.703  0.2750  0.7068 -1.3759
 7742SOL     OW34858   4.348   4.505   5.625  0.6371  0.1788 -0.2033
 7742SOL    HW134859   4.438   4.530   5.602  0.8629 -0.8316 -0.4311
 7742SOL    HW234860   4.306   4.581   5.665  0.5634  0.8167 -1.4880
 7743SOL     OW34861   0.061   0.465   7.424 -0.3673 -0.0845  0.3222
 7743SOL    HW134862   0.058   0.513   7.506  0.7173  0.3708  0.0903
 7743SOL    HW234863   0.074   0.536   7.362 -2.1667  0.6273  0.7622
 7744SOL     OW34864   1.182   3.472  17.138  0.0130  0.4587 -0.2072
 7744SOL    HW134865   1.099   3.425  17.138  0.7501 -0.8381  0.1876
 7744SOL    HW234866   1.149   3.561  17.124 -1.6449 -0.1949 -0.3597
 7745SOL     OW34867   3.053   2.662  11.537  0.3220  0.1960 -0.5207
 7745SOL    HW134868   2.989   2.632  11.473 -1.6202 -0.1690  1.5951
 7745SOL    HW234869   3.029   2.753  11.555 -1.1897 -0.1171 -0.9960
 7746SOL     OW34870   1.673   0.021   3.364  0.7724  0.0295 -0.1162
 7746SOL    HW134871   1.678   4.683   3.421 -0.3910  0.4456  0.5505
 7746SOL    HW234872   1.704   4.729   3.278  0.2864 -0.8151  0.0076
 7747SOL     OW34873   2.092   0.797   4.614 -0.3442 -0.0429 -0.3349
 7747SOL    HW134874   2.078   0.867   4.679 -0.3218 -0.8834  0.5761
 7747SOL    HW234875   2.019   0.744   4.647  0.3186  1.3592  3.4117
 7748SOL     OW34876   3.086   1.118   5.731  0.0075 -0.2706  0.3368
 7748SOL    HW134877   3.067   1.119   5.637  1.5544  1.5197  0.0577
 7748SOL    HW234878   3.140   1.040   5.746 -0.7515 -0.8476  0.0658
 7749SOL     OW34879   3.322   2.620   1.419 -0.1267  0.2085 -0.0385
 7749SOL    HW134880   3.321   2.716   1.418 -0.0429  0.2224  1.2636
 7749SOL    HW234881   3.256   2.600   1.353 -0.8040  2.0132  0.0953
 7750SOL     OW34882   2.132   2.504   9.817  0.0802  0.4317 -0.0693
 7750SOL    HW134883   2.104   2.449   9.890 -0.6814  0.7436 -0.1271
 7750SOL    HW234884   2.049   2.528   9.775 -0.2867 -0.1734  0.3211
 7751SOL     OW34885   4.076   0.822  12.997  0.8565 -0.0367  0.0094
 7751SOL    HW134886   4.015   0.773  12.942 -0.4892  1.4608  0.1849
 7751SOL    HW234887   4.160   0.822  12.952  0.4860 -0.7360 -0.6691
 7752SOL     OW34888   4.097   2.293   0.713  0.3762 -0.2162  0.5921
 7752SOL    HW134889   4.043   2.215   0.724 -1.2294  1.0527  1.6039
 7752SOL    HW234890   4.072   2.334   0.795 -1.6144 -1.6462  0.6821
 7753SOL     OW34891   0.434   1.894  15.119  0.6373 -0.0373 -0.0717
 7753SOL    HW134892   0.429   1.853  15.033 -0.1129  2.5587 -1.2728
 7753SOL    HW234893   0.342   1.920  15.132  0.1196 -0.7760 -2.2245
 7754SOL     OW34894   1.131   3.641   8.865 -0.0686  0.4579  0.1509
 7754SOL    HW134895   1.063   3.691   8.911 -0.3168  1.3728 -1.2357
 7754SOL    HW234896   1.088   3.647   8.780  2.9909 -1.2836 -1.4764
 7755SOL     OW34897   1.482   2.928  12.031 -0.0290 -0.6648 -0.0287
 7755SOL    HW134898   1.549   2.917  12.098 -1.1423 -0.7107  1.0777
 7755SOL    HW234899   1.399   2.891  12.062 -0.2304  0.2087  0.4568
 7756SOL     OW34900   2.226   4.230   9.419  0.0351  0.4829  0.0337
 7756SOL    HW134901   2.248   4.153   9.472  2.2688  1.2407  0.2374
 7756SOL    HW234902   2.294   4.291   9.449  1.0043 -0.7372  0.3482
 7757SOL     OW34903   1.087   4.224  10.588  0.3713 -0.3579  0.0564
 7757SOL    HW134904   1.087   4.191  10.677 -0.1876 -2.0367 -0.5596
 7757SOL    HW234905   1.085   4.320  10.593 -1.0560 -0.1982 -3.4273
 7758SOL     OW34906   4.372   2.564  17.620  0.1826  0.0378  0.1145
 7758SOL    HW134907   4.410   2.650  17.603 -0.7424  0.9358  2.6631
 7758SOL    HW234908   4.278   2.583  17.611  0.2344  0.3842  0.3165
 7759SOL     OW34909   0.992   1.316   1.547  0.2593 -0.0996 -0.1328
 7759SOL    HW134910   1.014   1.286   1.636 -2.4503 -0.9120  0.2464
 7759SOL    HW234911   0.933   1.245   1.522  1.4165 -0.0460 -2.9264
 7760SOL     OW34912   0.691   1.836  11.902 -0.3089  0.0830 -0.7344
 7760SOL    HW134913   0.663   1.761  11.954 -2.0894  0.9605 -0.4427
 7760SOL    HW234914   0.618   1.846  11.840  0.6590  1.4861 -1.6545
 7761SOL     OW34915   3.375   4.209   5.358  0.2666 -0.0510 -0.4536
 7761SOL    HW134916   3.326   4.245   5.284 -0.7842  0.2074  0.3805
 7761SOL    HW234917   3.466   4.227   5.334  0.1680 -0.0597 -0.8277
 7762SOL     OW34918   1.397   2.243  15.427 -0.0245 -0.2108  0.4932
 7762SOL    HW134919   1.431   2.169  15.479 -3.0705 -1.9265  0.0381
 7762SOL    HW234920   1.464   2.306  15.453 -0.9442  1.4298 -1.1389
 7763SOL     OW34921   3.652   0.166  10.333 -0.0422 -0.3254  0.3435
 7763SOL    HW134922   3.680   0.252  10.364 -0.1539 -1.2401  2.9247
 7763SOL    HW234923   3.733   0.115  10.337  0.4505  0.4130 -0.3797
 7764SOL     OW34924   0.568   0.051   9.929 -0.0603 -0.1648  0.6901
 7764SOL    HW134925   0.583   0.068  10.022  0.3853 -0.3865  0.6622
 7764SOL    HW234926   0.540   0.131   9.885 -1.3179 -1.4172 -0.7900
 7765SOL     OW34927   1.936   0.758   9.248  0.6389  0.5739 -0.0968
 7765SOL    HW134928   1.950   0.828   9.311  0.9393  1.2393 -0.8929
 7765SOL    HW234929   1.931   0.819   9.173  2.8332 -1.6300 -2.0273
 7766SOL     OW34930   3.419   2.493  12.609 -0.4946 -0.0013 -0.5257
 7766SOL    HW134931   3.343   2.452  12.651 -0.7220  0.2555 -0.6927
 7766SOL    HW234932   3.491   2.440  12.644  0.4000 -0.1100 -2.5227
 7767SOL     OW34933   3.308   3.695   3.224 -0.7441 -0.1763  1.0398
 7767SOL    HW134934   3.263   3.646   3.155 -1.2189  1.2581  0.3347
 7767SOL    HW234935   3.277   3.785   3.215 -0.2810 -0.0588  0.6450
 7768SOL     OW34936   0.632   2.229   0.114  0.1237  0.8472 -0.2631
 7768SOL    HW134937   0.681   2.274   0.183 -0.6516 -0.6600  1.2716
 7768SOL    HW234938   0.675   2.239   0.029  0.5839  0.5788 -0.0606
 7769SOL     OW34939   0.621   0.897   5.739 -0.0721 -0.0826 -0.0499
 7769SOL    HW134940   0.644   0.982   5.700 -1.1416 -0.0865 -0.7136
 7769SOL    HW234941   0.626   0.835   5.666  3.6262  2.6221 -2.0665
 7770SOL     OW34942   0.645   4.721   3.136  0.3392 -0.2731 -0.0399
 7770SOL    HW134943   0.658   0.071   3.167 -1.9737 -0.0121  0.1554
 7770SOL    HW234944   0.599   4.679   3.209  1.9903  0.1200  1.2413
 7771SOL     OW34945   0.153   0.984   0.931  0.4655 -0.4002  0.2052
 7771SOL    HW134946   0.175   0.995   1.023  0.8516  1.5923 -0.1278
 7771SOL    HW234947   0.175   1.072   0.902  1.6358 -0.4846  0.8420
 7772SOL     OW34948   0.236   1.640   3.298  0.3137  0.3068 -0.3128
 7772SOL    HW134949   0.288   1.616   3.375  1.0050 -1.3237 -1.2837
 7772SOL    HW234950   0.306   1.626   3.235  0.1969  0.4447 -0.4704
 7773SOL     OW34951   4.577   2.748  14.963 -0.0343 -0.4934 -0.0357
 7773SOL    HW134952   4.596   2.833  15.002 -1.4696  0.4055 -1.2705
 7773SOL    HW234953   4.548   2.770  14.874  0.5108 -1.6279 -0.4914
 7774SOL     OW34954   3.768   4.294   3.217 -0.4998  0.1198  0.3058
 7774SOL    HW134955   3.825   4.228   3.178  4.7464  4.3260  0.7430
 7774SOL    HW234956   3.708   4.314   3.145 -1.1030 -0.4381  0.6530
 7775SOL     OW34957   1.469   4.734  15.657  1.0003 -0.1999 -0.5263
 7775SOL    HW134958   1.551   4.687  15.670 -0.3964 -2.5651 -0.2033
 7775SOL    HW234959   1.465   0.003  15.562  1.9483  2.0615 -0.3672
 7776SOL     OW34960   0.101   4.131  13.864  0.2473 -0.3676  0.2163
 7776SOL    HW134961   0.056   4.047  13.864 -0.3618 -0.0455  0.0408
 7776SOL    HW234962   0.175   4.109  13.921 -0.5171 -0.7166  1.0725
 7777SOL     OW34963   4.030   1.659   1.754  0.4807  0.1324 -0.1696
 7777SOL    HW134964   4.008   1.637   1.663  1.6076  0.1770 -0.4592
 7777SOL    HW234965   4.053   1.577   1.796 -0.7495  0.3007  0.8239
 7778SOL     OW34966   1.291   2.100   0.927 -0.0214 -0.1159 -0.1178
 7778SOL    HW134967   1.342   2.044   0.868 -0.6216 -1.4013  0.5926
 7778SOL    HW234968   1.289   2.054   1.011 -0.7500 -0.9816 -0.6123
 7779SOL     OW34969   1.759   2.440  11.684 -0.0630 -0.7265 -0.0444
 7779SOL    HW134970   1.744   2.431  11.589  1.3683  2.3405 -0.5435
 7779SOL    HW234971   1.819   2.368  11.702  0.3736 -0.6706 -1.2428
 7780SOL     OW34972   2.569   0.452   2.668 -0.3843  0.1834  0.0608
 7780SOL    HW134973   2.488   0.432   2.715  0.3185 -1.0030  0.7878
 7780SOL    HW234974   2.587   0.523   2.729  0.5743  0.1122 -0.1420
 7781SOL     OW34975   2.691   3.703  15.211 -0.1399 -0.1520  0.3585
 7781SOL    HW134976   2.693   3.645  15.134 -1.2981  0.1242  0.1286
 7781SOL    HW234977   2.751   3.654  15.268 -1.0388 -0.3980  1.0946
 7782SOL     OW34978   1.696   0.200   9.138  0.2424 -0.0875 -0.6374
 7782SOL    HW134979   1.757   0.127   9.137  2.6621  1.9500 -1.1213
 7782SOL    HW234980   1.619   0.153   9.106 -0.6711 -0.8222  2.6411
 7783SOL     OW34981   4.420   4.174   2.466 -0.1625 -0.0909  0.3846
 7783SOL    HW134982   4.472   4.168   2.386 -0.4977 -0.3647  0.1870
 7783SOL    HW234983   4.470   4.108   2.514 -0.6185 -0.8102 -0.1308
 7784SOL     OW34984   2.419   0.245  14.103 -0.3553 -0.3714 -0.1824
 7784SOL    HW134985   2.477   0.276  14.172  0.4438  1.1079 -1.5300
 7784SOL    HW234986   2.483   0.241  14.032 -2.2660  1.0271 -1.9845
 7785SOL     OW34987   4.172   1.823  14.589  0.3484 -0.2270 -1.0337
 7785SOL    HW134988   4.194   1.828  14.496  1.2584 -0.6816 -0.8373
 7785SOL    HW234989   4.251   1.868  14.620  0.3207 -0.3726 -0.7616
 7786SOL     OW34990   1.839   3.559   6.668  0.0193 -0.2818 -0.1617
 7786SOL    HW134991   1.751   3.522   6.655 -0.1198 -0.4585  1.2816
 7786SOL    HW234992   1.899   3.488   6.689  0.8929  0.4723 -0.1086
 7787SOL     OW34993   1.261   2.287   2.065  0.7999  0.4317 -0.3975
 7787SOL    HW134994   1.344   2.296   2.019 -0.5797  1.3070 -2.7136
 7787SOL    HW234995   1.201   2.272   1.992 -0.7775  1.4475  0.6974
 7788SOL     OW34996   2.304   0.336   6.160 -0.2718  0.3313  0.1999
 7788SOL    HW134997   2.263   0.422   6.155 -1.5119 -0.1514  1.7352
 7788SOL    HW234998   2.363   0.343   6.086  0.1512  1.2675  0.6379
 7789SOL     OW34999   3.247   2.239   2.958 -0.3770  0.4093 -0.3492
 7789SOL    HW135000   3.199   2.159   2.938  0.8290 -0.8006  1.6013
 7789SOL    HW235001   3.176   2.296   2.988  1.5382  2.2500  0.6410
 7790SOL     OW35002   3.696   2.621  14.756 -0.5204  0.2070  0.0598
 7790SOL    HW135003   3.786   2.594  14.770 -0.4012  0.0801 -0.9175
 7790SOL    HW235004   3.661   2.539  14.722  0.9413 -0.4784  0.2086
 7791SOL     OW35005   1.333   4.077  14.975 -0.3681  0.2322  0.3100
 7791SOL    HW135006   1.364   4.148  14.919  2.4304 -0.2691  1.2083
 7791SOL    HW235007   1.243   4.109  14.985  0.1176  1.3751  1.0924
 7792SOL     OW35008   0.394   1.987  11.123 -0.4199 -0.1751  0.1163
 7792SOL    HW135009   0.487   1.991  11.098 -0.5060  0.3279 -0.1213
 7792SOL    HW235010   0.363   2.077  11.111  1.2816  0.0535 -2.5524
 7793SOL     OW35011   0.873   1.030   4.534 -0.2854 -0.3485 -0.2114
 7793SOL    HW135012   0.781   1.021   4.509 -0.0950 -0.6404 -0.7996
 7793SOL    HW235013   0.879   1.125   4.545 -2.6112 -0.0658 -1.4426
 7794SOL     OW35014   4.416   1.372   4.660  0.1986 -0.0815  0.4177
 7794SOL    HW135015   4.338   1.340   4.705 -0.2115  0.3889  0.0383
 7794SOL    HW235016   4.398   1.466   4.655 -1.9470 -0.6087 -1.4397
 7795SOL     OW35017   4.162   1.661   5.891 -0.2423 -0.2133 -0.0769
 7795SOL    HW135018   4.244   1.703   5.915 -0.3356  1.1414 -2.1470
 7795SOL    HW235019   4.132   1.731   5.833  3.2870  0.4455 -1.1093
 7796SOL     OW35020   1.470   4.087   8.331 -0.6187  0.0194 -0.0540
 7796SOL    HW135021   1.435   4.176   8.320  1.0630  0.8658  1.5167
 7796SOL    HW235022   1.521   4.073   8.251 -0.1478  1.1822  0.0318
 7797SOL     OW35023   0.708   4.250  16.665 -0.3084  0.7291 -0.2772
 7797SOL    HW135024   0.747   4.223  16.748 -2.4833  1.7355  1.0657
 7797SOL    HW235025   0.617   4.240  16.692 -0.2017  0.2448 -0.0863
 7798SOL     OW35026   4.063   0.546   8.258 -0.4394  0.7355  0.1203
 7798SOL    HW135027   4.061   0.478   8.325 -0.6626  0.5221 -0.1015
 7798SOL    HW235028   4.063   0.631   8.302  0.1440 -0.2613  2.0374
 7799SOL     OW35029   4.354   0.061   1.462  0.1768  0.5953 -0.4192
 7799SOL    HW135030   4.275   0.114   1.452 -0.0390  0.0798 -1.4618
 7799SOL    HW235031   4.327   4.720   1.418  0.6979 -0.0371  0.4120
 7800SOL     OW35032   2.558   4.219   0.444  0.2702  0.3659 -0.2225
 7800SOL    HW135033   2.508   4.300   0.446  0.4375  0.4577  0.1578
 7800SOL    HW235034   2.644   4.245   0.479  0.5337 -1.5263  0.5023
 7801SOL     OW35035   4.074   0.762   4.206 -0.7060  0.6594 -0.0075
 7801SOL    HW135036   4.147   0.808   4.248 -2.0103  1.0747  1.8041
 7801SOL    HW235037   4.123   0.709   4.143 -1.1894  0.0722  0.1152
 7802SOL     OW35038   1.181   0.251   7.725  0.1118  0.4825 -0.1987
 7802SOL    HW135039   1.229   0.168   7.727  1.3807  1.2160 -0.6559
 7802SOL    HW235040   1.237   0.315   7.768  1.9530 -0.7314 -0.8044
 7803SOL     OW35041   2.178   1.616   3.809 -0.3098  0.1331  0.8702
 7803SOL    HW135042   2.170   1.529   3.770  0.2683 -0.4813  2.1361
 7803SOL    HW235043   2.261   1.612   3.856 -0.1155 -1.6511  0.3833
 7804SOL     OW35044   2.567   4.175   0.171  0.0020 -0.2483  0.3216
 7804SOL    HW135045   2.546   4.215   0.256  2.0594  2.0227 -0.2285
 7804SOL    HW235046   2.499   4.109   0.182 -0.4370 -0.0103 -0.9384
 7805SOL     OW35047   3.149   3.650   8.325  0.0139  0.0203 -0.0460
 7805SOL    HW135048   3.111   3.596   8.394  0.7787 -0.0582  0.3151
 7805SOL    HW235049   3.202   3.592   8.269  0.2131  1.3064 -1.1921
 7806SOL     OW35050   1.190   0.265   9.189 -0.4383  0.6430  0.7390
 7806SOL    HW135051   1.158   0.179   9.214 -0.1144  0.5336  0.7822
 7806SOL    HW235052   1.164   0.299   9.275  0.1131  0.5867  0.9276
 7807SOL     OW35053   0.668   0.751   8.790  0.6000  0.1634 -0.7183
 7807SOL    HW135054   0.575   0.748   8.765  1.0495 -0.0173 -2.3725
 7807SOL    HW235055   0.674   0.672   8.843 -0.7725  0.2195 -0.4823
 7808SOL     OW35056   2.310   1.318   2.550  0.5271  0.0749 -0.0068
 7808SOL    HW135057   2.405   1.327   2.546  0.6090 -1.1694 -0.8645
 7808SOL    HW235058   2.306   1.222   2.543 -1.2486 -0.0274  2.3232
 7809SOL     OW35059   2.698   0.199   5.152 -0.0066 -0.7108  0.5377
 7809SOL    HW135060   2.778   0.148   5.141 -1.2502 -2.5325 -0.1462
 7809SOL    HW235061   2.635   0.131   5.174 -2.4613  0.4793 -2.7991
 7810SOL     OW35062   4.158   3.640   1.565 -0.0343  0.3227 -0.1872
 7810SOL    HW135063   4.120   3.712   1.513 -1.1004  0.0321  0.1832
 7810SOL    HW235064   4.175   3.568   1.504 -0.7766  0.7961 -0.9581
 7811SOL     OW35065   3.107   2.874   6.585 -0.2828  0.0889  0.4331
 7811SOL    HW135066   3.059   2.805   6.541 -1.8374 -0.0565  2.4008
 7811SOL    HW235067   3.043   2.938   6.618  0.5361  0.6459  0.9589
 7812SOL     OW35068   0.742   1.215  11.290  0.1254 -0.2452 -0.7100
 7812SOL    HW135069   0.702   1.255  11.213 -1.5549 -1.6596 -0.5685
 7812SOL    HW235070   0.678   1.145  11.301  0.8035 -0.6976  0.3967
 7813SOL     OW35071   2.973   2.507   3.506  0.1859 -0.0933 -0.4711
 7813SOL    HW135072   3.000   2.592   3.471 -0.3587 -0.5235 -1.9439
 7813SOL    HW235073   2.990   2.517   3.600  1.4956 -3.7579 -0.3287
 7814SOL     OW35074   0.630   4.249   6.103 -0.0173  0.0669  0.5199
 7814SOL    HW135075   0.713   4.279   6.141 -2.1034  3.0971  2.6469
 7814SOL    HW235076   0.565   4.316   6.124 -0.1232  0.2545 -0.3844
 7815SOL     OW35077   0.886   2.025  14.590  0.2711 -0.3649 -0.2340
 7815SOL    HW135078   0.977   2.053  14.604 -0.0429  1.0394 -0.9903
 7815SOL    HW235079   0.900   1.934  14.617  1.8789 -0.1312 -0.2694
 7816SOL     OW35080   3.308   0.802   6.097  0.2231 -0.3394  0.5019
 7816SOL    HW135081   3.376   0.857   6.135 -0.4587 -0.1451  1.4372
 7816SOL    HW235082   3.256   0.774   6.173 -0.1845 -0.7433  0.0792
 7817SOL     OW35083   4.566   0.043   3.792  0.5885 -0.4669  0.4727
 7817SOL    HW135084   4.503   0.113   3.777 -1.3758 -2.4536 -0.5126
 7817SOL    HW235085   4.575   0.035   3.887  1.2308  2.0860  0.6218
 7818SOL     OW35086   3.801   2.601   4.102 -0.0599 -0.0436  0.6738
 7818SOL    HW135087   3.798   2.696   4.091  0.3321 -0.0776  0.2883
 7818SOL    HW235088   3.783   2.564   4.016 -0.5245 -2.6760  1.8958
 7819SOL     OW35089   0.888   0.792  10.376  0.5096 -0.1302 -0.0550
 7819SOL    HW135090   0.802   0.750  10.366  0.6410 -0.3075 -0.4647
 7819SOL    HW235091   0.922   0.750  10.297 -0.5723  0.0310 -0.6167
 7820SOL     OW35092   1.727   2.773   5.152 -0.0202 -0.1222 -0.2382
 7820SOL    HW135093   1.635   2.790   5.130  0.6467  2.4144 -1.0166
 7820SOL    HW235094   1.741   2.836   5.222  0.0194  0.3797 -0.6973
 7821SOL     OW35095   2.544   3.112   3.825 -0.1254 -0.1976 -0.0882
 7821SOL    HW135096   2.502   3.191   3.791  0.0576 -0.5738 -1.1960
 7821SOL    HW235097   2.622   3.103   3.771  0.3664  0.4193  0.5297
 7822SOL     OW35098   2.047   3.980   3.970  0.0933  0.3310 -0.7613
 7822SOL    HW135099   2.062   3.963   4.063 -0.5365  1.5502 -0.4373
 7822SOL    HW235100   2.108   4.053   3.961  1.4250 -0.8628 -1.5207
 7823SOL     OW35101   1.955   0.094   3.316  0.5332 -0.3759  0.3699
 7823SOL    HW135102   1.864   0.123   3.317 -0.0541 -2.2087 -0.8175
 7823SOL    HW235103   1.980   0.107   3.408  0.6763  0.2571  0.2458
 7824SOL     OW35104   1.589   2.520  16.077 -0.2985 -0.0970  0.2822
 7824SOL    HW135105   1.565   2.577  16.004  0.7359  1.7089  1.3736
 7824SOL    HW235106   1.567   2.568  16.156  1.2991  2.3589 -0.7817
 7825SOL     OW35107   0.133   4.276   6.785  0.2082 -0.4357  0.4087
 7825SOL    HW135108   0.069   4.206   6.768 -1.1551  0.3691  2.1637
 7825SOL    HW235109   0.210   4.246   6.737 -0.2484 -0.2006 -0.4561
 7826SOL     OW35110   1.063   1.072   3.424  0.2975 -0.0461  0.3071
 7826SOL    HW135111   1.022   1.099   3.342  3.1572  1.5263 -0.5870
 7826SOL    HW235112   0.996   1.008   3.450  2.7502 -2.4717  0.6285
 7827SOL     OW35113   2.404   3.722   5.893 -0.3922 -0.3021  0.6305
 7827SOL    HW135114   2.339   3.666   5.849 -1.0636 -0.1655  1.4421
 7827SOL    HW235115   2.433   3.777   5.820 -1.4396  1.9234  1.9047
 7828SOL     OW35116   4.077   1.642   6.979  0.0297  0.1618  1.4514
 7828SOL    HW135117   4.138   1.693   6.927 -1.8993  0.1608 -0.7888
 7828SOL    HW235118   4.033   1.716   7.021 -0.6347 -0.2734  1.5312
 7829SOL     OW35119   0.630   2.030   7.536 -0.0564  0.4726 -0.5808
 7829SOL    HW135120   0.555   2.083   7.562 -0.8624 -1.2249  0.6170
 7829SOL    HW235121   0.621   2.032   7.441 -0.2023 -0.1905 -0.5822
 7830SOL     OW35122   3.365   2.132   3.707 -0.1934 -0.1746  0.3193
 7830SOL    HW135123   3.337   2.221   3.728 -0.6451 -0.2149 -0.0917
 7830SOL    HW235124   3.391   2.093   3.790 -1.2772  0.8388  1.1240
 7831SOL     OW35125   1.588   2.432   7.129  0.4652 -0.4613 -0.1615
 7831SOL    HW135126   1.596   2.487   7.051 -0.3833 -0.8484 -0.5185
 7831SOL    HW235127   1.509   2.473   7.164  0.5776 -1.7958  1.6124
 7832SOL     OW35128   3.825   3.357   8.429 -0.9207 -0.4752 -0.3057
 7832SOL    HW135129   3.849   3.442   8.466  1.0237 -0.4436 -1.6363
 7832SOL    HW235130   3.907   3.330   8.388 -0.0741  2.0422 -0.2488
 7833SOL     OW35131   0.747   2.925  12.435  0.4628 -0.4507  0.3198
 7833SOL    HW135132   0.787   2.850  12.389  0.9689  0.0986 -0.1398
 7833SOL    HW235133   0.821   2.985  12.443  0.6755 -0.5262 -0.9780
 7834SOL     OW35134   1.609   1.411   9.151 -0.2426 -0.2578  0.0933
 7834SOL    HW135135   1.529   1.416   9.203  0.6112 -0.5935  1.4501
 7834SOL    HW235136   1.634   1.322   9.174 -1.2036 -0.6398 -0.3529
 7835SOL     OW35137   1.995   1.126   3.538 -0.5908 -0.0731 -0.1322
 7835SOL    HW135138   1.981   1.147   3.446  0.1055  1.2566  0.0609
 7835SOL    HW235139   1.902   1.105   3.550 -0.6700 -0.1142 -0.8360
 7836SOL     OW35140   0.852   4.348   1.521  0.1408 -0.1769 -0.0822
 7836SOL    HW135141   0.833   4.369   1.612  0.1187  0.2584 -0.1898
 7836SOL    HW235142   0.942   4.380   1.516  1.3410 -3.4438  0.3970
 7837SOL     OW35143   2.393   2.949  10.509 -0.6415 -0.7332  0.0543
 7837SOL    HW135144   2.472   2.905  10.476 -0.1720  0.2392 -0.1175
 7837SOL    HW235145   2.424   3.036  10.532  0.7907 -1.0468 -0.6736
 7838SOL     OW35146   2.197   2.896   4.114  0.3869 -0.0811  0.3446
 7838SOL    HW135147   2.259   2.931   4.178  0.0603  0.5028  0.3381
 7838SOL    HW235148   2.210   2.960   4.044 -0.1829 -0.4803 -0.1265
 7839SOL     OW35149   2.928   3.814   7.961 -0.0039 -0.6745 -0.3443
 7839SOL    HW135150   2.920   3.801   7.866  2.0697 -0.0379 -0.6142
 7839SOL    HW235151   2.913   3.722   7.982 -0.4892 -0.5125  0.0226
 7840SOL     OW35152   0.219   0.115   9.155 -0.1636 -0.4840  0.3049
 7840SOL    HW135153   0.146   0.119   9.217 -0.4491 -0.8206 -0.0080
 7840SOL    HW235154   0.201   0.028   9.119 -1.1893  0.0189 -0.4249
 7841SOL     OW35155   0.236   4.448  10.280 -0.0866 -0.1894 -0.0963
 7841SOL    HW135156   0.222   4.383  10.349 -1.1574 -0.0384 -0.1600
 7841SOL    HW235157   0.184   4.516  10.322 -1.7788 -2.9859  2.3989
 7842SOL     OW35158   2.797   4.261  12.209  0.4409  0.0787 -0.5520
 7842SOL    HW135159   2.832   4.172  12.201 -0.0566 -0.2705  1.0865
 7842SOL    HW235160   2.705   4.246  12.229  0.3422 -2.0076 -2.5148
 7843SOL     OW35161   1.009   1.725  17.091  0.4168  0.2342 -0.2347
 7843SOL    HW135162   1.039   1.638  17.066  1.1813  0.2435  0.6719
 7843SOL    HW235163   0.990   1.740  16.998 -1.3219 -0.1155  0.0613
 7844SOL     OW35164   3.384   2.973  17.399 -0.6063  0.1554  0.3355
 7844SOL    HW135165   3.347   2.922  17.470 -2.1066  0.5226 -0.1914
 7844SOL    HW235166   3.297   3.010  17.385  0.6345  1.6904 -3.4211
 7845SOL     OW35167   1.916   3.083   0.441 -0.4640 -0.0117 -0.2414
 7845SOL    HW135168   1.929   3.109   0.350  1.5583  0.3617  0.1550
 7845SOL    HW235169   1.868   3.160   0.473 -1.3869 -0.4915 -0.4990
 7846SOL     OW35170   2.431   0.018  11.351  0.6059  0.1536  0.0024
 7846SOL    HW135171   2.420   0.035  11.257 -1.1916 -1.1894 -0.0140
 7846SOL    HW235172   2.469   0.098  11.387  2.6693 -1.0033  0.4073
 7847SOL     OW35173   2.174   0.018   2.864 -0.0988 -0.2459  0.6476
 7847SOL    HW135174   2.133   0.075   2.929 -0.9259  0.6734 -0.6722
 7847SOL    HW235175   2.104   0.001   2.800  0.2011  1.6778 -0.1972
 7848SOL     OW35176   1.599   0.806   7.618  0.0070  0.3523 -0.1768
 7848SOL    HW135177   1.643   0.839   7.540  0.4367 -2.4200 -1.1148
 7848SOL    HW235178   1.508   0.834   7.609  0.1973  1.5682  1.7150
 7849SOL     OW35179   3.615   2.302   5.453  0.3189  0.4647 -0.3848
 7849SOL    HW135180   3.666   2.383   5.462 -0.4540  1.0248 -1.0349
 7849SOL    HW235181   3.670   2.251   5.394 -0.0416 -0.4705  0.0856
 7850SOL     OW35182   3.978   0.536  17.052  0.0088 -0.4415  0.0375
 7850SOL    HW135183   4.034   0.536  16.975  1.2738  2.0039  0.9669
 7850SOL    HW235184   3.973   0.444  17.079  0.1487 -0.3400  0.4063
 7851SOL     OW35185   2.699   2.856   2.208  0.2327 -0.3541 -0.0926
 7851SOL    HW135186   2.662   2.915   2.142  0.5706  0.4838  0.4728
 7851SOL    HW235187   2.621   2.854   2.262  1.6548 -1.9142  1.9007
 7852SOL     OW35188   0.424   1.015   4.422 -0.1421  0.7546 -0.2493
 7852SOL    HW135189   0.409   0.955   4.349  3.7218  1.9289 -2.0222
 7852SOL    HW235190   0.354   1.079   4.412 -2.0200 -1.0777  1.0470
 7853SOL     OW35191   1.190   0.544  11.654 -0.4455  0.8633  0.4645
 7853SOL    HW135192   1.141   0.593  11.720 -0.8060 -0.0334  0.8629
 7853SOL    HW235193   1.261   0.505  11.706  1.0269 -0.6606 -2.7461
 7854SOL     OW35194   3.539   1.605   5.935 -0.4856 -0.0346  0.3225
 7854SOL    HW135195   3.535   1.580   5.843 -2.0902  1.3161  0.0300
 7854SOL    HW235196   3.548   1.700   5.932 -3.3764  0.1997 -0.9441
 7855SOL     OW35197   4.357   4.184   0.868 -0.2976 -0.2507 -0.2799
 7855SOL    HW135198   4.408   4.264   0.854 -1.0106  0.4735  1.3019
 7855SOL    HW235199   4.346   4.162   0.775  3.7541  1.8000 -1.2478
 7856SOL     OW35200   2.639   3.544  10.035  0.8245  0.5192 -0.3025
 7856SOL    HW135201   2.606   3.491  10.108 -2.0342 -0.7647 -2.4949
 7856SOL    HW235202   2.629   3.483   9.963  0.2727 -0.7391  0.8417
 7857SOL     OW35203   1.620   4.593   9.492  0.3830  0.2914  0.7946
 7857SOL    HW135204   1.610   4.564   9.401  0.7527 -1.8999  1.4465
 7857SOL    HW235205   1.577   4.535   9.555  0.5581  1.2413  1.7925
 7858SOL     OW35206   1.033   0.441  10.851  0.3534 -0.7712  0.1457
 7858SOL    HW135207   1.105   0.503  10.862  0.2070 -0.1809 -2.1985
 7858SOL    HW235208   1.035   0.407  10.940 -0.6976 -1.3643 -0.0591
 7859SOL     OW35209   3.949   2.389   1.228 -0.5541 -0.2743  0.2709
 7859SOL    HW135210   4.001   2.386   1.308  1.1921 -0.5854 -0.8691
 7859SOL    HW235211   3.879   2.454   1.238 -1.0265 -0.9334  1.2487
 7860SOL     OW35212   3.892   1.200   5.799  0.2902  0.0701 -0.2481
 7860SOL    HW135213   3.888   1.294   5.812  1.6280  0.0009  0.6715
 7860SOL    HW235214   3.857   1.173   5.884 -1.8181  2.5882 -0.3316
 7861SOL     OW35215   4.281   1.834  11.334  0.2235 -0.0714  0.1240
 7861SOL    HW135216   4.207   1.894  11.335 -0.7410 -1.2631 -1.1006
 7861SOL    HW235217   4.352   1.898  11.321 -0.4680 -0.3735 -5.0180
 7862SOL     OW35218   3.475   2.538   4.193  0.1689  0.0779 -0.5240
 7862SOL    HW135219   3.475   2.461   4.251  2.1786 -0.1847 -0.8785
 7862SOL    HW235220   3.495   2.609   4.255  1.0839  0.6586 -1.4928
 7863SOL     OW35221   2.336   1.378   4.997  0.2716 -0.0059  0.4448
 7863SOL    HW135222   2.280   1.309   5.034  1.0627  0.2540  2.1484
 7863SOL    HW235223   2.297   1.365   4.911 -1.0058  1.7794  0.7555
 7864SOL     OW35224   4.242   2.828   1.690  0.5575  0.5099  0.2033
 7864SOL    HW135225   4.278   2.739   1.689 -2.8710 -0.8611  0.9133
 7864SOL    HW235226   4.192   2.827   1.608  1.1630  0.3480 -0.1703
 7865SOL     OW35227   2.136   0.637  17.499  0.1234 -0.4233  0.5103
 7865SOL    HW135228   2.060   0.673  17.453 -0.1728 -0.6680  0.8043
 7865SOL    HW235229   2.165   0.724  17.526  0.0163 -0.8051  1.8509
 7866SOL     OW35230   2.159   2.210   4.235 -0.1831  0.5639  0.0417
 7866SOL    HW135231   2.115   2.146   4.180 -2.3210  2.8393 -0.8975
 7866SOL    HW235232   2.084   2.217   4.294 -1.1975 -1.2386 -1.0361
 7867SOL     OW35233   0.825   2.328  17.269  0.3044 -0.0438  0.1385
 7867SOL    HW135234   0.798   2.380  17.193  0.5164  0.7989  0.6307
 7867SOL    HW235235   0.742   2.292  17.302 -1.4478  1.7117 -2.3533
 7868SOL     OW35236   4.562   3.095   4.286  0.1347 -0.0711  0.0936
 7868SOL    HW135237   4.491   3.046   4.244 -0.7411 -0.0090  1.5232
 7868SOL    HW235238   4.537   3.176   4.242  0.9671 -0.8252 -1.7639
 7869SOL     OW35239   1.386   4.301   7.012  0.1923  0.1860 -0.3560
 7869SOL    HW135240   1.311   4.280   7.067 -0.0500 -0.7827 -1.0618
 7869SOL    HW235241   1.393   4.218   6.966  0.0834 -0.2046  0.3429
 7870SOL     OW35242   2.107   0.175  10.194 -0.1086  0.0931  0.0331
 7870SOL    HW135243   2.095   0.215  10.108  0.8722  0.4493  0.0636
 7870SOL    HW235244   2.013   0.163  10.209 -0.0655 -2.9355 -2.0297
 7871SOL     OW35245   3.136   1.180   3.589  0.0032  0.0990  0.3384
 7871SOL    HW135246   3.079   1.156   3.516  1.5400  1.3397 -1.2582
 7871SOL    HW235247   3.144   1.274   3.572  0.2440  0.3604  1.9121
 7872SOL     OW35248   0.185   3.751  12.885  0.2329 -0.5528 -0.0401
 7872SOL    HW135249   0.178   3.785  12.974 -1.4718  1.6509 -1.0173
 7872SOL    HW235250   0.184   3.660  12.913  0.0698  0.5502  3.5371
 7873SOL     OW35251   3.323   3.919   6.510  0.0522  0.3528  0.1647
 7873SOL    HW135252   3.391   3.869   6.554 -0.6449 -3.3546 -3.0372
 7873SOL    HW235253   3.370   4.000   6.488 -1.7699  1.4975  0.4317
 7874SOL     OW35254   2.677   0.018   3.337 -0.2501  0.7302  0.4933
 7874SOL    HW135255   2.662   4.738   3.429  1.1251  1.8629  0.9505
 7874SOL    HW235256   2.770   4.734   3.329 -0.4612  0.4987 -1.2264
 7875SOL     OW35257   0.558   1.673   2.893 -0.5439 -0.2894 -0.2394
 7875SOL    HW135258   0.597   1.690   2.807 -3.3908  0.9977 -1.2726
 7875SOL    HW235259   0.557   1.579   2.879  0.2647 -0.3663  0.2367
 7876SOL     OW35260   3.301   2.425  16.307 -0.3021 -0.1781  0.5809
 7876SOL    HW135261   3.330   2.471  16.386 -0.8106  1.2603 -0.0666
 7876SOL    HW235262   3.238   2.359  16.336 -1.9617  1.3313  0.4439
 7877SOL     OW35263   2.707   0.063   3.623  0.4620 -0.8832 -0.7558
 7877SOL    HW135264   2.786   0.013   3.643 -0.0923 -2.4437 -2.4854
 7877SOL    HW235265   2.663   0.056   3.707 -0.9899 -3.1917 -1.7041
 7878SOL     OW35266   0.095   4.566   7.763 -0.0113 -0.7568  0.0308
 7878SOL    HW135267   0.092   4.661   7.766 -0.9792 -0.7311 -1.7768
 7878SOL    HW235268   0.036   4.551   7.690  0.2765  1.6265 -0.6712
 7879SOL     OW35269   0.595   2.186   3.604 -0.0238 -0.2049  0.2756
 7879SOL    HW135270   0.560   2.274   3.616  2.3617  0.3469  3.3016
 7879SOL    HW235271   0.654   2.202   3.531 -0.5734 -1.0094 -0.3408
 7880SOL     OW35272   0.021   0.726  13.388 -0.1125  0.2029 -0.0953
 7880SOL    HW135273   4.671   0.720  13.424 -0.5573 -0.9294 -1.3914
 7880SOL    HW235274   0.015   0.812  13.347 -1.3239 -0.3027 -0.9746
 7881SOL     OW35275   2.674   4.219  17.382  0.2622 -0.1545  0.0096
 7881SOL    HW135276   2.734   4.292  17.397  1.1518 -1.2390  1.7318
 7881SOL    HW235277   2.646   4.208  17.473  1.1135  0.9427  0.4036
 7882SOL     OW35278   1.430   4.122   5.229 -0.1010 -0.2001  0.4085
 7882SOL    HW135279   1.392   4.059   5.290 -0.2274 -0.0348  0.5017
 7882SOL    HW235280   1.525   4.117   5.241 -0.4795 -2.1603  2.5851
 7883SOL     OW35281   1.519   4.293   3.986  0.1991 -0.2567 -0.0258
 7883SOL    HW135282   1.549   4.245   3.909 -0.8777  0.4553 -0.8768
 7883SOL    HW235283   1.583   4.363   3.994 -0.0295 -0.0536  0.0179
 7884SOL     OW35284   2.905   2.333   0.880  0.4415  0.4745  0.5266
 7884SOL    HW135285   2.849   2.255   0.871  2.7773 -1.4475  2.5476
 7884SOL    HW235286   2.891   2.377   0.796 -1.2537  0.8193  0.9862
 7885SOL     OW35287   3.520   0.144   5.294  0.7280 -0.4210  0.4044
 7885SOL    HW135288   3.494   0.054   5.313  1.8499 -1.5403 -3.2602
 7885SOL    HW235289   3.608   0.132   5.258  1.4448  1.0817  1.6883
 7886SOL     OW35290   3.028   3.991   7.592 -0.3201  0.2150  0.5074
 7886SOL    HW135291   3.074   3.994   7.676  1.6953  1.4442 -0.6435
 7886SOL    HW235292   2.957   3.931   7.613 -0.9193  1.2646  1.4913
 7887SOL     OW35293   2.302   3.707   7.604 -0.1840  0.1246 -0.0660
 7887SOL    HW135294   2.314   3.736   7.694  0.0568  1.4942 -0.5429
 7887SOL    HW235295   2.226   3.650   7.617  1.0194 -1.5677 -0.4091
 7888SOL     OW35296   2.289   2.816   7.035  0.2660  0.5892  0.6735
 7888SOL    HW135297   2.334   2.733   7.052  1.1521  0.8645 -0.3576
 7888SOL    HW235298   2.222   2.806   7.103 -0.2769  0.1202  0.0760
 7889SOL     OW35299   3.707   3.808  14.273 -0.0336 -0.4173  0.6447
 7889SOL    HW135300   3.666   3.722  14.266 -0.0255 -0.2965 -0.7793
 7889SOL    HW235301   3.748   3.821  14.188 -0.6067 -0.4704  0.3669
 7890SOL     OW35302   1.518   4.600  11.195  0.3919 -0.6106  0.2018
 7890SOL    HW135303   1.563   4.566  11.118  0.5229  0.3889 -0.1686
 7890SOL    HW235304   1.479   4.520  11.228  0.3753 -1.0223 -0.8251
 7891SOL     OW35305   3.006   2.089   9.028  0.6944  0.4479 -0.1383
 7891SOL    HW135306   3.047   2.170   9.060 -0.0437 -0.0965  2.2268
 7891SOL    HW235307   2.933   2.130   8.982  0.1775 -2.1831 -1.6332
 7892SOL     OW35308   1.356   2.732   5.795 -0.5926 -0.3108 -0.3389
 7892SOL    HW135309   1.406   2.795   5.848  0.2615 -0.9793 -0.3370
 7892SOL    HW235310   1.419   2.661   5.782  1.1978  1.1787  0.2057
 7893SOL     OW35311   3.427   2.711   2.670 -0.5321 -0.0158  0.1093
 7893SOL    HW135312   3.450   2.787   2.725  0.8433 -1.5144  1.6132
 7893SOL    HW235313   3.508   2.661   2.682 -0.3681  0.8669  2.8576
 7894SOL     OW35314   1.024   0.843   1.149  0.0580 -0.8580 -0.0057
 7894SOL    HW135315   0.979   0.760   1.131 -1.8065  0.0779  0.3858
 7894SOL    HW235316   1.044   0.858   1.056  2.3193 -0.1224  0.6002
 7895SOL     OW35317   0.168   2.143  17.460 -0.0497 -0.1134  0.2459
 7895SOL    HW135318   0.200   2.128  17.371  2.2003  1.2446  0.8363
 7895SOL    HW235319   0.088   2.092  17.452 -0.3003  0.0399  1.9427
 7896SOL     OW35320   2.013   4.564   3.940 -0.8621  0.2624 -0.5383
 7896SOL    HW135321   1.993   4.480   3.898  0.9535  0.0869 -1.0807
 7896SOL    HW235322   1.943   4.579   4.003  0.7956  0.7078  1.1814
 7897SOL     OW35323   4.011   2.420   5.118  0.6788  0.2312  0.2518
 7897SOL    HW135324   3.966   2.498   5.087  0.5765  0.1508  0.1977
 7897SOL    HW235325   4.073   2.416   5.046  0.4437  1.3940 -0.0114
 7898SOL     OW35326   4.516   1.605   5.475 -0.3093 -0.0137 -0.6655
 7898SOL    HW135327   4.561   1.679   5.515 -2.5471  1.0181 -0.0552
 7898SOL    HW235328   4.446   1.649   5.427 -2.8802 -1.8240  1.3937
 7899SOL     OW35329   1.716   2.485   1.629 -0.6440  0.0562 -0.5301
 7899SOL    HW135330   1.763   2.540   1.567 -0.6244 -0.7484 -1.2275
 7899SOL    HW235331   1.672   2.412   1.585  0.2032 -1.8712  1.7949
 7900SOL     OW35332   1.473   2.350   1.918  0.0144 -0.3463 -0.3459
 7900SOL    HW135333   1.471   2.408   1.843  0.1471 -0.6602 -0.5943
 7900SOL    HW235334   1.504   2.273   1.870  0.3010  0.7177 -1.8450
 7901SOL     OW35335   4.131   0.705   0.634 -0.3896 -0.6416  0.1686
 7901SOL    HW135336   4.200   0.651   0.673  2.7190  2.6478 -0.8090
 7901SOL    HW235337   4.059   0.687   0.694  0.2638  1.0793  1.4592
 7902SOL     OW35338   2.608   0.063   7.805 -0.3299 -0.3186 -0.0176
 7902SOL    HW135339   2.618   0.136   7.866  4.7008 -0.7403 -0.3748
 7902SOL    HW235340   2.651   0.004   7.867  0.7042  0.0834 -0.3543
 7903SOL     OW35341   4.388   4.199  13.095  0.0192  0.8003  0.4772
 7903SOL    HW135342   4.376   4.145  13.173  2.2445  0.6744  0.7236
 7903SOL    HW235343   4.469   4.161  13.061 -0.1855  1.0874 -0.3495
 7904SOL     OW35344   2.168   2.985   2.472 -0.3484  0.0217 -0.0668
 7904SOL    HW135345   2.085   2.993   2.520  0.7809 -0.4498  1.9527
 7904SOL    HW235346   2.181   3.079   2.455 -0.3800  0.0973  0.3137
 7905SOL     OW35347   0.864   2.936   4.092  0.1834  0.9907 -0.0350
 7905SOL    HW135348   0.852   3.030   4.075 -2.5157  0.4908 -0.8554
 7905SOL    HW235349   0.847   2.909   4.002 -3.5197 -1.4451  1.3840
 7906SOL     OW35350   0.773   1.887   3.479 -0.1804  0.0075  0.3537
 7906SOL    HW135351   0.767   1.982   3.468  1.4268  0.4158  3.1197
 7906SOL    HW235352   0.845   1.878   3.541  1.7705  0.0814 -1.8736
 7907SOL     OW35353   3.395   3.889   7.587 -0.4288 -0.2293  0.3545
 7907SOL    HW135354   3.441   3.810   7.617 -0.9704 -0.3444  0.8741
 7907SOL    HW235355   3.427   3.891   7.497  0.1270 -1.0617  0.5344
 7908SOL     OW35356   2.152   1.774   4.124 -0.1265  0.5608 -0.0964
 7908SOL    HW135357   2.113   1.860   4.137  2.1739  1.6610 -0.4775
 7908SOL    HW235358   2.218   1.795   4.059 -0.8802  0.7628 -0.7923
 7909SOL     OW35359   3.749   3.273   5.322  0.6821  0.2157  0.0329
 7909SOL    HW135360   3.659   3.282   5.353  0.3455  1.7911 -1.4063
 7909SOL    HW235361   3.769   3.364   5.300 -0.1869  0.1342 -1.1478
 7910SOL     OW35362   4.242   4.292   7.155 -0.2737  0.7472  0.0490
 7910SOL    HW135363   4.273   4.382   7.146  0.4302  0.4721 -0.3133
 7910SOL    HW235364   4.323   4.242   7.159 -0.5951  0.3311  1.2579
 7911SOL     OW35365   2.279   2.309   3.351 -0.1443 -0.1526  0.1317
 7911SOL    HW135366   2.249   2.397   3.328 -2.2354 -1.1729 -1.0003
 7911SOL    HW235367   2.299   2.310   3.444  0.5823 -0.8905 -0.0146
 7912SOL     OW35368   1.922   1.253   3.298  0.2094 -0.4492  0.6984
 7912SOL    HW135369   1.828   1.246   3.278  0.0881 -0.8360  1.4034
 7912SOL    HW235370   1.962   1.203   3.227 -0.3377 -0.8842  0.6889
 7913SOL     OW35371   4.578   0.357   2.524 -0.2035 -0.2184  0.0529
 7913SOL    HW135372   4.520   0.292   2.485  0.4309  0.4564 -2.0353
 7913SOL    HW235373   4.526   0.397   2.594  0.4337  1.1479 -0.2578
 7914SOL     OW35374   0.811   4.584  15.219 -0.6625 -0.6874 -0.0859
 7914SOL    HW135375   0.725   4.597  15.179 -1.2621 -2.7487  0.5664
 7914SOL    HW235376   0.780   4.576  15.309  1.0902 -1.0692  0.4851
 7915SOL     OW35377   1.889   1.915  11.022 -0.1718  0.7237 -0.0699
 7915SOL    HW135378   1.904   1.858  11.098  0.3920  1.1562  0.1437
 7915SOL    HW235379   1.969   1.897  10.973  0.0699  1.5463  0.0205
 7916SOL     OW35380   1.593   2.802   2.194  0.2667  0.1445 -0.2718
 7916SOL    HW135381   1.549   2.772   2.274  1.3916 -1.0072 -0.0807
 7916SOL    HW235382   1.657   2.861   2.235 -0.7741  1.1560 -0.1084
 7917SOL     OW35383   4.000   1.067   7.644 -0.7788 -0.1123 -0.6526
 7917SOL    HW135384   3.999   1.000   7.713 -2.6391 -1.0944 -1.6198
 7917SOL    HW235385   3.906   1.071   7.624 -0.5639  0.9299 -1.4405
 7918SOL     OW35386   3.098   1.210   2.677 -0.6796  0.2613 -0.3475
 7918SOL    HW135387   3.034   1.265   2.630  0.1636  0.2408 -1.5158
 7918SOL    HW235388   3.175   1.214   2.621 -0.8961 -3.4929 -0.9012
 7919SOL     OW35389   0.909   2.700   2.253 -0.2877  0.0296  0.6676
 7919SOL    HW135390   0.923   2.773   2.192 -1.6778  1.6643  2.3228
 7919SOL    HW235391   0.948   2.631   2.199  1.1864  2.0312 -0.8795
 7920SOL     OW35392   0.374   1.777   0.014  0.8126  0.1788 -0.0295
 7920SOL    HW135393   0.385   1.851   0.074  1.4269 -1.2857  1.6659
 7920SOL    HW235394   0.348   1.711   0.078  0.2896  1.4380  1.0731
 7921SOL     OW35395   0.188   1.465   1.569 -0.1723  0.2845 -0.7618
 7921SOL    HW135396   0.165   1.372   1.560 -1.1991  0.3757  1.1257
 7921SOL    HW235397   0.106   1.504   1.597 -1.8070 -2.6314 -1.4620
 7922SOL     OW35398   0.641   3.066  16.778 -0.0797  0.7287 -0.4350
 7922SOL    HW135399   0.720   3.070  16.832 -0.3675 -0.1525  0.0415
 7922SOL    HW235400   0.618   2.974  16.767 -2.0838  1.4477 -2.1861
 7923SOL     OW35401   0.296   3.775   7.276  0.0849 -0.0140  0.2174
 7923SOL    HW135402   0.251   3.844   7.325 -0.0557  0.7009 -0.9385
 7923SOL    HW235403   0.379   3.770   7.324  0.8585  0.3824 -1.0719
 7924SOL     OW35404   0.932   3.923   4.085  0.0426 -0.1680 -0.3586
 7924SOL    HW135405   0.990   3.947   4.157 -1.0030 -1.1257  0.8139
 7924SOL    HW235406   0.920   4.003   4.034 -1.8237  0.8287  1.6447
 7925SOL     OW35407   0.121   1.498   6.646 -0.0806  0.3008 -0.2195
 7925SOL    HW135408   0.092   1.538   6.564 -0.0476 -4.7666 -2.6980
 7925SOL    HW235409   0.152   1.411   6.624 -3.1168 -1.3036  1.8328
 7926SOL     OW35410   3.254   2.873   4.837 -0.3564  0.4637  0.2120
 7926SOL    HW135411   3.184   2.872   4.903 -1.2396 -0.3667 -0.7333
 7926SOL    HW235412   3.290   2.954   4.872  0.2017 -0.4629  1.7778
 7927SOL     OW35413   0.230   0.715   2.200 -0.4586 -0.4172 -0.4992
 7927SOL    HW135414   0.254   0.696   2.290  1.0580  0.2888 -0.7548
 7927SOL    HW235415   0.304   0.686   2.148  0.0081 -0.1617  0.0264
 7928SOL     OW35416   2.758   0.359  10.774 -0.4413 -0.2422  0.4689
 7928SOL    HW135417   2.716   0.445  10.777 -0.7985 -0.2954 -2.8546
 7928SOL    HW235418   2.677   0.308  10.763 -1.0759  0.6290  1.1729
 7929SOL     OW35419   4.276   1.351   3.474  0.1365  0.4263  0.0582
 7929SOL    HW135420   4.325   1.305   3.542  0.7512 -0.8171 -1.2267
 7929SOL    HW235421   4.339   1.404   3.425 -1.3441  1.5385 -0.6820
 7930SOL     OW35422   1.172   0.691  14.474  0.3242 -0.6111  0.4178
 7930SOL    HW135423   1.134   0.760  14.420  0.1241 -0.7630  0.3596
 7930SOL    HW235424   1.181   0.612  14.420  2.8725  0.1561 -0.2555
 7931SOL     OW35425   1.527   3.513  14.466 -0.2239  0.2104 -0.1405
 7931SOL    HW135426   1.556   3.597  14.430  0.8438 -0.0243  0.1714
 7931SOL    HW235427   1.569   3.461  14.398  0.5652 -2.0239  2.0765
 7932SOL     OW35428   4.387   3.057   7.912  0.2936  0.1354 -0.1848
 7932SOL    HW135429   4.438   3.068   7.992  0.4873  3.0636 -0.7325
 7932SOL    HW235430   4.448   3.085   7.845  1.5348 -0.0405  0.8813
 7933SOL     OW35431   4.306   2.405  15.141 -0.3598 -0.2012  0.0669
 7933SOL    HW135432   4.238   2.457  15.098 -0.0567  0.6672  0.6421
 7933SOL    HW235433   4.300   2.316  15.108 -1.9750 -0.3050  0.6257
 7934SOL     OW35434   1.128   0.613  14.742 -0.0845 -0.5689  0.6041
 7934SOL    HW135435   1.134   0.625  14.647 -0.9735 -1.3570  0.4472
 7934SOL    HW235436   1.052   0.555  14.752 -1.4553  1.2448  0.7129
 7935SOL     OW35437   3.134   0.639   0.272 -0.2837 -0.1721  0.3910
 7935SOL    HW135438   3.111   0.547   0.261  1.8956 -0.7320  0.5856
 7935SOL    HW235439   3.208   0.657   0.213 -1.3629 -0.5257 -1.0825
 7936SOL     OW35440   1.061   3.483   4.403 -0.3575  0.4393 -0.4212
 7936SOL    HW135441   1.139   3.508   4.454 -1.0827  1.0080  0.4115
 7936SOL    HW235442   1.101   3.482   4.316 -0.5018 -1.2975 -0.4634
 7937SOL     OW35443   2.857   0.586  10.343  0.7753  0.1073 -0.4125
 7937SOL    HW135444   2.814   0.503  10.364  0.8939  0.2116  0.2522
 7937SOL    HW235445   2.790   0.638  10.298 -0.1080 -1.1503 -0.5375
 7938SOL     OW35446   1.390   3.926   6.308 -0.0591 -0.6466  0.2108
 7938SOL    HW135447   1.454   3.997   6.299  2.1705 -2.7290 -0.1921
 7938SOL    HW235448   1.443   3.846   6.307  0.2270 -0.4709  0.8571
 7939SOL     OW35449   3.774   1.729   3.967  0.0357 -0.4007 -0.6630
 7939SOL    HW135450   3.770   1.720   4.063  2.4057 -2.7671 -0.7979
 7939SOL    HW235451   3.746   1.645   3.931 -0.3840  0.1775 -1.6704
 7940SOL     OW35452   3.872   3.890   6.849 -0.6118 -0.4196 -0.3939
 7940SOL    HW135453   3.963   3.862   6.846 -0.1278  1.1502 -0.2790
 7940SOL    HW235454   3.880   3.985   6.853 -1.1646 -0.3155 -1.6706
 7941SOL     OW35455   4.599   2.337   5.924 -0.8201 -0.0477  0.0050
 7941SOL    HW135456   4.537   2.358   5.854  0.2424  0.1003 -0.8974
 7941SOL    HW235457   4.572   2.393   5.997 -0.7141  0.8419 -0.6302
 7942SOL     OW35458   3.356   1.797   6.524  0.3660 -0.0247  0.0577
 7942SOL    HW135459   3.294   1.864   6.493  0.3511  0.1340  0.4253
 7942SOL    HW235460   3.395   1.840   6.600 -2.5281  1.2934  0.7980
 7943SOL     OW35461   0.571   1.617  17.115  0.2398 -0.1329  0.1347
 7943SOL    HW135462   0.542   1.694  17.066 -1.0035 -0.2167  0.7431
 7943SOL    HW235463   0.587   1.549  17.048 -0.2495 -0.9666  0.8696
 7944SOL     OW35464   0.358   1.028   3.643 -0.3049 -0.8428 -0.1484
 7944SOL    HW135465   0.300   1.080   3.587  1.4277  0.1953 -0.9720
 7944SOL    HW235466   0.398   0.976   3.574 -1.3845 -2.4283  0.4291
 7945SOL     OW35467   2.368   3.424  17.437  0.5393  0.0071  0.2546
 7945SOL    HW135468   2.362   3.518  17.455 -0.9696  0.4912 -2.7571
 7945SOL    HW235469   2.424   3.422  17.359  0.5703 -1.8941  0.3445
 7946SOL     OW35470   4.415   0.445   4.490  0.4703  0.2505 -0.6100
 7946SOL    HW135471   4.473   0.426   4.563 -2.3153 -0.4745  1.4001
 7946SOL    HW235472   4.339   0.493   4.522 -0.0175 -0.7753 -0.2254
 7947SOL     OW35473   0.265   1.934   0.878  0.0083  0.5101 -0.2747
 7947SOL    HW135474   0.291   1.990   0.804  1.1792  1.7822  1.0964
 7947SOL    HW235475   0.193   1.985   0.917  0.3263 -0.4717  1.5979
 7948SOL     OW35476   0.170   1.158  13.012 -0.2105  0.7613  0.1217
 7948SOL    HW135477   0.248   1.125  13.056 -0.4054 -0.5056 -0.4933
 7948SOL    HW235478   0.101   1.110  13.057  0.4102 -1.3573 -1.2218
 7949SOL     OW35479   2.733   1.265   9.441 -0.0589  0.7786 -0.1648
 7949SOL    HW135480   2.824   1.236   9.434  0.0587  1.4065 -1.2491
 7949SOL    HW235481   2.744   1.346   9.391  0.1662  0.3438 -0.8317
 7950SOL     OW35482   4.038   1.896   0.406  0.0600  0.3983  0.2068
 7950SOL    HW135483   4.027   1.826   0.343  0.7683 -0.5574  1.1576
 7950SOL    HW235484   3.947   1.918   0.429  0.1382  2.1332 -1.1286
 7951SOL     OW35485   3.349   2.055   5.215 -0.2294  0.3010 -0.5979
 7951SOL    HW135486   3.322   2.067   5.124 -0.8890  2.7400 -0.0693
 7951SOL    HW235487   3.386   1.967   5.221  1.5046  1.0149 -0.8084
 7952SOL     OW35488   0.552   2.258  17.301  0.5499  0.6893  0.4141
 7952SOL    HW135489   0.483   2.260  17.235  0.2021 -0.0400  0.7548
 7952SOL    HW235490   0.543   2.341  17.349 -2.3718 -0.6660  2.1933
 7953SOL     OW35491   0.263   3.690   1.066 -0.1307 -0.5494  0.2306
 7953SOL    HW135492   0.305   3.736   0.993  0.2467 -2.5657 -0.8054
 7953SOL    HW235493   0.287   3.600   1.048  0.0805 -0.5396  0.4689
 7954SOL     OW35494   0.645   0.468   3.383  0.1947 -0.2128  0.3826
 7954SOL    HW135495   0.563   0.510   3.357  1.2033  1.1963 -0.4705
 7954SOL    HW235496   0.699   0.484   3.306 -0.7577  0.2313 -0.1922
 7955SOL     OW35497   0.336   1.725   2.625  0.6812 -0.2465  0.0049
 7955SOL    HW135498   0.398   1.751   2.693 -1.4366 -0.8977  2.1780
 7955SOL    HW235499   0.290   1.652   2.666  0.4387 -0.3379 -0.4326
 7956SOL     OW35500   4.725   2.574   0.001 -0.6407 -0.4683  0.1451
 7956SOL    HW135501   4.643   2.622   0.007 -0.9095 -0.9060  0.0441
 7956SOL    HW235502   4.725   2.524   0.083  2.1717 -0.0737  0.3980
 7957SOL     OW35503   0.971   1.789   4.969 -0.9167  0.3170 -0.2128
 7957SOL    HW135504   0.927   1.707   4.993 -1.1275  1.2498  2.6212
 7957SOL    HW235505   1.023   1.742   4.904  0.4123 -0.0891  1.1391
 7958SOL     OW35506   0.852   4.472   8.291 -0.3145 -0.0747  1.0738
 7958SOL    HW135507   0.854   4.451   8.385 -0.3145 -1.4713  0.7712
 7958SOL    HW235508   0.811   4.392   8.258  0.4513 -0.2732  0.6009
 7959SOL     OW35509   0.999   3.151   2.612  0.3178  0.2517 -0.3960
 7959SOL    HW135510   1.024   3.084   2.676 -0.4896  0.8942  0.5921
 7959SOL    HW235511   0.912   3.178   2.641 -0.4838 -1.2706 -1.3479
 7960SOL     OW35512   1.863   3.367  11.686 -0.6438 -0.1160 -0.0736
 7960SOL    HW135513   1.819   3.303  11.742  1.0073 -0.5144  0.7492
 7960SOL    HW235514   1.905   3.310  11.622 -0.6570  0.4780 -0.6155
 7961SOL     OW35515   0.167   1.959   4.712  0.5589  0.1085 -0.0406
 7961SOL    HW135516   0.228   2.030   4.689  0.7502 -0.7008 -2.0575
 7961SOL    HW235517   0.186   1.958   4.806  1.9634  2.2807 -0.2852
 7962SOL     OW35518   1.913   0.564   7.029 -0.3373  0.3300 -0.0497
 7962SOL    HW135519   1.880   0.477   7.007  1.0349  0.0353 -0.9853
 7962SOL    HW235520   1.985   0.589   6.971  1.1212 -0.1467  1.5731
 7963SOL     OW35521   1.037   0.752   2.543  0.6201 -0.5202  0.1183
 7963SOL    HW135522   0.971   0.807   2.586  0.4419  0.2215 -1.0720
 7963SOL    HW235523   1.041   0.683   2.609 -2.1831 -0.1593  0.6660
 7964SOL     OW35524   3.116   0.916   0.566  0.2158  0.7744 -0.7630
 7964SOL    HW135525   3.202   0.915   0.524  0.2088 -1.3980 -0.7447
 7964SOL    HW235526   3.100   0.830   0.606  1.9246 -0.5074 -2.8250
 7965SOL     OW35527   3.141   4.571   7.802  0.1160  0.0779 -0.6920
 7965SOL    HW135528   3.053   4.567   7.839  0.2389  2.2654 -0.1582
 7965SOL    HW235529   3.193   4.552   7.881 -1.7886  0.8126  0.7281
 7966SOL     OW35530   3.116   1.245   3.994 -0.2618 -0.2723  0.3595
 7966SOL    HW135531   3.088   1.273   4.081  0.0868 -2.0229  1.0394
 7966SOL    HW235532   3.211   1.255   4.005  0.1742 -0.6190 -3.3219
 7967SOL     OW35533   4.408   2.821   1.398 -0.4408  0.2298  0.8393
 7967SOL    HW135534   4.314   2.810   1.413 -0.6959  0.3949 -0.5679
 7967SOL    HW235535   4.440   2.740   1.357  0.2246 -0.4371  2.6664
 7968SOL     OW35536   1.851   0.557   0.202  0.2799 -0.0438 -0.2119
 7968SOL    HW135537   1.836   0.534   0.110  1.0627 -0.7864 -0.1552
 7968SOL    HW235538   1.943   0.531   0.196  0.0491 -1.0697  0.7304
 7969SOL     OW35539   2.545   1.997  14.453  0.0827 -0.1845  0.4385
 7969SOL    HW135540   2.517   1.944  14.527  1.8296 -1.1911  0.4006
 7969SOL    HW235541   2.554   1.933  14.382  0.4945 -1.1647  1.3721
 7970SOL     OW35542   4.470   2.618   4.224  0.1001  0.1513 -0.2494
 7970SOL    HW135543   4.378   2.629   4.200 -0.2525  0.7888  1.4308
 7970SOL    HW235544   4.487   2.534   4.180  0.3460 -0.8495  1.7373
 7971SOL     OW35545   3.963   4.470   6.853  0.0266  0.2052 -0.5553
 7971SOL    HW135546   4.055   4.477   6.828  0.4023 -0.3549  0.6311
 7971SOL    HW235547   3.969   4.471   6.949 -0.1244 -1.2047 -0.5313
 7972SOL     OW35548   2.081   3.126   7.275 -0.4995  0.4803 -0.2995
 7972SOL    HW135549   2.137   3.199   7.249 -0.2514 -0.3941 -2.1584
 7972SOL    HW235550   2.133   3.076   7.338  0.1915  0.0747 -1.2003
 7973SOL     OW35551   0.392   3.946   4.335 -1.2342 -0.3981 -1.0754
 7973SOL    HW135552   0.420   4.037   4.338  0.0499 -0.8259 -0.0367
 7973SOL    HW235553   0.475   3.898   4.338 -1.8029 -1.2648  0.7813
 7974SOL     OW35554   4.341   4.210   5.955  0.4372  0.5514  0.5086
 7974SOL    HW135555   4.283   4.242   5.887  0.3329 -0.4687  0.1277
 7974SOL    HW235556   4.299   4.258   6.027  0.1624 -2.1879  2.2000
 7975SOL     OW35557   0.434   1.994   1.273  0.2128  0.0530 -0.0700
 7975SOL    HW135558   0.472   1.967   1.190  0.6153  0.4742 -0.0209
 7975SOL    HW235559   0.348   1.952   1.268  0.5099 -0.6773  0.9779
 7976SOL     OW35560   1.139   4.369  12.240 -0.1336  0.1062  0.0288
 7976SOL    HW135561   1.083   4.307  12.287  0.9846 -0.0501  1.1599
 7976SOL    HW235562   1.116   4.453  12.281 -0.1374 -0.1997  0.6662
 7977SOL     OW35563   0.029   2.699   5.964  0.5832  0.0065  0.0121
 7977SOL    HW135564   0.098   2.638   5.991  0.2601  0.3955  1.6958
 7977SOL    HW235565   0.009   2.750   6.042 -0.7950 -2.3451  1.2049
 7978SOL     OW35566   0.579   2.610  10.385 -0.5768 -0.2892  0.1640
 7978SOL    HW135567   0.667   2.594  10.352 -0.3158 -0.8002  1.1107
 7978SOL    HW235568   0.591   2.584  10.476  0.0327 -1.9531 -0.3886
 7979SOL     OW35569   2.264   1.764  14.278 -0.5468  0.4219 -0.0456
 7979SOL    HW135570   2.360   1.758  14.269 -0.7932  1.1281 -3.2595
 7979SOL    HW235571   2.245   1.684  14.327  0.6223 -0.3998 -0.9147
 7980SOL     OW35572   0.275   3.638   9.903  0.1791  0.0863  0.1113
 7980SOL    HW135573   0.245   3.548   9.917  1.4051 -0.6111 -1.6973
 7980SOL    HW235574   0.207   3.685   9.951 -1.2882  0.4935 -2.3923
 7981SOL     OW35575   3.509   1.741   4.242 -0.1180  0.0254 -0.3593
 7981SOL    HW135576   3.517   1.831   4.272 -0.1227  0.2624 -1.0758
 7981SOL    HW235577   3.426   1.745   4.196 -1.1550  0.6698  1.5718
 7982SOL     OW35578   4.282   2.804  12.745 -0.7614  0.6420 -0.7866
 7982SOL    HW135579   4.246   2.717  12.759  1.0618  0.2053  1.2222
 7982SOL    HW235580   4.276   2.837  12.835  0.2875  0.7919 -0.7723
 7983SOL     OW35581   2.430   2.835   2.275 -0.6463  0.4476 -0.2646
 7983SOL    HW135582   2.380   2.810   2.197  1.2786 -2.1990 -0.6551
 7983SOL    HW235583   2.405   2.761   2.331  0.7181 -0.3457 -0.7021
 7984SOL     OW35584   0.885   1.917  10.856  0.0657  0.0398  0.3486
 7984SOL    HW135585   0.950   1.978  10.892  1.3574 -1.0238 -0.1578
 7984SOL    HW235586   0.806   1.970  10.849 -1.5954 -2.4041  0.4933
 7985SOL     OW35587   3.471   0.260  14.505  0.5761 -0.0852  0.2234
 7985SOL    HW135588   3.465   0.204  14.582 -1.4126 -0.5213 -0.2331
 7985SOL    HW235589   3.425   0.338  14.537  0.5926  0.9222 -2.2302
 7986SOL     OW35590   2.536   0.344   4.961  0.3187 -0.1994 -0.1364
 7986SOL    HW135591   2.587   0.322   4.883  0.0817 -0.9376 -0.0816
 7986SOL    HW235592   2.609   0.321   5.019  0.3866  0.4851  0.0499
 7987SOL     OW35593   0.241   0.987  17.214  0.2422 -0.1623  0.2407
 7987SOL    HW135594   0.299   1.062  17.205  0.5867 -0.7769 -2.6776
 7987SOL    HW235595   0.244   0.962  17.122  0.2868  1.0959 -0.0956
 7988SOL     OW35596   0.629   4.296   2.960 -0.0734  0.2415  0.5755
 7988SOL    HW135597   0.559   4.350   2.996 -0.2963 -0.0977  0.6543
 7988SOL    HW235598   0.674   4.262   3.038 -0.3352  1.0898  1.0948
 7989SOL     OW35599   0.528   0.949  12.712 -0.3914 -0.3424 -0.6264
 7989SOL    HW135600   0.613   0.918  12.681 -0.7510  0.6423 -2.6020
 7989SOL    HW235601   0.472   0.899  12.653  0.8604  0.1917 -2.2885
 7990SOL     OW35602   1.969   0.350  17.438 -0.3523  0.2112  0.4136
 7990SOL    HW135603   1.989   0.332  17.347  2.5541  1.1884  0.8434
 7990SOL    HW235604   1.911   0.278  17.461  0.0571 -0.4999 -0.8258
 7991SOL     OW35605   1.898   3.944   5.445  0.3782 -0.3556  0.9671
 7991SOL    HW135606   1.914   4.007   5.516  1.5043 -1.9843  2.1691
 7991SOL    HW235607   1.924   3.998   5.371  1.5245  0.0370  1.6507
 7992SOL     OW35608   3.784   4.381  16.648 -0.4414 -0.1352 -0.0887
 7992SOL    HW135609   3.740   4.400  16.731 -0.0714 -1.1480  0.3519
 7992SOL    HW235610   3.827   4.463  16.627 -0.2631 -0.8572 -2.4904
 7993SOL     OW35611   2.449   3.960  16.264 -0.3350 -0.0390  0.5106
 7993SOL    HW135612   2.483   3.954  16.175 -1.7471  0.2581 -0.0476
 7993SOL    HW235613   2.417   4.050  16.275  1.7848  0.6903  0.7755
 7994SOL     OW35614   3.291   1.301   8.762  0.0446  0.2351  0.2495
 7994SOL    HW135615   3.281   1.269   8.672  1.7000  1.9428 -0.5472
 7994SOL    HW235616   3.245   1.382   8.741 -0.7895  0.7667  4.1497
 7995SOL     OW35617   2.100   0.446   2.021  0.2773  0.0101 -0.0237
 7995SOL    HW135618   2.106   0.377   1.955  0.3419  2.0272 -2.1292
 7995SOL    HW235619   2.089   0.523   1.965 -3.0111  0.5856  1.4166
 7996SOL     OW35620   0.430   4.247   9.611  0.3644 -0.2511  0.7033
 7996SOL    HW135621   0.361   4.312   9.621  0.2861  0.0497 -1.6777
 7996SOL    HW235622   0.482   4.246   9.691 -1.6966  2.2646  2.0657
 7997SOL     OW35623   4.034   2.723   1.198  0.0018 -0.2976  0.2121
 7997SOL    HW135624   4.107   2.663   1.215  1.5348  1.2021 -1.1352
 7997SOL    HW235625   4.072   2.784   1.135  0.3435 -0.3333  0.3819
 7998SOL     OW35626   0.017   2.616  11.595 -0.1544  0.3418 -0.0953
 7998SOL    HW135627   4.698   2.566  11.538  0.7851 -2.0006  1.0332
 7998SOL    HW235628   0.003   2.705  11.561 -0.6037  1.0117  1.8176
 7999SOL     OW35629   2.824   1.289   4.467  0.1916  0.1577  0.1222
 7999SOL    HW135630   2.752   1.343   4.435  0.7287  0.7170 -0.1274
 7999SOL    HW235631   2.784   1.244   4.541  1.2122 -0.0938  0.5156
 8000SOL     OW35632   0.025   3.740   3.160  0.1126 -1.0486  0.1295
 8000SOL    HW135633   4.685   3.761   3.209 -1.5281 -1.6582 -2.2381
 8000SOL    HW235634   4.726   3.747   3.073 -0.4517 -1.9405  0.3081
 8001SOL     OW35635   2.421   3.087   9.822  0.0679 -0.0259  0.3584
 8001SOL    HW135636   2.477   3.009   9.819 -1.6818 -1.2501 -0.7718
 8001SOL    HW235637   2.332   3.053   9.809 -0.1449  0.8392 -0.4188
 8002SOL     OW35638   2.455   3.475  14.880  0.3526  0.5567  0.1249
 8002SOL    HW135639   2.466   3.381  14.889  1.2637  0.5511 -0.9532
 8002SOL    HW235640   2.545   3.503  14.864  0.1490  1.5940  0.7814
 8003SOL     OW35641   4.613   2.867  16.874  0.5942  0.0470  0.1887
 8003SOL    HW135642   4.521   2.886  16.856  0.7735  1.8184  1.1366
 8003SOL    HW235643   4.615   2.784  16.827 -1.3832  0.2832 -0.3054
 8004SOL     OW35644   0.014   0.973   5.348  0.1782  0.0667 -0.9166
 8004SOL    HW135645   4.724   1.063   5.361 -0.1809 -0.0721 -0.7779
 8004SOL    HW235646   4.680   0.946   5.292 -1.2181  1.9176  0.0234
 8005SOL     OW35647   4.239   2.978   6.984 -0.5647 -0.2531  0.1750
 8005SOL    HW135648   4.317   3.017   6.944  0.4512 -2.2264  0.2124
 8005SOL    HW235649   4.180   2.989   6.910 -1.1892 -5.3351 -0.0718
 8006SOL     OW35650   1.435   3.674   8.855 -0.6379 -0.0171 -0.1562
 8006SOL    HW135651   1.386   3.684   8.936  0.4851  0.9866  0.3892
 8006SOL    HW235652   1.374   3.676   8.781 -0.1824 -0.2908 -0.5380
 8007SOL     OW35653   0.182   0.683   3.128  0.2559 -0.2145 -0.0832
 8007SOL    HW135654   0.250   0.672   3.195 -1.6189  2.0365  2.2152
 8007SOL    HW235655   0.240   0.663   3.054  0.5689 -0.8907  0.3380
 8008SOL     OW35656   2.327   0.578  11.425  0.2433 -0.3839  0.1808
 8008SOL    HW135657   2.238   0.569  11.390 -0.0337  2.3730  0.1544
 8008SOL    HW235658   2.354   0.486  11.420 -1.9311 -0.9686 -0.6878
 8009SOL     OW35659   1.984   3.075   3.651 -0.4918  0.3885 -0.0017
 8009SOL    HW135660   2.016   3.121   3.573  1.5843 -0.9415  0.0718
 8009SOL    HW235661   2.005   2.986   3.624  1.0477  1.2189 -1.6213
 8010SOL     OW35662   3.605   3.803   1.400 -0.2756  0.2069 -0.1952
 8010SOL    HW135663   3.538   3.870   1.412 -0.9201 -0.4577 -0.0846
 8010SOL    HW235664   3.678   3.865   1.396 -0.2706  0.1821 -0.4651
 8011SOL     OW35665   3.367   1.345   6.346 -0.7498 -0.6696 -0.3804
 8011SOL    HW135666   3.451   1.356   6.300 -0.5116 -0.4539  0.1025
 8011SOL    HW235667   3.309   1.391   6.286 -0.9194  2.6862  2.3399
 8012SOL     OW35668   3.837   1.954  17.213  0.2971 -0.4096 -1.1304
 8012SOL    HW135669   3.788   1.959  17.295 -0.6564 -0.6881 -1.6840
 8012SOL    HW235670   3.832   1.860  17.198  2.1351 -0.3306 -2.2357
 8013SOL     OW35671   3.591   3.967   7.922 -0.1984 -0.0997  0.0503
 8013SOL    HW135672   3.523   3.911   7.885 -0.8034  0.2942  0.5721
 8013SOL    HW235673   3.542   4.037   7.964  0.9811 -0.1233  1.5036
 8014SOL     OW35674   3.718   1.150   3.850  0.6949  0.3808  0.0259
 8014SOL    HW135675   3.638   1.180   3.808  0.3134 -0.9122 -0.1607
 8014SOL    HW235676   3.717   1.203   3.930 -0.3066 -1.8884  1.5047
 8015SOL     OW35677   1.507   4.334   4.560 -0.1069 -0.1607  0.0542
 8015SOL    HW135678   1.523   4.240   4.550 -0.3358  0.1371 -3.0898
 8015SOL    HW235679   1.513   4.350   4.654  1.7744  0.5854 -0.1843
 8016SOL     OW35680   2.375   4.095   4.664 -0.1933  0.1284 -0.6241
 8016SOL    HW135681   2.447   4.080   4.726 -0.6804  0.7175  0.0820
 8016SOL    HW235682   2.377   4.008   4.623  1.4266  1.4128 -3.2335
 8017SOL     OW35683   3.300   0.131   6.463 -0.0264  0.2203  0.3481
 8017SOL    HW135684   3.263   0.204   6.413 -0.5483 -0.5097 -0.3312
 8017SOL    HW235685   3.307   0.168   6.551  0.1877 -0.8889  0.7857
 8018SOL     OW35686   2.166   2.314   2.102 -1.0649  0.0928 -0.1710
 8018SOL    HW135687   2.139   2.384   2.043 -1.3378 -1.3059 -1.7004
 8018SOL    HW235688   2.108   2.322   2.178 -0.2454  0.2762  0.4348
 8019SOL     OW35689   2.355   1.248   3.378  0.4393  0.0205  0.5649
 8019SOL    HW135690   2.316   1.180   3.435  0.8754  0.3791  1.2937
 8019SOL    HW235691   2.443   1.263   3.413  0.7687  0.0539 -0.2783
 8020SOL     OW35692   1.851   4.738  17.101  0.0245 -0.1554  0.6319
 8020SOL    HW135693   1.807   0.083  17.092  0.3723  0.0672  1.0468
 8020SOL    HW235694   1.780   4.675  17.095  0.7480 -0.7080 -2.4213
 8021SOL     OW35695   0.125   4.182   9.202 -0.0068 -0.1943  0.6147
 8021SOL    HW135696   0.141   4.177   9.108 -1.3886  0.0965  0.3573
 8021SOL    HW235697   0.088   4.270   9.213  1.0617  0.1173  1.6744
 8022SOL     OW35698   1.334   2.921   2.131 -0.2093 -0.0195  0.5521
 8022SOL    HW135699   1.423   2.890   2.147  0.0602  0.0568 -0.8542
 8022SOL    HW235700   1.322   3.001   2.182 -0.0705  0.8304 -0.7431
 8023SOL     OW35701   2.933   0.577   3.213 -0.3960 -0.1567 -0.1025
 8023SOL    HW135702   2.864   0.625   3.259 -0.6388 -0.4004 -0.2137
 8023SOL    HW235703   2.879   0.546   3.140 -0.5089 -0.9748  0.3342
 8024SOL     OW35704   4.283   3.512   8.793 -0.0513 -0.6620  0.2318
 8024SOL    HW135705   4.369   3.470   8.802 -0.8431 -1.9750  1.8496
 8024SOL    HW235706   4.259   3.522   8.885 -0.2361  0.1648  0.0910
 8025SOL     OW35707   2.956   0.893   3.096 -0.5808  0.0173 -0.4814
 8025SOL    HW135708   2.913   0.954   3.037  0.5005  2.3217  1.1242
 8025SOL    HW235709   3.001   0.835   3.034  0.9556  2.9340 -2.1317
 8026SOL     OW35710   3.089   0.708   3.590 -0.7235  0.3557  0.4082
 8026SOL    HW135711   3.077   0.613   3.578 -0.1561  0.3245  0.0773
 8026SOL    HW235712   3.169   0.722   3.538 -0.9041  0.6797  0.2195
 8027SOL     OW35713   4.224   4.724   4.879 -0.4071  0.4608 -0.0552
 8027SOL    HW135714   4.308   0.029   4.867 -0.4837  0.5468 -0.2753
 8027SOL    HW235715   4.205   4.698   4.789 -2.5868  1.4053  0.1495
 8028SOL     OW35716   1.220   0.513   7.309 -0.2750 -0.1433  0.1276
 8028SOL    HW135717   1.211   0.541   7.400 -0.0563  0.0891  0.0773
 8028SOL    HW235718   1.149   0.449   7.304  0.1501 -0.5534 -0.5872
 8029SOL     OW35719   4.225   1.941   8.700 -0.4052  0.4665  0.2802
 8029SOL    HW135720   4.141   1.957   8.742 -0.6345 -1.3601  0.5434
 8029SOL    HW235721   4.260   2.030   8.699  1.4143 -0.2874 -2.0645
 8030SOL     OW35722   4.560   2.214   6.313 -0.2761 -0.9258  0.4652
 8030SOL    HW135723   4.518   2.257   6.388 -0.5923 -0.2723 -0.0876
 8030SOL    HW235724   4.634   2.273   6.297 -2.1687  2.1100  2.9809
 8031SOL     OW35725   4.190   1.609   4.772  0.1957  0.1456 -0.1501
 8031SOL    HW135726   4.109   1.573   4.809  0.2702  0.9535  0.7712
 8031SOL    HW235727   4.169   1.702   4.766  0.5096  0.3164  1.4759
 8032SOL     OW35728   3.367   0.653   1.855 -0.2374  0.3639 -0.0997
 8032SOL    HW135729   3.462   0.640   1.863  0.2259  2.8196 -1.5086
 8032SOL    HW235730   3.354   0.692   1.769 -1.3241 -0.6224 -0.3744
 8033SOL     OW35731   3.778   4.003   1.421 -0.2032 -0.3018 -0.3227
 8033SOL    HW135732   3.834   3.976   1.494 -1.0159 -4.2465 -1.1587
 8033SOL    HW235733   3.755   4.094   1.443  0.2235 -0.4145  0.5713
 8034SOL     OW35734   3.256   0.554   4.011 -0.0044  0.3342 -0.8341
 8034SOL    HW135735   3.271   0.468   4.051  0.6437  0.0076 -1.7776
 8034SOL    HW235736   3.289   0.609   4.082 -0.7556 -0.6207  0.2441
 8035SOL     OW35737   0.446   0.841  16.539  0.8681  0.2519 -0.0742
 8035SOL    HW135738   0.467   0.802  16.624 -0.6578 -1.5402 -0.5229
 8035SOL    HW235739   0.411   0.765  16.493 -1.1367  2.4626 -2.2314
 8036SOL     OW35740   2.908   1.895  15.615  0.5435  0.1450 -0.0806
 8036SOL    HW135741   3.003   1.893  15.620  0.3589 -3.5256  2.0453
 8036SOL    HW235742   2.880   1.976  15.658  1.3032  0.8585 -0.9338
 8037SOL     OW35743   0.272   0.778   6.545 -0.3763  0.4696  1.0355
 8037SOL    HW135744   0.325   0.793   6.467  0.5530 -1.4684  1.2837
 8037SOL    HW235745   0.201   0.839   6.530 -0.3381  0.1954 -0.2866
 8038SOL     OW35746   0.921   4.032   9.433 -0.4605 -0.0100 -0.1748
 8038SOL    HW135747   0.890   3.954   9.477  1.5879 -0.5465  0.3409
 8038SOL    HW235748   0.842   4.085   9.432 -0.3754  0.0922 -2.1907
 8039SOL     OW35749   3.022   0.227   3.024 -0.1075  0.0145 -0.1060
 8039SOL    HW135750   3.068   0.173   3.089 -1.2857 -0.3748  0.4097
 8039SOL    HW235751   2.954   0.265   3.080 -0.7883  0.6823 -1.3983
 8040SOL     OW35752   3.553   3.227   6.052  0.6698 -0.0942 -0.2934
 8040SOL    HW135753   3.482   3.240   6.114  0.3927 -0.5507 -0.5155
 8040SOL    HW235754   3.590   3.315   6.047 -1.0776  0.7104  1.1182
 8041SOL     OW35755   0.742   3.948   8.522 -0.0090 -0.1591  0.0703
 8041SOL    HW135756   0.703   3.949   8.609  1.0648 -1.4498  0.5526
 8041SOL    HW235757   0.800   4.023   8.516 -0.1429 -0.0906 -0.4273
 8042SOL     OW35758   3.570   0.917  14.939 -0.4176 -0.0491 -0.2552
 8042SOL    HW135759   3.597   0.841  14.886  0.6915  0.6298 -0.6757
 8042SOL    HW235760   3.537   0.979  14.873 -0.8637 -0.2552 -0.2189
 8043SOL     OW35761   3.162   2.761   2.616 -0.4178  0.2484 -0.3114
 8043SOL    HW135762   3.189   2.847   2.583  4.2046 -1.3756 -0.7611
 8043SOL    HW235763   3.246   2.716   2.622 -0.4505  0.0256 -1.5133
 8044SOL     OW35764   0.232   0.341   8.163  0.8016  0.3348  0.2863
 8044SOL    HW135765   0.325   0.318   8.162  0.5675 -0.6246  0.9581
 8044SOL    HW235766   0.193   0.271   8.215  2.6650 -0.3040  0.8140
 8045SOL     OW35767   0.222   1.692   6.990 -0.0738  0.4155  0.1213
 8045SOL    HW135768   0.226   1.602   6.958  1.2760  1.2993 -2.1834
 8045SOL    HW235769   0.301   1.712   7.040 -0.5386  0.3359  0.8799
 8046SOL     OW35770   1.915   3.504   8.557 -0.7586 -0.1679  0.6212
 8046SOL    HW135771   1.866   3.425   8.579 -0.3482 -0.3646  0.8274
 8046SOL    HW235772   1.865   3.575   8.598 -0.7582  0.5854 -0.6983
 8047SOL     OW35773   0.745   3.507   8.403  0.1832  0.3969 -0.5731
 8047SOL    HW135774   0.671   3.447   8.393  0.6149 -0.1640 -0.4513
 8047SOL    HW235775   0.763   3.492   8.496 -1.5203  1.1091 -0.1437
 8048SOL     OW35776   3.634   0.116   3.775  0.2774  0.4669 -0.0397
 8048SOL    HW135777   3.604   0.094   3.863 -0.2297 -0.0310 -0.3391
 8048SOL    HW235778   3.584   0.194   3.749 -2.2132  0.0858  3.5857
 8049SOL     OW35779   4.662   2.131   1.762  0.0326 -0.3489  0.1441
 8049SOL    HW135780   4.600   2.069   1.721  2.2141 -1.9446 -0.7406
 8049SOL    HW235781   0.012   2.102   1.743  0.3137 -0.0944  1.0528
 8050SOL     OW35782   2.148   2.005  11.709 -0.6412 -0.5428 -0.1585
 8050SOL    HW135783   2.062   1.970  11.734 -0.3442 -1.0599  0.1303
 8050SOL    HW235784   2.166   2.046  11.794 -2.2030  0.7052 -0.4239
 8051SOL     OW35785   0.417   0.104   2.021 -0.2128 -0.0608 -0.3167
 8051SOL    HW135786   0.361   0.091   1.945 -1.2895  0.5263  0.3870
 8051SOL    HW235787   0.364   0.083   2.098  0.0024 -0.1608 -0.1960
 8052SOL     OW35788   2.871   1.176   2.217 -0.3221 -0.4875 -0.5023
 8052SOL    HW135789   2.952   1.213   2.181  0.2283  0.1382  1.3682
 8052SOL    HW235790   2.836   1.262   2.241  1.4690  0.0438  0.2055
 8053SOL     OW35791   1.083   2.886  12.306  0.1226  0.2073  0.2922
 8053SOL    HW135792   1.048   2.913  12.390  0.6917  0.5833  0.4041
 8053SOL    HW235793   1.008   2.848  12.261 -0.6017  0.6576  1.1329
 8054SOL     OW35794   4.360   0.772   5.859  0.6372 -0.2598 -0.3267
 8054SOL    HW135795   4.451   0.752   5.884 -0.2538 -0.9013  2.3471
 8054SOL    HW235796   4.318   0.721   5.927 -0.0758  2.0617  0.9690
 8055SOL     OW35797   1.722   3.215   7.544  0.1037  0.0084 -0.4238
 8055SOL    HW135798   1.681   3.281   7.600 -0.3104 -0.5757 -0.0453
 8055SOL    HW235799   1.811   3.203   7.577 -0.7303 -0.8455  1.5133
 8056SOL     OW35800   2.048   2.639   6.896  0.0710 -0.1335  0.1129
 8056SOL    HW135801   2.032   2.654   6.802 -2.5140 -0.9154  0.4307
 8056SOL    HW235802   2.008   2.716   6.936 -0.4517  0.6087 -1.8225
 8057SOL     OW35803   4.214   2.735   5.471  0.3739  0.1193 -0.0323
 8057SOL    HW135804   4.285   2.775   5.521  0.1702  1.5259 -0.8676
 8057SOL    HW235805   4.221   2.790   5.393 -0.1276 -0.1284 -0.2552
 8058SOL     OW35806   3.840   0.020   3.640 -0.3762 -0.4954 -0.0575
 8058SOL    HW135807   3.837   0.107   3.599  1.0534  0.8124  2.5875
 8058SOL    HW235808   3.764   0.042   3.694  0.8803  2.7613  0.4133
 8059SOL     OW35809   2.226   1.981  14.730  0.2355  0.6663 -0.2893
 8059SOL    HW135810   2.284   2.038  14.781  0.6623  1.0996 -1.2635
 8059SOL    HW235811   2.147   1.971  14.783 -1.0349 -1.4131 -2.5809
 8060SOL     OW35812   1.310   3.722  13.255  0.2846  0.4967  0.1290
 8060SOL    HW135813   1.267   3.768  13.327  1.2118  0.1021  0.9149
 8060SOL    HW235814   1.248   3.748  13.186  0.7300  2.3259  0.4057
 8061SOL     OW35815   1.180   3.407   2.224 -0.5715 -0.2690  0.1294
 8061SOL    HW135816   1.209   3.486   2.269 -0.3561 -0.3885  0.1990
 8061SOL    HW235817   1.101   3.440   2.180 -0.9983 -0.3512  0.8218
 8062SOL     OW35818   3.080   3.460   7.569 -0.4167  0.4514  0.7430
 8062SOL    HW135819   3.053   3.503   7.488  0.5175 -2.6515 -1.2130
 8062SOL    HW235820   3.056   3.368   7.560 -0.1576  0.7059 -2.5722
 8063SOL     OW35821   1.617   1.983  11.988  0.0279 -0.2023  0.1079
 8063SOL    HW135822   1.639   1.911  11.930 -3.7633 -0.8230 -0.5466
 8063SOL    HW235823   1.603   1.936  12.071  1.5119 -0.4208  0.2305
 8064SOL     OW35824   3.652   4.667   4.791  0.6305  0.5806 -0.3273
 8064SOL    HW135825   3.710   4.606   4.837 -1.7686 -2.1050 -0.9374
 8064SOL    HW235826   3.690   0.011   4.822  2.3552 -0.5106  0.4971
 8065SOL     OW35827   1.289   0.658   3.581  0.7356 -0.1158  0.3543
 8065SOL    HW135828   1.382   0.670   3.559  0.9504 -1.0198  0.7732
 8065SOL    HW235829   1.256   0.609   3.506  3.0101 -2.3748  0.8161
 8066SOL     OW35830   3.044   1.598  13.474 -0.3092 -0.2945 -0.5981
 8066SOL    HW135831   3.001   1.681  13.455 -0.2039 -0.2234 -0.5217
 8066SOL    HW235832   3.129   1.628  13.507 -0.3837 -1.3338  0.5502
 8067SOL     OW35833   1.694   4.716   5.782  0.0111 -0.2942  0.2078
 8067SOL    HW135834   1.632   0.049   5.794 -0.4799 -0.7317  0.2893
 8067SOL    HW235835   1.775   0.029   5.775 -0.7489  0.9934  0.9140
 8068SOL     OW35836   2.175   0.856  11.797  1.0100  0.1929  0.0643
 8068SOL    HW135837   2.111   0.855  11.726 -0.3809 -1.9640  1.3578
 8068SOL    HW235838   2.244   0.805  11.756  1.7500  0.4565  0.9714
 8069SOL     OW35839   0.638   3.811   4.371 -0.1104  0.2295 -0.1274
 8069SOL    HW135840   0.677   3.724   4.379 -1.2723 -0.4346 -1.6362
 8069SOL    HW235841   0.715   3.858   4.403  2.5032 -3.6184 -0.8694
 8070SOL     OW35842   0.506   4.011   7.542  0.0093 -0.5304 -0.3307
 8070SOL    HW135843   0.491   3.931   7.491  2.9845 -2.1191  1.2797
 8070SOL    HW235844   0.583   4.031   7.488  0.0580  1.0416  0.2998
 8071SOL     OW35845   2.693   0.435   3.387  0.1836 -0.0095  0.3298
 8071SOL    HW135846   2.731   0.511   3.342 -0.4689  0.9387  1.3682
 8071SOL    HW235847   2.665   0.384   3.311  1.2478  0.0519 -0.1005
 8072SOL     OW35848   4.531   1.397  10.697  0.2232 -0.0300 -0.7124
 8072SOL    HW135849   4.622   1.421  10.715  0.2985 -1.0636  0.2446
 8072SOL    HW235850   4.531   1.354  10.612  1.2207 -0.7129 -0.3666
 8073SOL     OW35851   1.843   4.450   8.531  0.1045  0.0308 -0.8084
 8073SOL    HW135852   1.815   4.446   8.622  1.2370 -1.8170 -0.5527
 8073SOL    HW235853   1.770   4.406   8.486  1.6671 -3.6858  0.3010
 8074SOL     OW35854   0.985   3.686   7.461 -0.4564 -0.6975 -0.2187
 8074SOL    HW135855   0.957   3.612   7.516  0.4837 -0.0035  1.2188
 8074SOL    HW235856   1.076   3.658   7.450  0.2051  1.8338 -1.1300
 8075SOL     OW35857   3.568   3.695  11.688  0.0882 -0.0842 -0.1948
 8075SOL    HW135858   3.566   3.673  11.595  1.6857 -0.5495 -0.1086
 8075SOL    HW235859   3.510   3.772  11.690  1.6401  1.0747 -0.1709
 8076SOL     OW35860   2.732   2.998   1.011  0.9946 -0.3944  0.5304
 8076SOL    HW135861   2.667   3.038   1.068  1.5599  3.2691 -1.4655
 8076SOL    HW235862   2.755   3.079   0.967  0.2875 -0.9578 -0.8795
 8077SOL     OW35863   1.803   0.033   2.538  0.8852 -0.7074 -0.1254
 8077SOL    HW135864   1.811   4.678   2.558 -0.0329 -0.4653  1.3960
 8077SOL    HW235865   1.751   0.062   2.613  0.9647  1.4410 -0.9150
 8078SOL     OW35866   0.900   0.336  15.704  0.6802 -0.3508  0.9723
 8078SOL    HW135867   0.881   0.261  15.647 -1.0774 -0.3959  1.6380
 8078SOL    HW235868   0.829   0.390  15.668  0.1398 -1.8004 -0.1214
 8079SOL     OW35869   2.783   1.177   3.142 -0.0635  0.3695  0.2154
 8079SOL    HW135870   2.735   1.247   3.096  1.1885  0.9294 -0.2250
 8079SOL    HW235871   2.829   1.137   3.069  0.4091  1.3896 -0.0384
 8080SOL     OW35872   2.680   0.849   4.756  0.4339  0.9183 -0.6628
 8080SOL    HW135873   2.713   0.768   4.717 -1.3825 -0.9652  1.7114
 8080SOL    HW235874   2.713   0.914   4.694 -1.6037  0.2969 -2.4001
 8081SOL     OW35875   0.200   1.697  13.643  0.0172 -0.4665  0.2402
 8081SOL    HW135876   0.150   1.738  13.573 -2.6480 -1.8205  1.3306
 8081SOL    HW235877   0.230   1.614  13.607  2.9057  0.8469 -0.3892
 8082SOL     OW35878   2.144   3.413   5.991 -0.2685 -0.1635  0.0076
 8082SOL    HW135879   2.092   3.468   6.050  2.6557 -0.3298  2.7140
 8082SOL    HW235880   2.157   3.484   5.927 -1.0189  0.6909  0.7969
 8083SOL     OW35881   3.432   2.084   8.609  0.0533 -0.3247  0.2200
 8083SOL    HW135882   3.435   1.994   8.642 -0.6339 -0.5104 -0.2116
 8083SOL    HW235883   3.454   2.061   8.519  0.0337  2.1794 -0.3995
 8084SOL     OW35884   0.860   3.849  16.034  0.7297 -0.6597 -0.3623
 8084SOL    HW135885   0.935   3.869  16.092  1.1002  0.2422 -1.1463
 8084SOL    HW235886   0.822   3.936  16.021  1.1065 -0.5782 -0.9086
 8085SOL     OW35887   2.100   2.652  13.061 -0.2274 -0.4908 -1.2574
 8085SOL    HW135888   2.126   2.566  13.094  1.4577  1.7138  3.1425
 8085SOL    HW235889   2.180   2.700  13.082  0.8905 -2.6055 -0.6153
 8086SOL     OW35890   0.914   3.184  10.418 -0.2313  0.1625  0.2105
 8086SOL    HW135891   0.945   3.122  10.484  0.8690  1.6661  1.0836
 8086SOL    HW235892   0.819   3.170  10.411 -0.3866  0.0224  2.4911
 8087SOL     OW35893   3.733   2.071   5.300 -0.0867 -0.4405 -0.4131
 8087SOL    HW135894   3.826   2.080   5.278 -0.4642  3.2417 -0.6673
 8087SOL    HW235895   3.726   1.986   5.342 -2.3458  0.0519  0.1839
 8088SOL     OW35896   3.127   0.044   1.360 -0.2855  0.0146  0.1038
 8088SOL    HW135897   3.083   0.127   1.339  3.4252  2.0069  0.2441
 8088SOL    HW235898   3.214   0.081   1.375 -0.4364  1.2237 -2.0059
 8089SOL     OW35899   2.367   1.231   5.602  0.1578  0.1768 -0.3212
 8089SOL    HW135900   2.432   1.286   5.645 -1.4583  1.3845  0.5349
 8089SOL    HW235901   2.431   1.161   5.587  1.1783  0.5973  2.1286
 8090SOL     OW35902   2.627   3.748   8.776 -0.2712 -0.1983 -0.0054
 8090SOL    HW135903   2.607   3.838   8.748 -1.5764 -1.2098 -2.3770
 8090SOL    HW235904   2.606   3.707   8.691  0.1579 -3.2858  1.3805
 8091SOL     OW35905   3.512   2.930   1.899  0.1745  0.0233 -0.1776
 8091SOL    HW135906   3.431   2.884   1.922 -0.2775  1.3168  0.8022
 8091SOL    HW235907   3.536   2.970   1.983 -0.3711  0.1195 -0.0635
 8092SOL     OW35908   1.744   3.985   4.980 -0.4188 -0.3816 -0.2438
 8092SOL    HW135909   1.808   3.967   4.910  0.3900  0.4217  0.2995
 8092SOL    HW235910   1.763   4.078   4.985  2.8719 -1.0640 -0.2686
 8093SOL     OW35911   2.198   3.899  16.044  0.3634  0.0986 -0.2773
 8093SOL    HW135912   2.257   3.935  15.977  0.7104 -1.2874 -0.7003
 8093SOL    HW235913   2.122   3.865  15.998 -0.3648  0.5275  0.6233
 8094SOL     OW35914   4.105   1.097   5.630  0.1755  0.2286 -0.1500
 8094SOL    HW135915   4.173   1.061   5.687 -1.0121 -0.0653  1.0824
 8094SOL    HW235916   4.047   1.150   5.685 -0.3110  0.3652 -0.7912
 8095SOL     OW35917   2.926   4.336   6.181  0.4140 -0.0143 -0.5510
 8095SOL    HW135918   2.918   4.272   6.251  2.2972 -0.2369 -0.5534
 8095SOL    HW235919   2.933   4.424   6.219 -0.0909  0.5028 -1.6472
 8096SOL     OW35920   0.837   4.730   5.269 -0.3526  0.0969  0.2269
 8096SOL    HW135921   0.794   4.664   5.215 -1.9065  1.2428  0.0782
 8096SOL    HW235922   0.766   0.055   5.265  0.6947  1.1854 -1.0405
 8097SOL     OW35923   0.783   1.777  17.260 -0.0647  0.1959  0.5335
 8097SOL    HW135924   0.725   1.729  17.200  0.2387 -1.5641  1.6299
 8097SOL    HW235925   0.866   1.775  17.214 -0.7524 -1.7970 -0.6409
 8098SOL     OW35926   0.418   3.846   5.600  0.3059  0.0188  0.5824
 8098SOL    HW135927   0.471   3.776   5.638 -1.5591 -2.0325 -0.6217
 8098SOL    HW235928   0.484   3.916   5.604 -0.1876  0.4553  1.2411
 8099SOL     OW35929   0.553   0.153   6.109 -0.3457  0.3717 -0.5243
 8099SOL    HW135930   0.483   0.101   6.068 -0.3361 -0.8721  1.0833
 8099SOL    HW235931   0.501   0.234   6.102 -1.5599 -0.7156 -4.1402
 8100SOL     OW35932   0.243   3.311   2.626  0.2411  0.1560  0.6991
 8100SOL    HW135933   0.185   3.294   2.552  0.2622  2.6112  0.1180
 8100SOL    HW235934   0.333   3.322   2.594 -0.9185 -0.4024 -2.7090
 8101SOL     OW35935   0.939   1.434  16.875 -0.2825 -0.4394  0.3334
 8101SOL    HW135936   0.992   1.408  16.799  1.5395 -0.2502  1.5282
 8101SOL    HW235937   1.009   1.451  16.938 -0.2491 -1.9529  0.6994
 8102SOL     OW35938   1.582   3.673  12.413 -1.1103 -0.0170  0.3144
 8102SOL    HW135939   1.493   3.677  12.377 -1.7092  0.4563  1.8446
 8102SOL    HW235940   1.621   3.720  12.340 -0.5727 -0.3056  0.4185
 8103SOL     OW35941   2.795   3.995   5.109 -0.1277  0.3562  0.0593
 8103SOL    HW135942   2.882   3.959   5.130 -1.2974 -3.6357 -2.1032
 8103SOL    HW235943   2.750   3.918   5.144  0.8848  0.7050  2.1599
 8104SOL     OW35944   4.086   3.107   2.216 -0.3254 -0.2573 -0.4954
 8104SOL    HW135945   4.113   3.115   2.124 -3.4357 -0.9199 -1.4577
 8104SOL    HW235946   4.019   3.175   2.213 -0.7281 -0.5729  1.7064
 8105SOL     OW35947   1.370   2.465  13.715 -0.2630 -0.1485  1.0277
 8105SOL    HW135948   1.332   2.541  13.671 -0.2946  0.6892  2.5081
 8105SOL    HW235949   1.452   2.497  13.753 -1.7892  0.9659  3.3135
 8106SOL     OW35950   4.550   3.617   5.617 -0.0499 -0.7578 -0.0266
 8106SOL    HW135951   4.595   3.690   5.661  0.0107 -0.0673 -1.2361
 8106SOL    HW235952   4.553   3.545   5.680 -0.8410 -2.2914 -1.7439
 8107SOL     OW35953   0.332   3.217   6.096 -0.0768 -0.5981 -0.0017
 8107SOL    HW135954   0.311   3.158   6.169  1.3152 -0.1790  0.7464
 8107SOL    HW235955   0.370   3.159   6.030 -0.7218  1.7031 -2.3791
 8108SOL     OW35956   1.750   0.856   0.309  0.2616 -0.8343 -0.3923
 8108SOL    HW135957   1.662   0.857   0.345  0.3655 -0.1111 -0.1714
 8108SOL    HW235958   1.777   0.764   0.313  3.0849  0.0989  1.7994
 8109SOL     OW35959   3.093   2.655   6.370 -0.0305  0.2891 -0.0461
 8109SOL    HW135960   3.150   2.587   6.404  2.3190  1.6652 -1.1855
 8109SOL    HW235961   3.136   2.686   6.290  0.1156  1.4870  0.5029
 8110SOL     OW35962   4.265   2.006   7.078  0.4246  0.6938 -0.0927
 8110SOL    HW135963   4.253   2.101   7.087  0.8561  0.6673  0.7733
 8110SOL    HW235964   4.232   1.975   7.162 -0.8801  0.1689 -0.8074
 8111SOL     OW35965   4.338   3.643  11.060  0.3035  0.3266 -0.1682
 8111SOL    HW135966   4.404   3.611  11.121  0.7444  0.7193 -0.4411
 8111SOL    HW235967   4.372   3.731  11.044 -0.5524  0.7258  0.1938
 8112SOL     OW35968   1.569   4.036   2.574 -0.7197 -0.3433  0.0745
 8112SOL    HW135969   1.473   4.038   2.579 -0.8621 -0.9478 -2.1731
 8112SOL    HW235970   1.579   3.941   2.584  2.1679  0.2816  3.0482
 8113SOL     OW35971   4.625   1.684   4.884  0.0906 -0.5604  0.2538
 8113SOL    HW135972   4.577   1.752   4.931 -1.1141 -0.9898 -0.3643
 8113SOL    HW235973   4.665   1.732   4.811 -1.6860 -1.8841 -1.6064
 8114SOL     OW35974   1.560   0.013   6.471 -0.0952 -0.3848  0.1337
 8114SOL    HW135975   1.590   0.036   6.559  0.3625 -2.3578  0.4981
 8114SOL    HW235976   1.616   0.062   6.411 -2.8911  2.2070 -0.3216
 8115SOL     OW35977   0.356   2.668  16.205  0.5434 -0.5819  0.1443
 8115SOL    HW135978   0.406   2.748  16.192 -1.0388  0.3110 -0.4687
 8115SOL    HW235979   0.424   2.611  16.241  2.3591  1.4362 -0.1188
 8116SOL     OW35980   1.333   2.807   0.014 -0.1401  0.3069 -0.1080
 8116SOL    HW135981   1.338   2.833   0.106  2.6003 -1.3874  0.2188
 8116SOL    HW235982   1.297   2.887  17.730 -0.6309 -0.0366 -0.3781
 8117SOL     OW35983   0.135   1.854  17.656  0.0631  0.3038  0.6383
 8117SOL    HW135984   0.225   1.823  17.663 -0.1202 -0.2294  0.6728
 8117SOL    HW235985   0.102   1.827  17.742 -0.3353  0.7804  0.6301
 8118SOL     OW35986   3.233   3.125  12.038  0.6091  0.5288 -0.0271
 8118SOL    HW135987   3.297   3.056  12.054 -1.2428 -1.4291 -1.0071
 8118SOL    HW235988   3.154   3.073  12.020  0.1268  0.7948  1.2604
 8119SOL     OW35989   0.684   2.311   3.212 -0.2929 -0.3953 -0.0573
 8119SOL    HW135990   0.606   2.341   3.259 -0.9298 -0.5700 -1.0056
 8119SOL    HW235991   0.711   2.259   3.287  0.5988  0.9057  0.5271
 8120SOL     OW35992   1.292   1.153   8.109 -1.0714  0.2222  0.3269
 8120SOL    HW135993   1.198   1.153   8.126 -0.9835 -1.6881  0.8553
 8120SOL    HW235994   1.326   1.074   8.153  0.1488 -1.0844 -2.9363
 8121SOL     OW35995   3.319   3.363   8.326  0.0117 -0.5384  0.2894
 8121SOL    HW135996   3.331   3.271   8.351  0.7246 -0.4613  0.2311
 8121SOL    HW235997   3.408   3.396   8.312 -0.7267  1.6533  0.8322
 8122SOL     OW35998   2.343   3.126   5.409 -0.0508  0.0304 -0.0577
 8122SOL    HW135999   2.271   3.079   5.451  0.3690  1.1182  1.8786
 8122SOL    HW236000   2.417   3.081   5.449  0.5114 -1.1138 -2.3797
 8123SOL     OW36001   0.689   2.180   8.018  0.1142  0.6072  0.0583
 8123SOL    HW136002   0.775   2.142   8.000  0.3080  1.5310 -0.9546
 8123SOL    HW236003   0.676   2.152   8.108  1.4502  0.2611  0.1370
 8124SOL     OW36004   4.333   1.038  11.614  0.1687 -0.0499  0.1038
 8124SOL    HW136005   4.380   1.057  11.695 -0.0826  1.4818 -0.1118
 8124SOL    HW236006   4.406   1.052  11.553 -0.2638  1.2510 -0.1141
 8125SOL     OW36007   3.892   3.133   5.796  0.0324  0.1965 -0.0644
 8125SOL    HW136008   3.946   3.100   5.724  0.6848 -1.5670  1.2392
 8125SOL    HW236009   3.861   3.219   5.767 -2.2829 -0.5748  0.1661
 8126SOL     OW36010   3.400   1.368   2.112 -0.0660  0.2642 -0.1649
 8126SOL    HW136011   3.491   1.393   2.093  0.7291 -0.5038  2.6149
 8126SOL    HW236012   3.409   1.328   2.198 -1.6105 -1.5297 -0.8465
 8127SOL     OW36013   2.540   3.541   0.905  0.0409 -0.1343  0.3040
 8127SOL    HW136014   2.528   3.636   0.917 -1.4620 -0.2672 -0.0998
 8127SOL    HW236015   2.600   3.539   0.831  2.7123 -4.1831  2.6482
 8128SOL     OW36016   3.452   3.930  11.580  0.1382 -0.2835  0.5036
 8128SOL    HW136017   3.459   4.011  11.530 -2.6155 -1.3990 -1.7202
 8128SOL    HW236018   3.414   3.972  11.658  0.6908  0.5460  0.3211
 8129SOL     OW36019   2.207   0.050   5.940  0.1419  0.1814  0.6706
 8129SOL    HW136020   2.151   0.114   5.985 -0.8786  1.1810 -2.0647
 8129SOL    HW236021   2.190   4.712   5.994 -0.5765 -0.0233  0.1491
 8130SOL     OW36022   3.813   1.157   7.177 -0.0973  0.1323  0.2567
 8130SOL    HW136023   3.865   1.234   7.201 -1.5839  1.6465 -1.3312
 8130SOL    HW236024   3.728   1.194   7.201 -0.5356  0.8839 -2.4798
 8131SOL     OW36025   3.649   3.919  11.318 -0.5611 -0.5354  0.0058
 8131SOL    HW136026   3.656   3.979  11.244  1.0376 -0.2528  0.3795
 8131SOL    HW236027   3.728   3.933  11.371 -0.0553  2.7164 -1.5510
 8132SOL     OW36028   4.505   4.413  10.375 -0.0822 -0.0442 -0.2524
 8132SOL    HW136029   4.522   4.423  10.468  0.9469 -0.7775 -0.3558
 8132SOL    HW236030   4.534   4.500  10.347  1.4525 -1.3973 -2.8500
 8133SOL     OW36031   0.975   4.089   7.590 -0.2838  0.2153  0.0455
 8133SOL    HW136032   0.977   4.185   7.588  2.5741  0.1636 -0.0932
 8133SOL    HW236033   0.915   4.074   7.662  0.1105  0.2973  0.3913
 8134SOL     OW36034   3.508   4.192  11.542 -0.0120  0.6777 -0.1373
 8134SOL    HW136035   3.602   4.206  11.530  0.2195  0.8242  1.7940
 8134SOL    HW236036   3.470   4.264  11.491  0.7981  1.4336  0.3204
 8135SOL     OW36037   3.958   0.256   5.033  0.8142  0.5341 -0.0432
 8135SOL    HW136038   3.979   0.303   5.113 -1.0361  0.9739  0.1954
 8135SOL    HW236039   4.040   0.227   4.993 -0.9931 -1.0249 -2.6174
 8136SOL     OW36040   4.036   0.427   4.424  0.4994 -0.4888 -0.1193
 8136SOL    HW136041   4.014   0.520   4.423 -0.6951 -0.7593  1.1210
 8136SOL    HW236042   4.121   0.441   4.383  0.1002 -0.4142 -0.9326
 8137SOL     OW36043   0.894   2.219   8.954 -0.2250  0.2442  0.0301
 8137SOL    HW136044   0.855   2.133   8.938 -0.4458  0.3845 -0.1817
 8137SOL    HW236045   0.816   2.263   8.988 -0.6627  0.2417 -0.9576
 8138SOL     OW36046   1.594   0.406  12.374  0.2527 -0.9571 -0.4835
 8138SOL    HW136047   1.616   0.494  12.405  1.3417 -0.2879 -3.2136
 8138SOL    HW236048   1.526   0.417  12.308  2.3798 -0.0841 -2.4989
 8139SOL     OW36049   3.222   2.502   6.046 -0.1446 -0.1696  0.0677
 8139SOL    HW136050   3.243   2.438   6.114  0.7297 -0.1361 -0.1632
 8139SOL    HW236051   3.287   2.484   5.978 -1.7812  0.2095 -1.6072
 8140SOL     OW36052   4.488   2.087   5.723  0.5763 -0.1013  0.2017
 8140SOL    HW136053   4.438   2.168   5.730  3.6619  1.7092  1.4178
 8140SOL    HW236054   4.569   2.114   5.766 -0.6467  2.8271  0.6528
 8141SOL     OW36055   1.379   3.973   9.763  0.9695 -0.4368  0.1415
 8141SOL    HW136056   1.413   4.006   9.680 -0.9485 -1.4265 -1.0323
 8141SOL    HW236057   1.370   4.047   9.822 -2.7349 -0.2244 -0.7147
 8142SOL     OW36058   4.722   0.866   4.561  0.3464 -0.2093  0.1663
 8142SOL    HW136059   4.658   0.936   4.567  0.3776 -0.2367  0.9090
 8142SOL    HW236060   4.726   0.837   4.470 -0.1263 -1.8212  0.6635
 8143SOL     OW36061   3.022   4.213   5.853  0.5900 -0.0655 -0.1448
 8143SOL    HW136062   3.107   4.253   5.871  0.5751 -0.6065  1.1191
 8143SOL    HW236063   2.972   4.241   5.929 -0.4321 -1.3881 -0.3338
 8144SOL     OW36064   3.216   1.681   8.609 -0.0379  0.3302  0.2062
 8144SOL    HW136065   3.248   1.648   8.525  1.7143  2.2251  0.1372
 8144SOL    HW236066   3.180   1.762   8.573 -0.4726 -0.1855 -0.5157
 8145SOL     OW36067   3.806   3.612  13.540 -0.4261 -0.1051  0.1784
 8145SOL    HW136068   3.761   3.676  13.486  0.0398  1.4576  1.6479
 8145SOL    HW236069   3.819   3.543  13.475 -2.9849  0.3713 -0.8482
 8146SOL     OW36070   2.589   4.021   6.344 -0.1674  0.3068  0.2912
 8146SOL    HW136071   2.598   3.963   6.269 -1.1187 -2.1768  2.1009
 8146SOL    HW236072   2.660   4.004   6.405  0.7415  1.4054 -0.4455
 8147SOL     OW36073   0.804   2.322   7.789 -0.2483 -0.6015 -0.2871
 8147SOL    HW136074   0.761   2.306   7.874  0.8419 -1.4470  0.1118
 8147SOL    HW236075   0.868   2.389   7.813 -1.9085  0.0544  2.2849
 8148SOL     OW36076   0.882   4.068   5.396  0.2999  0.2403  1.3444
 8148SOL    HW136077   0.822   4.002   5.360  2.2140  0.0408 -1.5153
 8148SOL    HW236078   0.845   4.140   5.346  1.5541 -0.0911 -0.0841
 8149SOL     OW36079   0.044   2.559   4.436 -0.4420 -0.2539 -0.2694
 8149SOL    HW136080   0.038   2.594   4.347  3.5909 -1.4822 -1.0483
 8149SOL    HW236081   0.103   2.627   4.470 -0.4678 -0.9826  1.2216
 8150SOL     OW36082   0.348   4.497   8.508  0.3087  0.0545  0.3383
 8150SOL    HW136083   0.346   4.524   8.600 -2.2680  0.6321  0.1048
 8150SOL    HW236084   0.259   4.497   8.475  0.6289 -2.0914 -0.5393
 8151SOL     OW36085   3.988   1.290   8.441  0.2267  0.1979  0.2071
 8151SOL    HW136086   3.976   1.258   8.531  0.3068  0.2647  0.2414
 8151SOL    HW236087   4.063   1.349   8.442  0.4663 -0.0714 -1.5727
 8152SOL     OW36088   3.937   3.529   9.026 -0.6648 -0.2616 -0.4697
 8152SOL    HW136089   3.931   3.570   8.940  1.7459  2.1268  0.4975
 8152SOL    HW236090   3.848   3.533   9.061 -0.1399 -2.1784  1.0764
 8153SOL     OW36091   1.580   1.461   6.534 -1.0551  0.6763  0.0621
 8153SOL    HW136092   1.538   1.416   6.461 -1.5892 -1.0249  1.4030
 8153SOL    HW236093   1.664   1.483   6.493  0.7988 -1.2067  2.8343
 8154SOL     OW36094   1.363   3.666  17.526  0.2830  0.7649 -0.0159
 8154SOL    HW136095   1.318   3.720  17.461 -1.5561 -0.5303  0.1984
 8154SOL    HW236096   1.290   3.623  17.571  0.2083 -2.4211 -3.1199
 8155SOL     OW36097   4.113   0.266   4.066  0.1426  0.2521  0.1086
 8155SOL    HW136098   4.146   0.197   4.008 -1.8730 -1.3173  0.8402
 8155SOL    HW236099   4.034   0.293   4.020 -0.0125  0.3168  0.4109
 8156SOL     OW36100   0.033   0.583  16.327  0.4431 -0.5586  0.0969
 8156SOL    HW136101   0.007   0.496  16.357 -0.1891 -0.4217 -0.0509
 8156SOL    HW236102   4.698   0.605  16.271 -1.3147 -0.6131  2.3918
 8157SOL     OW36103   1.778   3.024   8.580 -0.1486  0.1694  0.3470
 8157SOL    HW136104   1.809   2.948   8.531 -0.6949 -0.5657  1.1473
 8157SOL    HW236105   1.810   2.999   8.667  3.2762  0.8348 -0.7096
 8158SOL     OW36106   2.326   4.010   9.596 -0.1774  0.0469 -0.0247
 8158SOL    HW136107   2.418   4.029   9.615 -1.0017  3.5054  0.5705
 8158SOL    HW236108   2.290   4.010   9.685 -0.2107 -0.6314 -0.0349
 8159SOL     OW36109   4.485   0.864   9.004 -0.3447  0.4534 -0.0069
 8159SOL    HW136110   4.473   0.817   8.921  1.8516  1.7473 -1.0862
 8159SOL    HW236111   4.569   0.909   8.993 -1.2948  1.6815 -2.2343
 8160SOL     OW36112   3.007   3.731   3.059 -0.2101 -0.3810 -0.1701
 8160SOL    HW136113   2.964   3.797   3.004  1.4515  0.7113 -0.1341
 8160SOL    HW236114   3.020   3.784   3.137  0.3976  1.4386 -1.5122
 8161SOL     OW36115   1.710   0.108   2.796  0.5453  0.1078 -0.2554
 8161SOL    HW136116   1.717   0.014   2.814  5.6715  0.1341 -2.0714
 8161SOL    HW236117   1.618   0.125   2.812  0.7265  0.0300  0.8833
 8162SOL     OW36118   2.215   1.603   7.367 -0.5417  0.2739 -0.0604
 8162SOL    HW136119   2.206   1.674   7.304  0.0893  0.2794 -0.1446
 8162SOL    HW236120   2.224   1.666   7.439  1.0629 -0.1081  0.0750
 8163SOL     OW36121   3.374   2.585   7.084  0.2435 -0.3257 -0.1296
 8163SOL    HW136122   3.423   2.593   7.002 -0.7664  2.5621 -0.4471
 8163SOL    HW236123   3.321   2.663   7.069 -2.4078 -2.0528  0.1366
 8164SOL     OW36124   3.402   1.837   7.474  0.0938 -0.6042 -0.4895
 8164SOL    HW136125   3.478   1.780   7.462  1.4965  0.4532  3.2795
 8164SOL    HW236126   3.341   1.814   7.405  1.1608 -2.6196 -0.7479
 8165SOL     OW36127   1.828   2.509   7.313 -0.0289  0.4194  0.6226
 8165SOL    HW136128   1.837   2.505   7.218  0.0561  0.5625  0.6250
 8165SOL    HW236129   1.766   2.439   7.333 -0.6248  1.2901  1.8058
 8166SOL     OW36130   1.918   1.893  14.381 -0.2290 -0.3587  0.5484
 8166SOL    HW136131   1.980   1.939  14.438 -0.4183  0.6434 -0.0516
 8166SOL    HW236132   1.930   1.800  14.401 -2.2545 -0.2965  2.0665
 8167SOL     OW36133   0.870   1.460   2.410 -0.0773 -0.5732 -0.4059
 8167SOL    HW136134   0.877   1.421   2.323 -0.1267 -1.0799 -0.1839
 8167SOL    HW236135   0.863   1.552   2.385 -3.6372 -0.7572 -0.1395
 8168SOL     OW36136   0.840   0.862   8.576  0.5543 -0.3188 -0.3642
 8168SOL    HW136137   0.905   0.795   8.555  2.1435  0.7269  1.2208
 8168SOL    HW236138   0.821   0.829   8.663  0.4618  0.6744 -0.0098
 8169SOL     OW36139   0.964   1.373   3.470  0.5240  0.2070  0.4008
 8169SOL    HW136140   1.000   1.288   3.496 -2.6093 -1.4706 -0.7913
 8169SOL    HW236141   1.012   1.404   3.394 -0.7377 -1.0350 -0.8908
 8170SOL     OW36142   2.610   3.545   5.925 -0.0769  0.3568 -0.2540
 8170SOL    HW136143   2.572   3.482   5.986  1.0143 -0.2436 -0.1982
 8170SOL    HW236144   2.537   3.607   5.928 -1.4008 -1.1448 -0.9532
 8171SOL     OW36145   3.283   3.124  16.923  0.0057  0.8447  0.6318
 8171SOL    HW136146   3.248   3.180  16.854  0.4137  0.1080 -0.1637
 8171SOL    HW236147   3.318   3.049  16.876  0.4574  0.8610  0.9419
 8172SOL     OW36148   0.105   3.295   7.620  0.0598 -0.0122  0.6750
 8172SOL    HW136149   0.119   3.331   7.532  0.4642  1.3342  1.2925
 8172SOL    HW236150   0.169   3.225   7.632 -0.0907 -0.3630 -0.5071
 8173SOL     OW36151   3.102   3.893   5.592  0.0633  0.2027 -0.1687
 8173SOL    HW136152   3.142   3.839   5.660 -0.5962  0.9320  0.8084
 8173SOL    HW236153   3.167   3.953   5.554 -0.3810 -0.9150 -2.7152
 8174SOL     OW36154   2.099   1.571   1.559 -0.0259  0.6444 -0.6659
 8174SOL    HW136155   2.135   1.589   1.646 -1.9638  0.3555  0.1925
 8174SOL    HW236156   2.012   1.610   1.567 -0.3750 -0.2680 -0.0180
 8175SOL     OW36157   2.460   3.597   9.406 -0.1724  0.2488  0.5930
 8175SOL    HW136158   2.451   3.542   9.484  1.9674 -1.2208 -0.2051
 8175SOL    HW236159   2.376   3.642   9.410  0.3174  1.1217  1.0115
 8176SOL     OW36160   4.460   3.613  16.028 -0.3259 -0.3981  0.1977
 8176SOL    HW136161   4.549   3.584  16.051 -0.6464 -0.7460  1.0243
 8176SOL    HW236162   4.446   3.686  16.089 -0.0459  0.4938 -0.8157
 8177SOL     OW36163   0.295   0.078   7.099  0.1141 -0.3447 -0.4544
 8177SOL    HW136164   0.228   0.017   7.068 -1.4661  0.5351  1.2007
 8177SOL    HW236165   0.239   0.137   7.149 -0.3749 -2.4509  1.5005
 8178SOL     OW36166   2.908   2.479   4.921 -0.2428  0.0256  0.4697
 8178SOL    HW136167   2.828   2.427   4.915  0.9312 -1.7634  0.3988
 8178SOL    HW236168   2.965   2.437   4.985  0.0268  1.4385  1.1580
 8179SOL     OW36169   0.325   2.740   5.182  0.0912 -0.3536 -0.3197
 8179SOL    HW136170   0.369   2.656   5.197 -0.4477 -0.6901 -0.6118
 8179SOL    HW236171   0.323   2.758   5.088 -1.2568  1.7972  0.1104
 8180SOL     OW36172   1.899   2.200  12.314 -0.3353 -0.3691  0.1370
 8180SOL    HW136173   1.821   2.255  12.324 -0.0578  0.5009 -2.4666
 8180SOL    HW236174   1.912   2.173  12.405  1.6453  0.5213  0.1046
 8181SOL     OW36175   3.003   0.177   4.344  0.7736  0.4366  0.0628
 8181SOL    HW136176   2.980   0.161   4.436 -0.1103 -0.2975 -0.2842
 8181SOL    HW236177   2.949   0.253   4.322 -0.1812 -0.0596  0.6686
 8182SOL     OW36178   1.680   4.043   5.279  0.1495 -0.3973  0.5132
 8182SOL    HW136179   1.760   4.071   5.235 -0.8469 -0.6367 -1.4541
 8182SOL    HW236180   1.709   3.964   5.325  1.5753  0.3543  0.9117
 8183SOL     OW36181   2.157   0.794   4.204 -0.1893  0.7178 -0.0741
 8183SOL    HW136182   2.219   0.784   4.277  0.1992 -3.0520 -0.9734
 8183SOL    HW236183   2.208   0.790   4.123 -2.4156  3.9918 -1.6484
 8184SOL     OW36184   2.087   4.645   1.181  0.4127  0.2537 -0.5209
 8184SOL    HW136185   2.120   4.713   1.240 -0.0920  0.9663 -1.0615
 8184SOL    HW236186   2.159   4.656   1.118  1.1133  2.5553  0.6635
 8185SOL     OW36187   4.476   1.928  13.820 -0.0829 -0.6133 -0.1898
 8185SOL    HW136188   4.403   1.975  13.781 -1.1614 -0.7917  1.5732
 8185SOL    HW236189   4.555   1.977  13.797  0.0282  1.0493  3.7696
 8186SOL     OW36190   1.250   3.074   3.009 -0.4574  0.4062 -0.1108
 8186SOL    HW136191   1.195   3.022   2.951  1.6937 -1.5297 -0.3820
 8186SOL    HW236192   1.191   3.149   3.021 -2.6303 -1.4413  0.5781
 8187SOL     OW36193   2.204   1.482   2.747  0.0278  0.2830  0.4498
 8187SOL    HW136194   2.207   1.424   2.671  1.2753 -0.7890  1.3039
 8187SOL    HW236195   2.229   1.418   2.814  1.0250  2.1422  1.8801
 8188SOL     OW36196   1.121   3.490  15.532  0.3500 -0.1916  0.1496
 8188SOL    HW136197   1.081   3.424  15.475 -0.9605  0.9008 -0.1908
 8188SOL    HW236198   1.049   3.552  15.542  1.3328  0.4361  3.2937
 8189SOL     OW36199   2.555   0.056  10.113  0.1355 -0.0013 -0.2496
 8189SOL    HW136200   2.638   0.037  10.157 -0.9974 -0.8475  1.5426
 8189SOL    HW236201   2.509   4.726  10.163  0.2265  0.1014 -0.0228
 8190SOL     OW36202   1.273   2.190   8.194  0.1943 -0.0449 -0.1232
 8190SOL    HW136203   1.321   2.123   8.242  0.2306  0.0464 -0.0315
 8190SOL    HW236204   1.310   2.173   8.108 -1.6263 -0.0527 -0.9067
 8191SOL     OW36205   4.224   1.261  11.200  0.1889 -0.2403  0.0105
 8191SOL    HW136206   4.142   1.230  11.162  0.0236 -1.3609  1.2538
 8191SOL    HW236207   4.188   1.334  11.251 -1.3793 -1.3908  0.5477
 8192SOL     OW36208   3.719   3.414   5.040  0.0307  0.5310 -0.6418
 8192SOL    HW136209   3.814   3.417   5.028 -0.0931  1.6221 -1.3634
 8192SOL    HW236210   3.709   3.508   5.056  1.5420  0.8846 -1.7320
 8193SOL     OW36211   4.550   1.555   6.693 -0.2016 -0.3983  0.1541
 8193SOL    HW136212   4.644   1.537   6.685 -1.0112 -2.8272 -4.0232
 8193SOL    HW236213   4.513   1.502   6.622 -0.7320  1.0045 -0.6179
 8194SOL     OW36214   2.833   1.563   7.797  0.1931 -0.5942  0.1463
 8194SOL    HW136215   2.739   1.545   7.806 -0.4680  2.9679  0.4701
 8194SOL    HW236216   2.845   1.600   7.885 -0.7529  0.0629  0.0062
 8195SOL     OW36217   1.871   2.872   2.537  0.4792  0.6764 -0.4603
 8195SOL    HW136218   1.885   2.867   2.632  0.2410 -0.2230 -0.4709
 8195SOL    HW236219   1.878   2.779   2.518 -2.3316  0.7283 -1.6190
 8196SOL     OW36220   2.024   4.022   8.948 -0.5073  0.7349 -0.1156
 8196SOL    HW136221   2.059   4.068   8.872 -0.1272 -0.3822 -0.6151
 8196SOL    HW236222   2.090   4.029   9.016  0.4985 -0.7790 -0.9393
 8197SOL     OW36223   3.969   2.843   5.397 -0.1315 -0.2082  0.5908
 8197SOL    HW136224   4.043   2.820   5.452  1.6826  1.0035 -1.3468
 8197SOL    HW236225   3.981   2.937   5.383 -2.2873  0.0908  0.6693
 8198SOL     OW36226   1.077   0.892   1.553  0.0920  0.2957  0.5724
 8198SOL    HW136227   1.089   0.812   1.501  0.1643 -0.5809  1.9256
 8198SOL    HW236228   1.091   0.965   1.493 -4.3990  0.1666 -0.6074
 8199SOL     OW36229   1.695   1.647   8.389 -0.0972 -0.4204  0.4565
 8199SOL    HW136230   1.651   1.627   8.307 -1.5138 -0.1492  1.1636
 8199SOL    HW236231   1.629   1.690   8.443 -2.1405 -0.2245 -2.1956
 8200SOL     OW36232   4.555   2.450   7.786 -0.0189 -0.6381  0.1531
 8200SOL    HW136233   4.477   2.415   7.742 -1.2351  0.6588  1.2770
 8200SOL    HW236234   4.631   2.409   7.745  1.2705  1.0827  0.8480
 8201SOL     OW36235   0.772   2.303   0.349  0.7622 -0.0568 -0.1185
 8201SOL    HW136236   0.707   2.280   0.415 -1.7817 -0.8557 -2.8822
 8201SOL    HW236237   0.788   2.395   0.368  0.3365  0.0463 -0.2580
 8202SOL     OW36238   3.398   1.062   6.935  0.1974 -0.6599 -0.0002
 8202SOL    HW136239   3.404   1.037   6.843 -1.3457 -0.4890 -0.1409
 8202SOL    HW236240   3.490   1.077   6.959 -0.6168  2.6607  1.0560
 8203SOL     OW36241   1.312   0.840   7.515  0.7052  0.0293  0.1779
 8203SOL    HW136242   1.258   0.917   7.501 -1.9821 -1.7587  0.8302
 8203SOL    HW236243   1.329   0.820   7.423  0.0613  3.0920 -0.5727
 8204SOL     OW36244   0.209   1.253   0.949 -0.1368  0.6746 -0.1145
 8204SOL    HW136245   0.175   1.303   1.023  1.6198  1.3063  0.2604
 8204SOL    HW236246   0.270   1.314   0.909  0.1043 -0.2450 -1.1515
 8205SOL     OW36247   0.322   2.583  11.947  0.7328 -0.1258 -0.4823
 8205SOL    HW136248   0.285   2.659  11.993 -0.9092 -1.0880 -0.2049
 8205SOL    HW236249   0.300   2.605  11.856 -0.1159  3.5086  0.5738
 8206SOL     OW36250   0.094   0.115   8.254 -0.7583 -0.3864 -0.4092
 8206SOL    HW136251   0.045   0.067   8.187 -1.1773  2.2635 -1.9756
 8206SOL    HW236252   0.028   0.150   8.314  1.4382  1.3992  0.9587
 8207SOL     OW36253   2.478   4.366   2.918 -0.1995 -0.5585  0.1017
 8207SOL    HW136254   2.481   4.425   2.843  1.8449 -1.1790 -0.2995
 8207SOL    HW236255   2.526   4.422   2.979  1.0197  0.2109 -1.5969
 8208SOL     OW36256   0.525   2.153   3.960  0.0652  0.0023  0.3580
 8208SOL    HW136257   0.506   2.233   3.911  2.0122 -0.1162 -0.5754
 8208SOL    HW236258   0.511   2.084   3.895  1.8469  1.5092 -1.6590
 8209SOL     OW36259   4.472   1.107   7.592  0.1574 -0.4554  0.0472
 8209SOL    HW136260   4.471   1.202   7.603 -0.5884 -0.5225  0.5654
 8209SOL    HW236261   4.402   1.099   7.528  0.6073 -1.8341 -0.2564
 8210SOL     OW36262   3.346   2.569   4.974 -0.2323  0.4694 -0.0876
 8210SOL    HW136263   3.386   2.610   5.051 -0.0117 -0.6064  0.3763
 8210SOL    HW236264   3.260   2.543   5.007  0.1671 -1.4912 -0.5947
 8211SOL     OW36265   3.877   2.868   7.480  0.2392  0.2015 -0.4105
 8211SOL    HW136266   3.900   2.931   7.549 -1.6066 -0.1029  0.4826
 8211SOL    HW236267   3.896   2.923   7.404  0.6171 -0.0559 -0.5018
 8212SOL     OW36268   4.129   2.594  10.587  0.1369 -0.0249 -0.2852
 8212SOL    HW136269   4.090   2.507  10.597  1.0049 -0.4367 -0.4835
 8212SOL    HW236270   4.096   2.646  10.661  0.9500 -1.0888  0.8205
 8213SOL     OW36271   2.322   2.288   3.052  0.0382 -0.2570  0.4253
 8213SOL    HW136272   2.255   2.313   2.988 -0.2396 -1.6713  0.1688
 8213SOL    HW236273   2.277   2.309   3.134 -0.0553 -0.9821  0.5570
 8214SOL     OW36274   3.345   1.343   3.279  0.4394 -0.6691  0.3035
 8214SOL    HW136275   3.361   1.425   3.324 -2.4574  0.7282 -1.2092
 8214SOL    HW236276   3.250   1.336   3.289  0.3293  1.3164  0.6853
 8215SOL     OW36277   2.948   1.425  13.656  0.2259 -0.8551 -0.4157
 8215SOL    HW136278   2.979   1.492  13.716 -0.5666 -0.5990 -0.2868
 8215SOL    HW236279   2.965   1.467  13.571 -0.0302 -0.7462 -0.4132
 8216SOL     OW36280   1.681   1.743   3.955 -0.1561 -0.0113 -0.5362
 8216SOL    HW136281   1.719   1.696   3.881 -2.3739 -3.4901  0.5665
 8216SOL    HW236282   1.720   1.830   3.947  1.8515 -0.8382  0.3322
 8217SOL     OW36283   1.871   0.107   8.300  0.0764 -0.5565  0.2073
 8217SOL    HW136284   1.844   0.132   8.212  0.1422  0.2886  0.4252
 8217SOL    HW236285   1.947   0.050   8.289  1.8837  2.2880 -1.8784
 8218SOL     OW36286   3.778   1.084   8.060  0.4273  0.7442  0.2288
 8218SOL    HW136287   3.785   0.995   8.094 -0.9383  0.0407 -1.3078
 8218SOL    HW236288   3.740   1.144   8.124 -0.8872  0.1017  0.0427
 8219SOL     OW36289   4.233   2.611   0.576 -0.2184 -0.0655  0.6469
 8219SOL    HW136290   4.185   2.615   0.659  0.8255  2.4179  1.1359
 8219SOL    HW236291   4.173   2.614   0.502 -0.5055 -1.0540  0.8399
 8220SOL     OW36292   0.161   0.245   0.843  0.0991  0.5078 -0.0134
 8220SOL    HW136293   0.092   0.216   0.903 -1.4814  0.7200 -1.7050
 8220SOL    HW236294   0.151   0.340   0.851 -1.2851  0.4012 -0.4025
 8221SOL     OW36295   0.004   1.828   6.941  0.4492 -0.5116  0.1605
 8221SOL    HW136296   4.666   1.775   6.962 -0.3330  0.7528  0.5161
 8221SOL    HW236297   0.073   1.763   6.936  1.7563  0.9269 -0.4497
 8222SOL     OW36298   4.402   3.520   6.733  0.2070 -0.3164  0.0338
 8222SOL    HW136299   4.448   3.470   6.801  0.1903  0.9054  0.9307
 8222SOL    HW236300   4.442   3.606   6.731  0.9797 -0.6696  0.3170
 8223SOL     OW36301   2.822   1.668   8.093  0.3091 -0.0771 -0.1988
 8223SOL    HW136302   2.790   1.578   8.100 -1.6774  0.5496 -1.1258
 8223SOL    HW236303   2.760   1.715   8.148  0.3320 -0.7337  0.3943
 8224SOL     OW36304   2.743   2.084   9.503 -0.0761 -0.5321 -0.0124
 8224SOL    HW136305   2.702   2.159   9.459 -1.1957 -1.1607 -0.0458
 8224SOL    HW236306   2.803   2.052   9.435 -0.0211 -1.2829  0.3907
 8225SOL     OW36307   1.558   2.533  13.402 -0.3982 -0.1152  0.2268
 8225SOL    HW136308   1.474   2.508  13.441 -0.4481 -0.6480 -0.2152
 8225SOL    HW236309   1.594   2.447  13.379 -2.0789 -0.5306 -0.8947
 8226SOL     OW36310   3.914   3.430   7.645 -0.2133 -0.5022 -0.2353
 8226SOL    HW136311   3.840   3.385   7.685 -1.7317  0.5987 -1.8081
 8226SOL    HW236312   3.918   3.504   7.706  0.8433 -0.0596 -0.8321
 8227SOL     OW36313   1.379   1.861   5.206 -0.2649 -0.0121 -0.4117
 8227SOL    HW136314   1.297   1.874   5.254  0.5223  1.6662  0.4576
 8227SOL    HW236315   1.395   1.943   5.159  1.7633  1.6740  3.2749
 8228SOL     OW36316   3.370   3.676  16.747 -0.3619 -0.2737  0.0668
 8228SOL    HW136317   3.426   3.619  16.695 -4.0517 -2.0514 -1.9763
 8228SOL    HW236318   3.323   3.713  16.672  1.1567  0.3750 -0.5668
 8229SOL     OW36319   3.843   2.573   9.458 -0.7718 -0.3618  0.1197
 8229SOL    HW136320   3.839   2.567   9.554  0.7565 -2.2407  0.0708
 8229SOL    HW236321   3.756   2.549   9.428 -1.6099 -0.3706  2.5496
 8230SOL     OW36322   4.634   0.226   4.820  0.5844 -0.4347 -0.2821
 8230SOL    HW136323   4.567   0.221   4.752  2.7017 -3.4660 -2.1320
 8230SOL    HW236324   4.717   0.226   4.771  1.1340 -4.0827  0.6824
 8231SOL     OW36325   1.150   4.237   0.970  0.4441 -0.2744  0.2717
 8231SOL    HW136326   1.209   4.169   1.000  1.4497 -0.2782 -1.7417
 8231SOL    HW236327   1.205   4.271   0.900  0.5177  2.7600  1.7546
 8232SOL     OW36328   2.598   3.022   2.023 -0.0190  0.3256  0.0514
 8232SOL    HW136329   2.530   3.014   1.955  0.1933 -0.3879 -0.0770
 8232SOL    HW236330   2.659   3.081   1.979  0.1303  1.4664  1.7754
 8233SOL     OW36331   2.834   1.686  12.204 -0.4414  0.5531  0.4721
 8233SOL    HW136332   2.805   1.759  12.149  0.0022  0.9744  0.7943
 8233SOL    HW236333   2.915   1.721  12.242 -1.2802  3.9652 -0.9104
 8234SOL     OW36334   2.080   2.788   3.274 -0.9009 -0.4387  0.4407
 8234SOL    HW136335   2.111   2.878   3.281 -0.7557 -0.3895 -0.8587
 8234SOL    HW236336   1.993   2.784   3.314 -0.2802  0.1573  1.8465
 8235SOL     OW36337   2.711   3.730   5.140  0.0233 -0.0731 -0.3754
 8235SOL    HW136338   2.800   3.694   5.141 -0.0727 -0.3060 -0.3213
 8235SOL    HW236339   2.691   3.714   5.048 -0.7495 -1.5211  0.0444
 8236SOL     OW36340   3.852   0.588   2.055  0.2672 -0.0447 -0.1065
 8236SOL    HW136341   3.869   0.655   1.989  1.3323 -1.2430 -1.0463
 8236SOL    HW236342   3.940   0.557   2.079 -0.0499 -0.1502  0.8880
 8237SOL     OW36343   1.007   0.761   3.094 -0.1719 -0.7565 -0.2894
 8237SOL    HW136344   1.024   0.740   3.186 -0.8171  0.4064  0.1036
 8237SOL    HW236345   1.015   0.677   3.050  2.6398 -0.1989 -0.8477
 8238SOL     OW36346   1.679   2.627   3.591  0.3187  0.0758 -0.6120
 8238SOL    HW136347   1.616   2.585   3.533 -0.7445  1.7230 -0.6440
 8238SOL    HW236348   1.710   2.543   3.624  0.8878  1.0877  1.4499
 8239SOL     OW36349   1.151   4.674  11.823 -0.5847 -0.1402  0.0257
 8239SOL    HW136350   1.217   4.606  11.834  1.9165  2.2725 -0.1142
 8239SOL    HW236351   1.186   0.011  11.869 -3.3343  0.9147  0.3963
 8240SOL     OW36352   2.141   2.019   7.174 -0.3072 -0.0365 -0.3959
 8240SOL    HW136353   2.080   2.091   7.188  0.0692 -0.1524  1.7607
 8240SOL    HW236354   2.216   2.073   7.151  0.4722  1.6740  6.0627
 8241SOL     OW36355   0.284   0.036   9.864  1.3821  0.1577 -0.1882
 8241SOL    HW136356   0.372   0.005   9.883  1.8478  2.1002  0.8403
 8241SOL    HW236357   0.239   0.021   9.947 -1.1301  2.1726 -1.1584
 8242SOL     OW36358   3.432   0.845  15.243  0.1811 -0.0467  0.3905
 8242SOL    HW136359   3.448   0.772  15.184 -0.7031  1.6293 -1.9042
 8242SOL    HW236360   3.520   0.836  15.280  1.0209 -0.4659 -1.6996
 8243SOL     OW36361   2.524   1.863  12.310 -0.9084  0.0131 -0.5485
 8243SOL    HW136362   2.468   1.882  12.385  0.9967  1.8694  0.3913
 8243SOL    HW236363   2.610   1.883  12.347 -1.6855  2.7884 -0.2147
 8244SOL     OW36364   1.545   1.727   4.732  0.2711 -0.7598 -0.8207
 8244SOL    HW136365   1.491   1.670   4.787 -1.3087  0.3451 -1.2241
 8244SOL    HW236366   1.476   1.793   4.730  2.0741  1.1419  0.3302
 8245SOL     OW36367   0.297   1.402  15.479  0.1803  0.1782 -0.1411
 8245SOL    HW136368   0.379   1.425  15.521  0.9577  0.3220 -1.7450
 8245SOL    HW236369   0.292   1.465  15.407 -1.7635  0.2553  0.0552
 8246SOL     OW36370   3.329   2.095   9.228 -0.2224  0.3384  0.1760
 8246SOL    HW136371   3.257   2.157   9.216  2.0777  3.3363  2.0165
 8246SOL    HW236372   3.324   2.094   9.323  3.2307 -1.1299  0.3428
 8247SOL     OW36373   0.982   1.094   5.256  0.5867  0.4434 -0.4159
 8247SOL    HW136374   1.019   1.010   5.228  1.2528  0.6497 -0.1581
 8247SOL    HW236375   0.894   1.094   5.219  0.2846 -0.2001  0.3079
 8248SOL     OW36376   1.459   1.387   1.095 -1.1546  0.1282  0.1383
 8248SOL    HW136377   1.474   1.415   1.005 -2.3770  0.1357 -0.0620
 8248SOL    HW236378   1.444   1.295   1.077 -0.7117  0.1840 -0.5044
 8249SOL     OW36379   1.436   0.151  13.344 -0.2318 -0.3009 -0.2074
 8249SOL    HW136380   1.409   0.152  13.435  3.3657  0.7904  0.8406
 8249SOL    HW236381   1.484   0.233  13.335 -0.1523 -0.2178  1.0728
 8250SOL     OW36382   2.175   3.259   9.957 -0.4749  0.1761  0.6523
 8250SOL    HW136383   2.093   3.233   9.999 -0.2721 -0.7471  0.4663
 8250SOL    HW236384   2.235   3.221  10.022  0.1769 -2.7599 -1.6867
 8251SOL     OW36385   0.771   0.024   7.119 -0.0420 -0.3119 -0.2338
 8251SOL    HW136386   0.739   0.058   7.035 -0.9347  1.0376  0.6703
 8251SOL    HW236387   0.808   4.679   7.091  1.0298 -0.3956  1.4968
 8252SOL     OW36388   0.220   1.074  14.600 -0.7127 -0.0299  0.2147
 8252SOL    HW136389   0.191   1.017  14.672  2.6209 -0.9828  0.8031
 8252SOL    HW236390   0.310   1.042  14.600 -0.2028  1.4277  0.6441
 8253SOL     OW36391   2.255   1.810   5.290  0.3654 -0.4920  0.2216
 8253SOL    HW136392   2.260   1.742   5.357  0.9708 -0.7132 -0.0519
 8253SOL    HW236393   2.337   1.802   5.243  0.7739  1.0109  0.6818
 8254SOL     OW36394   4.461   0.429   2.121  0.0902 -0.9755 -0.2391
 8254SOL    HW136395   4.474   0.464   2.033 -0.1479  1.1890  0.6120
 8254SOL    HW236396   4.542   0.459   2.162 -0.3827  0.0083 -0.0503
 8255SOL     OW36397   1.006   3.136   6.211 -0.4108 -0.1848 -0.9319
 8255SOL    HW136398   0.911   3.141   6.201 -0.8224 -0.9334  2.5171
 8255SOL    HW236399   1.025   3.066   6.149  1.2823 -0.2525 -0.3311
 8256SOL     OW36400   2.765   2.327  17.493 -0.1018 -0.2531  0.2685
 8256SOL    HW136401   2.671   2.332  17.513  0.4047  0.1999  2.5547
 8256SOL    HW236402   2.800   2.405  17.536  0.0210  0.7671 -1.7001
 8257SOL     OW36403   1.613   0.567   8.006 -0.2175 -0.7788  0.4938
 8257SOL    HW136404   1.580   0.477   7.994  2.0296 -1.4735 -0.5244
 8257SOL    HW236405   1.604   0.557   8.101 -1.7633  1.2194  0.5519
 8258SOL     OW36406   4.170   2.301  17.403  0.3628  0.1709 -0.0083
 8258SOL    HW136407   4.203   2.232  17.461  2.0132  0.3649 -0.7135
 8258SOL    HW236408   4.167   2.370  17.469 -1.1010 -0.9432  1.0941
 8259SOL     OW36409   2.848   3.059   8.421  0.1450 -0.1476 -0.6340
 8259SOL    HW136410   2.843   3.145   8.463 -1.3624 -1.0701  1.0287
 8259SOL    HW236411   2.827   3.086   8.331  0.5094  1.0184 -0.3658
 8260SOL     OW36412   0.036   3.426   7.224  0.0415  0.6380  0.3819
 8260SOL    HW136413   0.127   3.452   7.233 -0.1019  1.0508  0.6323
 8260SOL    HW236414   0.006   3.473   7.146  0.5413  1.0481  0.4391
 8261SOL     OW36415   0.428   0.433   5.763 -0.0665 -0.3216  0.1296
 8261SOL    HW136416   0.511   0.423   5.809  0.7563 -0.7297 -1.4257
 8261SOL    HW236417   0.384   0.501   5.814 -2.7459 -1.2688 -0.9526
 8262SOL     OW36418   1.135   1.025  13.969  0.3290  0.3997 -0.1008
 8262SOL    HW136419   1.060   0.980  14.006 -0.7857  1.9658 -0.4673
 8262SOL    HW236420   1.185   0.950  13.937 -3.8625 -2.8676  1.0031
 8263SOL     OW36421   3.742   3.121  11.201 -0.0138 -0.2301 -0.0421
 8263SOL    HW136422   3.750   3.085  11.289 -0.1579 -0.3888 -0.0931
 8263SOL    HW236423   3.704   3.207  11.214 -0.6179 -0.3996 -0.6542
 8264SOL     OW36424   3.487   0.127   5.574 -0.1023 -0.5318 -0.0836
 8264SOL    HW136425   3.402   0.154   5.609  0.6447  1.4476  0.2029
 8264SOL    HW236426   3.473   0.128   5.479  0.3849 -1.3976 -0.1548
 8265SOL     OW36427   0.457   3.767  16.918 -0.1529 -0.1709  0.0070
 8265SOL    HW136428   0.450   3.849  16.968 -1.4246 -1.1509  1.4169
 8265SOL    HW236429   0.501   3.798  16.838 -0.3967 -1.4464 -0.6184
 8266SOL     OW36430   4.063   1.148   4.500 -0.0311 -0.2755 -0.6667
 8266SOL    HW136431   3.991   1.142   4.437 -2.6242 -1.7265  2.4112
 8266SOL    HW236432   4.128   1.187   4.442  1.2565 -2.2281 -0.5045
 8267SOL     OW36433   4.336   2.323   0.863 -0.2522 -0.0986 -0.3002
 8267SOL    HW136434   4.337   2.412   0.900 -2.2222  0.9431 -2.7262
 8267SOL    HW236435   4.266   2.350   0.803 -1.2047  1.4816  1.5044
 8268SOL     OW36436   2.606   1.789   2.226  0.2002  0.1750 -0.6560
 8268SOL    HW136437   2.585   1.842   2.304  0.5579  0.4808 -0.7673
 8268SOL    HW236438   2.684   1.741   2.253  1.0123  1.0986 -1.3595
 8269SOL     OW36439   0.879   2.184   6.281 -0.0659 -0.3567  0.1523
 8269SOL    HW136440   0.930   2.188   6.362 -0.9156 -0.5281  0.6972
 8269SOL    HW236441   0.840   2.096   6.286  0.3561 -0.5434  0.1070
 8270SOL     OW36442   0.033   1.578   9.935  0.0553  0.1841 -0.3474
 8270SOL    HW136443   4.689   1.534   9.921 -0.9698  2.0674 -0.2533
 8270SOL    HW236444   0.005   1.667   9.959  0.3121  0.3677 -0.7340
 8271SOL     OW36445   0.813   0.193   3.249 -0.5744 -0.4475  0.0612
 8271SOL    HW136446   0.791   0.204   3.341  0.1954 -1.9911  0.4111
 8271SOL    HW236447   0.873   0.119   3.247  0.7339  0.6410 -1.0820
 8272SOL     OW36448   1.050   3.800  12.280 -0.0736 -0.1381  0.2141
 8272SOL    HW136449   0.994   3.772  12.351 -0.4719  0.1592  0.0161
 8272SOL    HW236450   1.133   3.831  12.316  0.1070 -1.6610  1.0958
 8273SOL     OW36451   1.220   1.942   6.506  0.5936  0.7363 -0.0392
 8273SOL    HW136452   1.290   1.881   6.483 -1.1938 -0.5976 -1.8843
 8273SOL    HW236453   1.138   1.895   6.496  0.5334  0.3216  2.5242
 8274SOL     OW36454   4.668   2.034   4.579  0.2919  0.0798 -0.1915
 8274SOL    HW136455   4.733   2.028   4.649  0.8642 -0.3003 -0.7621
 8274SOL    HW236456   4.693   2.116   4.536 -0.5492  1.2617  1.5549
 8275SOL     OW36457   1.039   0.592   7.826  0.8032  0.1607  0.2179
 8275SOL    HW136458   1.119   0.635   7.859  0.9019 -0.2779  0.5542
 8275SOL    HW236459   0.981   0.654   7.870  2.6540 -0.1023  3.0466
 8276SOL     OW36460   4.738   3.150  11.371 -0.0539  0.3509  0.5856
 8276SOL    HW136461   0.009   3.150  11.467  2.8815 -3.6432  0.2963
 8276SOL    HW236462   4.707   3.239  11.358 -1.7534  0.0287  2.5228
 8277SOL     OW36463   1.738   0.822  11.744  0.4044 -0.3382  0.1014
 8277SOL    HW136464   1.653   0.786  11.717  1.0316 -1.9700  0.3187
 8277SOL    HW236465   1.778   0.846  11.661  1.1654  0.5658  0.7311
 8278SOL     OW36466   1.035   1.311  14.933  0.3660  0.0115 -0.4723
 8278SOL    HW136467   1.113   1.303  14.879  1.7027 -1.7148  1.6957
 8278SOL    HW236468   1.038   1.235  14.991  0.5512 -0.9786 -1.7913
 8279SOL     OW36469   0.984   0.597  11.149 -0.0873 -0.2322  0.1952
 8279SOL    HW136470   1.068   0.624  11.111 -0.0539 -0.4766  0.1016
 8279SOL    HW236471   1.009   0.617  11.239 -0.0359  0.8550 -0.0574
 8280SOL     OW36472   1.848   2.780   7.062  0.3286  0.2098 -0.4111
 8280SOL    HW136473   1.833   2.828   6.981  0.9610  1.0550 -0.0387
 8280SOL    HW236474   1.782   2.811   7.124  0.7294  0.5540 -0.1543
 8281SOL     OW36475   3.752   4.270   7.880 -0.3655 -0.3989 -0.5564
 8281SOL    HW136476   3.677   4.272   7.939  1.5573  2.0653  1.8185
 8281SOL    HW236477   3.828   4.270   7.939 -0.7928  0.0648 -0.0050
 8282SOL     OW36478   4.411   1.373   7.451  0.4362  0.1372 -0.1247
 8282SOL    HW136479   4.430   1.461   7.483  1.4641 -0.8086  1.8812
 8282SOL    HW236480   4.502   1.355   7.426  0.4132 -1.0301  0.6497
 8283SOL     OW36481   3.413   2.771  17.613 -0.1796  0.3260  0.2794
 8283SOL    HW136482   3.369   2.747  17.695 -0.8707  2.0483  0.4158
 8283SOL    HW236483   3.433   2.689  17.569 -1.5607  0.4950 -0.6824
 8284SOL     OW36484   1.631   0.605   6.498 -0.5027  0.1117 -0.2438
 8284SOL    HW136485   1.604   0.694   6.519 -0.7579 -0.1978  0.7041
 8284SOL    HW236486   1.718   0.629   6.466 -0.4779 -1.0892 -1.1144
 8285SOL     OW36487   3.379   1.480  10.065  0.0793  0.7107  0.3123
 8285SOL    HW136488   3.402   1.413  10.000 -0.4453  1.3177 -0.5011
 8285SOL    HW236489   3.375   1.561  10.014  0.2286  0.5032 -0.0288
 8286SOL     OW36490   4.389   0.203   2.226 -0.0225  0.3698  0.4167
 8286SOL    HW136491   4.362   0.174   2.138  0.3059 -0.1979  0.5041
 8286SOL    HW236492   4.417   0.290   2.199 -0.1082  0.5821  1.0244
 8287SOL     OW36493   1.011   3.270   3.657 -0.1365 -0.0236 -0.5104
 8287SOL    HW136494   1.038   3.332   3.726  0.1072 -0.1695 -0.4767
 8287SOL    HW236495   0.922   3.304   3.652 -0.4315 -0.7823 -0.3679
 8288SOL     OW36496   0.087   4.411   0.684 -0.1780 -0.3212  0.3351
 8288SOL    HW136497   0.124   4.484   0.734  0.5949 -0.2923 -0.2862
 8288SOL    HW236498   0.144   4.336   0.702  1.8445  1.0053 -0.5269
 8289SOL     OW36499   1.132   1.226  16.153  0.1554  0.8857 -0.3929
 8289SOL    HW136500   1.221   1.208  16.123 -0.2674 -0.9777 -0.5392
 8289SOL    HW236501   1.118   1.316  16.124 -1.5194  0.2124 -1.6969
 8290SOL     OW36502   0.580   3.258   6.318 -0.0804  0.1791 -0.2420
 8290SOL    HW136503   0.627   3.183   6.354 -0.2574  0.3544  0.3559
 8290SOL    HW236504   0.617   3.265   6.230  0.3131 -1.3626 -0.1949
 8291SOL     OW36505   4.016   0.688   8.006  0.1398  0.4558 -0.1808
 8291SOL    HW136506   4.047   0.608   8.047 -0.9976 -0.2934 -0.7682
 8291SOL    HW236507   4.047   0.755   8.066  0.5566  0.1083 -0.0155
 8292SOL     OW36508   1.788   2.139   2.818 -0.0013  0.5084  0.0692
 8292SOL    HW136509   1.815   2.211   2.876 -1.9473  0.5124  0.9718
 8292SOL    HW236510   1.707   2.115   2.863  2.1483  0.6800  4.0614
 8293SOL     OW36511   4.067   4.002   7.241 -0.3463 -0.2787  0.1692
 8293SOL    HW136512   4.159   3.982   7.220 -0.0501  1.9576 -0.6599
 8293SOL    HW236513   4.064   4.096   7.222 -0.5320 -0.4446 -0.6303
 8294SOL     OW36514   4.281   1.785   1.489  0.0332 -0.0819 -0.2621
 8294SOL    HW136515   4.228   1.707   1.510 -0.1285  0.8717  2.7694
 8294SOL    HW236516   4.304   1.769   1.397  0.5150 -0.2718 -0.1067
 8295SOL     OW36517   3.425   4.251   8.612 -0.0210  0.2096  0.0224
 8295SOL    HW136518   3.449   4.334   8.652 -0.6709  0.8949 -1.0136
 8295SOL    HW236519   3.443   4.207   8.695  0.7055 -0.8104 -0.6675
 8296SOL     OW36520   0.314   4.581   4.757  0.6034 -0.7127  0.1945
 8296SOL    HW136521   0.242   4.639   4.730 -1.5951 -2.3980  2.4529
 8296SOL    HW236522   0.326   4.595   4.851  0.5241 -0.7868  0.2163
 8297SOL     OW36523   2.123   1.974   6.873  0.0214  0.4724  0.0151
 8297SOL    HW136524   2.053   1.912   6.890  0.9109 -0.3275  0.7589
 8297SOL    HW236525   2.125   2.026   6.954  1.5687 -0.8532  0.8341
 8298SOL     OW36526   1.353   4.693   6.751 -0.4803  0.0782  0.1710
 8298SOL    HW136527   1.410   4.650   6.813 -0.4568  1.5592  1.1774
 8298SOL    HW236528   1.354   4.628   6.680 -0.7700  1.6620 -1.3022
 8299SOL     OW36529   0.169   2.259   1.058  0.0001  0.3967  0.7778
 8299SOL    HW136530   0.240   2.262   0.995 -0.1002 -0.0471  0.6499
 8299SOL    HW236531   0.216   2.292   1.135  0.9941 -0.5609  0.5688
 8300SOL     OW36532   4.065   0.083   6.396  0.1091 -0.1691  0.0608
 8300SOL    HW136533   4.071   0.032   6.476  2.2479  2.5647  1.6271
 8300SOL    HW236534   4.151   0.125   6.395  0.0539 -0.0344  1.1121
 8301SOL     OW36535   3.106   0.662   3.000  0.0432  0.0450 -0.0178
 8301SOL    HW136536   3.201   0.661   3.001  0.0450  2.3416  1.0502
 8301SOL    HW236537   3.082   0.636   3.089 -3.1741 -0.0731 -0.9055
 8302SOL     OW36538   3.519   4.152   8.842  0.4961  0.1271 -0.1143
 8302SOL    HW136539   3.574   4.183   8.914 -1.3591  0.7389  1.0320
 8302SOL    HW236540   3.452   4.107   8.894  2.3957 -1.5339  0.8665
 8303SOL     OW36541   2.860   3.866   2.340 -0.0145 -1.2393  0.4850
 8303SOL    HW136542   2.899   3.952   2.354  2.0453 -2.0883  0.0960
 8303SOL    HW236543   2.788   3.897   2.285 -0.6398 -2.4751  0.6084
 8304SOL     OW36544   1.989   4.225   8.415  0.0448  0.5254 -0.6191
 8304SOL    HW136545   1.958   4.310   8.447 -3.0034 -0.9477  0.3015
 8304SOL    HW236546   1.943   4.214   8.332 -2.4989  4.2374  0.2926
 8305SOL     OW36547   0.372   2.724  13.203  0.1491 -0.0203  0.0623
 8305SOL    HW136548   0.462   2.704  13.176 -0.7211 -1.3517 -1.8440
 8305SOL    HW236549   0.341   2.782  13.133  0.2653 -0.5666 -0.4323
 8306SOL     OW36550   3.418   0.559  14.601 -0.3377 -0.2520  0.5501
 8306SOL    HW136551   3.362   0.633  14.624  1.1462  1.7683 -2.3872
 8306SOL    HW236552   3.404   0.560  14.506  0.3851  0.9491  0.4555
 8307SOL     OW36553   1.778   3.187   5.613  0.1448  0.2843  0.0494
 8307SOL    HW136554   1.809   3.244   5.543  0.8912 -0.4550 -0.2205
 8307SOL    HW236555   1.828   3.228   5.684 -2.9941 -0.1914  2.5755
 8308SOL     OW36556   4.475   1.626   4.507 -0.2048 -0.0334 -0.1262
 8308SOL    HW136557   4.472   1.714   4.470 -3.3188  0.3169  0.9534
 8308SOL    HW236558   4.412   1.577   4.455  1.4019 -3.6265  1.3194
 8309SOL     OW36559   1.569   2.285   1.505  0.1015  0.2782  1.0204
 8309SOL    HW136560   1.658   2.270   1.474 -0.1458  2.7765 -0.9444
 8309SOL    HW236561   1.506   2.279   1.433 -0.4291 -1.2968  1.6174
 8310SOL     OW36562   1.428   1.017   6.222 -0.2378  0.0744  0.7662
 8310SOL    HW136563   1.438   0.969   6.140  0.4411  2.5153 -0.5865
 8310SOL    HW236564   1.362   0.957   6.257  1.2864 -1.8305  0.4033
 8311SOL     OW36565   1.385   1.998  12.663  0.5649 -0.3919 -0.6125
 8311SOL    HW136566   1.473   1.969  12.685  0.8771  0.3980 -0.7898
 8311SOL    HW236567   1.392   2.088  12.694 -3.5264  0.5333 -2.2674
 8312SOL     OW36568   4.152   0.007   7.261  0.1189 -0.8235  0.0314
 8312SOL    HW136569   4.094   0.046   7.327 -0.3278  0.9446 -1.3891
 8312SOL    HW236570   4.110   0.019   7.175  0.3780 -0.0936  0.0082
 8313SOL     OW36571   4.504   4.400  15.686 -0.5272 -0.1475  0.3339
 8313SOL    HW136572   4.568   4.386  15.756  1.0681 -1.8023 -1.4410
 8313SOL    HW236573   4.470   4.481  15.724  3.8779  1.4855  0.8201
 8314SOL     OW36574   2.448   4.718   2.899  0.0680  0.3141 -0.5113
 8314SOL    HW136575   2.356   4.718   2.873 -0.1339  0.7288  0.2275
 8314SOL    HW236576   2.431   4.715   2.993 -0.5984  2.6351 -0.5740
 8315SOL     OW36577   2.145   4.094   7.447  0.6684  0.2481  0.7082
 8315SOL    HW136578   2.090   4.165   7.482  1.7067  1.6628 -0.5396
 8315SOL    HW236579   2.214   4.079   7.512 -0.3737 -1.4913  1.4286
 8316SOL     OW36580   2.134   2.993   4.539  0.0310  0.2951  0.2130
 8316SOL    HW136581   2.123   2.920   4.600  0.1002  2.0627  2.3572
 8316SOL    HW236582   2.165   3.056   4.605 -0.5607  0.7170  0.0968
 8317SOL     OW36583   3.621   1.448   9.485 -0.7010 -0.1701 -0.4747
 8317SOL    HW136584   3.545   1.396   9.459  0.5870 -2.8013  0.9991
 8317SOL    HW236585   3.675   1.433   9.408  0.8724 -0.6298  0.7253
 8318SOL     OW36586   1.300   1.950   4.604  0.0723 -0.7563 -0.4088
 8318SOL    HW136587   1.307   1.867   4.557  1.8602 -1.3919  0.9606
 8318SOL    HW236588   1.281   2.013   4.534 -0.1887 -1.2351 -0.7630
 8319SOL     OW36589   3.826   2.625   4.834  0.1922 -0.4189  0.1233
 8319SOL    HW136590   3.887   2.697   4.823  2.0293 -1.4567  3.5141
 8319SOL    HW236591   3.754   2.666   4.785  1.3160  1.8951  0.4249
 8320SOL     OW36592   3.752   3.034   6.186  0.0584  0.3564  0.0024
 8320SOL    HW136593   3.800   3.087   6.123 -0.4866  1.2965  0.3720
 8320SOL    HW236594   3.665   3.033   6.147 -0.5134 -0.1664  1.2988
 8321SOL     OW36595   2.949   4.584   1.224 -0.5462 -0.0084 -0.2401
 8321SOL    HW136596   2.907   4.535   1.295 -0.9365  1.6130  0.6440
 8321SOL    HW236597   3.004   4.638   1.281  1.1095 -2.8864  0.9035
 8322SOL     OW36598   0.377   2.221   0.857 -0.1026 -0.1716 -0.0125
 8322SOL    HW136599   0.404   2.307   0.826 -1.2736 -0.0600 -0.7444
 8322SOL    HW236600   0.401   2.169   0.780 -1.3823 -0.4698 -0.2123
 8323SOL     OW36601   4.516   3.591  15.739  0.2061  0.7060 -0.2773
 8323SOL    HW136602   4.529   3.676  15.697 -0.5391  0.6978 -0.5309
 8323SOL    HW236603   4.544   3.607  15.829  0.5740 -1.9846  0.0898
 8324SOL     OW36604   1.050   2.510   7.812  0.4603  0.1112 -0.8466
 8324SOL    HW136605   1.113   2.447   7.848 -1.1887 -0.9098  0.2245
 8324SOL    HW236606   1.109   2.553   7.750  0.8489  0.7665 -0.0284
 8325SOL     OW36607   1.528   3.793   5.388  0.6906 -0.1482  0.1270
 8325SOL    HW136608   1.479   3.869   5.419 -0.6978 -0.8215 -0.4273
 8325SOL    HW236609   1.490   3.772   5.302  0.9166  2.1787 -0.5542
 8326SOL     OW36610   0.819   1.222   6.772 -0.2471  0.0113  0.3640
 8326SOL    HW136611   0.787   1.230   6.682  1.0292 -0.1777 -0.1063
 8326SOL    HW236612   0.872   1.143   6.760 -1.1263 -0.6401  0.7779
 8327SOL     OW36613   0.407   1.490  11.187  0.0276  0.2851 -0.3207
 8327SOL    HW136614   0.456   1.431  11.129 -0.8009 -0.3875 -0.3399
 8327SOL    HW236615   0.460   1.569  11.173 -1.3389  0.7945 -2.6320
 8328SOL     OW36616   2.042   1.817   7.879  0.2038  0.8289  0.3283
 8328SOL    HW136617   1.981   1.811   7.953  3.9837 -0.5359  3.3712
 8328SOL    HW236618   1.998   1.760   7.817  0.2193  1.8030 -0.5713
 8329SOL     OW36619   4.719   2.821  12.558  0.6114  0.3474 -0.2368
 8329SOL    HW136620   4.659   2.868  12.616  0.3750 -2.3613  1.6713
 8329SOL    HW236621   4.666   2.751  12.520 -1.5458  0.8771  1.8403
 8330SOL     OW36622   0.684   3.070   5.361  0.3691 -0.4868 -0.1139
 8330SOL    HW136623   0.612   3.022   5.321  0.4672 -0.8297  0.1261
 8330SOL    HW236624   0.701   3.008   5.432 -1.4890 -2.7154 -1.6292
 8331SOL     OW36625   2.399   3.067   1.578  0.4757 -0.1918 -0.2973
 8331SOL    HW136626   2.322   3.098   1.626  0.3850 -3.1347  1.3811
 8331SOL    HW236627   2.443   3.015   1.644 -0.3538 -0.3150  0.1482
 8332SOL     OW36628   0.727   1.279   2.186 -0.1304 -0.3585 -0.6122
 8332SOL    HW136629   0.776   1.205   2.223  0.0148 -0.9739 -2.0246
 8332SOL    HW236630   0.665   1.221   2.142 -0.4521  0.3348 -1.0537
 8333SOL     OW36631   1.670   2.651  11.816  1.2591 -0.2941  0.1188
 8333SOL    HW136632   1.699   2.564  11.788 -0.0272 -0.9457  0.8507
 8333SOL    HW236633   1.629   2.628  11.899 -1.2313  1.9627 -0.4801
 8334SOL     OW36634   2.322   4.689   4.481 -0.0344  0.6243 -0.1226
 8334SOL    HW136635   2.393   0.004   4.446  0.3320  1.1112  1.3730
 8334SOL    HW236636   2.251   4.704   4.419 -0.5199  0.1171  0.3044
 8335SOL     OW36637   2.529   2.367   8.120  0.1490  0.2667  0.0734
 8335SOL    HW136638   2.509   2.348   8.028 -0.0259  2.6085 -0.3815
 8335SOL    HW236639   2.445   2.386   8.160  0.0059  0.3807 -0.2849
 8336SOL     OW36640   1.491   4.079   5.820 -0.5758 -0.4167 -0.2413
 8336SOL    HW136641   1.550   4.012   5.785  1.9472  1.6755 -0.0579
 8336SOL    HW236642   1.508   4.082   5.914  1.1357  1.0389 -0.5929
 8337SOL     OW36643   1.416   4.302   9.332 -0.1706 -0.0448 -0.2748
 8337SOL    HW136644   1.474   4.246   9.384 -0.2163 -2.0972 -2.4781
 8337SOL    HW236645   1.478   4.333   9.266  0.1340 -0.1282 -0.0289
 8338SOL     OW36646   1.904   0.657   4.391  0.1916  0.1503  0.5554
 8338SOL    HW136647   1.899   0.751   4.376  2.5718  0.3392  0.9880
 8338SOL    HW236648   1.861   0.660   4.477 -1.6593  1.6567 -0.4280
 8339SOL     OW36649   3.247   4.465   7.523 -0.0440 -0.0952 -0.2519
 8339SOL    HW136650   3.322   4.407   7.535  0.4407  0.1124 -2.1697
 8339SOL    HW236651   3.221   4.495   7.610 -1.0456  0.9810 -0.9178
 8340SOL     OW36652   2.050   2.483   1.923 -0.2475  0.2049  0.0886
 8340SOL    HW136653   2.037   2.548   1.854  0.9335 -0.1947 -0.5129
 8340SOL    HW236654   1.958   2.461   1.939 -0.0772 -1.0297 -0.6200
 8341SOL     OW36655   4.218   0.567  15.470  0.0527 -0.3011 -0.2039
 8341SOL    HW136656   4.150   0.570  15.403 -0.3371 -1.3471  0.1441
 8341SOL    HW236657   4.269   0.633  15.423  0.0266  0.6885  1.1546
 8342SOL     OW36658   0.209   0.766   4.699  0.0769 -0.1176 -0.5697
 8342SOL    HW136659   0.161   0.684   4.715 -0.4915  0.4266  0.4886
 8342SOL    HW236660   0.144   0.806   4.641  0.2088  1.4691  0.3958
 8343SOL     OW36661   4.177   2.719   5.057  0.0320  0.3276  0.1130
 8343SOL    HW136662   4.131   2.672   5.126  1.1643 -0.8893  0.0448
 8343SOL    HW236663   4.114   2.785   5.029 -0.0001 -0.3969 -1.5505
 8344SOL     OW36664   2.096   4.689   4.813  0.2481 -0.1251 -0.1730
 8344SOL    HW136665   2.071   4.607   4.856  0.6201 -0.4146 -0.5066
 8344SOL    HW236666   2.129   4.650   4.732  1.6810  0.9039 -0.0876
 8345SOL     OW36667   2.084   2.468   8.345 -0.3934 -0.3627 -0.0143
 8345SOL    HW136668   2.072   2.405   8.273  1.4377 -1.2182  0.4349
 8345SOL    HW236669   2.107   2.549   8.300 -2.2062  0.7124  0.9870
 8346SOL     OW36670   4.242   1.745   9.125 -0.4280 -0.3801 -0.4355
 8346SOL    HW136671   4.314   1.687   9.148  1.4268  1.2650 -2.0324
 8346SOL    HW236672   4.265   1.835   9.149 -3.3984  0.2716  0.0657
 8347SOL     OW36673   1.741   1.162   8.008 -0.3455 -0.5590  0.1454
 8347SOL    HW136674   1.691   1.141   7.929 -0.6739  1.2497 -0.1312
 8347SOL    HW236675   1.829   1.146   7.974 -0.2578  0.7469 -0.2404
 8348SOL     OW36676   2.507   1.366   3.750 -0.1745  0.1845 -0.3755
 8348SOL    HW136677   2.536   1.429   3.817  0.8591 -0.9957  0.2806
 8348SOL    HW236678   2.451   1.306   3.799 -1.0037  0.7328 -0.6460
 8349SOL     OW36679   4.214   4.081   5.543 -0.6748  0.5484  0.5717
 8349SOL    HW136680   4.142   4.043   5.491  1.3398 -2.3230 -0.1295
 8349SOL    HW236681   4.230   4.162   5.495 -0.7840  0.7719  0.9128
 8350SOL     OW36682   0.493   1.371   7.985 -0.5078  0.4955 -0.0878
 8350SOL    HW136683   0.414   1.421   7.968 -0.6452  0.8504  1.6781
 8350SOL    HW236684   0.564   1.425   7.949  1.3574 -1.5126  0.5752
 8351SOL     OW36685   3.676   1.033   5.758 -0.5316 -0.8280  0.7269
 8351SOL    HW136686   3.659   1.022   5.665  0.3387 -1.8539  0.6862
 8351SOL    HW236687   3.768   1.060   5.756 -0.6292 -0.5693 -0.1001
 8352SOL     OW36688   4.545   3.669   5.338 -0.0862  0.3247  0.2508
 8352SOL    HW136689   4.632   3.701   5.313  0.3264 -1.1271 -0.1593
 8352SOL    HW236690   4.553   3.663   5.433 -0.7568  0.3266  0.3045
 8353SOL     OW36691   0.555   3.284   3.424  0.0392 -0.0157 -0.1964
 8353SOL    HW136692   0.490   3.230   3.470  1.7829 -2.2267 -0.2842
 8353SOL    HW236693   0.585   3.216   3.363  1.3726  0.6718 -0.3085
 8354SOL     OW36694   3.452   1.675   7.030  0.2108  0.4705  0.0271
 8354SOL    HW136695   3.463   1.626   7.111 -0.4126  0.4078  0.0732
 8354SOL    HW236696   3.385   1.739   7.054 -0.0968  0.8942 -1.9634
 8355SOL     OW36697   1.821   1.545   3.823 -0.2201 -0.6068 -0.0156
 8355SOL    HW136698   1.814   1.580   3.734  0.5200 -2.1180 -0.6599
 8355SOL    HW236699   1.905   1.500   3.825 -0.7446 -1.7322 -2.7789
 8356SOL     OW36700   0.525   1.120   2.097  0.1670 -0.1759  0.4200
 8356SOL    HW136701   0.437   1.085   2.110 -0.6935  1.0735 -1.9526
 8356SOL    HW236702   0.567   1.034   2.097  0.8703  0.1873  3.0572
 8357SOL     OW36703   3.275   1.574   6.803 -0.3635 -0.1763 -0.3723
 8357SOL    HW136704   3.289   1.544   6.713 -1.9135  0.7692 -0.9350
 8357SOL    HW236705   3.359   1.554   6.845  0.5519  2.5597 -0.9194
 8358SOL     OW36706   0.476   2.460   0.789 -0.1087 -0.5688  0.0948
 8358SOL    HW136707   0.516   2.495   0.710  2.0030  0.8119  1.7984
 8358SOL    HW236708   0.411   2.523   0.820 -0.5138 -0.2869 -1.3333
 8359SOL     OW36709   1.777   0.592   5.331  0.0362 -0.1185  0.0370
 8359SOL    HW136710   1.686   0.563   5.327 -0.5125  1.5360  0.3821
 8359SOL    HW236711   1.805   0.598   5.240 -0.9765  1.2904 -0.1739
 8360SOL     OW36712   3.626   3.570   4.700 -0.0939 -0.2771  0.7297
 8360SOL    HW136713   3.590   3.647   4.744 -0.2083  0.5810 -0.8876
 8360SOL    HW236714   3.715   3.564   4.735  0.9804  0.7051 -1.7923
 8361SOL     OW36715   2.256   2.701   1.851  0.5899 -0.4364 -0.4644
 8361SOL    HW136716   2.253   2.723   1.758  1.1414 -1.9782 -0.8366
 8361SOL    HW236717   2.346   2.670   1.859  0.9229  1.1470  1.9489
 8362SOL     OW36718   3.899   1.941   4.186 -0.0933  0.2556  0.0947
 8362SOL    HW136719   3.902   2.035   4.168  1.0654  0.4950  1.5250
 8362SOL    HW236720   3.868   1.903   4.104 -0.2357  0.2856  0.1359
 8363SOL     OW36721   3.987   4.415   6.272  0.2633  0.0878 -0.4670
 8363SOL    HW136722   3.894   4.437   6.282  0.4779  0.2326  1.1949
 8363SOL    HW236723   4.027   4.465   6.343 -0.2053  0.4512 -0.4557
 8364SOL     OW36724   0.307   1.022   9.496 -0.5521 -0.6028 -0.2061
 8364SOL    HW136725   0.379   0.960   9.508 -0.8850 -1.1564 -1.0984
 8364SOL    HW236726   0.347   1.100   9.535 -1.4271  0.7922 -2.1193
 8365SOL     OW36727   0.812   2.246   7.000 -0.0754 -0.2532  0.3694
 8365SOL    HW136728   0.896   2.248   6.954 -1.4103  1.8615 -1.9961
 8365SOL    HW236729   0.807   2.157   7.034 -0.4982 -1.4881 -2.9300
 8366SOL     OW36730   3.476   0.056   7.189  0.2809  0.1473 -0.0663
 8366SOL    HW136731   3.427   0.000   7.250 -2.4607  1.1766 -1.3438
 8366SOL    HW236732   3.533   4.726   7.155  0.1957  0.5601 -1.0264
 8367SOL     OW36733   1.696   2.447   6.288 -0.5428  0.2811  0.1300
 8367SOL    HW136734   1.749   2.369   6.301 -0.3229  0.5842  1.1307
 8367SOL    HW236735   1.713   2.471   6.197 -0.2780  1.6300  0.5377
 8368SOL     OW36736   4.519   0.895   7.751  0.5242  0.2496 -0.2509
 8368SOL    HW136737   4.523   0.971   7.809 -2.0226 -2.1615  3.1680
 8368SOL    HW236738   4.510   0.948   7.672  2.2178  1.7206  0.5622
 8369SOL     OW36739   1.105   0.148   8.028  0.5001  0.3781  0.3478
 8369SOL    HW136740   1.014   0.158   8.001  1.1598  1.8206 -1.3331
 8369SOL    HW236741   1.137   0.091   7.957  0.8126  0.6915  0.2384
 8370SOL     OW36742   0.216   4.607   3.432 -0.2421 -0.0055 -0.3914
 8370SOL    HW136743   0.206   4.593   3.526 -1.3261 -2.2746 -0.8527
 8370SOL    HW236744   0.222   4.520   3.394 -0.9611 -0.0171 -0.4833
 8371SOL     OW36745   4.293   0.450   0.123 -0.1448 -0.0786  0.3952
 8371SOL    HW136746   4.380   0.425   0.094 -0.3789 -0.9583  0.4493
 8371SOL    HW236747   4.273   0.387   0.192 -0.4264  0.1403  0.5151
 8372SOL     OW36748   1.174   1.567  14.689  0.0206 -0.2321 -0.7502
 8372SOL    HW136749   1.198   1.476  14.708 -0.9986 -0.8046 -2.2039
 8372SOL    HW236750   1.156   1.548  14.597  1.3320 -3.7630 -0.3021
 8373SOL     OW36751   4.351   1.433   8.169  0.3599 -0.3632  0.3017
 8373SOL    HW136752   4.357   1.365   8.237  1.2571 -1.5219 -0.9324
 8373SOL    HW236753   4.383   1.508   8.219 -2.4316  0.7783  0.3886
 8374SOL     OW36754   3.497   3.337   6.510  0.1891  0.5262  0.0372
 8374SOL    HW136755   3.508   3.251   6.550 -0.7089  0.1529 -0.5144
 8374SOL    HW236756   3.553   3.321   6.434 -0.5716 -1.6963 -0.0580
 8375SOL     OW36757   2.464   4.691   5.492  0.5015 -0.2182  0.5533
 8375SOL    HW136758   2.441   4.720   5.580  1.8018  2.9412 -0.1502
 8375SOL    HW236759   2.554   4.666   5.513  1.2987  1.3949 -0.9284
 8376SOL     OW36760   2.997   3.211   8.874  0.3584 -0.1122  0.3745
 8376SOL    HW136761   2.963   3.297   8.851 -0.8787 -0.6107  0.3318
 8376SOL    HW236762   2.929   3.172   8.929 -1.9624 -0.3923 -2.6964
 8377SOL     OW36763   4.172   0.608   4.010 -0.3307  0.0298 -0.9574
 8377SOL    HW136764   4.264   0.584   4.023 -1.0117 -3.2113 -2.1778
 8377SOL    HW236765   4.150   0.573   3.924 -2.6863  0.1128 -0.3836
 8378SOL     OW36766   4.389   2.166   8.922 -0.0108 -0.3125 -0.3492
 8378SOL    HW136767   4.434   2.235   8.971  1.0938 -0.4526 -1.1669
 8378SOL    HW236768   4.300   2.193   8.945  0.9541  2.2663  0.3191
 8379SOL     OW36769   4.253   0.659   6.074 -0.2335 -0.1541 -0.0619
 8379SOL    HW136770   4.238   0.614   6.156  0.4082  0.2410  0.2779
 8379SOL    HW236771   4.214   0.745   6.085 -1.5635 -0.3833 -2.8885
 8380SOL     OW36772   0.961   4.695  14.999  0.1546  0.6814 -0.5469
 8380SOL    HW136773   0.918   4.655  15.074 -0.0773  1.3645 -0.3199
 8380SOL    HW236774   1.045   4.647  14.994 -0.2885 -0.2804  1.4216
 8381SOL     OW36775   1.696   0.195   2.308 -0.3952  0.0258 -0.2995
 8381SOL    HW136776   1.725   0.145   2.384 -0.9030  0.0591 -0.0827
 8381SOL    HW236777   1.778   0.225   2.269 -0.5713  0.6358 -0.1999
 8382SOL     OW36778   2.267   2.070   1.939  0.6796 -0.1171  0.1252
 8382SOL    HW136779   2.241   2.152   1.981 -0.2868 -0.6894  0.6136
 8382SOL    HW236780   2.198   2.048   1.877  0.7409 -0.5180  0.2026
 8383SOL     OW36781   3.640   3.113   2.415 -0.8236  0.1427  0.0382
 8383SOL    HW136782   3.658   3.206   2.399  0.4433  0.5316  3.6238
 8383SOL    HW236783   3.719   3.078   2.456 -0.5433  2.2772  1.3126
 8384SOL     OW36784   4.289   0.358  15.639  0.5830 -0.4276  0.0758
 8384SOL    HW136785   4.331   0.422  15.696 -0.1396  0.6463 -0.5926
 8384SOL    HW236786   4.278   0.412  15.560  0.0984  1.0149  1.1345
 8385SOL     OW36787   2.612   1.329   3.507  0.4914 -0.2506 -0.4977
 8385SOL    HW136788   2.617   1.233   3.502 -2.0190 -0.3769 -0.4975
 8385SOL    HW236789   2.594   1.338   3.600  1.6742 -1.3723 -0.1731
 8386SOL     OW36790   1.713   0.874   7.368 -0.7184  0.1322  0.0662
 8386SOL    HW136791   1.750   0.793   7.333  0.3303  0.1042  1.2429
 8386SOL    HW236792   1.655   0.893   7.294 -0.9523 -2.1052 -0.3245
 8387SOL     OW36793   2.110   1.318   8.539  0.1297  0.5442  0.0817
 8387SOL    HW136794   2.145   1.344   8.624 -2.6623  0.7632  1.1800
 8387SOL    HW236795   2.066   1.395   8.501 -1.1938 -0.2342  0.0308
 8388SOL     OW36796   4.718   3.327   8.609 -0.1485  0.3841  0.5508
 8388SOL    HW136797   0.069   3.301   8.592 -0.1350  1.6401 -1.2002
 8388SOL    HW236798   4.709   3.355   8.700 -0.3110  1.6962  0.1300
 8389SOL     OW36799   1.980   0.999   5.322 -0.2457 -0.1114 -0.2434
 8389SOL    HW136800   2.069   1.026   5.347 -1.6990  2.0906  2.5176
 8389SOL    HW236801   1.978   0.910   5.358 -1.1761 -1.0001 -2.5026
 8390SOL     OW36802   0.428   1.776  15.596 -0.5884  0.1736 -0.4716
 8390SOL    HW136803   0.413   1.729  15.514 -0.3350 -1.1342  0.2314
 8390SOL    HW236804   0.511   1.739  15.624 -1.0136 -0.2536  0.2404
 8391SOL     OW36805   0.580   3.346   5.316  1.1005 -0.5049 -0.1703
 8391SOL    HW136806   0.590   3.261   5.272  0.0340 -0.6555 -0.1037
 8391SOL    HW236807   0.542   3.312   5.397  1.1300  1.6623  0.7287
 8392SOL     OW36808   3.384   0.999  11.872  0.1541 -0.0689  0.5996
 8392SOL    HW136809   3.339   1.080  11.848  0.1756  0.4042  2.1116
 8392SOL    HW236810   3.464   1.036  11.908 -0.1178  0.1392  0.9974
 8393SOL     OW36811   0.412   3.869   2.391  0.4448  0.1678  0.5651
 8393SOL    HW136812   0.451   3.876   2.304  3.2550  0.5980  1.8955
 8393SOL    HW236813   0.338   3.930   2.389  1.8810  1.8277 -1.5253
 8394SOL     OW36814   0.539   2.675   3.946  0.6347  0.2606  0.2011
 8394SOL    HW136815   0.595   2.658   4.021 -0.7556 -1.2972  0.8912
 8394SOL    HW236816   0.603   2.719   3.890 -0.8327 -1.0936 -2.5466
 8395SOL     OW36817   4.301   4.597   4.210 -0.5135 -0.5363  0.6328
 8395SOL    HW136818   4.301   4.502   4.206 -0.6500 -0.5123  0.0839
 8395SOL    HW236819   4.207   4.611   4.220 -0.4633  0.5807 -0.4618
 8396SOL     OW36820   4.168   0.405  10.820 -1.0215 -0.8237  0.2189
 8396SOL    HW136821   4.188   0.458  10.898 -0.9962  2.1740 -1.8525
 8396SOL    HW236822   4.082   0.365  10.832 -1.5705  0.4899  0.6215
 8397SOL     OW36823   0.434   2.597   1.901 -0.2052 -0.2149 -0.0378
 8397SOL    HW136824   0.450   2.543   1.979  0.6150 -0.7563 -0.5873
 8397SOL    HW236825   0.474   2.680   1.927  1.0510 -2.0252  3.7941
 8398SOL     OW36826   4.442   1.331   5.345  0.4528  0.0423  0.2763
 8398SOL    HW136827   4.459   1.409   5.398 -2.3927  2.1609 -1.9719
 8398SOL    HW236828   4.366   1.363   5.296  1.3971  0.2296 -1.0498
 8399SOL     OW36829   1.641   4.038  16.075  0.8487 -0.2653  0.6877
 8399SOL    HW136830   1.630   4.133  16.067 -0.3482 -0.4005  0.7276
 8399SOL    HW236831   1.605   4.023  16.162 -1.4940  0.6725 -0.1089
 8400SOL     OW36832   2.562   3.719  11.664 -0.3240  0.7167 -0.2695
 8400SOL    HW136833   2.604   3.754  11.743 -0.0705 -2.6225  1.0844
 8400SOL    HW236834   2.545   3.802  11.621  0.8961 -0.2568 -2.6303
 8401SOL     OW36835   1.718   1.980  13.689  0.2080  0.2159  0.1931
 8401SOL    HW136836   1.713   2.036  13.766  1.3640  1.0342 -0.3365
 8401SOL    HW236837   1.772   2.031  13.629 -0.2892  0.4722 -0.0369
 8402SOL     OW36838   1.730   4.125  15.145 -0.0407  0.0659  0.6258
 8402SOL    HW136839   1.735   4.030  15.157 -0.9293 -0.0508  0.1454
 8402SOL    HW236840   1.673   4.132  15.068 -0.0037  2.0000  0.7836
 8403SOL     OW36841   3.679   4.438   6.661 -0.3030  0.3379  0.2957
 8403SOL    HW136842   3.763   4.436   6.614 -1.3239  0.8207 -1.5325
 8403SOL    HW236843   3.716   4.421   6.748 -1.8277 -0.4013  0.7865
 8404SOL     OW36844   2.899   4.000   4.636 -0.4537  0.1411  0.1386
 8404SOL    HW136845   2.853   3.958   4.708 -1.5851  0.2223 -0.5442
 8404SOL    HW236846   2.890   4.090   4.668 -0.4109 -0.6073  2.2802
 8405SOL     OW36847   2.917   1.342   2.534  0.1653 -0.0391  0.3099
 8405SOL    HW136848   2.920   1.403   2.460  0.3095 -1.5633 -0.9663
 8405SOL    HW236849   2.870   1.390   2.602 -1.6455 -1.2896 -0.0389
 8406SOL     OW36850   1.194   2.945  13.594 -0.2584  0.3796  0.1848
 8406SOL    HW136851   1.108   2.938  13.550  0.3971  1.0240 -1.2114
 8406SOL    HW236852   1.188   3.019  13.654  0.2399 -0.8182  1.7007
 8407SOL     OW36853   3.425   0.503   6.850 -0.1771 -0.3302  0.1405
 8407SOL    HW136854   3.331   0.519   6.864 -0.4931 -1.9189 -0.1388
 8407SOL    HW236855   3.456   0.575   6.905 -1.0437 -0.6060  0.9870
 8408SOL     OW36856   4.037   3.199   4.255 -0.1896  0.5464 -0.3533
 8408SOL    HW136857   4.077   3.286   4.255  3.1155 -0.9573 -2.0011
 8408SOL    HW236858   4.045   3.180   4.162  0.4287 -0.2102 -0.1443
 8409SOL     OW36859   3.823   4.158   6.361 -0.4384 -0.2120 -0.2127
 8409SOL    HW136860   3.894   4.206   6.404 -0.6315 -1.1142  1.0989
 8409SOL    HW236861   3.745   4.213   6.366 -1.5300 -1.5723 -2.0227
 8410SOL     OW36862   2.954   2.140   0.586  0.0702  0.0984 -0.0124
 8410SOL    HW136863   2.889   2.208   0.601 -1.4029 -0.7369 -2.6331
 8410SOL    HW236864   2.900   2.061   0.586 -0.2096  0.2926  0.6524
 8411SOL     OW36865   1.122   0.177   4.532 -0.5335 -0.0252  0.4532
 8411SOL    HW136866   1.030   0.191   4.555 -0.7153  1.0754 -0.9946
 8411SOL    HW236867   1.154   0.261   4.499 -1.7188  0.7333  1.2384
 8412SOL     OW36868   4.667   0.805  11.258 -0.4482 -0.0323  0.0583
 8412SOL    HW136869   4.687   0.714  11.281  0.4059  0.0576 -0.3033
 8412SOL    HW236870   4.682   0.853  11.339  1.0810  1.8221 -1.3245
 8413SOL     OW36871   1.404   3.262  17.503  0.3349  0.6530 -0.2315
 8413SOL    HW136872   1.435   3.192  17.445 -0.3684  0.2486 -0.1210
 8413SOL    HW236873   1.377   3.327  17.438 -0.7097 -2.0728 -2.5184
 8414SOL     OW36874   1.544   3.525   5.945 -0.1093 -0.1554 -0.1904
 8414SOL    HW136875   1.625   3.510   5.896 -0.1974 -1.0477 -0.0719
 8414SOL    HW236876   1.528   3.613   5.912  2.2093  0.5594  0.6023
 8415SOL     OW36877   2.297   0.464   5.015 -0.4004 -0.7727  0.0222
 8415SOL    HW136878   2.382   0.421   5.025 -0.3273 -0.7643 -0.5702
 8415SOL    HW236879   2.274   0.445   4.924  2.3428  2.0277 -1.2573
 8416SOL     OW36880   1.876   0.834   8.334  0.5446  0.1209  0.1514
 8416SOL    HW136881   1.969   0.814   8.349  0.3907  0.6414  1.8915
 8416SOL    HW236882   1.876   0.929   8.345 -0.4618 -0.0006  1.2019
 8417SOL     OW36883   3.454   0.986   3.915 -0.4147  0.6266 -0.1552
 8417SOL    HW136884   3.489   1.075   3.914  0.4059  0.2991 -1.0512
 8417SOL    HW236885   3.374   0.984   3.861 -0.6692  2.9834  0.1284
 8418SOL     OW36886   2.352   0.498   3.890 -0.0294  0.1132  0.0341
 8418SOL    HW136887   2.430   0.464   3.933 -0.1906  1.4483  1.3766
 8418SOL    HW236888   2.394   0.574   3.849  0.5620 -0.8278 -1.1090
 8419SOL     OW36889   0.187   1.473  10.713  0.2063 -0.6248 -0.1486
 8419SOL    HW136890   0.141   1.422  10.647 -1.1247  0.1784  0.1474
 8419SOL    HW236891   0.252   1.413  10.751 -1.3202 -1.1713  1.6278
 8420SOL     OW36892   2.137   3.613   3.064 -0.4275 -0.0853 -0.2246
 8420SOL    HW136893   2.089   3.554   3.006 -1.8814  1.3255 -0.4653
 8420SOL    HW236894   2.191   3.659   3.000  0.8006  1.1036  1.6639
 8421SOL     OW36895   2.256   4.011  12.695 -0.1137 -0.2277 -0.7600
 8421SOL    HW136896   2.303   4.034  12.775 -0.4761  1.5048 -1.0469
 8421SOL    HW236897   2.229   4.100  12.671 -0.2078 -0.1538 -0.3663
 8422SOL     OW36898   2.988   0.111   7.893  0.4453 -0.4266  0.0745
 8422SOL    HW136899   3.034   0.086   7.813  2.5956  2.6359  0.3516
 8422SOL    HW236900   2.932   0.035   7.906  2.0425 -1.7193 -0.6231
 8423SOL     OW36901   2.700   3.868   8.128 -0.3018  0.0243  0.1073
 8423SOL    HW136902   2.782   3.883   8.081 -0.2905  1.0902  0.4525
 8423SOL    HW236903   2.643   3.907   8.062  1.2006  1.4763 -0.3444
 8424SOL     OW36904   0.705   3.191  17.197 -0.0540  0.5048  0.0766
 8424SOL    HW136905   0.631   3.143  17.235 -0.0395  0.3877 -0.0459
 8424SOL    HW236906   0.705   3.152  17.110  2.1622  1.2167 -0.2348
 8425SOL     OW36907   2.195   1.477   3.457  0.1656  0.6659  0.4285
 8425SOL    HW136908   2.273   1.532   3.447  0.2946  0.7693  1.9250
 8425SOL    HW236909   2.246   1.396   3.462 -0.9736  0.0620  2.0563
 8426SOL     OW36910   1.475   2.499   3.465  0.4758 -0.4832 -0.2123
 8426SOL    HW136911   1.485   2.493   3.370  0.6608  1.4957 -0.3266
 8426SOL    HW236912   1.438   2.415   3.490 -1.0154  0.1148 -0.4098
 8427SOL     OW36913   0.886   4.454   1.768  0.1836  0.5369 -0.1795
 8427SOL    HW136914   0.915   4.546   1.771  0.8195  0.3039  0.6426
 8427SOL    HW236915   0.917   4.427   1.855  1.0907 -1.6848 -1.2009
 8428SOL     OW36916   0.018   1.558   1.289 -0.4046 -0.1608  0.0983
 8428SOL    HW136917   0.108   1.588   1.296 -0.3344 -0.4794  0.5739
 8428SOL    HW236918   0.025   1.499   1.214 -0.2755  0.1145 -0.1050
 8429SOL     OW36919   2.929   4.440   7.021 -0.2286 -0.0829 -1.0670
 8429SOL    HW136920   2.968   4.392   6.948  3.7907  1.0509  0.3644
 8429SOL    HW236921   2.935   4.376   7.092  3.0183 -0.2861 -1.5198
 8430SOL     OW36922   4.523   4.318   4.345  0.1652  0.2542 -0.3317
 8430SOL    HW136923   4.459   4.315   4.415 -1.6941 -0.9965 -2.0909
 8430SOL    HW236924   4.487   4.264   4.274 -0.7657  0.6696 -0.1602
 8431SOL     OW36925   0.136   2.509  15.735  0.2496  0.4686  0.0295
 8431SOL    HW136926   0.057   2.463  15.760  1.4394 -1.7823 -0.3613
 8431SOL    HW236927   0.161   2.559  15.813  2.3392 -2.9311  1.5296
 8432SOL     OW36928   2.871   2.633   9.538  0.3382 -0.7316 -0.3351
 8432SOL    HW136929   2.949   2.684   9.516  0.6154  0.0447  2.4238
 8432SOL    HW236930   2.895   2.541   9.547  0.1574 -0.6604  0.8595
 8433SOL     OW36931   1.541   1.606   3.209  0.2066  0.3351  0.0061
 8433SOL    HW136932   1.488   1.674   3.250 -2.3303 -2.6050  1.5696
 8433SOL    HW236933   1.475   1.544   3.179  0.5464  0.6390 -1.3675
 8434SOL     OW36934   2.855   1.477   8.377 -0.7149  0.2055 -0.3450
 8434SOL    HW136935   2.930   1.447   8.326 -1.6381  0.2797 -1.7481
 8434SOL    HW236936   2.780   1.427   8.343 -1.1245  1.7625 -1.7121
 8435SOL     OW36937   0.703   4.500   1.351  0.6644 -0.9448  0.7607
 8435SOL    HW136938   0.658   4.561   1.410  1.6598  0.3641  0.1637
 8435SOL    HW236939   0.735   4.434   1.413 -1.7911 -3.6896 -0.8428
 8436SOL     OW36940   2.444   3.934   6.755 -0.3749 -0.2033 -0.5941
 8436SOL    HW136941   2.411   3.994   6.823 -0.5012 -0.3115 -0.5578
 8436SOL    HW236942   2.525   3.980   6.737 -0.4905  0.7468  1.2671
 8437SOL     OW36943   2.353   0.582   4.688  0.6153 -0.1736  0.9382
 8437SOL    HW136944   2.302   0.502   4.682  2.9783 -1.3571 -3.5437
 8437SOL    HW236945   2.413   0.567   4.615 -0.3625  2.7420 -0.4876
 8438SOL     OW36946   3.216   2.253   5.818 -0.5280  0.0209 -0.8959
 8438SOL    HW136947   3.273   2.231   5.744 -0.5526  1.1504 -1.2422
 8438SOL    HW236948   3.277   2.249   5.892 -1.1712 -0.9272 -0.4147
 8439SOL     OW36949   0.072   2.173   5.886 -0.1624  0.2340 -0.0832
 8439SOL    HW136950   0.016   2.251   5.892 -0.2451  0.1222  0.6623
 8439SOL    HW236951   0.078   2.158   5.792  1.1835  0.9961 -0.1105
 8440SOL     OW36952   3.936   0.718  16.497  0.0093 -0.7062  0.3409
 8440SOL    HW136953   3.980   0.746  16.577 -1.0852  0.8649  0.3959
 8440SOL    HW236954   3.950   0.623  16.497  0.1480 -0.6867  0.4646
 8441SOL     OW36955   4.095   3.809   8.200  0.0759  0.0663  0.0648
 8441SOL    HW136956   4.085   3.749   8.273  1.3616  2.8490  2.5204
 8441SOL    HW236957   4.132   3.884   8.247 -0.0415  0.1236  0.0653
 8442SOL     OW36958   4.233   2.436   8.118  0.2930 -0.6701 -0.2313
 8442SOL    HW136959   4.150   2.389   8.123  0.3702 -0.7283  0.5315
 8442SOL    HW236960   4.294   2.380   8.071  2.9856  1.3325  0.8807
 8443SOL     OW36961   3.048   2.110   7.854 -0.3021 -0.3147 -0.6924
 8443SOL    HW136962   3.129   2.129   7.902 -0.0990 -1.3661 -0.6176
 8443SOL    HW236963   2.978   2.138   7.914  1.4737  0.0903  1.1946
 8444SOL     OW36964   0.221   1.481  17.474 -0.2533 -0.4483  0.6265
 8444SOL    HW136965   0.222   1.385  17.471 -2.4977 -0.3890 -1.8679
 8444SOL    HW236966   0.302   1.490  17.424  0.4743  2.4142  2.3883
 8445SOL     OW36967   2.930   1.047   2.441  0.2873 -0.0964 -0.1070
 8445SOL    HW136968   2.940   1.117   2.376  3.1927  1.2641  1.7941
 8445SOL    HW236969   2.836   1.031   2.430  0.7123 -2.3994 -0.4699
 8446SOL     OW36970   2.707   1.672   2.504  0.1889  0.1976  0.0935
 8446SOL    HW136971   2.752   1.753   2.478 -0.5412  0.7494  0.5589
 8446SOL    HW236972   2.639   1.704   2.563  0.4266 -0.2262  0.5948
 8447SOL     OW36973   1.580   0.425   0.031  0.2121 -0.5067 -0.2926
 8447SOL    HW136974   1.664   0.460   0.001  1.3441 -2.0640  1.0393
 8447SOL    HW236975   1.525   0.485  17.735  0.3871  0.8061  1.1276
 8448SOL     OW36976   4.018   3.195   1.730 -0.0524  0.5480 -0.2909
 8448SOL    HW136977   3.982   3.148   1.654  0.7588  1.4440 -1.2277
 8448SOL    HW236978   3.973   3.279   1.719  0.4575  0.9117  0.4136
 8449SOL     OW36979   0.770   1.159   7.059  0.2727 -0.2119  0.2198
 8449SOL    HW136980   0.769   1.187   6.967 -4.1540 -2.3726 -0.3834
 8449SOL    HW236981   0.841   1.207   7.102 -0.1903  1.0483 -0.4101
 8450SOL     OW36982   0.487   1.497   4.679 -0.2956 -0.1272  0.5319
 8450SOL    HW136983   0.564   1.534   4.635  1.6460 -2.3119  2.1147
 8450SOL    HW236984   0.468   1.418   4.629 -0.7635  0.8166 -0.7711
 8451SOL     OW36985   0.433   4.385   4.103 -0.2345  0.1807 -0.4364
 8451SOL    HW136986   0.386   4.307   4.071  0.1700 -1.5425  3.2371
 8451SOL    HW236987   0.497   4.392   4.032  0.1626  0.7263 -0.0185
 8452SOL     OW36988   2.927   4.105   7.089 -0.0194  0.0927 -0.4572
 8452SOL    HW136989   3.010   4.129   7.048  0.3160  1.8061  1.2318
 8452SOL    HW236990   2.954   4.014   7.100  0.5906  0.2294 -0.8517
 8453SOL     OW36991   1.804   2.721  17.301 -0.0417 -0.1951 -0.0142
 8453SOL    HW136992   1.810   2.814  17.280 -1.0105 -0.0577  0.3225
 8453SOL    HW236993   1.893   2.687  17.313  0.2110  0.4071 -0.1845
 8454SOL     OW36994   1.297   2.780   2.845  0.3547 -0.0743 -0.6629
 8454SOL    HW136995   1.242   2.847   2.804 -2.6553 -2.4505 -0.5767
 8454SOL    HW236996   1.286   2.709   2.781 -0.3261 -1.3108  0.8431
 8455SOL     OW36997   3.518   2.491  13.998  0.8651  0.1066  0.1802
 8455SOL    HW136998   3.512   2.541  14.080 -4.0625 -0.0121 -0.1053
 8455SOL    HW236999   3.433   2.498  13.956  1.1846  1.5481 -0.2282
 8456SOL     OW37000   4.078   2.024  17.266 -0.0956 -0.3233  0.5648
 8456SOL    HW137001   3.991   1.988  17.246  0.8765 -1.7764 -1.0545
 8456SOL    HW237002   4.059   2.118  17.263 -2.0931 -0.6912  1.9994
 8457SOL     OW37003   1.491   3.628   0.135  0.2488 -0.2081 -0.0634
 8457SOL    HW137004   1.541   3.655   0.057  1.5323 -1.4799  0.3142
 8457SOL    HW237005   1.440   3.556   0.098  0.7537 -0.0004 -1.1750
 8458SOL     OW37006   3.702   3.377   0.257  0.4877  0.6482  0.2483
 8458SOL    HW137007   3.754   3.297   0.246 -1.7887 -0.2773 -3.6900
 8458SOL    HW237008   3.766   3.440   0.224  0.8495 -0.2842 -0.8083
 8459SOL     OW37009   3.823   2.533   8.939 -0.0092 -0.3008 -0.1079
 8459SOL    HW137010   3.842   2.450   8.983 -0.7366 -0.8377 -0.8215
 8459SOL    HW237011   3.859   2.519   8.852  0.1703  2.8952 -0.5570
 8460SOL     OW37012   0.874   0.440  13.952 -0.3061  0.6278  0.0950
 8460SOL    HW137013   0.901   0.515  13.900  1.4955  0.3456  0.6275
 8460SOL    HW237014   0.882   0.470  14.042 -0.1533  0.6728  0.0662
 8461SOL     OW37015   0.330   2.072   8.421  0.5464 -0.2835  0.1759
 8461SOL    HW137016   0.250   2.126   8.417 -0.8184 -2.3913 -0.9598
 8461SOL    HW237017   0.362   2.104   8.505  1.2297 -0.7675  0.0965
 8462SOL     OW37018   3.453   1.754   4.998 -0.0400  0.3622 -0.3247
 8462SOL    HW137019   3.486   1.769   5.087  1.3068 -1.9716 -0.4545
 8462SOL    HW237020   3.358   1.738   5.006  0.2888 -2.1798 -1.6216
 8463SOL     OW37021   4.225   2.238  12.594 -0.2436  0.4286 -0.4861
 8463SOL    HW137022   4.213   2.333  12.591  0.0688  0.4591 -0.7930
 8463SOL    HW237023   4.189   2.210  12.678 -1.3595  1.1936 -0.7051
 8464SOL     OW37024   3.000   2.513  17.373  0.0713  0.1860  0.4302
 8464SOL    HW137025   3.084   2.559  17.385  0.0878 -0.2425  1.9988
 8464SOL    HW237026   2.933   2.580  17.382  1.8775  2.1172 -0.6683
 8465SOL     OW37027   0.552   2.043   4.919 -0.1378  0.4624 -0.0072
 8465SOL    HW137028   0.524   1.995   4.998  3.1536  0.0264  0.9059
 8465SOL    HW237029   0.568   1.970   4.859  0.0563  0.4217  0.0956
 8466SOL     OW37030   1.396   4.013   5.514  0.1853 -0.3567 -0.0339
 8466SOL    HW137031   1.301   4.005   5.522  0.2681  0.6214  1.9907
 8466SOL    HW237032   1.418   4.020   5.607 -1.3042  2.2062  0.1453
 8467SOL     OW37033   1.568   1.204   4.165 -0.2750  0.1734  0.0287
 8467SOL    HW137034   1.636   1.219   4.231 -1.0730 -0.3724  0.9694
 8467SOL    HW237035   1.570   1.109   4.153  0.4917  0.2465 -0.4332
 8468SOL     OW37036   4.062   3.004  13.180 -0.2617 -0.3029 -0.3235
 8468SOL    HW137037   4.001   2.934  13.157 -0.8067 -0.4745  1.6672
 8468SOL    HW237038   4.081   2.989  13.273  0.6134  0.1740 -0.4189
 8469SOL     OW37039   1.890   2.125   6.640  0.6719 -0.0442 -0.2584
 8469SOL    HW137040   1.806   2.083   6.619  0.1057  0.6138  0.7004
 8469SOL    HW237041   1.911   2.071   6.717  0.6419 -0.4582 -0.5373
 8470SOL     OW37042   1.649   2.894   9.277  0.0317 -0.2912  0.1943
 8470SOL    HW137043   1.588   2.821   9.277  0.2370 -0.4744 -1.4540
 8470SOL    HW237044   1.714   2.854   9.219 -0.5944 -2.5424  1.0716
 8471SOL     OW37045   1.875   3.420  12.975  0.3875 -1.0168 -0.3472
 8471SOL    HW137046   1.950   3.437  12.918 -0.5861  2.2684 -0.6740
 8471SOL    HW237047   1.885   3.494  13.035  0.7983 -1.1095 -0.3048
 8472SOL     OW37048   4.326   1.305  17.549 -0.1929  0.3222  0.5496
 8472SOL    HW137049   4.354   1.305  17.640  2.4914  0.9306 -0.2748
 8472SOL    HW237050   4.411   1.317  17.505 -1.1809  1.3090 -1.1080
 8473SOL     OW37051   3.589   3.218  14.649 -0.0564 -0.2125  0.0654
 8473SOL    HW137052   3.638   3.189  14.572 -2.3182 -0.1396 -1.4042
 8473SOL    HW237053   3.536   3.141  14.669 -0.3521  0.0271  0.2109
 8474SOL     OW37054   3.617   1.918   3.793  0.3578  0.2309  0.5324
 8474SOL    HW137055   3.666   1.852   3.841 -0.3261 -0.3363  0.4613
 8474SOL    HW237056   3.605   1.885   3.704  0.1551  0.5322  0.4447
 8475SOL     OW37057   2.704   2.951   7.845 -0.0717  0.5247 -0.0763
 8475SOL    HW137058   2.761   2.873   7.849 -2.8233 -1.4649  0.6847
 8475SOL    HW237059   2.627   2.927   7.794  0.3567  2.0733 -1.4107
 8476SOL     OW37060   0.814   4.166  16.300 -0.0731  0.4660  0.4652
 8476SOL    HW137061   0.837   4.154  16.208 -1.3360 -3.0896  0.6394
 8476SOL    HW237062   0.728   4.209  16.298  0.9801  2.5768 -0.4269
 8477SOL     OW37063   4.525   2.121   2.017  0.2442 -0.1990  0.5818
 8477SOL    HW137064   4.575   2.123   1.935  0.2619  0.6394  0.6149
 8477SOL    HW237065   4.466   2.048   1.999  0.7554  0.0145 -1.9403
 8478SOL     OW37066   1.040   1.669   3.368  0.2296 -0.4677 -0.0164
 8478SOL    HW137067   1.099   1.600   3.336  0.1853  0.1519 -1.4210
 8478SOL    HW237068   1.026   1.654   3.462 -0.2504 -2.8687 -0.4654
 8479SOL     OW37069   1.759   1.232   4.364  0.3839 -0.1148 -0.4529
 8479SOL    HW137070   1.815   1.166   4.406 -0.6919 -1.9350 -1.8952
 8479SOL    HW237071   1.813   1.310   4.352  1.8051 -1.1757 -1.0708
 8480SOL     OW37072   1.317   3.151   6.029  0.3678  0.7263  0.4049
 8480SOL    HW137073   1.287   3.224   6.083  0.1116  0.3953  0.7117
 8480SOL    HW237074   1.238   3.143   5.975  0.4702  1.4604  0.1443
 8481SOL     OW37075   3.172   4.428   1.202 -0.0959 -0.0326 -0.2922
 8481SOL    HW137076   3.131   4.369   1.265  0.9010 -2.8457 -2.2484
 8481SOL    HW237077   3.104   4.488   1.172 -1.4295 -1.6631 -0.5372
 8482SOL     OW37078   3.193   1.899   8.928 -0.0482  0.2789 -0.0660
 8482SOL    HW137079   3.113   1.936   8.965 -0.4238 -1.1597  0.5362
 8482SOL    HW237080   3.222   1.985   8.896 -2.0927  0.3560 -1.7191
 8483SOL     OW37081   0.812   4.229  16.922  0.3072 -0.2889  0.0533
 8483SOL    HW137082   0.800   4.323  16.935  1.9003 -0.0523 -0.2573
 8483SOL    HW237083   0.735   4.197  16.970  1.1793 -3.2617 -0.5154
 8484SOL     OW37084   4.170   1.244   7.822 -0.4922 -0.4872  0.4086
 8484SOL    HW137085   4.083   1.255   7.860  0.1034 -0.1839  1.6969
 8484SOL    HW237086   4.140   1.213   7.737  1.2775  1.9521 -1.1035
 8485SOL     OW37087   4.354   1.336   3.825 -0.1228  0.2888 -0.3979
 8485SOL    HW137088   4.278   1.389   3.802 -1.9419 -2.9501 -2.0090
 8485SOL    HW237089   4.354   1.348   3.920  1.4315  0.3684 -0.4103
 8486SOL     OW37090   0.231   0.120   2.253 -0.4805  0.0512 -0.5362
 8486SOL    HW137091   0.296   0.107   2.321  0.0361 -0.4003 -1.1215
 8486SOL    HW237092   0.154   0.145   2.304  0.7905  0.1335  1.3304
 8487SOL     OW37093   2.608   0.343  11.055  0.8493 -0.1322 -0.3630
 8487SOL    HW137094   2.663   0.268  11.077 -2.3821 -1.9912  1.3400
 8487SOL    HW237095   2.637   0.416  11.110 -2.5367  0.4045  0.7142
 8488SOL     OW37096   3.946   0.600   6.018  0.1088 -0.1399 -0.0327
 8488SOL    HW137097   3.952   0.676   6.076 -1.6891 -0.6157  0.7971
 8488SOL    HW237098   3.854   0.604   5.990  0.6359 -0.1690 -1.7277
 8489SOL     OW37099   4.201   0.989   7.456  0.4748 -0.0933 -0.5775
 8489SOL    HW137100   4.226   0.912   7.507 -1.3231 -1.3216 -1.5451
 8489SOL    HW237101   4.123   1.020   7.502  0.5826 -1.2230  0.3593
 8490SOL     OW37102   0.981   0.761   8.921 -0.1434 -0.6617  0.2467
 8490SOL    HW137103   0.973   0.853   8.895 -1.3473 -0.8298 -0.0126
 8490SOL    HW237104   0.960   0.774   9.014  0.1675  0.0216  0.2180
 8491SOL     OW37105   1.093   1.566   6.989  0.8891 -0.6146 -0.6955
 8491SOL    HW137106   1.020   1.611   7.032 -0.1523 -2.1836 -0.7932
 8491SOL    HW237107   1.081   1.584   6.896  0.0036  2.0362 -0.0645
 8492SOL     OW37108   4.431   3.711   9.968 -0.2954  1.0125  0.3008
 8492SOL    HW137109   4.452   3.748  10.053 -1.7287  1.9861  0.2251
 8492SOL    HW237110   4.394   3.777   9.909  1.5483 -0.0065 -2.0022
 8493SOL     OW37111   3.974   0.604  16.764 -0.2175  0.3092 -0.2279
 8493SOL    HW137112   3.984   0.556  16.682  1.6930  3.8573 -2.0564
 8493SOL    HW237113   3.883   0.580  16.784 -0.4293  2.1969  1.0509
 8494SOL     OW37114   3.062   2.279   5.058 -0.3378 -0.2073 -0.0572
 8494SOL    HW137115   3.104   2.205   5.014 -0.8513  1.0886 -2.7339
 8494SOL    HW237116   3.140   2.311   5.103 -0.3807 -1.0505  0.6275
 8495SOL     OW37117   1.252   0.461   7.011 -0.4651 -0.4996  0.7933
 8495SOL    HW137118   1.165   0.465   7.051 -0.8533  2.7273 -0.3959
 8495SOL    HW237119   1.240   0.383   6.956  0.9742 -0.4261  0.3955
 8496SOL     OW37120   2.978   2.871   5.322 -0.4361  0.0583 -0.7437
 8496SOL    HW137121   2.923   2.794   5.305 -0.5166  0.2538 -1.3414
 8496SOL    HW237122   2.942   2.940   5.267 -2.5965  0.6194  1.3262
 8497SOL     OW37123   1.216   0.113   5.957  0.3925 -0.3156  0.5404
 8497SOL    HW137124   1.244   0.145   6.043  1.0623 -0.7854  0.4970
 8497SOL    HW237125   1.169   0.034   5.985 -0.7774  0.2150  0.0789
 8498SOL     OW37126   2.417   2.617   4.761  0.0346  0.6371  0.0918
 8498SOL    HW137127   2.346   2.570   4.803 -1.7549  1.8445 -1.5965
 8498SOL    HW237128   2.455   2.671   4.830 -0.6086  0.9654  0.1887
 8499SOL     OW37129   0.158   4.734   6.716  1.0310 -0.4725  0.4901
 8499SOL    HW137130   0.110   4.674   6.772  0.8229 -1.1270 -0.3903
 8499SOL    HW237131   0.185   4.677   6.644 -0.2069  1.9111 -1.8542
 8500SOL     OW37132   3.911   3.829   4.060 -0.2184  0.2397 -0.1392
 8500SOL    HW137133   3.832   3.832   4.006 -0.8042  2.4461  0.8288
 8500SOL    HW237134   3.873   3.847   4.146  0.3214  0.9119 -0.0362
 8501SOL     OW37135   2.126   4.508   9.239  0.4225  0.3825  0.6550
 8501SOL    HW137136   2.156   4.472   9.323 -1.4653 -0.8615  0.7990
 8501SOL    HW237137   2.187   4.582   9.241 -0.3273  1.0509 -1.1156
 8502SOL     OW37138   0.076   4.047   7.204  0.4712 -0.5826  0.3303
 8502SOL    HW137139   4.731   4.002   7.211 -0.2372  0.9358  1.6018
 8502SOL    HW237140   0.131   3.995   7.145 -1.9102 -0.5117 -1.9793
 8503SOL     OW37141   1.902   3.919  16.237 -0.8049 -0.1486 -0.5245
 8503SOL    HW137142   1.817   3.932  16.278 -0.4923 -0.1200  0.1081
 8503SOL    HW237143   1.879   3.962  16.155  0.3610  0.9710 -0.2674
 8504SOL     OW37144   2.326   0.037   6.762  0.6003 -0.0994  0.3183
 8504SOL    HW137145   2.334   0.018   6.668 -0.3574 -1.0019  0.4207
 8504SOL    HW237146   2.413   0.060   6.794 -0.4829 -0.1774  3.2477
 8505SOL     OW37147   4.247   0.310   2.538 -0.1567  0.1941 -0.2919
 8505SOL    HW137148   4.189   0.351   2.474 -0.0592  2.2883  0.9531
 8505SOL    HW237149   4.218   0.219   2.533 -1.2134  0.6093 -1.6189
 8506SOL     OW37150   1.551   4.303  14.846 -0.0825 -0.0058 -0.3633
 8506SOL    HW137151   1.599   4.222  14.828  1.2409  0.1853  2.2612
 8506SOL    HW237152   1.588   4.362  14.780 -1.1657  1.0043 -0.0680
 8507SOL     OW37153   4.623   1.211   7.070 -0.8236 -0.6138  0.3536
 8507SOL    HW137154   4.698   1.266   7.047 -2.8589  1.3034 -1.6981
 8507SOL    HW237155   4.665   1.163   7.141  0.7823 -0.1478 -0.2745
 8508SOL     OW37156   1.527   1.403  14.225  0.0487  0.4873  0.2611
 8508SOL    HW137157   1.505   1.417  14.317  2.9926 -0.1629  1.0680
 8508SOL    HW237158   1.442   1.407  14.181 -0.5026 -0.1499  1.2438
 8509SOL     OW37159   0.309   2.952   2.695  0.2096 -0.0614  0.1157
 8509SOL    HW137160   0.340   3.041   2.709 -2.4639  1.2983 -2.6796
 8509SOL    HW237161   0.293   2.916   2.783  1.2867  0.2514  0.4490
 8510SOL     OW37162   4.658   2.536   2.705 -0.8610  0.1833  0.2869
 8510SOL    HW137163   4.585   2.598   2.713  0.2707  1.6752 -0.8658
 8510SOL    HW237164   4.717   2.583   2.645 -0.6610  0.0226  0.3585
 8511SOL     OW37165   3.404   2.932   5.922  0.2342  0.0578 -0.1814
 8511SOL    HW137166   3.344   2.865   5.887 -1.6826  0.9837  1.3170
 8511SOL    HW237167   3.376   2.940   6.013 -1.4818  0.7872 -0.7701
 8512SOL     OW37168   0.700   2.903  13.965  0.2772  0.6355 -0.0215
 8512SOL    HW137169   0.709   2.824  13.911  1.6786  0.6490  0.1903
 8512SOL    HW237170   0.606   2.914  13.975  0.3871 -1.5100  3.1473
 8513SOL     OW37171   3.100   2.947   5.831  0.4389 -0.1293 -0.2686
 8513SOL    HW137172   3.041   2.897   5.775  0.2480  0.5786 -0.6821
 8513SOL    HW237173   3.175   2.897   5.798 -1.0037 -1.7388 -1.0945
 8514SOL     OW37174   1.369   0.352   5.837  0.0008 -0.0534 -0.2268
 8514SOL    HW137175   1.304   0.419   5.858  0.8185  0.2595  1.3288
 8514SOL    HW237176   1.338   0.277   5.888  0.4772  0.2770  0.5613
 8515SOL     OW37177   3.504   0.524  16.637  0.6360  0.6939  0.4749
 8515SOL    HW137178   3.575   0.522  16.700  2.0017  2.0480 -1.0032
 8515SOL    HW237179   3.428   0.526  16.695  0.2531 -1.1226  0.0469
 8516SOL     OW37180   2.275   3.927   8.689 -0.3129 -0.3165 -0.5473
 8516SOL    HW137181   2.295   3.897   8.600  0.1628 -1.5647 -0.0055
 8516SOL    HW237182   2.213   3.997   8.667  0.1664  0.0820 -0.6371
 8517SOL     OW37183   1.242   2.013   0.626 -0.5314  0.4735 -0.0407
 8517SOL    HW137184   1.337   2.008   0.634 -0.4036  1.1220 -1.2098
 8517SOL    HW237185   1.225   2.039   0.535 -0.4501  2.2349  0.4362
 8518SOL     OW37186   3.354   3.254   7.215 -0.4635 -0.4044  0.0738
 8518SOL    HW137187   3.410   3.308   7.159 -1.0520  1.1796  1.0212
 8518SOL    HW237188   3.383   3.286   7.300  0.4264 -3.8623  1.0711
 8519SOL     OW37189   0.249   3.188   6.974  0.0819  0.3598 -0.9164
 8519SOL    HW137190   0.269   3.130   7.047  0.6749  3.7950  1.6398
 8519SOL    HW237191   0.316   3.255   6.991 -0.8854  1.6512 -2.1625
 8520SOL     OW37192   3.949   0.835   2.419 -0.3271 -0.3399 -0.0015
 8520SOL    HW137193   3.932   0.744   2.441 -0.0130 -0.0026  1.6898
 8520SOL    HW237194   4.043   0.832   2.439 -0.0859  0.4160 -0.9822
 8521SOL     OW37195   1.625   1.536   7.745  0.1835  0.3465  0.0106
 8521SOL    HW137196   1.550   1.573   7.790 -0.5837 -2.0617  0.7189
 8521SOL    HW237197   1.661   1.487   7.819  0.8414 -0.4067 -0.7976
 8522SOL     OW37198   3.215   3.954   5.847 -0.0494  0.2575  0.3913
 8522SOL    HW137199   3.217   4.020   5.778  3.4108 -0.8057 -0.5106
 8522SOL    HW237200   3.195   4.000   5.929  0.9873  3.1080 -0.9831
 8523SOL     OW37201   0.690   2.213  17.608  0.2766  0.4599  0.1553
 8523SOL    HW137202   0.666   2.278  17.542  0.5328  0.6842  0.2861
 8523SOL    HW237203   0.638   2.139  17.575  1.7000 -0.4130 -0.1738
 8524SOL     OW37204   1.936   4.012   2.958  0.2399  0.1289 -0.3271
 8524SOL    HW137205   1.841   4.026   2.959  0.4780  1.5176  2.1208
 8524SOL    HW237206   1.951   4.039   2.868  0.8118  1.5591  0.1896
 8525SOL     OW37207   4.077   2.105   8.902 -0.0084  0.4675 -0.2351
 8525SOL    HW137208   4.106   2.061   8.983  0.0999 -0.2538 -0.6678
 8525SOL    HW237209   4.000   2.052   8.881 -0.8387  1.0839  1.2366
 8526SOL     OW37210   4.527   0.722  12.991 -0.2870 -0.2542  0.5687
 8526SOL    HW137211   4.472   0.675  13.052 -3.2634  2.2545 -0.1645
 8526SOL    HW237212   4.610   0.677  13.009  0.7704  1.5058  0.1812
 8527SOL     OW37213   4.458   2.440   6.481 -0.6087  0.3488 -0.4657
 8527SOL    HW137214   4.397   2.513   6.468  0.4945  1.4681  0.6118
 8527SOL    HW237215   4.534   2.486   6.518  1.8521 -1.9473 -2.6852
 8528SOL     OW37216   3.947   3.657   9.849 -0.2777 -0.2310 -0.6028
 8528SOL    HW137217   3.868   3.667   9.902  0.5854  0.5567  0.5543
 8528SOL    HW237218   3.911   3.660   9.761  1.6167  0.9885 -1.3457
 8529SOL     OW37219   0.801   2.318   5.029  0.0217 -0.0942  0.6156
 8529SOL    HW137220   0.829   2.388   4.969  0.7900  0.4768  1.6413
 8529SOL    HW237221   0.839   2.241   4.987 -1.5602 -0.1093 -0.7916
 8530SOL     OW37222   3.122   0.146   1.011  0.4842 -0.3535  0.4997
 8530SOL    HW137223   3.113   0.065   1.061  0.9846  0.7676  2.4229
 8530SOL    HW237224   3.215   0.142   0.989  1.3414 -0.6895  4.1259
 8531SOL     OW37225   0.103   4.417   4.358  0.2816  0.5349  0.7163
 8531SOL    HW137226   0.037   4.429   4.426  0.0681  0.8040  0.4574
 8531SOL    HW237227   0.183   4.435   4.409 -0.2655 -1.5632  2.3206
 8532SOL     OW37228   4.260   3.407   9.397  0.6706 -0.2737 -0.7224
 8532SOL    HW137229   4.254   3.416   9.302 -1.9435  0.3693 -0.5104
 8532SOL    HW237230   4.178   3.366   9.425  1.8182 -1.1424  1.3981
 8533SOL     OW37231   2.136   3.874  16.404  0.1918  0.3060  0.1765
 8533SOL    HW137232   2.191   3.894  16.328  2.0960  1.4612  1.8723
 8533SOL    HW237233   2.046   3.893  16.376  0.0707  1.2237  1.1856
 8534SOL     OW37234   0.196   0.440  17.399  0.3935 -0.1154  0.0052
 8534SOL    HW137235   0.207   0.356  17.354  2.0378  0.8522 -1.4279
 8534SOL    HW237236   0.241   0.426  17.482  0.0113  2.0560  0.5638
 8535SOL     OW37237   3.409   3.981   6.873 -0.3182  0.1856 -0.3216
 8535SOL    HW137238   3.456   3.944   6.948 -1.2337  0.7650  0.5329
 8535SOL    HW237239   3.427   3.915   6.806  2.4932  1.7550 -1.1250
 8536SOL     OW37240   2.613   1.206   8.523  0.0291  0.2755 -0.1362
 8536SOL    HW137241   2.549   1.265   8.563  1.8440  1.5434  0.8729
 8536SOL    HW237242   2.611   1.138   8.590 -1.5229  2.1720  1.7169
 8537SOL     OW37243   0.347   4.739   5.532 -0.4811 -0.2980 -0.6778
 8537SOL    HW137244   0.400   4.673   5.578  0.0201  0.9537  0.5440
 8537SOL    HW237245   0.408   0.074   5.524 -2.7772  1.5936 -0.5689
 8538SOL     OW37246   0.417   1.722   9.049  0.4006 -0.1295 -0.2730
 8538SOL    HW137247   0.501   1.702   9.092  0.8408  0.2765 -0.9327
 8538SOL    HW237248   0.447   1.739   8.959  0.5345 -1.3715 -0.4710
 8539SOL     OW37249   4.302   0.853   4.372 -0.5504 -0.4707  0.3004
 8539SOL    HW137250   4.395   0.835   4.362 -0.8595 -1.1603 -1.4270
 8539SOL    HW237251   4.314   0.948   4.384  1.5097 -0.3911 -2.2911
 8540SOL     OW37252   1.274   4.329   8.259  0.0180  0.0295 -0.2257
 8540SOL    HW137253   1.187   4.366   8.247  0.2429  0.6146 -0.0302
 8540SOL    HW237254   1.309   4.313   8.171  1.8272 -1.0563  0.6888
 8541SOL     OW37255   3.781   1.954   2.631 -0.1431 -0.4834 -0.9708
 8541SOL    HW137256   3.794   1.882   2.693  2.1049 -1.1724 -2.2326
 8541SOL    HW237257   3.690   1.938   2.605 -0.8475 -1.2922  2.0453
 8542SOL     OW37258   2.735   3.093   4.853 -0.0912 -0.2750  0.8358
 8542SOL    HW137259   2.790   3.108   4.776  0.6024 -0.7446  1.2364
 8542SOL    HW237260   2.775   3.152   4.917  0.9315 -0.7551  0.6308
 8543SOL     OW37261   3.775   4.252  17.542  0.0259 -0.1959  0.3642
 8543SOL    HW137262   3.798   4.314  17.612 -0.6702 -1.2647  1.5404
 8543SOL    HW237263   3.855   4.200  17.539  2.1521  3.0112  1.2977
 8544SOL     OW37264   3.452   1.114   3.220 -0.2075 -0.2812  0.5887
 8544SOL    HW137265   3.414   1.201   3.234  1.0793 -0.2647  3.8905
 8544SOL    HW237266   3.376   1.061   3.195  0.8857 -1.6890  0.2872
 8545SOL     OW37267   4.536   3.078   2.942  0.0700 -0.0113  0.4577
 8545SOL    HW137268   4.527   2.987   2.916 -1.1907  1.1721 -3.2003
 8545SOL    HW237269   4.629   3.076   2.967  0.6723  0.0762 -1.8258
 8546SOL     OW37270   3.060   0.884   7.840 -0.1024 -0.3159 -0.0969
 8546SOL    HW137271   2.968   0.892   7.866  0.1152 -0.8696  0.8086
 8546SOL    HW237272   3.089   0.975   7.840  0.4810 -0.4927 -1.5577
 8547SOL     OW37273   0.376   3.550   9.467 -0.7412 -0.0486 -0.5519
 8547SOL    HW137274   0.444   3.559   9.535 -0.6659  2.1051 -0.9015
 8547SOL    HW237275   0.381   3.632   9.418  0.5078  0.3496  0.2393
 8548SOL     OW37276   3.863   4.639  16.946 -0.6265  0.1875 -0.3540
 8548SOL    HW137277   3.805   4.593  17.007 -1.3554  0.6158 -0.7287
 8548SOL    HW237278   3.825   4.727  16.951 -0.6849  0.1332  0.2475
 8549SOL     OW37279   4.361   0.512   7.619 -0.0961 -0.4740 -0.0703
 8549SOL    HW137280   4.390   0.451   7.687  0.1682  0.8672  1.0031
 8549SOL    HW237281   4.410   0.477   7.544 -1.1071 -0.7961 -0.5915
 8550SOL     OW37282   2.469   1.453  14.931 -0.0182  0.7135  0.7399
 8550SOL    HW137283   2.508   1.477  14.847 -0.8487  0.8181  0.3832
 8550SOL    HW237284   2.411   1.380  14.909  0.3536  0.5212  0.3906
 8551SOL     OW37285   4.089   1.781   2.721 -0.2041  0.3239 -0.2637
 8551SOL    HW137286   4.182   1.790   2.741  0.2384 -2.7774 -1.0046
 8551SOL    HW237287   4.087   1.811   2.630  0.0126  0.8295 -0.1042
 8552SOL     OW37288   3.670   2.734  15.222  0.2297  0.4898  0.5291
 8552SOL    HW137289   3.674   2.820  15.181 -1.1944  0.7201  0.8408
 8552SOL    HW237290   3.628   2.697  15.144  0.9399 -0.9246  0.8030
 8553SOL     OW37291   1.596   4.196  15.422  0.0461  0.1739  0.2688
 8553SOL    HW137292   1.548   4.145  15.356  2.1495  1.4756 -2.2996
 8553SOL    HW237293   1.686   4.162  15.422 -0.2120 -0.5084 -0.5152
 8554SOL     OW37294   3.869   2.801   2.910 -0.1261 -0.0682 -0.5468
 8554SOL    HW137295   3.826   2.785   2.826 -0.0115  0.3570 -0.6876
 8554SOL    HW237296   3.789   2.817   2.961 -0.0731  0.0719 -0.5091
 8555SOL     OW37297   1.577   2.776   3.798  0.4287  0.3782  0.4695
 8555SOL    HW137298   1.566   2.870   3.778  0.1919  0.1042 -0.7226
 8555SOL    HW237299   1.621   2.742   3.720 -1.2617  0.3744 -0.4945
 8556SOL     OW37300   2.782   4.241   8.632 -0.1258 -0.6048  0.4128
 8556SOL    HW137301   2.845   4.177   8.665 -2.5795 -3.3538 -0.2268
 8556SOL    HW237302   2.703   4.230   8.685 -1.3088  1.6843 -0.8416
 8557SOL     OW37303   0.163   2.539  17.545 -0.3654 -0.6282 -0.0853
 8557SOL    HW137304   0.127   2.540  17.634 -0.2053 -2.0367 -0.0033
 8557SOL    HW237305   0.118   2.468  17.498  0.8206 -2.7511  1.9705
 8558SOL     OW37306   4.682   2.211   9.171  0.4651 -0.0012  0.9743
 8558SOL    HW137307   4.647   2.294   9.138  1.2174 -0.1577 -0.2081
 8558SOL    HW237308   4.612   2.169   9.221 -0.8803 -0.4054 -1.2711
 8559SOL     OW37309   0.367   1.876   8.159  0.3235 -0.1339  0.2811
 8559SOL    HW137310   0.420   1.948   8.194 -1.8519  1.4622  0.2835
 8559SOL    HW237311   0.280   1.911   8.176  0.2565 -0.1865  0.0394
 8560SOL     OW37312   0.755   3.373   3.614  0.3489 -0.0321  0.1307
 8560SOL    HW137313   0.744   3.466   3.634  1.5043 -0.1752  1.4529
 8560SOL    HW237314   0.696   3.373   3.539  1.7964 -1.7343 -1.0045
 8561SOL     OW37315   2.225   1.064   5.420 -0.5156 -0.2296 -0.1977
 8561SOL    HW137316   2.243   1.111   5.501 -0.5623 -0.0438 -0.2947
 8561SOL    HW237317   2.275   0.983   5.432 -2.1607 -1.1794  0.1653
 8562SOL     OW37318   3.582   0.826   8.050 -0.2064 -0.2379 -0.8693
 8562SOL    HW137319   3.512   0.871   8.002 -0.3144 -1.6788 -2.0688
 8562SOL    HW237320   3.618   0.770   7.981  1.5527  0.2726 -0.3552
 8563SOL     OW37321   4.682   0.026  15.983  0.7417  0.2554  0.2297
 8563SOL    HW137322   4.664   0.113  16.020 -0.9964 -0.1483  0.3277
 8563SOL    HW237323   4.717   4.730  16.065 -1.2086 -2.7800 -0.2154
 8564SOL     OW37324   2.047   3.662   5.528  0.5627 -0.2868 -0.0742
 8564SOL    HW137325   1.964   3.698   5.497  1.9141  1.7066 -1.3816
 8564SOL    HW237326   2.112   3.729   5.505 -0.4628  0.8822  0.3681
 8565SOL     OW37327   4.644   1.079  17.458  0.5625  0.0125  0.4141
 8565SOL    HW137328   4.675   1.015  17.395 -0.0155 -0.0541  0.1973
 8565SOL    HW237329   4.641   1.160  17.408  0.2367 -0.6489 -0.6188
 8566SOL     OW37330   3.547   3.799   6.038  0.3173  0.2815 -0.0224
 8566SOL    HW137331   3.472   3.740   6.050  0.7144 -0.3423 -0.6191
 8566SOL    HW237332   3.559   3.777   5.946 -0.5995  0.3838 -0.1645
 8567SOL     OW37333   4.589   1.382   0.279  0.7936 -0.3873 -0.1937
 8567SOL    HW137334   4.521   1.438   0.317 -0.3164 -1.6809 -0.2464
 8567SOL    HW237335   4.537   1.319   0.229 -1.1569 -0.4560  1.8953
 8568SOL     OW37336   1.928   1.245   0.423  0.2909  0.4042  0.1212
 8568SOL    HW137337   2.007   1.206   0.460 -0.1364 -0.5517  0.0347
 8568SOL    HW237338   1.913   1.318   0.483  0.9691  0.4014  0.2970
 8569SOL     OW37339   1.517   0.672   5.023  0.3735  0.6957 -0.0512
 8569SOL    HW137340   1.449   0.738   5.011 -1.4873 -1.1072  0.4326
 8569SOL    HW237341   1.599   0.719   5.018  0.3800  0.5623 -1.0923
 8570SOL     OW37342   0.517   1.627   6.317 -0.1914 -0.0386  0.3734
 8570SOL    HW137343   0.510   1.719   6.339  1.2092 -0.2218  1.5926
 8570SOL    HW237344   0.597   1.629   6.265  1.1759  1.9014  2.5775
 8571SOL     OW37345   2.158   4.251   6.437  0.4064  0.4696 -0.2454
 8571SOL    HW137346   2.104   4.206   6.502 -0.5711  0.8687 -0.7831
 8571SOL    HW237347   2.241   4.203   6.436 -0.6607 -1.3769 -1.1590
 8572SOL     OW37348   2.571   0.282   2.219  0.1726 -0.4127 -0.2315
 8572SOL    HW137349   2.574   0.375   2.244  0.7440 -0.5413  0.1850
 8572SOL    HW237350   2.513   0.238   2.282  0.9010  0.5486  1.1138
 8573SOL     OW37351   2.953   1.478   6.719  0.3174  0.0178  0.2749
 8573SOL    HW137352   2.983   1.416   6.786  2.8343  1.1763  0.1846
 8573SOL    HW237353   2.912   1.418   6.657  1.3360 -2.1059  1.6530
 8574SOL     OW37354   1.306   1.061   4.813 -0.2564 -0.1263  0.0382
 8574SOL    HW137355   1.273   1.029   4.898 -2.2814 -1.2571 -1.1642
 8574SOL    HW237356   1.399   1.055   4.836 -0.2003  1.0296  0.1210
 8575SOL     OW37357   3.247   4.726   3.320  0.6501  0.4494  0.3180
 8575SOL    HW137358   3.270   0.019   3.233 -1.4859  1.1831  0.0152
 8575SOL    HW237359   3.280   4.636   3.316 -1.9829 -0.4650 -1.7136
 8576SOL     OW37360   1.042   1.426  15.371  0.2109 -0.2272 -0.1146
 8576SOL    HW137361   1.071   1.364  15.437  1.2381  1.6596  1.2125
 8576SOL    HW237362   1.121   1.442  15.320  1.7631 -1.3425  1.9702
 8577SOL     OW37363   3.231   1.108   1.958  1.5578 -0.5657  0.2248
 8577SOL    HW137364   3.173   1.181   1.936 -0.6764 -2.7633 -1.1765
 8577SOL    HW237365   3.278   1.136   2.037  1.1721 -0.3973  0.3958
 8578SOL     OW37366   0.045   0.923  17.658 -0.1678  0.7079 -0.2939
 8578SOL    HW137367   0.050   1.013  17.692  0.3682  0.0086  1.4537
 8578SOL    HW237368   0.024   0.946  17.567 -0.9621 -0.9163 -0.5156
 8579SOL     OW37369   1.993   2.779   8.207 -0.9512 -0.1040  0.4425
 8579SOL    HW137370   2.043   2.773   8.289 -1.2313  2.3098  0.7889
 8579SOL    HW237371   2.027   2.700   8.166  0.4806  0.0766  1.2695
 8580SOL     OW37372   0.928   0.094   2.039 -0.2449 -0.1732  0.3006
 8580SOL    HW137373   0.860   0.061   2.098  1.0322  0.5985  2.1956
 8580SOL    HW237374   0.969   0.012   2.013 -0.3573 -0.2147  0.2538
 8581SOL     OW37375   3.826   0.904   8.290 -0.0021 -0.1921 -0.0488
 8581SOL    HW137376   3.792   0.953   8.365  1.8179 -0.1780  0.7478
 8581SOL    HW237377   3.913   0.885   8.324  0.0365 -0.1169 -0.1076
 8582SOL     OW37378   0.668   3.878   3.810 -0.2964 -0.4571 -0.1049
 8582SOL    HW137379   0.686   3.855   3.901 -2.0165  1.0446  0.6120
 8582SOL    HW237380   0.688   3.972   3.811 -2.8700  0.1185 -0.5262
 8583SOL     OW37381   3.893   1.557   8.279 -0.5152 -0.0675 -1.0722
 8583SOL    HW137382   3.943   1.589   8.204  0.4826 -3.2277 -1.7431
 8583SOL    HW237383   3.960   1.539   8.345  0.7490  1.6112 -1.8861
 8584SOL     OW37384   3.688   0.733   2.987  0.1149 -0.7346 -0.3343
 8584SOL    HW137385   3.714   0.802   2.925  1.1152  1.5833  2.6829
 8584SOL    HW237386   3.776   0.709   3.017  0.6928 -0.4407 -1.7693
 8585SOL     OW37387   0.651   2.570  10.984 -0.0883  0.3635 -0.1930
 8585SOL    HW137388   0.740   2.587  11.015 -0.4592 -0.0677  1.1138
 8585SOL    HW237389   0.652   2.626  10.907  1.4688 -0.0335 -0.4676
 8586SOL     OW37390   2.208   3.117   3.919 -0.4697 -0.0882 -0.5584
 8586SOL    HW137391   2.298   3.123   3.888 -0.1662 -1.9130 -0.0329
 8586SOL    HW237392   2.153   3.133   3.842 -1.2416 -2.4017 -0.4988
 8587SOL     OW37393   2.570   3.265   9.246 -0.3800  0.6070 -0.3931
 8587SOL    HW137394   2.509   3.192   9.253  0.4154  0.0071  0.2788
 8587SOL    HW237395   2.521   3.328   9.193  0.2181  0.7287 -0.8044
 8588SOL     OW37396   2.801   2.681   4.672 -0.7414  0.0843  0.6040
 8588SOL    HW137397   2.730   2.733   4.709 -2.1104 -1.1155 -0.3253
 8588SOL    HW237398   2.868   2.748   4.660 -2.8190  1.9059 -0.6684
 8589SOL     OW37399   3.232   4.470   2.892 -0.1040  0.3103 -0.0321
 8589SOL    HW137400   3.231   4.438   2.802 -0.1022  0.9292 -0.2556
 8589SOL    HW237401   3.187   4.555   2.886  1.1108  0.9205 -0.4969
 8590SOL     OW37402   2.125   1.267   4.583 -0.1408 -0.1184  0.0231
 8590SOL    HW137403   2.212   1.295   4.613  0.0803  1.5498 -2.1479
 8590SOL    HW237404   2.095   1.354   4.557  2.1016  0.5195 -0.4404
 8591SOL     OW37405   1.360   4.083   1.036 -0.3792 -0.8883 -0.6119
 8591SOL    HW137406   1.440   4.095   1.087 -0.4641  0.1648 -0.7316
 8591SOL    HW237407   1.311   4.029   1.097  0.3571 -2.3714 -1.3291
 8592SOL     OW37408   3.459   1.827   1.975  0.5830  0.2205 -0.2639
 8592SOL    HW137409   3.509   1.873   1.907  1.0938 -1.9804 -1.3712
 8592SOL    HW237410   3.512   1.749   1.990  0.8003  0.5778  0.8325
 8593SOL     OW37411   0.098   4.000  13.399 -0.4232  0.5980 -0.5789
 8593SOL    HW137412   0.086   4.094  13.413  0.7423  0.3726  1.9181
 8593SOL    HW237413   0.091   3.976  13.492  0.6098 -0.1117 -0.6903
 8594SOL     OW37414   1.523   0.097  11.343 -0.2514  0.2459 -0.2322
 8594SOL    HW137415   1.503   0.047  11.422 -0.5548 -0.5482 -0.8090
 8594SOL    HW237416   1.521   0.026  11.279  1.3509 -1.1270  1.2221
 8595SOL     OW37417   1.513   4.732   7.142 -1.0421 -0.2865  0.2209
 8595SOL    HW137418   1.542   4.680   7.068 -0.4617 -0.8747  0.8541
 8595SOL    HW237419   1.595   4.727   7.191 -1.5746  0.9554  1.2799
 8596SOL     OW37420   0.999   1.058   0.283  0.6282  0.0229  0.0146
 8596SOL    HW137421   1.024   0.988   0.223  0.5798  0.2322 -0.2509
 8596SOL    HW237422   0.906   1.056   0.262  1.1540  1.3242 -2.4119
 8597SOL     OW37423   3.733   1.703   7.651  0.0834 -0.2452  0.3174
 8597SOL    HW137424   3.719   1.779   7.708 -1.9615  0.6746 -1.4244
 8597SOL    HW237425   3.741   1.645   7.727 -0.3896  1.5866  1.7553
 8598SOL     OW37426   3.533   1.207   1.782  1.0357  0.5485  0.4299
 8598SOL    HW137427   3.493   1.160   1.854  0.8479  2.4996  1.6143
 8598SOL    HW237428   3.455   1.250   1.746  1.3444  1.8814  1.3560
 8599SOL     OW37429   2.849   3.275  15.598 -0.0728  0.1320 -0.5211
 8599SOL    HW137430   2.837   3.186  15.632  0.7736  0.9063  1.8172
 8599SOL    HW237431   2.809   3.321  15.672 -1.0874  1.1014 -1.6563
 8600SOL     OW37432   0.084   0.647  17.542  0.2126  0.4581 -0.0739
 8600SOL    HW137433   0.125   0.720  17.496 -0.9194  0.9785 -0.2487
 8600SOL    HW237434   0.137   0.575  17.507 -0.9200 -0.4001 -0.0186
 8601SOL     OW37435   4.569   3.524   4.310 -0.2081  0.0635 -0.3079
 8601SOL    HW137436   4.554   3.547   4.402  0.9016  2.8368 -0.8266
 8601SOL    HW237437   4.486   3.484   4.285 -0.1548 -0.5184  0.4471
 8602SOL     OW37438   2.115   3.686   8.787  0.4599 -0.0017  0.3535
 8602SOL    HW137439   2.040   3.668   8.731 -0.1447 -0.0692  1.1990
 8602SOL    HW237440   2.162   3.759   8.746 -0.4983 -0.2013 -1.0682
 8603SOL     OW37441   3.915   2.902  12.274  0.4525 -0.3337  0.4265
 8603SOL    HW137442   3.938   2.933  12.187  0.9568 -0.8031  0.3914
 8603SOL    HW237443   3.830   2.945  12.278  0.8187  0.3751  0.5335
 8604SOL     OW37444   2.471   0.472  16.192  0.1276  0.7289  0.2474
 8604SOL    HW137445   2.467   0.564  16.219  0.3359  0.7437  0.2283
 8604SOL    HW237446   2.549   0.445  16.241 -0.5571 -3.5640 -1.0835
 8605SOL     OW37447   0.800   2.128   4.487 -0.9311  0.2956 -0.1771
 8605SOL    HW137448   0.792   2.210   4.440  1.1684  0.5041 -0.1783
 8605SOL    HW237449   0.869   2.090   4.432 -1.3546  0.3780 -0.7532
 8606SOL     OW37450   4.071   3.472   2.065 -0.4241 -0.4812  0.0519
 8606SOL    HW137451   4.067   3.544   2.129 -0.0274 -0.5393  0.1402
 8606SOL    HW237452   4.160   3.486   2.034  0.4012 -0.5249  2.3725
 8607SOL     OW37453   0.867   4.697   9.039 -0.6317 -0.0261 -0.1236
 8607SOL    HW137454   0.845   0.043   9.079 -2.9369  0.3663 -2.1947
 8607SOL    HW237455   0.867   4.655   9.125  0.1625 -0.9324 -0.5678
 8608SOL     OW37456   0.543   1.755  17.547  0.0161 -0.4371  0.0066
 8608SOL    HW137457   0.528   1.848  17.528  2.7319  0.1320  0.6248
 8608SOL    HW237458   0.475   1.755  17.614 -0.8597  0.9482 -0.8823
 8609SOL     OW37459   1.297   4.025  10.976  0.1454 -0.2165 -0.3403
 8609SOL    HW137460   1.247   4.044  10.897  0.1468 -3.3599 -1.1261
 8609SOL    HW237461   1.221   4.017  11.034  2.4581 -3.5489  2.2574
 8610SOL     OW37462   0.313   4.482   8.156 -0.6291 -0.0927  0.2376
 8610SOL    HW137463   0.329   4.395   8.191 -0.1926  0.2758  0.9642
 8610SOL    HW237464   0.326   4.459   8.064  1.6690  0.6951  0.3543
 8611SOL     OW37465   3.159   4.381   3.524 -0.1724 -0.7239  0.2272
 8611SOL    HW137466   3.229   4.414   3.468 -1.5632 -0.3160 -1.2646
 8611SOL    HW237467   3.194   4.305   3.571  1.0117  0.9941  2.1412
 8612SOL     OW37468   2.656   1.003   2.167  0.2033 -0.6286  0.1323
 8612SOL    HW137469   2.640   1.041   2.081  1.4029 -1.3712 -0.4231
 8612SOL    HW237470   2.734   1.050   2.195 -0.3877  0.2540  0.2848
 8613SOL     OW37471   2.793   2.993   0.652  0.3728  0.3232 -0.4435
 8613SOL    HW137472   2.708   2.953   0.630  0.9570 -0.9874 -0.2766
 8613SOL    HW237473   2.824   3.022   0.567  2.1699 -1.9694 -0.5508
 8614SOL     OW37474   0.283   2.323   6.939 -0.9273 -0.5776  1.2760
 8614SOL    HW137475   0.372   2.300   6.963 -0.2990 -2.5633 -2.8723
 8614SOL    HW237476   0.237   2.239   6.943 -0.7825 -0.5841  2.5985
 8615SOL     OW37477   3.814   2.338   9.143  1.4916  0.2256  0.4533
 8615SOL    HW137478   3.758   2.375   9.212 -1.1350  1.1049 -2.1799
 8615SOL    HW237479   3.763   2.269   9.101  2.3194  1.8950 -3.2333
 8616SOL     OW37480   2.604   2.462   2.770 -0.1486 -0.7334  0.0767
 8616SOL    HW137481   2.622   2.447   2.863 -0.5557 -0.7495  0.1522
 8616SOL    HW237482   2.598   2.557   2.767 -0.1304 -0.7116  0.8199
 8617SOL     OW37483   3.324   1.744   8.159  0.4426  0.0867  0.2468
 8617SOL    HW137484   3.337   1.833   8.191 -1.5923  1.0924 -1.7429
 8617SOL    HW237485   3.229   1.745   8.165  0.5405 -1.1494  1.9883
 8618SOL     OW37486   3.612   0.940   3.355  0.2560  0.1882  0.2211
 8618SOL    HW137487   3.550   0.916   3.424  0.5782  0.5861  0.6558
 8618SOL    HW237488   3.561   1.005   3.307  2.8554  2.7180  0.8428
 8619SOL     OW37489   4.624   1.114   9.267 -0.5012  0.3391  0.6765
 8619SOL    HW137490   4.718   1.102   9.282 -0.4698  0.4251  0.5557
 8619SOL    HW237491   4.602   1.024   9.291  0.2293 -0.7946 -2.8911
 8620SOL     OW37492   2.158   1.296   0.208  0.0033  0.1439 -0.7638
 8620SOL    HW137493   2.109   1.265   0.284 -0.0131 -1.0413 -1.2601
 8620SOL    HW237494   2.106   1.369   0.174  1.7742  1.7972  0.0447
 8621SOL     OW37495   3.769   3.592   0.482 -0.1391  0.0548 -0.0757
 8621SOL    HW137496   3.770   3.686   0.463 -2.2483  0.0488 -0.2067
 8621SOL    HW237497   3.698   3.577   0.420  0.5970  0.2253 -0.9599
 8622SOL     OW37498   3.876   3.315   3.336 -0.3838  0.3804 -0.1149
 8622SOL    HW137499   3.929   3.394   3.350 -0.8284  0.6243  0.1965
 8622SOL    HW237500   3.944   3.258   3.301  0.2712  0.4647  1.0357
 8623SOL     OW37501   4.422   4.539   3.685 -0.0799  0.0925  0.0852
 8623SOL    HW137502   4.384   4.627   3.678  2.7987  1.1363 -2.3890
 8623SOL    HW237503   4.515   4.555   3.700 -0.1273  1.2557 -0.7819
 8624SOL     OW37504   1.064   2.094   3.656 -0.1504 -0.2612 -1.1433
 8624SOL    HW137505   1.111   2.056   3.731 -0.7300 -1.8021 -1.5565
 8624SOL    HW237506   0.977   2.069   3.686  0.1088  2.2823  1.7350
 8625SOL     OW37507   4.008   2.016  16.106  0.5355  0.1233  0.4334
 8625SOL    HW137508   3.997   2.089  16.046  0.7097  1.7338  2.3472
 8625SOL    HW237509   3.918   1.985  16.097  0.9507 -0.4475 -1.8029
 8626SOL     OW37510   2.317   2.424  17.367  0.5618 -0.7205 -0.0785
 8626SOL    HW137511   2.348   2.437  17.456 -0.0444  1.3998 -0.1604
 8626SOL    HW237512   2.366   2.354  17.325  1.6004  1.0205 -1.8320
 8627SOL     OW37513   4.174   4.501   6.474 -0.0675 -0.3742  0.4436
 8627SOL    HW137514   4.230   4.573   6.503 -1.0427  0.4080  0.4004
 8627SOL    HW237515   4.242   4.441   6.444  0.6270  1.1876 -1.1142
 8628SOL     OW37516   2.907   2.958   2.557  0.2514 -0.3289 -0.3117
 8628SOL    HW137517   2.867   2.911   2.484  0.1602 -2.3165  1.0291
 8628SOL    HW237518   2.994   2.924   2.535 -0.0630 -1.2110 -0.1945
 8629SOL     OW37519   3.091   4.672   2.613 -0.3593  0.5070 -0.0511
 8629SOL    HW137520   3.041   4.729   2.554 -0.6771 -0.1553 -0.4297
 8629SOL    HW237521   3.079   4.725   2.692 -3.2153 -0.4194  0.1404
 8630SOL     OW37522   2.173   3.880  14.511  0.1723 -0.5495 -0.1074
 8630SOL    HW137523   2.167   3.941  14.438 -1.3208 -0.3758  0.1509
 8630SOL    HW237524   2.107   3.904  14.576  0.0879 -0.3817 -0.2554
 8631SOL     OW37525   0.049   4.216   8.159 -0.1839  0.0669  0.1613
 8631SOL    HW137526   0.108   4.255   8.094  1.5152 -0.2888  1.4972
 8631SOL    HW237527   4.716   4.189   8.102 -1.3312 -3.5361  3.3289
 8632SOL     OW37528   4.296   1.524   4.333  0.0455  0.1613 -0.5187
 8632SOL    HW137529   4.242   1.446   4.327 -1.0608  0.6237  3.6385
 8632SOL    HW237530   4.242   1.598   4.305  1.3490  1.4138  0.2706
 8633SOL     OW37531   0.286   2.632  11.670  0.7003  0.4965 -0.5559
 8633SOL    HW137532   0.351   2.637  11.599  0.0719 -1.3102 -1.2656
 8633SOL    HW237533   0.206   2.607  11.623  0.6682 -1.3203  0.4496
 8634SOL     OW37534   0.737   1.541  16.140 -0.1680 -0.0103  0.7866
 8634SOL    HW137535   0.782   1.457  16.128  0.7825  0.3626  1.7457
 8634SOL    HW237536   0.784   1.569  16.219 -0.0693 -0.4217  0.8763
 8635SOL     OW37537   3.717   3.454   6.061 -0.4208 -0.2762  0.3488
 8635SOL    HW137538   3.799   3.502   6.068  1.1306 -2.7350 -0.9676
 8635SOL    HW237539   3.721   3.433   6.154 -0.9820 -1.0504  0.1952
 8636SOL     OW37540   3.504   2.372   9.937  0.2805 -0.4596  0.0439
 8636SOL    HW137541   3.512   2.395  10.029 -0.0158 -0.1077 -0.0157
 8636SOL    HW237542   3.421   2.415   9.915  1.1019  2.0057  1.7766
 8637SOL     OW37543   4.331   2.183   0.230  1.2560  0.1436  0.1101
 8637SOL    HW137544   4.334   2.241   0.306 -1.7176  0.9992 -0.4210
 8637SOL    HW237545   4.294   2.100   0.260  2.8352 -1.4896 -2.4897
 8638SOL     OW37546   2.375   2.085   4.661  0.0050  0.1506 -0.0257
 8638SOL    HW137547   2.345   2.082   4.570  1.2799  1.3195 -0.4827
 8638SOL    HW237548   2.434   2.160   4.662  0.2870 -0.0495 -1.5525
 8639SOL     OW37549   1.346   0.512   2.225 -0.4684 -0.3183  0.1689
 8639SOL    HW137550   1.257   0.538   2.249 -0.7874 -0.8058 -0.4762
 8639SOL    HW237551   1.395   0.526   2.306 -2.8535 -0.7269  1.6725
 8640SOL     OW37552   2.403   3.771   9.099  0.2441  0.3183 -0.2995
 8640SOL    HW137553   2.424   3.685   9.062 -1.8807  0.0929 -0.9642
 8640SOL    HW237554   2.308   3.767   9.110  0.2723  0.0848 -0.1507
 8641SOL     OW37555   4.051   1.260   1.630 -0.5858 -0.1875  0.2480
 8641SOL    HW137556   4.038   1.303   1.546  0.3012  1.9295  1.1995
 8641SOL    HW237557   3.961   1.233   1.648 -0.4310 -1.4944 -0.9493
 8642SOL     OW37558   0.857   1.061   2.361 -0.4774 -0.1499  0.1187
 8642SOL    HW137559   0.830   0.978   2.322  0.1307 -0.1948 -0.2166
 8642SOL    HW237560   0.949   1.066   2.335  0.1341  0.9534  2.5155
 8643SOL     OW37561   2.613   2.306   7.835 -0.0201  0.2424  0.4309
 8643SOL    HW137562   2.599   2.361   7.758  1.4393 -0.1507 -0.1185
 8643SOL    HW237563   2.633   2.218   7.803 -1.7764  0.8333 -2.2853
 8644SOL     OW37564   4.595   3.635   8.140 -0.4435 -0.2667  0.6570
 8644SOL    HW137565   4.605   3.598   8.228 -0.0684 -1.0645  0.2883
 8644SOL    HW237566   4.523   3.581   8.108 -2.3533  2.9340 -0.3702
 8645SOL     OW37567   3.080   3.564  11.090  0.3208  0.4088  0.3066
 8645SOL    HW137568   3.047   3.498  11.030 -2.3046  0.8531  1.2575
 8645SOL    HW237569   3.066   3.520  11.174  1.6018  0.0039  0.3011
 8646SOL     OW37570   4.032   3.057   9.713  0.0879  0.3314 -0.2452
 8646SOL    HW137571   4.011   3.141   9.755  1.8954  0.8929 -0.4491
 8646SOL    HW237572   4.116   3.032   9.753 -0.3936  1.4484  1.4928
 8647SOL     OW37573   1.699   4.490  17.093  0.5234  0.4091 -0.0148
 8647SOL    HW137574   1.728   4.451  17.176  0.7139  0.4931 -0.0408
 8647SOL    HW237575   1.639   4.425  17.057  0.4225  0.3429  0.2697
 8648SOL     OW37576   3.941   2.633   3.131  0.0742 -0.0214 -0.0099
 8648SOL    HW137577   3.961   2.700   3.065  1.4307  0.9107  1.3351
 8648SOL    HW237578   3.873   2.586   3.084 -0.3265  0.0935  0.4615
 8649SOL     OW37579   2.945   3.770   6.529  0.0049  0.1106 -0.1644
 8649SOL    HW137580   3.011   3.790   6.595  0.2702 -0.2263 -0.3287
 8649SOL    HW237581   2.996   3.737   6.455 -1.8189 -1.4539 -0.7110
 8650SOL     OW37582   4.000   4.444  14.621 -0.0310  0.4074 -0.3177
 8650SOL    HW137583   3.914   4.419  14.587  1.3679 -1.1563 -2.7071
 8650SOL    HW237584   4.019   4.360  14.665  0.5731  1.1410  0.8216
 8651SOL     OW37585   2.619   3.917  17.378 -0.5584  0.0041  0.5005
 8651SOL    HW137586   2.670   3.991  17.413 -0.4416  1.4548 -2.7183
 8651SOL    HW237587   2.581   3.886  17.460  1.2411  2.0321  2.1091
 8652SOL     OW37588   4.500   0.584   9.484  0.7101  0.5632 -0.2481
 8652SOL    HW137589   4.458   0.510   9.528 -1.6991  3.0886  1.6730
 8652SOL    HW237590   4.422   0.639   9.486  1.2550  1.4127 -1.7247
 8653SOL     OW37591   3.855   3.902   2.918 -0.3204  0.2575  0.0907
 8653SOL    HW137592   3.848   3.878   2.825 -1.7875 -0.1034  0.2846
 8653SOL    HW237593   3.897   3.823   2.952 -0.7511  0.6141  1.4481
 8654SOL     OW37594   3.329   0.065   9.380 -0.3148  0.0750 -0.1690
 8654SOL    HW137595   3.271   0.011   9.433  0.0767  1.1104  1.3139
 8654SOL    HW237596   3.409   0.091   9.425  0.8729 -0.4408 -1.9712
 8655SOL     OW37597   2.005   1.311   2.280 -0.0492  0.1237  0.8546
 8655SOL    HW137598   1.919   1.349   2.295 -0.0708 -0.0483  1.1677
 8655SOL    HW237599   2.050   1.392   2.257  0.7549 -1.2028 -2.3358
 8656SOL     OW37600   2.325   0.003   7.819  0.4005 -0.0667 -0.6771
 8656SOL    HW137601   2.273   0.075   7.784  1.7936  1.7550  1.0394
 8656SOL    HW237602   2.412   0.027   7.849  0.9498 -0.0086 -2.3340
 8657SOL     OW37603   0.915   3.523  11.865  0.0493  0.3651 -0.0276
 8657SOL    HW137604   0.822   3.531  11.883  0.0274 -1.2179  0.5656
 8657SOL    HW237605   0.930   3.575  11.786  3.1020 -0.2074  0.1497
 8658SOL     OW37606   3.422   4.586   4.695  0.0992 -0.6494 -0.1309
 8658SOL    HW137607   3.508   4.612   4.728 -0.1150  1.5088 -1.2836
 8658SOL    HW237608   3.367   4.657   4.729  0.8486 -0.3623  0.4871
 8659SOL     OW37609   2.705   2.228   8.313  0.1008  0.6995  0.0048
 8659SOL    HW137610   2.651   2.260   8.241 -0.3523 -2.1936 -0.9543
 8659SOL    HW237611   2.680   2.136   8.306  0.4065  0.6044  0.1833
 8660SOL     OW37612   0.091   1.509   7.795 -0.2780 -0.0919  0.3112
 8660SOL    HW137613   0.065   1.417   7.796 -0.5144 -0.0052  1.7188
 8660SOL    HW237614   0.015   1.550   7.836 -0.5829 -0.5838  0.2371
 8661SOL     OW37615   0.248   1.761  14.391  0.0883  0.2846  0.2516
 8661SOL    HW137616   0.162   1.796  14.367 -1.0264 -2.2489  0.5105
 8661SOL    HW237617   0.287   1.748  14.304  1.9716 -0.0585  1.1407
 8662SOL     OW37618   4.022   2.059   2.685 -0.3789 -0.6471 -0.2405
 8662SOL    HW137619   4.049   1.991   2.623 -1.2454  0.0281 -1.3644
 8662SOL    HW237620   3.927   2.046   2.689 -0.7583  2.2266  0.5504
 8663SOL     OW37621   4.646   2.637   3.525  0.0545  0.2523  0.2065
 8663SOL    HW137622   4.707   2.676   3.462  0.5946 -2.3282 -0.8484
 8663SOL    HW237623   4.687   2.551   3.539 -0.1901 -0.4827 -3.5460
 8664SOL     OW37624   1.741   0.056   5.081  0.3239 -0.6210  0.2523
 8664SOL    HW137625   1.707   4.711   5.052 -0.1512 -0.4222  0.2219
 8664SOL    HW237626   1.768   0.100   5.000 -2.0677  1.1410  0.4091
 8665SOL     OW37627   0.001   1.851   0.138  0.1338 -0.0177 -0.2356
 8665SOL    HW137628   4.738   1.805   0.223 -0.1653 -0.0587 -0.2643
 8665SOL    HW237629   4.730   1.942   0.164  0.6728  0.0880 -0.4076
 8666SOL     OW37630   2.607   2.655   9.430 -0.1906  0.4826 -0.4016
 8666SOL    HW137631   2.695   2.659   9.467  0.6167 -0.7910 -2.1810
 8666SOL    HW237632   2.592   2.569   9.470  2.5342  1.1180  2.0453
 8667SOL     OW37633   2.942   2.394  13.855 -0.3436 -0.1713  0.2507
 8667SOL    HW137634   2.972   2.478  13.889 -0.2613  0.3155 -1.0377
 8667SOL    HW237635   3.014   2.355  13.805  0.4226  0.3722  0.9346
 8668SOL     OW37636   2.000   4.218   5.953  0.1717 -0.6105 -0.2400
 8668SOL    HW137637   2.062   4.227   6.025 -1.8925  0.5023  1.3985
 8668SOL    HW237638   2.027   4.291   5.897 -1.7353 -0.9258 -1.6106
 8669SOL     OW37639   3.086   1.283   3.273 -0.1467 -0.2305  0.1235
 8669SOL    HW137640   3.066   1.276   3.180  1.4348 -1.0947 -0.1733
 8669SOL    HW237641   3.014   1.232   3.311 -2.6757  4.0004  0.9671
 8670SOL     OW37642   3.312   3.421   2.435 -0.5897 -0.8437  0.1466
 8670SOL    HW137643   3.338   3.512   2.453 -1.2356 -0.3959 -1.1939
 8670SOL    HW237644   3.243   3.415   2.501  1.6941 -1.5778  2.5062
 8671SOL     OW37645   0.678   1.191   3.250 -0.0074  1.0817  0.0699
 8671SOL    HW137646   0.606   1.226   3.199 -0.1137  1.1127  0.2418
 8671SOL    HW237647   0.724   1.136   3.187  2.9698  0.1574  3.0344
 8672SOL     OW37648   0.376   2.516   6.783 -0.1667  0.0939  0.1720
 8672SOL    HW137649   0.304   2.530   6.721  0.5169 -0.6557 -0.7883
 8672SOL    HW237650   0.339   2.458   6.849 -1.9241  0.8044 -0.1887
 8673SOL     OW37651   0.434   2.597   0.280  0.2354 -0.5777 -0.1172
 8673SOL    HW137652   0.365   2.652   0.242  2.0200  0.2231 -2.2533
 8673SOL    HW237653   0.418   2.509   0.247 -1.6819 -0.9576  1.8675
 8674SOL     OW37654   2.317   2.596  14.350 -0.3566  0.0375  0.1988
 8674SOL    HW137655   2.314   2.684  14.388 -0.6375  0.1570 -0.0999
 8674SOL    HW237656   2.272   2.602  14.266 -0.1694  0.7493  0.1497
 8675SOL     OW37657   3.668   3.098   2.064  0.3958  0.3415  0.2367
 8675SOL    HW137658   3.756   3.129   2.083 -0.6589  2.2738  1.9658
 8675SOL    HW237659   3.629   3.169   2.013  0.6408 -0.9195 -1.6837
 8676SOL     OW37660   2.038   4.004   7.214  0.2455  0.1294 -0.7036
 8676SOL    HW137661   2.053   4.091   7.176  2.0648  0.7844  1.4950
 8676SOL    HW237662   2.087   4.015   7.296 -0.5071 -1.7188 -0.0086
 8677SOL     OW37663   4.228   1.069   0.630 -0.0868  0.3198  0.2628
 8677SOL    HW137664   4.138   1.067   0.662 -0.8133  2.0773 -1.6767
 8677SOL    HW237665   4.210   1.026   0.547 -0.5603  1.3770 -0.1792
 8678SOL     OW37666   4.673   4.005   9.299 -0.6386  0.8225  0.0936
 8678SOL    HW137667   4.725   3.999   9.379 -1.2984 -1.1505  0.3650
 8678SOL    HW237668   0.007   4.041   9.248 -1.4187  1.5462 -0.4959
 8679SOL     OW37669   2.518   3.980  14.699 -0.3536 -0.3092 -0.1844
 8679SOL    HW137670   2.537   3.976  14.606  0.1062 -3.5972  0.0573
 8679SOL    HW237671   2.442   4.038  14.694 -0.3910 -0.2769  0.7565
 8680SOL     OW37672   3.698   3.617   5.357 -0.1644  0.0426 -0.0091
 8680SOL    HW137673   3.696   3.618   5.261 -2.2488  1.2828  0.0400
 8680SOL    HW237674   3.609   3.648   5.377 -0.4254  0.2946 -1.5202
 8681SOL     OW37675   2.219   3.846  10.913 -0.1471 -0.9013  0.2962
 8681SOL    HW137676   2.258   3.834  10.826 -2.5449  0.6154 -0.9891
 8681SOL    HW237677   2.234   3.762  10.956 -0.3929 -0.7116  0.7585
 8682SOL     OW37678   2.408   2.794   5.297 -0.7357 -0.0316  0.2202
 8682SOL    HW137679   2.441   2.714   5.338  1.7556  0.8415 -0.0946
 8682SOL    HW237680   2.494   2.835   5.291 -0.6198 -0.4920 -1.2553
 8683SOL     OW37681   3.720   2.814   6.742 -0.0715  0.3641  0.5812
 8683SOL    HW137682   3.657   2.782   6.677  0.6357  1.2207 -0.5219
 8683SOL    HW237683   3.785   2.744   6.753  0.4860  0.7362 -0.3680
 8684SOL     OW37684   0.911   2.770   7.930 -0.1013 -0.3724  0.7380
 8684SOL    HW137685   0.942   2.689   7.889 -0.9904 -0.7274  0.7706
 8684SOL    HW237686   0.989   2.820   7.908  0.3221 -0.8789  1.0917
 8685SOL     OW37687   0.105   3.074   5.983 -0.2609 -0.0709  0.0168
 8685SOL    HW137688   0.144   3.141   6.040  0.5172  0.5333 -1.2209
 8685SOL    HW237689   0.077   3.005   6.044  1.6488 -1.5196 -0.7133
 8686SOL     OW37690   2.358   2.849   2.648  0.3486 -0.0030  0.0678
 8686SOL    HW137691   2.411   2.771   2.634  1.0044  0.4748 -0.1136
 8686SOL    HW237692   2.369   2.901   2.568  1.2675  0.0016  0.1918
 8687SOL     OW37693   2.971   3.025   7.813  0.0944  0.2453  0.1681
 8687SOL    HW137694   3.039   2.996   7.753  0.1168 -0.2742  0.4440
 8687SOL    HW237695   2.916   2.946   7.812 -0.6102  0.7723 -2.1422
 8688SOL     OW37696   4.662   0.661   5.183  0.7004 -0.3223  0.2389
 8688SOL    HW137697   4.732   0.601   5.157 -0.1871 -1.2159 -0.0694
 8688SOL    HW237698   4.608   0.607   5.240  0.5207 -1.4292 -0.9785
 8689SOL     OW37699   1.908   1.777   1.738  0.3670  0.4417  0.7781
 8689SOL    HW137700   1.888   1.685   1.752  1.4834  0.0656 -0.1411
 8689SOL    HW237701   1.824   1.810   1.707 -0.4247  0.1506  2.5814
 8690SOL     OW37702   0.629   1.388   5.517  0.2338  0.0975 -0.4395
 8690SOL    HW137703   0.591   1.430   5.440  1.5524  1.9688 -0.0632
 8690SOL    HW237704   0.587   1.303   5.528  1.5803 -0.1307  2.6879
 8691SOL     OW37705   1.610   0.232   5.801  0.1877  0.5438  0.2567
 8691SOL    HW137706   1.635   0.285   5.725  0.9957 -3.0368 -1.9462
 8691SOL    HW237707   1.516   0.246   5.785 -0.9050 -1.9484  4.3975
 8692SOL     OW37708   3.588   2.834   2.354  0.0421  0.2225  0.5484
 8692SOL    HW137709   3.504   2.820   2.395  0.6124 -1.3360  1.1742
 8692SOL    HW237710   3.559   2.899   2.290  0.2850 -1.4351 -1.2673
 8693SOL     OW37711   2.399   3.201  14.997 -0.1087  0.2278 -0.3182
 8693SOL    HW137712   2.387   3.130  15.061  1.4182 -0.0961 -0.3811
 8693SOL    HW237713   2.316   3.197  14.950  0.4610 -0.6282 -1.2632
 8694SOL     OW37714   4.706   2.977  17.297 -0.4284  0.7306  0.1281
 8694SOL    HW137715   4.720   3.060  17.341  2.2814  0.6308 -0.5061
 8694SOL    HW237716   4.611   2.964  17.299 -0.3822  0.3136 -0.2426
 8695SOL     OW37717   4.275   1.005   8.886 -0.2517  0.3654  0.2043
 8695SOL    HW137718   4.202   1.021   8.946  0.8665 -3.5400  2.5898
 8695SOL    HW237719   4.352   0.981   8.937 -1.3635 -1.9244  0.7880
 8696SOL     OW37720   4.143   1.409   5.740 -0.2848 -0.6671  0.4410
 8696SOL    HW137721   4.171   1.491   5.780  2.7315 -0.8234 -1.3213
 8696SOL    HW237722   4.133   1.446   5.652 -2.1571 -1.5845  0.2625
 8697SOL     OW37723   1.671   4.727  15.413 -0.6583 -0.2420  0.0892
 8697SOL    HW137724   1.662   4.689  15.326 -0.4697 -1.1466  0.4667
 8697SOL    HW237725   1.761   0.020  15.410 -0.3352 -1.0718  0.8720
 8698SOL     OW37726   0.939   3.896   7.274  1.0727 -0.8764 -0.0790
 8698SOL    HW137727   0.920   3.841   7.197  1.4478  2.0089 -2.2412
 8698SOL    HW237728   0.960   3.829   7.339  1.4138  1.4098  2.1483
 8699SOL     OW37729   1.089   3.145   1.846 -0.3537  0.5879 -0.0932
 8699SOL    HW137730   1.061   3.173   1.758  1.5094  3.6287  0.2822
 8699SOL    HW237731   1.138   3.217   1.884 -0.0534  1.7669 -2.6842
 8700SOL     OW37732   4.608   2.998  15.367  0.2277  0.8237 -0.9195
 8700SOL    HW137733   4.655   2.956  15.295  1.5112 -0.3324  0.5711
 8700SOL    HW237734   4.673   3.034  15.427  0.7543  0.3053 -1.1793
 8701SOL     OW37735   1.305   0.009   9.322 -0.0562 -0.2744 -0.0164
 8701SOL    HW137736   1.212   0.027   9.307  0.1467  0.3008 -0.5735
 8701SOL    HW237737   1.300   4.662   9.365  0.0218 -0.7601 -0.9715
 8702SOL     OW37738   2.007   4.208   3.390  0.0463  0.3997  0.0267
 8702SOL    HW137739   1.926   4.243   3.353  0.2270 -1.6762 -2.3694
 8702SOL    HW237740   2.042   4.171   3.309 -1.4897 -1.0304  0.0203
 8703SOL     OW37741   3.830   0.148   2.873  0.5607  0.7079 -0.1298
 8703SOL    HW137742   3.764   0.148   2.941 -0.6746 -1.9081 -1.3438
 8703SOL    HW237743   3.777   0.134   2.794  1.3176 -0.2048 -0.4857
 8704SOL     OW37744   4.123   0.919  15.412  0.4852  0.3409  0.1064
 8704SOL    HW137745   4.195   0.863  15.384 -0.7305 -0.9784 -0.4004
 8704SOL    HW237746   4.169   0.971  15.477  2.0633 -0.8024 -0.1015
 8705SOL     OW37747   0.025   1.221  10.572 -0.2042 -0.2991  0.1151
 8705SOL    HW137748   4.673   1.209  10.546 -1.5246  3.0850  3.3029
 8705SOL    HW237749   0.067   1.220  10.485 -0.9526 -0.1810 -0.2435
 8706SOL     OW37750   0.835   1.078  10.361 -0.4057  0.6767  0.4761
 8706SOL    HW137751   0.808   0.991  10.392  0.8335  0.3692  0.6711
 8706SOL    HW237752   0.756   1.131  10.370 -1.0944 -0.4398  1.0671
 8707SOL     OW37753   2.449   2.762   3.127 -0.3517 -0.5576  0.0517
 8707SOL    HW137754   2.436   2.847   3.170  1.9942  0.2468 -0.8485
 8707SOL    HW237755   2.440   2.786   3.035 -0.6550  0.4449  0.3405
 8708SOL     OW37756   2.174   2.794   6.512  0.2936 -0.1653  0.1564
 8708SOL    HW137757   2.122   2.714   6.514  2.3732 -1.4902  1.6641
 8708SOL    HW237758   2.242   2.768   6.574  0.8181 -3.0735 -1.6568
 8709SOL     OW37759   4.100   1.575   8.465  0.3702  0.2073 -0.3715
 8709SOL    HW137760   4.055   1.598   8.546  0.4870 -2.0908  0.3447
 8709SOL    HW237761   4.163   1.648   8.464 -0.2990  0.7947  0.7253
 8710SOL     OW37762   3.257   2.444   6.459  0.0471 -0.1808  0.2051
 8710SOL    HW137763   3.258   2.359   6.503 -2.1573 -0.7471 -0.8665
 8710SOL    HW237764   3.329   2.443   6.396  0.0404  0.3133  0.1936
 8711SOL     OW37765   3.961   1.822   5.085 -0.0832 -0.4585 -0.5130
 8711SOL    HW137766   3.945   1.758   5.154  0.4729  0.8275  0.8107
 8711SOL    HW237767   3.954   1.768   5.006 -1.8832 -0.6901 -0.2092
 8712SOL     OW37768   1.051   0.934   4.730  0.1176 -0.1373  0.3353
 8712SOL    HW137769   1.135   0.980   4.732  0.0567 -0.0516  0.9278
 8712SOL    HW237770   1.011   0.978   4.655 -1.7190 -1.6868  0.3910
 8713SOL     OW37771   0.426   1.328   0.298  0.3094  0.4200  0.2898
 8713SOL    HW137772   0.366   1.255   0.282  2.1777 -1.2122  0.8132
 8713SOL    HW237773   0.378   1.398   0.343  2.0676  1.9667 -0.2729
 8714SOL     OW37774   0.655   1.637  14.778 -0.3914 -0.7094  0.5677
 8714SOL    HW137775   0.725   1.571  14.777 -0.0997 -0.3957  0.0230
 8714SOL    HW237776   0.581   1.590  14.740 -0.8494 -0.1295  0.7428
 8715SOL     OW37777   1.146   3.491   4.846 -0.4144 -0.0602  0.6924
 8715SOL    HW137778   1.171   3.399   4.839 -0.4839  0.0970 -1.4538
 8715SOL    HW237779   1.172   3.512   4.936 -2.7166  0.7380  1.1973
 8716SOL     OW37780   4.674   3.201   4.591  0.3086  0.4926  0.0010
 8716SOL    HW137781   4.685   3.276   4.649  1.1694 -0.2064  0.7297
 8716SOL    HW237782   4.658   3.124   4.646 -0.3416  1.4650  1.1898
 8717SOL     OW37783   2.200   2.452   4.111 -0.6219  0.2488  0.2030
 8717SOL    HW137784   2.245   2.394   4.050  0.5480  0.1276  1.1789
 8717SOL    HW237785   2.166   2.388   4.174 -0.9044 -0.1393 -0.3484
 8718SOL     OW37786   3.131   0.575  17.679 -0.5250 -0.2392  0.5205
 8718SOL    HW137787   3.048   0.614  17.708 -0.6984  0.0473 -0.3667
 8718SOL    HW237788   3.192   0.643  17.708 -1.4432  0.8496 -0.0678
 8719SOL     OW37789   1.087   1.848   3.162  0.0212 -0.1543 -0.2019
 8719SOL    HW137790   1.047   1.819   3.244  0.9546  1.9702  1.0229
 8719SOL    HW237791   1.029   1.810   3.097 -2.1933 -1.4637  2.5263
 8720SOL     OW37792   3.685   1.096   7.560  0.2609 -0.0132 -0.9515
 8720SOL    HW137793   3.591   1.101   7.577  0.1323  1.7139 -2.1535
 8720SOL    HW237794   3.677   1.021   7.501  0.8431 -1.8672  1.3015
 8721SOL     OW37795   0.654   1.506   7.187  0.5420  0.2920 -0.8301
 8721SOL    HW137796   0.624   1.431   7.237 -0.4444  0.8530 -0.5911
 8721SOL    HW237797   0.689   1.470   7.105 -0.0668 -2.7824  0.2688
 8722SOL     OW37798   0.231   2.118   8.824 -0.1324 -0.0930 -0.0238
 8722SOL    HW137799   0.227   2.213   8.807  0.4106 -0.1108 -0.2689
 8722SOL    HW237800   0.161   2.090   8.765  1.8211 -1.1148 -1.8678
 8723SOL     OW37801   0.240   3.972  15.087  0.0321  0.0712 -0.8578
 8723SOL    HW137802   0.235   4.065  15.108  2.9242  0.4108 -1.5946
 8723SOL    HW237803   0.316   3.968  15.029 -1.3597  0.2730 -2.6907
 8724SOL     OW37804   0.594   3.363   9.270  0.7873  0.6640  0.0279
 8724SOL    HW137805   0.633   3.449   9.286 -0.2429  1.1216  0.1335
 8724SOL    HW237806   0.649   3.314   9.330 -1.9392 -2.1346  0.2425
 8725SOL     OW37807   0.698   1.388   2.938  0.6975 -0.4820  0.2761
 8725SOL    HW137808   0.773   1.397   2.998 -0.1273  0.3239  1.1956
 8725SOL    HW237809   0.732   1.422   2.856 -0.8411 -1.1378 -0.6299
 8726SOL     OW37810   0.208   4.565   7.336  0.7017 -0.0865 -0.2079
 8726SOL    HW137811   0.217   4.596   7.246 -1.5909  2.4516  0.4415
 8726SOL    HW237812   0.228   4.642   7.388  0.6282 -0.4112  0.3009
 8727SOL     OW37813   3.719   1.052  17.528  0.2044 -0.1201 -1.0009
 8727SOL    HW137814   3.759   0.971  17.495  1.8216  0.1691  0.2530
 8727SOL    HW237815   3.649   1.062  17.464 -1.1908  0.6231  0.6496
 8728SOL     OW37816   0.743   2.272   4.721  0.2069  0.3653  0.2751
 8728SOL    HW137817   0.689   2.194   4.734  0.8333  0.1616  1.7696
 8728SOL    HW237818   0.803   2.235   4.656  1.3681  1.4522  0.7218
 8729SOL     OW37819   1.920   3.452   4.006  0.3054 -0.1446  0.3708
 8729SOL    HW137820   1.993   3.424   3.951  0.2891  0.3141  0.1218
 8729SOL    HW237821   1.864   3.375   3.992  0.2791 -0.1125  0.3009
 8730SOL     OW37822   0.044   4.137   3.621 -0.2013  0.1824  0.6410
 8730SOL    HW137823   4.713   4.087   3.578 -1.0308  0.5980  1.5179
 8730SOL    HW237824   0.000   4.159   3.703  2.6505  0.6054  2.0600
 8731SOL     OW37825   2.556   1.164   4.233 -0.1745  0.2102 -0.2841
 8731SOL    HW137826   2.469   1.128   4.216  0.2179  0.0490 -1.9075
 8731SOL    HW237827   2.535   1.217   4.310 -1.1173  0.2955 -0.5951
 8732SOL     OW37828   4.041   2.801   4.771 -0.0744  0.7363 -0.5841
 8732SOL    HW137829   4.131   2.829   4.754 -0.4839  1.7653 -1.0722
 8732SOL    HW237830   4.013   2.804   4.680 -0.9144 -0.0382 -0.3475
 8733SOL     OW37831   2.648   1.199   2.751  0.3454  0.1907 -0.4464
 8733SOL    HW137832   2.690   1.284   2.763  3.6683 -1.5789  0.4182
 8733SOL    HW237833   2.622   1.210   2.660 -1.6707 -0.0755  0.0877
 8734SOL     OW37834   1.699   3.298   3.288  0.2383 -0.4955 -0.1914
 8734SOL    HW137835   1.620   3.269   3.334  0.4230  0.9458  1.0445
 8734SOL    HW237836   1.746   3.345   3.357 -1.9494 -0.0846  1.0452
 8735SOL     OW37837   3.919   4.136   3.053 -0.0776  0.6088 -0.0870
 8735SOL    HW137838   3.900   4.056   3.004  2.4380  1.3982 -2.3632
 8735SOL    HW237839   4.013   4.124   3.065 -0.2743  0.2518  1.1676
 8736SOL     OW37840   1.544   2.161  14.125 -0.3745  0.0510  0.3657
 8736SOL    HW137841   1.607   2.182  14.056 -0.3958  0.4839  0.4776
 8736SOL    HW237842   1.593   2.104  14.185 -1.4334 -3.8536 -2.4739
 8737SOL     OW37843   2.665   0.669   6.463  0.6477 -0.0843  0.4164
 8737SOL    HW137844   2.668   0.620   6.381 -0.4289 -0.7530  0.7739
 8737SOL    HW237845   2.752   0.708   6.470  0.5816  0.2720 -0.7399
 8738SOL     OW37846   4.013   1.384   6.040 -0.0001  0.3023  0.5087
 8738SOL    HW137847   4.053   1.403   5.955 -3.2957 -1.0814 -1.3346
 8738SOL    HW237848   4.043   1.294   6.052  0.2514  0.2061 -0.8394
 8739SOL     OW37849   1.812   2.382   6.712 -0.7669 -0.1352 -0.1933
 8739SOL    HW137850   1.721   2.381   6.682 -0.7126 -2.6969 -0.3059
 8739SOL    HW237851   1.846   2.299   6.678 -1.5046 -1.0871  1.3150
 8740SOL     OW37852   3.915   2.092  13.281  0.4656 -0.3363 -0.4361
 8740SOL    HW137853   3.908   2.096  13.186  3.6140 -0.7013 -0.6992
 8740SOL    HW237854   3.983   2.155  13.307  0.7595 -1.5734  1.8505
 8741SOL     OW37855   2.664   1.188   5.389 -0.6160 -0.0505 -0.4235
 8741SOL    HW137856   2.670   1.281   5.412  0.7465 -0.6325  1.6605
 8741SOL    HW237857   2.656   1.192   5.294  0.2324 -0.6846 -0.5208
 8742SOL     OW37858   2.581   4.482   2.679 -0.0954 -0.1336 -0.9519
 8742SOL    HW137859   2.649   4.549   2.672 -0.3811  0.1597 -0.9203
 8742SOL    HW237860   2.502   4.530   2.655  0.5354 -0.0058 -2.7881
 8743SOL     OW37861   2.830   1.059   2.893 -0.0636  0.3406  0.0653
 8743SOL    HW137862   2.859   1.010   2.816 -1.0001 -0.9998  0.5583
 8743SOL    HW237863   2.754   1.104   2.857  1.0548  1.2992 -1.0718
 8744SOL     OW37864   4.588   3.818   7.438  0.5655 -0.0107  0.1385
 8744SOL    HW137865   4.614   3.729   7.465 -2.0282 -0.8414 -0.1260
 8744SOL    HW237866   4.569   3.797   7.346  3.0254 -1.1845 -0.0935
 8745SOL     OW37867   3.323   4.680   7.358  0.6167  0.1664  0.1964
 8745SOL    HW137868   3.329   4.727   7.441  0.2280 -0.0678  0.3558
 8745SOL    HW237869   3.295   4.591   7.381 -1.9130  0.5144 -1.4963
 8746SOL     OW37870   1.505   1.395  11.699  0.3884 -0.2599 -0.1941
 8746SOL    HW137871   1.500   1.491  11.694  0.7498 -0.3137 -1.8514
 8746SOL    HW237872   1.417   1.382  11.664  0.1958  0.7881 -0.1223
 8747SOL     OW37873   1.378   3.173  14.457 -0.2595  0.3826  0.1361
 8747SOL    HW137874   1.367   3.092  14.506  0.7845  0.0456 -0.1928
 8747SOL    HW237875   1.438   3.226  14.509  1.6658 -0.9613 -0.7343
 8748SOL     OW37876   0.895   1.560   1.497  0.4876 -0.1173 -0.2678
 8748SOL    HW137877   0.963   1.582   1.433 -0.2700  2.2616 -0.2498
 8748SOL    HW237878   0.902   1.465   1.503  0.4641 -0.0752  0.5207
 8749SOL     OW37879   1.865   1.218   6.457  0.3194 -0.1197 -0.5805
 8749SOL    HW137880   1.773   1.198   6.442 -0.1739  1.4475  0.3881
 8749SOL    HW237881   1.860   1.304   6.499 -0.3936  1.0208 -2.9977
 8750SOL     OW37882   1.468   2.475   5.127 -0.5193 -0.2617  0.1515
 8750SOL    HW137883   1.464   2.476   5.032 -2.0710  2.4999  0.2666
 8750SOL    HW237884   1.559   2.449   5.141 -0.3481  0.5941  0.6133
 8751SOL     OW37885   1.782   0.282   7.156 -0.2705 -0.5504  0.0069
 8751SOL    HW137886   1.784   0.191   7.186  0.4497 -0.5352  0.0001
 8751SOL    HW237887   1.828   0.326   7.227 -2.5746  0.0072  1.1577
 8752SOL     OW37888   0.841   1.691   2.284  0.1842  0.2598 -0.8873
 8752SOL    HW137889   0.920   1.744   2.286  0.7491 -0.6090 -0.4122
 8752SOL    HW237890   0.823   1.674   2.192  0.5700  0.8124 -1.0606
 8753SOL     OW37891   4.419   2.380   3.884 -0.0800  0.7053  0.0503
 8753SOL    HW137892   4.367   2.328   3.823  2.6801 -0.0645 -1.6467
 8753SOL    HW237893   4.366   2.374   3.964  0.6357  1.9166  0.6239
 8754SOL     OW37894   3.603   2.351   4.558 -0.0717  0.3712 -0.4395
 8754SOL    HW137895   3.545   2.396   4.619 -1.5464 -1.2039 -0.6871
 8754SOL    HW237896   3.637   2.270   4.596  0.9808  1.1596  0.3046
 8755SOL     OW37897   1.764   3.790   2.738 -0.0515 -0.5639 -0.2752
 8755SOL    HW137898   1.776   3.727   2.809  0.5068 -1.8228 -1.4621
 8755SOL    HW237899   1.691   3.749   2.690 -1.6572  0.0813  1.6141
 8756SOL     OW37900   4.055   2.171   1.564  0.2890 -0.2496  0.5286
 8756SOL    HW137901   4.144   2.135   1.558  0.6103  0.3545  1.6324
 8756SOL    HW237902   4.004   2.090   1.557  1.7567 -0.9329 -2.4300
 8757SOL     OW37903   2.908   4.316  11.720 -0.1963  0.3185 -0.0223
 8757SOL    HW137904   2.830   4.264  11.700 -0.8607  0.8023  1.2580
 8757SOL    HW237905   2.873   4.369  11.792 -0.1525  0.5421 -0.1637
 8758SOL     OW37906   0.393   0.150   6.609 -0.2031 -0.4502 -0.6059
 8758SOL    HW137907   0.307   0.133   6.648 -0.2052 -0.9104 -0.8093
 8758SOL    HW237908   0.450   0.138   6.685  0.1571  1.1300 -0.6199
 8759SOL     OW37909   0.434   1.668   5.185 -0.4181 -0.3441  0.1650
 8759SOL    HW137910   0.440   1.667   5.090  1.4409 -0.8655  0.2834
 8759SOL    HW237911   0.353   1.618   5.192 -0.1556 -0.2378  4.2594
 8760SOL     OW37912   1.208   1.952   7.577  0.6397  0.1202 -0.1622
 8760SOL    HW137913   1.139   1.901   7.619  0.8159  0.8067  0.9658
 8760SOL    HW237914   1.251   1.893   7.514 -1.3904 -2.8914  1.2682
 8761SOL     OW37915   4.051   2.476  12.337 -0.2926  0.1140 -0.3316
 8761SOL    HW137916   4.118   2.544  12.342  1.4619 -1.6384  0.3142
 8761SOL    HW237917   4.015   2.492  12.424  1.2444 -2.2157  0.7561
 8762SOL     OW37918   0.282   1.862   2.023  0.0482 -0.4317  0.5653
 8762SOL    HW137919   0.203   1.916   2.025 -0.5230 -1.2166 -0.6172
 8762SOL    HW237920   0.240   1.786   1.982 -1.8814  1.4515 -0.9754
 8763SOL     OW37921   0.475   0.791   2.479 -0.2820 -0.0579 -0.3338
 8763SOL    HW137922   0.451   0.881   2.500 -0.0096  0.3001 -1.5243
 8763SOL    HW237923   0.389   0.750   2.479  0.4020 -1.4816  0.1961
 8764SOL     OW37924   0.840   4.537   6.748 -0.2194  0.3441 -0.2848
 8764SOL    HW137925   0.805   4.458   6.788  0.5016 -0.8530 -2.0156
 8764SOL    HW237926   0.850   4.515   6.655  1.3759 -0.0757 -0.0142
 8765SOL     OW37927   0.598   1.076   9.400  0.0026 -0.3577  0.3716
 8765SOL    HW137928   0.527   1.031   9.353 -1.8076  1.0571  1.7641
 8765SOL    HW237929   0.668   1.011   9.393  0.6785  0.5173 -0.9597
 8766SOL     OW37930   1.755   3.249  13.650 -0.4079  0.1758  0.7083
 8766SOL    HW137931   1.725   3.172  13.602  1.5907 -1.0723  1.4809
 8766SOL    HW237932   1.731   3.231  13.741 -0.3894  0.1115  0.7003
 8767SOL     OW37933   0.271   3.245   7.390  0.2644  0.1993  0.4113
 8767SOL    HW137934   0.294   3.196   7.469  0.4978  1.6053  1.2219
 8767SOL    HW237935   0.188   3.202   7.370 -0.9492  1.5212  2.5927
 8768SOL     OW37936   0.541   3.455   4.681  0.5237 -0.1824  0.2990
 8768SOL    HW137937   0.476   3.525   4.688  1.6071  0.6275  2.1398
 8768SOL    HW237938   0.627   3.497   4.686  0.1422  0.5822  0.3721
 8769SOL     OW37939   0.341   0.583   1.773 -0.3406  0.3837  0.1707
 8769SOL    HW137940   0.413   0.627   1.818  0.0426 -0.2936  0.2244
 8769SOL    HW237941   0.354   0.616   1.684 -0.0744 -2.2718 -0.7718
 8770SOL     OW37942   1.967   0.967   6.340  0.2255 -0.2651 -0.1712
 8770SOL    HW137943   2.049   0.984   6.386 -1.0479  2.8902  0.9327
 8770SOL    HW237944   1.909   1.043   6.348 -0.1610 -0.6023  0.2624
 8771SOL     OW37945   0.063   0.900   3.760  0.2266 -0.3862  0.0742
 8771SOL    HW137946   4.736   0.937   3.819  0.4891  1.0889 -0.5501
 8771SOL    HW237947   0.009   0.836   3.714 -0.3902 -0.4957  0.9327
 8772SOL     OW37948   3.184   1.457   4.915 -0.0573  0.0325 -0.2799
 8772SOL    HW137949   3.098   1.488   4.943  0.0232 -0.2561  0.2920
 8772SOL    HW237950   3.184   1.372   4.960  1.3240  0.8363  1.2134
 8773SOL     OW37951   2.038   0.246   6.000 -0.1247  0.1207 -0.2872
 8773SOL    HW137952   2.031   0.328   6.050  1.7824  0.5969 -0.8216
 8773SOL    HW237953   1.953   0.208   6.023 -0.1341  0.1016 -0.3534
 8774SOL     OW37954   4.579   1.796  12.561  0.4818 -0.1433 -0.1028
 8774SOL    HW137955   4.613   1.787  12.650  1.1988  0.1640 -0.3459
 8774SOL    HW237956   4.568   1.702  12.548 -0.7063 -0.0944  0.5629
 8775SOL     OW37957   3.777   2.133   3.710 -0.6935 -0.3482 -0.3322
 8775SOL    HW137958   3.711   2.074   3.746 -1.2002 -0.4250 -1.3908
 8775SOL    HW237959   3.728   2.183   3.644  1.7325 -1.2830 -2.8157
 8776SOL     OW37960   1.872   1.194   7.137 -0.0645  0.0935 -0.2328
 8776SOL    HW137961   1.877   1.116   7.192 -0.2875 -1.0026 -1.7802
 8776SOL    HW237962   1.833   1.256   7.199 -3.2506 -0.7185 -1.4389
 8777SOL     OW37963   3.665   1.159   3.023 -0.1454 -0.2757  0.1039
 8777SOL    HW137964   3.606   1.155   3.099 -1.9243  0.5188 -1.2355
 8777SOL    HW237965   3.599   1.146   2.954  0.7423  1.0180 -0.9693
 8778SOL     OW37966   4.533   3.845  13.418 -0.5701 -0.0153 -0.0186
 8778SOL    HW137967   4.585   3.796  13.355  0.0613  1.1868 -0.4423
 8778SOL    HW237968   4.465   3.878  13.359 -2.3302 -0.8082  1.5318
 8779SOL     OW37969   1.975   4.303   7.522  0.6058  0.1847 -0.3683
 8779SOL    HW137970   1.913   4.275   7.589  2.3541  0.7803  1.4907
 8779SOL    HW237971   1.906   4.343   7.468  0.1588  0.4384  0.3927
 8780SOL     OW37972   2.422   1.074   6.248  0.4497  0.6066  0.0794
 8780SOL    HW137973   2.474   1.060   6.328  0.3780  2.8115  0.5148
 8780SOL    HW237974   2.492   1.071   6.183 -0.5585  1.6775 -1.0522
 8781SOL     OW37975   1.414   3.531   3.066  0.2569  0.2053  0.2220
 8781SOL    HW137976   1.359   3.463   3.104 -1.2158  0.3554 -1.6226
 8781SOL    HW237977   1.354   3.558   2.997  1.1757 -0.6507 -0.9034
 8782SOL     OW37978   3.154   1.757  15.552 -0.1190  0.4070 -0.2901
 8782SOL    HW137979   3.103   1.702  15.492 -1.4546 -0.0138  1.2101
 8782SOL    HW237980   3.210   1.687  15.585  1.0455  0.9128 -1.2159
 8783SOL     OW37981   1.325   0.722   6.092 -0.3469  0.1874  0.3811
 8783SOL    HW137982   1.416   0.734   6.063  1.2391 -3.5585  3.8294
 8783SOL    HW237983   1.298   0.813   6.103  1.9177  0.9635 -0.3255
 8784SOL     OW37984   1.065   3.921  17.154 -0.3810  0.2891  0.0756
 8784SOL    HW137985   1.116   3.984  17.103 -0.6458 -0.4766 -1.1370
 8784SOL    HW237986   0.990   3.917  17.095 -1.3272  1.0247  1.2316
 8785SOL     OW37987   3.817   4.408   8.177  0.0440  0.4742 -0.8817
 8785SOL    HW137988   3.886   4.474   8.171  1.7154 -1.1359  0.9597
 8785SOL    HW237989   3.736   4.459   8.187  0.1246  0.5443 -0.5936
 8786SOL     OW37990   0.362   0.404   4.981  0.1114  0.3520 -0.0993
 8786SOL    HW137991   0.298   0.354   5.032  0.3344  0.3573  0.1865
 8786SOL    HW237992   0.425   0.334   4.962 -0.7308 -0.3360 -0.3525
 8787SOL     OW37993   1.640   3.304  17.161  0.1076  0.1296  0.1387
 8787SOL    HW137994   1.555   3.301  17.204  0.0633  1.1178  0.1228
 8787SOL    HW237995   1.671   3.394  17.177  0.9676  0.1289 -1.5103
 8788SOL     OW37996   3.192   0.577  14.830 -0.0876 -0.0367 -0.0231
 8788SOL    HW137997   3.101   0.564  14.802  0.3396  0.2500 -1.5668
 8788SOL    HW237998   3.182   0.663  14.872  3.1432 -0.0162  0.6983
 8789SOL     OW37999   0.181   4.126   3.030  0.4219 -0.1632  0.3557
 8789SOL    HW138000   0.136   4.156   3.109  0.8197 -0.7100  0.7888
 8789SOL    HW238001   0.143   4.195   2.975  1.8435  0.6451  0.3905
 8790SOL     OW38002   1.696   4.723   1.097 -0.8955  0.1936  0.5664
 8790SOL    HW138003   1.648   4.640   1.105  3.0234 -2.2717 -1.7178
 8790SOL    HW238004   1.628   0.051   1.093  0.5937  1.5607 -1.9009
 8791SOL     OW38005   4.646   3.314   3.745 -0.0336 -0.3289  0.4384
 8791SOL    HW138006   4.716   3.375   3.722 -0.3696 -0.0424  0.1844
 8791SOL    HW238007   4.679   3.296   3.834  0.1851 -0.6336  0.2974
 8792SOL     OW38008   1.690   1.260   5.871  0.1353  0.1966  0.2204
 8792SOL    HW138009   1.730   1.278   5.956 -1.3850  0.9079  0.7804
 8792SOL    HW238010   1.623   1.328   5.863 -0.1425 -0.1495 -0.4407
 8793SOL     OW38011   1.532   1.839  14.923 -0.0437  0.0387  0.0206
 8793SOL    HW138012   1.437   1.827  14.931 -0.1146  0.5022 -0.1643
 8793SOL    HW238013   1.562   1.752  14.951  1.3822  0.5534  0.0865
 8794SOL     OW38014   3.124   4.609   2.191 -0.1039  0.3075  0.0500
 8794SOL    HW138015   3.059   4.546   2.223 -0.7377  0.6824 -0.4861
 8794SOL    HW238016   3.069   4.669   2.139 -1.0030 -0.0481  0.5833
 8795SOL     OW38017   3.005   2.864   4.660  0.8729 -0.5495 -0.3470
 8795SOL    HW138018   3.041   2.925   4.724  1.4734  0.6796 -1.8637
 8795SOL    HW238019   3.072   2.796   4.656  1.0961 -0.4071  1.3051
 8796SOL     OW38020   1.656   1.049  14.445  0.2596 -0.2498  0.2857
 8796SOL    HW138021   1.644   1.105  14.522 -0.6906 -0.8373  0.5700
 8796SOL    HW238022   1.664   1.111  14.373 -1.5684  0.8363  1.0136
 8797SOL     OW38023   1.758   2.249   4.864 -0.2293  0.6603 -0.2223
 8797SOL    HW138024   1.773   2.296   4.782 -1.9844  1.2477 -0.2240
 8797SOL    HW238025   1.677   2.199   4.849 -0.4466  0.9159  0.1004
 8798SOL     OW38026   0.157   2.062   1.649  0.5767  0.0052 -0.5506
 8798SOL    HW138027   0.247   2.078   1.679  0.2482  1.2986 -0.2712
 8798SOL    HW238028   0.154   1.970   1.625 -1.7500 -0.7370  2.5676
 8799SOL     OW38029   0.283   4.489   7.012  0.1990 -0.2229  0.4305
 8799SOL    HW138030   0.189   4.507   7.021  0.5538  1.5372  0.6134
 8799SOL    HW238031   0.280   4.395   6.995  2.5825 -0.1068 -0.6019
 8800SOL     OW38032   2.259   4.513   2.688  0.0958  0.1248 -0.5022
 8800SOL    HW138033   2.211   4.568   2.749 -1.5818  0.7702 -2.3890
 8800SOL    HW238034   2.196   4.510   2.616  0.1024  2.1300 -0.5891
 8801SOL     OW38035   2.814   1.397  17.650 -0.0884  0.3753 -0.4590
 8801SOL    HW138036   2.796   1.327  17.587 -0.0029 -0.4998  0.4802
 8801SOL    HW238037   2.739   1.453  17.629 -0.3285 -0.1414 -0.9927
 8802SOL     OW38038   1.265   3.575   4.602  0.5873 -0.4148  0.3486
 8802SOL    HW138039   1.347   3.525   4.602 -0.0993 -1.5315 -0.7374
 8802SOL    HW238040   1.238   3.560   4.692 -1.0042 -0.0194 -0.0658
 8803SOL     OW38041   2.504   1.628   3.959  0.5054  0.1419  0.3736
 8803SOL    HW138042   2.468   1.717   3.963  2.6900  1.0653 -0.9537
 8803SOL    HW238043   2.590   1.649   3.925  1.1025 -1.4079  0.9347
 8804SOL     OW38044   3.231   3.655   4.190 -0.1696  0.1057 -0.0697
 8804SOL    HW138045   3.165   3.654   4.121  1.0074 -2.8130 -1.1360
 8804SOL    HW238046   3.299   3.588   4.182  0.0376  0.1243  1.5410
 8805SOL     OW38047   0.999   3.126   3.368  0.7615 -0.3383 -0.4147
 8805SOL    HW138048   1.005   3.216   3.402 -0.6606 -0.4792  0.2044
 8805SOL    HW238049   0.935   3.137   3.298 -0.3429  1.2818  0.8488
 8806SOL     OW38050   2.398   2.021   3.167  0.2931 -0.1620  0.2273
 8806SOL    HW138051   2.373   2.104   3.127  2.9719  0.8725  0.7146
 8806SOL    HW238052   2.316   1.993   3.207  0.4610 -0.4265  0.3880
 8807SOL     OW38053   1.977   2.283   9.471 -0.0223 -0.1208  0.0633
 8807SOL    HW138054   2.061   2.291   9.516  0.0609  0.0562 -0.1233
 8807SOL    HW238055   1.939   2.201   9.503  0.9949 -0.9275 -0.8008
 8808SOL     OW38056   0.330   0.717   5.950 -0.4813  0.1743  0.1540
 8808SOL    HW138057   0.255   0.720   6.009 -1.2165 -1.8899 -0.6775
 8808SOL    HW238058   0.315   0.802   5.908 -1.5657 -0.0393  0.1164
 8809SOL     OW38059   1.984   0.870  11.573  0.0011  0.4858  0.0627
 8809SOL    HW138060   1.993   0.775  11.584 -2.5774  0.0767 -1.4297
 8809SOL    HW238061   2.069   0.900  11.540 -0.7120 -0.2084 -2.3988
 8810SOL     OW38062   4.150   1.839   6.777  0.0059 -0.0286 -0.9714
 8810SOL    HW138063   4.073   1.861   6.725 -0.7726 -1.4822 -0.4218
 8810SOL    HW238064   4.192   1.923   6.799 -0.9183  0.1220  0.2493
 8811SOL     OW38065   3.264   4.471  15.604 -0.1186 -0.0916 -0.6184
 8811SOL    HW138066   3.244   4.394  15.551 -0.6263 -0.7159  0.4830
 8811SOL    HW238067   3.234   4.543  15.549  1.2045 -0.8315 -2.2982
 8812SOL     OW38068   2.320   2.334   3.628  0.1232  0.0430 -0.0454
 8812SOL    HW138069   2.367   2.417   3.641  0.1486  0.1162 -0.6053
 8812SOL    HW238070   2.343   2.282   3.706 -1.8726  0.2401  0.6790
 8813SOL     OW38071   3.172   4.625   9.506 -0.2643  0.0652  0.0142
 8813SOL    HW138072   3.129   4.626   9.592 -1.0878 -0.4264 -0.3915
 8813SOL    HW238073   3.223   4.544   9.506  1.3089  1.0449 -0.7217
 8814SOL     OW38074   1.323   0.136   7.326  0.3184 -0.7040 -0.5843
 8814SOL    HW138075   1.367   0.219   7.309  1.4466 -1.2879 -0.5157
 8814SOL    HW238076   1.394   0.077   7.297 -0.3657 -2.1484  0.6670
 8815SOL     OW38077   4.584   3.611  12.750 -0.3741 -0.0531  0.1747
 8815SOL    HW138078   4.571   3.705  12.745  1.8562  0.1926 -1.3741
 8815SOL    HW238079   4.626   3.605  12.664  0.1787  1.9407  0.3179
 8816SOL     OW38080   4.692   2.752   3.834  0.0411  0.4024  0.3708
 8816SOL    HW138081   4.621   2.695   3.804  0.6472 -0.4548  0.5593
 8816SOL    HW238082   4.665   2.747   3.926 -1.9604  4.1172 -0.0036
 8817SOL     OW38083   0.732   3.225   5.603 -0.4925 -0.0567  0.6762
 8817SOL    HW138084   0.809   3.252   5.554  0.8836 -0.4172  2.6164
 8817SOL    HW238085   0.668   3.192   5.540 -0.6021 -0.1418  0.8307
 8818SOL     OW38086   3.796   2.105  16.986  0.3309  0.4531  0.3306
 8818SOL    HW138087   3.788   2.059  17.070 -1.1016  1.2171  0.6155
 8818SOL    HW238088   3.891   2.098  16.979  0.2675 -0.5908  0.3968
 8819SOL     OW38089   2.977   3.093  12.249 -0.3992  0.9905  0.0255
 8819SOL    HW138090   2.952   3.176  12.288  0.6869  1.0295  0.6262
 8819SOL    HW238091   2.993   3.125  12.160  2.6354  1.3461  0.7191
 8820SOL     OW38092   0.803   1.820   5.574  0.6067 -0.3552  0.5356
 8820SOL    HW138093   0.713   1.809   5.605 -0.4655  1.6178 -1.9194
 8820SOL    HW238094   0.839   1.734   5.550  1.0320  0.1551 -0.6559
 8821SOL     OW38095   3.688   1.137   6.920 -0.0991 -0.1637  0.2777
 8821SOL    HW138096   3.745   1.130   6.997  1.2384  3.0022 -0.3858
 8821SOL    HW238097   3.666   1.229   6.906 -1.6228 -0.5812  0.0170
 8822SOL     OW38098   2.354   2.094   5.200 -0.2403  0.3347 -0.1490
 8822SOL    HW138099   2.412   2.050   5.261  0.1460 -0.6773 -1.2560
 8822SOL    HW238100   2.280   2.118   5.257 -0.4854 -1.2193  0.1748
 8823SOL     OW38101   4.422   0.097   2.854 -0.2722  0.5184  0.1106
 8823SOL    HW138102   4.477   0.175   2.867  0.1258  0.5950 -2.0070
 8823SOL    HW238103   4.335   0.132   2.873  0.5449  2.3802  0.3794
 8824SOL     OW38104   0.994   2.922  10.938  0.1950 -0.6482 -0.1818
 8824SOL    HW138105   1.013   3.002  10.890 -0.5508 -1.0255 -1.1090
 8824SOL    HW238106   1.051   2.856  10.898 -0.7888 -1.6485  0.0403
 8825SOL     OW38107   0.532   3.359   8.935  0.0993  0.3489 -0.4722
 8825SOL    HW138108   0.577   3.363   9.019  2.3141 -0.6159 -1.6147
 8825SOL    HW238109   0.554   3.444   8.896  1.7044 -0.2760 -0.9111
 8826SOL     OW38110   0.418   3.847   6.189  0.1859 -0.1876  0.0563
 8826SOL    HW138111   0.390   3.796   6.265  2.9522  0.1192  1.2730
 8826SOL    HW238112   0.508   3.817   6.175  0.4196  0.6616 -0.2290
 8827SOL     OW38113   4.679   4.213   4.762 -0.6767 -0.1523 -0.5480
 8827SOL    HW138114   4.678   4.126   4.802 -2.5329  0.1486  0.0359
 8827SOL    HW238115   0.026   4.219   4.719 -0.1018 -1.9286  0.3389
 8828SOL     OW38116   0.920   1.312   7.254  0.0809  0.1835  0.0843
 8828SOL    HW138117   0.909   1.380   7.320  3.4279 -0.3559  1.1697
 8828SOL    HW238118   1.011   1.285   7.266  0.1620  0.7058  0.5908
 8829SOL     OW38119   1.015   4.408   8.801 -0.1951 -0.7137  0.3990
 8829SOL    HW138120   0.938   4.395   8.746  0.5196 -0.2765 -0.6918
 8829SOL    HW238121   1.052   4.479   8.748  0.6432 -0.9333  0.7002
 8830SOL     OW38122   4.361   4.093  16.620 -0.5058  0.2358  0.2664
 8830SOL    HW138123   4.390   4.089  16.711 -1.9507 -0.3243  0.6960
 8830SOL    HW238124   4.266   4.101  16.634 -0.8141 -0.7969 -1.3136
 8831SOL     OW38125   2.340   4.062  15.855 -0.1177 -0.4768  0.2659
 8831SOL    HW138126   2.288   4.121  15.908  0.0362  0.1676 -0.2947
 8831SOL    HW238127   2.427   4.077  15.891 -0.7499 -0.8291  1.9437
 8832SOL     OW38128   3.589   2.469   6.601  0.0191  0.1601 -0.4616
 8832SOL    HW138129   3.533   2.493   6.528  0.0639  3.6716  0.6542
 8832SOL    HW238130   3.586   2.373   6.599  0.2569  0.1607 -0.7993
 8833SOL     OW38131   3.507   0.417   8.365 -0.1802 -0.1939 -0.2547
 8833SOL    HW138132   3.435   0.434   8.304  0.2811 -0.4658 -0.8762
 8833SOL    HW238133   3.577   0.470   8.325 -0.7713 -1.1071 -2.5059
 8834SOL     OW38134   2.828   3.276  16.258 -0.0221 -0.9244 -0.1701
 8834SOL    HW138135   2.868   3.189  16.261 -0.7770 -1.2692 -0.2978
 8834SOL    HW238136   2.738   3.256  16.234 -0.6020  1.1436  0.2353
 8835SOL     OW38137   3.138   2.883   9.670 -0.1617  0.4321 -0.5488
 8835SOL    HW138138   3.111   2.900   9.580  1.8883  0.0749 -1.2144
 8835SOL    HW238139   3.159   2.791   9.654 -1.4404  0.0162  0.1537
 8836SOL     OW38140   0.162   0.937   8.265  0.1584  0.5585 -0.9070
 8836SOL    HW138141   0.243   0.975   8.231  0.7259  0.0724 -0.0959
 8836SOL    HW238142   0.177   0.844   8.248 -0.5146  0.5062 -1.2002
 8837SOL     OW38143   0.453   2.603  17.686 -0.1059  0.0035  0.0091
 8837SOL    HW138144   0.412   2.676  17.733  0.0858  0.8406 -1.1133
 8837SOL    HW238145   0.384   2.537  17.696 -0.6102  0.6420  0.7793
 8838SOL     OW38146   3.196   1.626  15.174 -0.1972 -0.6671  0.1811
 8838SOL    HW138147   3.139   1.585  15.109  1.8216 -1.8704 -0.8394
 8838SOL    HW238148   3.261   1.675  15.123  2.3268 -2.8812  1.2887
 8839SOL     OW38149   3.654   1.647  10.775  0.1916 -0.0302 -0.0424
 8839SOL    HW138150   3.734   1.698  10.784 -0.1644  0.5596 -0.2399
 8839SOL    HW238151   3.651   1.629  10.681  0.7390  0.1903 -0.1013
 8840SOL     OW38152   0.951   3.093   7.621  0.5244 -0.4496  0.7557
 8840SOL    HW138153   0.996   3.127   7.543  0.1194 -0.1651  0.6455
 8840SOL    HW238154   0.978   3.001   7.622 -0.2776 -0.6593  2.0334
 8841SOL     OW38155   1.988   2.321   2.307  0.2694 -0.0475  0.0614
 8841SOL    HW138156   1.920   2.299   2.371 -1.0763  0.0676 -1.3431
 8841SOL    HW238157   2.019   2.403   2.346 -1.7577  0.4814  0.5766
 8842SOL     OW38158   4.193   2.307   0.443 -0.1193  0.2365 -0.1589
 8842SOL    HW138159   4.170   2.339   0.531 -0.8280  1.2497 -0.7184
 8842SOL    HW238160   4.108   2.277   0.412  0.5668 -1.7085 -0.1460
 8843SOL     OW38161   4.606   3.604   7.697  0.0229 -0.0086 -0.5687
 8843SOL    HW138162   4.612   3.695   7.726 -0.1112 -0.3999  0.6792
 8843SOL    HW238163   4.673   3.603   7.629 -1.1921  3.0269 -1.7833
 8844SOL     OW38164   3.776   0.162  17.122  0.2764  0.1999 -0.1996
 8844SOL    HW138165   3.694   0.193  17.085 -0.0345 -2.1939 -1.4816
 8844SOL    HW238166   3.740   0.106  17.191  0.8931 -3.4498 -2.8767
 8845SOL     OW38167   1.515   0.858   0.457 -0.2022  0.3614 -0.4611
 8845SOL    HW138168   1.458   0.852   0.534 -0.0595  1.1442 -0.2941
 8845SOL    HW238169   1.528   0.952   0.459 -0.5655  0.3774  1.3182
 8846SOL     OW38170   0.876   2.663  17.201 -0.3888 -0.1638  0.3692
 8846SOL    HW138171   0.920   2.629  17.278 -3.0439  0.8998  2.3657
 8846SOL    HW238172   0.824   2.728  17.248 -0.4475 -1.5383  2.2128
 8847SOL     OW38173   0.158   0.285   6.715 -0.2521 -0.6992  0.6168
 8847SOL    HW138174   0.153   0.190   6.725 -1.0545 -1.0767 -3.1090
 8847SOL    HW238175   0.185   0.318   6.800  1.9159 -2.4329  0.5916
 8848SOL     OW38176   4.595   1.788   7.865  0.2822 -0.0121  0.6268
 8848SOL    HW138177   4.546   1.831   7.796  2.7854  0.6215 -0.7436
 8848SOL    HW238178   4.534   1.805   7.937 -2.3092 -0.3002 -1.5090
 8849SOL     OW38179   2.216   4.276   4.562  0.0585  0.1442 -0.1186
 8849SOL    HW138180   2.273   4.213   4.605  1.3639  2.2184  1.1848
 8849SOL    HW238181   2.252   4.280   4.474  2.0413 -0.1192  0.6795
 8850SOL     OW38182   1.340   2.026   6.722  0.1637  0.3703  0.1789
 8850SOL    HW138183   1.283   2.004   6.648  0.8369 -1.8665  0.3025
 8850SOL    HW238184   1.325   1.947   6.775 -2.7308 -0.1604 -1.4158
 8851SOL     OW38185   2.578   2.500  16.327  0.0157  0.2352 -0.0040
 8851SOL    HW138186   2.616   2.562  16.389 -2.0266 -1.8276  3.3190
 8851SOL    HW238187   2.486   2.523  16.324 -0.4555 -1.1863  3.5788
 8852SOL     OW38188   1.509   2.940   6.411  0.4165  0.2133 -0.1525
 8852SOL    HW138189   1.538   3.021   6.369  2.4039  0.7528  2.2549
 8852SOL    HW238190   1.506   2.880   6.336  1.5911  0.6744 -0.5594
 8853SOL     OW38191   0.250   3.993  10.897  0.1172  0.1221 -0.5189
 8853SOL    HW138192   0.326   3.967  10.948 -0.4698 -0.7047 -0.0480
 8853SOL    HW238193   0.253   3.917  10.839  0.5217 -0.6917  0.5713
 8854SOL     OW38194   3.107   4.194   5.459 -0.4783  0.0538  0.0579
 8854SOL    HW138195   3.155   4.142   5.394  0.3101  0.4032  0.3634
 8854SOL    HW238196   3.175   4.231   5.515 -0.1805 -1.7504  0.8859
 8855SOL     OW38197   4.637   0.749   1.231  0.2665 -0.4826 -0.1380
 8855SOL    HW138198   4.676   0.805   1.298  0.2012  0.6851 -1.0739
 8855SOL    HW238199   4.620   0.823   1.172 -1.6503  0.1603  1.2288
 8856SOL     OW38200   2.066   1.442   7.969  0.2428  0.1936  0.2188
 8856SOL    HW138201   2.023   1.433   8.054 -1.3369  2.3391 -0.3901
 8856SOL    HW238202   2.000   1.412   7.907 -0.2794  0.9705  0.4072
 8857SOL     OW38203   0.972   2.042   5.640  0.4187  0.2376 -0.7708
 8857SOL    HW138204   0.911   2.110   5.614 -0.0591  0.2867  0.4492
 8857SOL    HW238205   0.922   1.965   5.613 -0.1958  0.4761 -0.3099
 8858SOL     OW38206   0.123   1.037   7.506 -0.4200 -0.5464  0.9503
 8858SOL    HW138207   0.218   1.025   7.518 -0.6910 -2.2462  1.3981
 8858SOL    HW238208   0.103   0.946   7.485  1.6763 -0.9109  0.5165
 8859SOL     OW38209   0.489   3.264  10.661  0.4713  0.4032  0.2622
 8859SOL    HW138210   0.418   3.208  10.694 -0.3818  1.6048  0.4709
 8859SOL    HW238211   0.563   3.227  10.710  0.5383 -2.1849 -1.8096
 8860SOL     OW38212   1.413   3.540   9.269 -0.3290  0.3598 -0.2823
 8860SOL    HW138213   1.408   3.454   9.228  0.7001  0.7234 -1.1675
 8860SOL    HW238214   1.354   3.589   9.212 -0.3115  1.2398  0.4547
 8861SOL     OW38215   1.273   3.653   2.563  0.7371 -0.4359  0.3838
 8861SOL    HW138216   1.222   3.572   2.560 -0.3027  0.2164  0.6764
 8861SOL    HW238217   1.218   3.719   2.605 -0.1335 -0.7193 -0.3117
 8862SOL     OW38218   2.831   1.578   8.649  0.5837 -0.1215  0.2842
 8862SOL    HW138219   2.801   1.666   8.625 -2.4041 -0.5554  2.4445
 8862SOL    HW238220   2.864   1.537   8.569  1.4844  1.4351 -0.1496
 8863SOL     OW38221   3.832   1.621  17.446 -0.4074  0.0241 -0.2380
 8863SOL    HW138222   3.802   1.700  17.490 -0.4078 -0.6506  0.9914
 8863SOL    HW238223   3.864   1.656  17.363  0.4263 -0.1400  0.0161
 8864SOL     OW38224   2.384   2.628   8.762 -0.0444  0.2943 -0.2687
 8864SOL    HW138225   2.471   2.645   8.798 -0.1905 -0.4404  0.4266
 8864SOL    HW238226   2.406   2.609   8.671 -1.0934  0.1841 -0.4959
 8865SOL     OW38227   3.607   1.993   4.271  0.0615  0.6012  0.8404
 8865SOL    HW138228   3.623   2.057   4.202  1.1618 -1.0531 -0.4388
 8865SOL    HW238229   3.692   1.951   4.262  0.0384  1.1343 -2.1116
 8866SOL     OW38230   0.560   0.179   1.329  0.0639 -0.1096  0.2725
 8866SOL    HW138231   0.575   0.262   1.373 -1.1433  0.5428 -0.5295
 8866SOL    HW238232   0.559   0.210   1.238  0.5792  2.5513  1.1760
 8867SOL     OW38233   0.499   4.660  17.293 -0.1030  0.0142 -0.2815
 8867SOL    HW138234   0.419   4.632  17.249  0.2871 -2.9116  0.8582
 8867SOL    HW238235   0.477   0.007  17.329 -0.2669  0.3911 -1.2849
 8868SOL     OW38236   1.917   0.352   2.203  0.3528 -0.2819  0.6632
 8868SOL    HW138237   1.877   0.292   2.140  1.1287 -0.3567  0.2396
 8868SOL    HW238238   1.984   0.385   2.144  1.6830  0.5072  2.6348
 8869SOL     OW38239   4.408   4.730   7.836  0.3246 -0.1432 -0.4111
 8869SOL    HW138240   4.445   4.642   7.843  1.1138  0.4671  3.5333
 8869SOL    HW238241   4.442   0.029   7.756 -0.3635  0.6069 -0.3540
 8870SOL     OW38242   2.487   0.137   5.973  0.1882  0.7303  0.2770
 8870SOL    HW138243   2.494   0.119   5.879 -0.8430 -0.0189  0.3519
 8870SOL    HW238244   2.395   0.117   5.990  0.5466  1.1323  2.5825
 8871SOL     OW38245   4.021   4.563   8.117 -0.1090 -0.3688 -0.4372
 8871SOL    HW138246   4.072   4.605   8.047  0.5643  0.0937  0.3280
 8871SOL    HW238247   4.080   4.560   8.192 -0.7897  0.2337  0.1167
 8872SOL     OW38248   0.282   3.357  16.245 -0.3738 -0.0580  0.0935
 8872SOL    HW138249   0.198   3.333  16.284 -0.5653 -0.7194 -0.7280
 8872SOL    HW238250   0.271   3.452  16.247 -2.5702 -0.3316  0.9404
 8873SOL     OW38251   2.663   3.642   6.753  0.2686 -0.8832  0.2251
 8873SOL    HW138252   2.610   3.643   6.673 -1.3774 -1.7487  1.2952
 8873SOL    HW238253   2.700   3.730   6.755 -0.6447 -0.4766 -0.6266
 8874SOL     OW38254   4.041   2.797   9.422 -0.3472 -0.1399  0.4068
 8874SOL    HW138255   4.060   2.725   9.362  1.7615 -0.3234  1.2970
 8874SOL    HW238256   4.121   2.796   9.475 -0.5611 -4.0277  0.6105
 8875SOL     OW38257   2.682   3.398   6.342  0.1327 -0.1170 -0.0796
 8875SOL    HW138258   2.624   3.394   6.266 -0.8135  0.0128  0.6428
 8875SOL    HW238259   2.677   3.493   6.354 -3.3148 -0.5802  2.0926
 8876SOL     OW38260   1.484   1.117   5.032  0.4710 -0.8088  0.5117
 8876SOL    HW138261   1.559   1.175   5.046  0.0315  0.1347 -1.0822
 8876SOL    HW238262   1.536   1.041   5.005 -0.0049 -1.2377  0.8092
 8877SOL     OW38263   1.380   1.849   5.817 -0.4574 -0.2336 -0.5927
 8877SOL    HW138264   1.289   1.874   5.803 -0.1954 -0.0277 -1.9776
 8877SOL    HW238265   1.380   1.774   5.759 -1.3801  0.2825 -1.2617
 8878SOL     OW38266   3.522   2.340   2.881  0.1857  0.1659 -0.4933
 8878SOL    HW138267   3.447   2.289   2.910  0.4773  0.7329  1.2561
 8878SOL    HW238268   3.574   2.276   2.831  1.0010  0.5338 -0.1181
 8879SOL     OW38269   3.617   1.069   9.422 -0.0807 -0.5089  0.8699
 8879SOL    HW138270   3.624   1.065   9.327 -0.8103 -0.0377  0.7980
 8879SOL    HW238271   3.552   1.139   9.429 -0.0752 -0.4511  0.3193
 8880SOL     OW38272   4.553   0.211   8.693  0.4500  0.1256 -0.1376
 8880SOL    HW138273   4.573   0.124   8.729 -0.3469 -0.0996 -0.2323
 8880SOL    HW238274   4.460   0.209   8.670  0.4739 -1.7750 -0.0809
 8881SOL     OW38275   2.788   3.715   6.157  0.0353  0.4102  0.0752
 8881SOL    HW138276   2.781   3.682   6.247 -1.2931 -0.6869 -0.4179
 8881SOL    HW238277   2.701   3.753   6.140 -0.8912 -2.1430 -0.8663
 8882SOL     OW38278   2.904   4.111   3.716  0.5633  0.3647 -0.5352
 8882SOL    HW138279   2.905   4.159   3.799  1.3408  1.5573 -1.2281
 8882SOL    HW238280   2.812   4.091   3.700  0.5895 -0.8362  0.7112
 8883SOL     OW38281   1.839   4.517   4.754  0.1276  0.2270  0.0125
 8883SOL    HW138282   1.932   4.518   4.730 -0.5215  1.3378 -2.4866
 8883SOL    HW238283   1.792   4.543   4.675 -1.0249 -0.1731  0.5760
 8884SOL     OW38284   1.507   4.545   5.365  0.0140 -0.5370  0.4709
 8884SOL    HW138285   1.547   4.623   5.403  1.6657 -1.4889  0.7001
 8884SOL    HW238286   1.580   4.484   5.378  0.0456 -0.8640 -1.2173
 8885SOL     OW38287   0.192   1.478   4.409 -0.5866  0.0514  0.2641
 8885SOL    HW138288   0.112   1.482   4.461 -1.4634  0.0350 -1.0878
 8885SOL    HW238289   0.165   1.551   4.352 -0.1183  0.9232  1.1683
 8886SOL     OW38290   2.833   0.450   7.375 -0.4266 -0.2681  0.3692
 8886SOL    HW138291   2.921   0.468   7.408  0.9249 -3.1681 -1.6789
 8886SOL    HW238292   2.784   0.474   7.454  1.3759 -0.3408  1.5186
 8887SOL     OW38293   2.189   0.768   5.056  0.3042  0.1720 -0.0815
 8887SOL    HW138294   2.243   0.762   5.134  0.5668  3.2527 -0.0285
 8887SOL    HW238295   2.241   0.709   5.001 -0.9638 -0.3205 -0.7559
 8888SOL     OW38296   0.733   0.855   0.348 -0.2495  0.1736 -0.0989
 8888SOL    HW138297   0.649   0.871   0.391  1.4066  2.2919  2.3238
 8888SOL    HW238298   0.752   0.944   0.317  4.0050 -0.6535  0.0956
 8889SOL     OW38299   0.579   2.718  14.653  0.2313 -0.4984  0.2674
 8889SOL    HW138300   0.581   2.629  14.687 -1.8641 -0.1250  1.3426
 8889SOL    HW238301   0.502   2.750  14.699  0.4836  0.5282 -0.0080
 8890SOL     OW38302   3.782   2.626   1.168  0.3485  0.2097  0.5308
 8890SOL    HW138303   3.767   2.660   1.256 -1.0355 -0.4927  0.5688
 8890SOL    HW238304   3.876   2.646   1.160  0.1462  1.2534  0.7125
 8891SOL     OW38305   3.862   4.158  13.162  0.2733  0.5413 -0.1784
 8891SOL    HW138306   3.883   4.102  13.237 -4.6229  1.2461  1.7059
 8891SOL    HW238307   3.953   4.171  13.136  0.4702 -2.8387 -1.2003
 8892SOL     OW38308   0.435   1.054   0.208  0.6079 -0.2886  0.5347
 8892SOL    HW138309   0.388   1.076   0.128 -0.7786 -1.8958  0.9226
 8892SOL    HW238310   0.376   0.983   0.231  0.1489 -0.0834 -0.0116
 8893SOL     OW38311   2.460   0.172   6.355 -0.1291 -0.3907 -0.1709
 8893SOL    HW138312   2.540   0.179   6.408 -0.9239  0.1670  0.9436
 8893SOL    HW238313   2.493   0.204   6.271 -0.5965  0.1371 -0.1544
 8894SOL     OW38314   1.962   1.610   7.715  0.0466  0.3438  0.0563
 8894SOL    HW138315   1.868   1.612   7.694 -0.5359  3.3074  3.0568
 8894SOL    HW238316   1.996   1.546   7.652  0.0429  1.2902 -0.9123
 8895SOL     OW38317   3.184   3.522   3.028 -0.4615  0.7891  0.2323
 8895SOL    HW138318   3.113   3.587   3.029 -1.8689 -0.7420 -0.3996
 8895SOL    HW238319   3.148   3.443   3.068 -0.4821  0.5890 -0.1819
 8896SOL     OW38320   2.711   0.396  15.395  0.1414 -0.3728  0.0812
 8896SOL    HW138321   2.706   0.492  15.396  1.7819 -0.2756 -1.1349
 8896SOL    HW238322   2.776   0.368  15.459  2.8894  1.6285 -1.8417
 8897SOL     OW38323   3.303   0.718   2.650 -0.5788  0.6763  0.2586
 8897SOL    HW138324   3.319   0.716   2.555  0.3051  1.5732  0.3878
 8897SOL    HW238325   3.355   0.643   2.679  0.1360  1.0890  0.0451
 8898SOL     OW38326   1.344   2.397   6.707 -0.4944 -0.0607  0.0121
 8898SOL    HW138327   1.294   2.347   6.642 -0.4216  0.0867 -0.1591
 8898SOL    HW238328   1.425   2.398   6.656  0.4696  0.4579  1.5433
 8899SOL     OW38329   3.057   0.430   9.524  0.5378 -0.0758  0.3193
 8899SOL    HW138330   3.053   0.524   9.506  0.7829 -0.5097 -1.9983
 8899SOL    HW238331   3.119   0.408   9.455  1.7581  3.8905  0.1489
 8900SOL     OW38332   3.724   3.894   4.292 -0.3500  0.0926  0.0814
 8900SOL    HW138333   3.682   3.811   4.268  0.0642 -0.3628  0.9688
 8900SOL    HW238334   3.644   3.947   4.290 -1.1218 -1.0351  1.2652
 8901SOL     OW38335   3.682   0.628   7.896  0.1690  0.3099 -0.1373
 8901SOL    HW138336   3.652   0.620   7.805 -1.8031 -0.0028  0.5462
 8901SOL    HW238337   3.765   0.674   7.880 -0.1808  1.9469  2.7183
 8902SOL     OW38338   1.292   4.580   7.164  0.0337 -0.4126  0.0856
 8902SOL    HW138339   1.372   4.630   7.149  1.6507 -3.0187  0.0390
 8902SOL    HW238340   1.320   4.528   7.240  0.6120 -0.8945 -0.4516
 8903SOL     OW38341   2.034   0.743   2.483 -0.1679 -0.1574 -0.5898
 8903SOL    HW138342   2.017   0.649   2.485 -0.8737 -0.0115  0.7427
 8903SOL    HW238343   2.097   0.743   2.411  1.3730  1.6487  0.7535
 8904SOL     OW38344   2.097   3.600   2.685 -0.5342  0.6797  0.0067
 8904SOL    HW138345   2.154   3.649   2.744 -0.3149  1.3811 -0.7856
 8904SOL    HW238346   2.111   3.510   2.714  0.8172  0.9367  0.1227
 8905SOL     OW38347   3.248   3.100  10.655  0.1485  0.2114  0.0053
 8905SOL    HW138348   3.343   3.105  10.647  0.3184 -0.9573  1.3857
 8905SOL    HW238349   3.231   3.020  10.606 -2.3673 -0.4109  1.8689
 8906SOL     OW38350   0.740   3.228   6.982  0.4111 -0.0634  0.3029
 8906SOL    HW138351   0.827   3.253   6.951  0.6801  0.4537  1.4779
 8906SOL    HW238352   0.762   3.174   7.059  2.0432  1.1347  0.6808
 8907SOL     OW38353   4.309   0.859   1.438 -0.0639 -0.8423  0.5349
 8907SOL    HW138354   4.282   0.914   1.512  2.8329 -0.3254  1.1944
 8907SOL    HW238355   4.383   0.902   1.396 -0.1967 -0.0705  1.1028
 8908SOL     OW38356   3.947   1.078   3.723 -0.2822  0.2523 -0.5067
 8908SOL    HW138357   3.927   1.047   3.635 -2.1254  2.7631 -0.9660
 8908SOL    HW238358   3.866   1.121   3.749  1.5058  2.7854  0.8671
 8909SOL     OW38359   0.578   0.702   1.886 -0.1123  0.3445  0.0556
 8909SOL    HW138360   0.629   0.708   1.967  1.4171 -2.0850 -0.7091
 8909SOL    HW238361   0.555   0.793   1.871  5.0287  1.4587 -1.2706
 8910SOL     OW38362   3.821   0.315   6.897 -0.1831  0.3180  0.4557
 8910SOL    HW138363   3.840   0.323   6.991  2.1294  0.8469 -0.0559
 8910SOL    HW238364   3.909   0.310   6.860  0.4407  2.6490  1.6358
 8911SOL     OW38365   4.334   1.008   5.736 -0.2305  0.0587 -0.1825
 8911SOL    HW138366   4.358   0.995   5.644 -0.2228  0.2303 -0.2044
 8911SOL    HW238367   4.349   0.921   5.772 -1.2051 -0.1870 -0.3729
 8912SOL     OW38368   2.609   3.122   6.472  0.6350 -0.3688 -0.2300
 8912SOL    HW138369   2.520   3.148   6.447  1.3778  2.4606  0.1494
 8912SOL    HW238370   2.647   3.208   6.490 -0.9372  0.2582  0.1257
 8913SOL     OW38371   2.865   0.305   8.027 -0.3894  0.1510  0.7412
 8913SOL    HW138372   2.900   0.223   7.993  0.2708  0.6590  0.1812
 8913SOL    HW238373   2.773   0.301   8.002  0.4482 -0.1864 -2.3196
 8914SOL     OW38374   3.099   4.735   2.868  0.0332  0.4091  0.2924
 8914SOL    HW138375   3.191   0.011   2.846 -0.7053  3.0135 -1.0313
 8914SOL    HW238376   3.074   0.080   2.907 -2.1860 -1.0387  1.9963
 8915SOL     OW38377   0.396   1.840   8.798 -0.5450 -0.2583  0.5579
 8915SOL    HW138378   0.388   1.929   8.833 -3.1206 -0.7436  1.1598
 8915SOL    HW238379   0.335   1.837   8.725 -0.6099  2.2119  0.5120
 8916SOL     OW38380   1.874   3.938   8.524  0.5073 -0.8445  0.3453
 8916SOL    HW138381   1.926   4.005   8.479  1.1981 -0.6435  1.4472
 8916SOL    HW238382   1.789   3.980   8.538  1.3537  0.8102  0.5350
 8917SOL     OW38383   2.413   0.383   8.640 -0.0095  0.1437  0.1182
 8917SOL    HW138384   2.365   0.343   8.713 -1.2203 -2.1947 -1.9824
 8917SOL    HW238385   2.471   0.443   8.687  0.3051 -0.4306  0.4564
 8918SOL     OW38386   3.761   1.437   5.811  0.2566 -0.5015  0.3800
 8918SOL    HW138387   3.742   1.521   5.853  0.0536 -0.1112 -0.5016
 8918SOL    HW238388   3.672   1.403   5.803 -0.2307  0.7761  0.2681
 8919SOL     OW38389   0.754   4.010   7.393  0.1991  0.1351 -0.0236
 8919SOL    HW138390   0.799   4.057   7.463 -0.8398  0.3525  0.4927
 8919SOL    HW238391   0.828   3.966   7.350 -0.8225  1.0692 -2.7183
 8920SOL     OW38392   2.197   4.443   7.635 -0.3322  0.0029  0.3703
 8920SOL    HW138393   2.109   4.425   7.602 -0.4299 -0.5232  0.9186
 8920SOL    HW238394   2.184   4.511   7.701  0.2135 -0.1918  0.6820
 8921SOL     OW38395   0.461   2.460   5.861 -0.1869 -0.2357  0.0192
 8921SOL    HW138396   0.471   2.477   5.955 -0.9744  0.7260 -0.0786
 8921SOL    HW238397   0.553   2.442   5.839 -0.2979 -1.0776  0.2147
 8922SOL     OW38398   0.430   1.574  13.896  0.0629 -0.1541 -0.5943
 8922SOL    HW138399   0.439   1.571  13.800  3.0186  0.7391 -0.3356
 8922SOL    HW238400   0.407   1.486  13.925  1.6378 -0.4365 -0.1951
 8923SOL     OW38401   3.016   2.587   4.404  0.1127 -0.6478  0.1873
 8923SOL    HW138402   2.971   2.543   4.476 -2.4378  0.7415 -0.5694
 8923SOL    HW238403   3.102   2.551   4.427  1.9755  2.2062 -2.3271
 8924SOL     OW38404   2.898   3.967   6.790  0.2916  0.5172  0.3047
 8924SOL    HW138405   2.981   3.938   6.829  0.2738 -0.8625 -0.6789
 8924SOL    HW238406   2.935   4.037   6.737  0.9564  0.5707  0.8378
 8925SOL     OW38407   4.716   0.907  17.276 -0.1580 -0.3707 -0.4816
 8925SOL    HW138408   0.056   0.945  17.237  0.4261 -0.7173  0.3710
 8925SOL    HW238409   4.723   0.816  17.246  0.7471 -0.6874  0.6618
 8926SOL     OW38410   3.870   4.352   2.899  0.0257 -0.2805  0.3887
 8926SOL    HW138411   3.885   4.281   2.962  0.5397 -1.2154 -0.8023
 8926SOL    HW238412   3.841   4.426   2.952 -0.8179  0.5626 -1.2693
 8927SOL     OW38413   0.200   3.041   9.191 -0.0330  0.0535  0.6605
 8927SOL    HW138414   0.164   3.115   9.241 -1.5637  0.8280 -1.5846
 8927SOL    HW238415   0.242   2.997   9.264  0.6400  0.6591  0.6317
 8928SOL     OW38416   0.593   2.402  12.822  0.2652  0.1656  0.2340
 8928SOL    HW138417   0.545   2.322  12.800 -0.4105  1.0613 -1.4932
 8928SOL    HW238418   0.678   2.398  12.779 -0.8046 -0.2876 -1.8067
 8929SOL     OW38419   1.979   4.574   3.142 -0.3462  0.1417 -0.3905
 8929SOL    HW138420   2.023   4.637   3.199  1.2241  0.0236 -1.4533
 8929SOL    HW238421   1.897   4.613   3.113 -0.1815 -0.1318 -1.2308
 8930SOL     OW38422   1.267   0.028   8.314  0.7750  0.5150  0.3470
 8930SOL    HW138423   1.215   4.690   8.335 -0.0836  0.4835 -1.8012
 8930SOL    HW238424   1.196   0.076   8.271  1.2194  1.4668  0.6636
 8931SOL     OW38425   0.372   1.936   2.389 -0.1662  0.3740 -0.0840
 8931SOL    HW138426   0.340   1.875   2.323  2.1407 -2.0007  0.9787
 8931SOL    HW238427   0.304   1.921   2.454  0.0209 -0.2108 -0.0226
 8932SOL     OW38428   1.158   2.261   1.553  0.2590  0.5327 -0.2980
 8932SOL    HW138429   1.063   2.273   1.558  0.4958  0.8568  3.7274
 8932SOL    HW238430   1.165   2.166   1.564  1.8438  0.7414  0.6643
 8933SOL     OW38431   2.706   1.090   3.746 -0.4582  0.2285  0.4029
 8933SOL    HW138432   2.747   1.173   3.771 -1.4728  0.4980  1.1465
 8933SOL    HW238433   2.791   1.047   3.737 -0.3755  0.1226  1.6125
 8934SOL     OW38434   0.231   4.605   0.802  0.4792 -0.2011  0.0719
 8934SOL    HW138435   0.326   4.597   0.800  0.2261 -3.5274  0.3900
 8934SOL    HW238436   0.214   4.635   0.891 -1.2653  1.2742 -0.7756
 8935SOL     OW38437   0.307   4.427  17.498  0.4447  1.0367 -0.5875
 8935SOL    HW138438   0.256   4.378  17.433  0.9994 -1.8582  1.1736
 8935SOL    HW238439   0.389   4.418  17.449  0.1309 -0.2665 -0.8650
 8936SOL     OW38440   1.131   1.725   5.670  0.2432 -0.2053 -0.0571
 8936SOL    HW138441   1.070   1.693   5.736  0.5416  0.5970  0.6184
 8936SOL    HW238442   1.160   1.647   5.623 -1.7650 -0.0072 -1.5810
 8937SOL     OW38443   0.715   1.803   8.036  0.4289  0.3083 -0.9844
 8937SOL    HW138444   0.776   1.856   7.985 -0.7805  2.4214 -0.2484
 8937SOL    HW238445   0.775   1.742   8.079 -1.6573 -0.4221  0.9226
 8938SOL     OW38446   3.357   3.651   0.434 -0.1213  0.2716 -0.1694
 8938SOL    HW138447   3.298   3.593   0.387 -1.1949  1.0280  0.2533
 8938SOL    HW238448   3.442   3.658   0.390 -1.3750  5.6060 -1.7722
 8939SOL     OW38449   0.460   1.700   0.590  0.5580 -0.3842  0.2667
 8939SOL    HW138450   0.366   1.692   0.605  0.7449 -0.2281  1.5126
 8939SOL    HW238451   0.467   1.794   0.575  0.7867 -0.3219  0.7592
 8940SOL     OW38452   3.660   0.415   8.046 -0.0830  0.0329 -0.0981
 8940SOL    HW138453   3.651   0.476   8.119  1.7096  0.3593 -0.1427
 8940SOL    HW238454   3.692   0.481   7.985 -0.4747 -0.2595 -0.6186
 8941SOL     OW38455   4.108   4.163  11.061  0.0404  0.2001  0.1623
 8941SOL    HW138456   4.048   4.094  11.034  1.2686 -1.3494  1.4205
 8941SOL    HW238457   4.108   4.210  10.977 -2.1209  1.4471  0.8514
 8942SOL     OW38458   0.555   3.782   3.299  0.3358  0.7248 -0.1368
 8942SOL    HW138459   0.507   3.838   3.238  1.2418  0.8174 -0.7528
 8942SOL    HW238460   0.559   3.845   3.372 -0.0337  0.1143  0.4081
 8943SOL     OW38461   2.150   1.170   6.495 -0.1251  0.9620  0.2657
 8943SOL    HW138462   2.054   1.176   6.497  0.0005  2.3777  1.6899
 8943SOL    HW238463   2.161   1.259   6.463 -2.2091  1.0585 -0.1886
 8944SOL     OW38464   3.290   4.067   8.972  0.4300  0.6908 -0.2133
 8944SOL    HW138465   3.297   4.044   9.064  0.5242 -0.2395 -0.4484
 8944SOL    HW238466   3.242   4.149   8.983 -1.1905 -0.3549  0.5440
 8945SOL     OW38467   4.504   0.502   8.745 -0.2524 -0.4214 -0.2201
 8945SOL    HW138468   4.502   0.406   8.743  2.0438 -0.4997  0.6345
 8945SOL    HW238469   4.422   0.528   8.705  0.8361  1.9054 -0.9576
 8946SOL     OW38470   0.953   2.143   1.319  0.3714 -0.7088  0.1819
 8946SOL    HW138471   0.984   2.233   1.306  1.2342 -1.2278 -1.4389
 8946SOL    HW238472   0.918   2.125   1.232 -2.9476 -0.5655  1.5202
 8947SOL     OW38473   3.876   0.268   3.580  0.2901 -0.2449  0.0302
 8947SOL    HW138474   3.815   0.322   3.630 -0.8117 -1.3222 -0.1641
 8947SOL    HW238475   3.914   0.329   3.516  0.4138 -0.5996 -0.2359
 8948SOL     OW38476   0.383   2.295   3.184  0.2994 -0.1665  0.3500
 8948SOL    HW138477   0.342   2.228   3.240  1.8798 -2.0465 -0.7639
 8948SOL    HW238478   0.344   2.271   3.100 -0.2664 -0.1863  0.6168
 8949SOL     OW38479   4.429   3.911   6.575  0.1821 -0.0021 -0.0475
 8949SOL    HW138480   4.364   3.981   6.581  0.8230  0.5664  0.2932
 8949SOL    HW238481   4.448   3.913   6.482 -2.7354 -0.7939 -0.6710
 8950SOL     OW38482   2.967   0.221   7.225 -0.1053  0.0441 -0.2576
 8950SOL    HW138483   3.059   0.239   7.209  0.0660  0.5066  1.2740
 8950SOL    HW238484   2.952   0.242   7.317 -0.4648  0.7798 -0.4811
 8951SOL     OW38485   2.686   4.649   7.365 -0.1934  0.5595 -0.5731
 8951SOL    HW138486   2.688   4.687   7.277 -0.3728  0.3262 -0.6787
 8951SOL    HW238487   2.688   4.729   7.418  1.1944  0.2566 -0.1557
 8952SOL     OW38488   2.194   3.724   9.752 -0.1404  0.2840  0.2866
 8952SOL    HW138489   2.199   3.650   9.812 -0.2018  0.5023  0.5633
 8952SOL    HW238490   2.266   3.772   9.793  0.1819  0.3265 -0.3252
 8953SOL     OW38491   2.795   1.426  13.998  0.2399  0.1916 -0.0702
 8953SOL    HW138492   2.746   1.379  14.065 -0.9998  0.9985 -0.4005
 8953SOL    HW238493   2.888   1.414  14.017 -0.3024 -2.0912  1.0419
 8954SOL     OW38494   2.778   1.901   7.629 -0.4188 -0.3803  0.5067
 8954SOL    HW138495   2.766   1.806   7.633 -2.3389 -0.1522  0.4105
 8954SOL    HW238496   2.791   1.922   7.721 -0.4499  0.6224  0.2772
 8955SOL     OW38497   1.443   0.417  14.572 -0.1915  0.1336  0.0050
 8955SOL    HW138498   1.516   0.366  14.537 -1.5630 -1.2611 -0.8553
 8955SOL    HW238499   1.433   0.375  14.657  1.3720 -1.9423 -0.8502
 8956SOL     OW38500   2.780   4.353  17.668  0.0892  0.0640 -0.1983
 8956SOL    HW138501   2.821   4.312  17.743  0.1410 -0.6015 -0.5948
 8956SOL    HW238502   2.690   4.362  17.702  0.5564 -0.2110  1.1009
 8957SOL     OW38503   2.157   4.522   4.613 -0.0118  0.0089 -0.0428
 8957SOL    HW138504   2.214   4.564   4.548  1.4716 -1.5915  0.2094
 8957SOL    HW238505   2.176   4.429   4.601 -0.4578  0.0639 -1.2727
 8958SOL     OW38506   1.083   3.895  16.200  0.4527  0.0338 -0.2334
 8958SOL    HW138507   1.031   3.879  16.280  0.5688 -0.7211 -0.3051
 8958SOL    HW238508   1.163   3.844  16.213  0.3661 -0.4121 -1.4343
 8959SOL     OW38509   0.604   0.734   3.646  0.0950  0.6546  0.2267
 8959SOL    HW138510   0.656   0.654   3.635 -0.7682  0.0853  0.2178
 8959SOL    HW238511   0.584   0.730   3.740  0.1352 -2.1386  0.1209
 8960SOL     OW38512   0.187   0.379   0.219  0.3733  0.1934  0.0252
 8960SOL    HW138513   0.203   0.339   0.305 -0.1522  1.9060  0.9225
 8960SOL    HW238514   0.250   0.450   0.220 -0.7588  1.2338 -2.5504
 8961SOL     OW38515   2.403   4.185   6.943 -0.2893 -0.4683  0.0097
 8961SOL    HW138516   2.348   4.229   7.007 -2.4104 -1.3207 -1.2175
 8961SOL    HW238517   2.488   4.209   6.981 -0.0796 -2.5246  0.8457
 8962SOL     OW38518   3.874   3.729  11.624 -0.2149 -0.2219  0.0379
 8962SOL    HW138519   3.876   3.635  11.605 -0.2408  0.2129 -2.1383
 8962SOL    HW238520   3.853   3.740  11.717  1.4581 -1.2048  0.5337
 8963SOL     OW38521   3.464   1.330  16.514  0.2141 -0.0058  0.1137
 8963SOL    HW138522   3.492   1.393  16.580 -0.8048  1.7086 -1.0675
 8963SOL    HW238523   3.535   1.337  16.450 -0.8846  1.8014 -0.9199
 8964SOL     OW38524   0.438   1.278   7.666  0.3214  0.0066 -0.8991
 8964SOL    HW138525   0.468   1.367   7.683 -1.8059  0.7864 -1.2711
 8964SOL    HW238526   0.404   1.293   7.578  0.6267  0.9674 -0.8526
 8965SOL     OW38527   4.213   3.771   7.935  0.9002  0.4038 -0.3203
 8965SOL    HW138528   4.206   3.865   7.916 -1.6761 -0.0198 -1.4214
 8965SOL    HW238529   4.186   3.771   8.027 -1.0127  0.3311 -0.8884
 8966SOL     OW38530   2.552   3.843   2.694  0.4534 -0.2816  0.1535
 8966SOL    HW138531   2.574   3.759   2.734 -1.8946  0.3213  2.6496
 8966SOL    HW238532   2.537   3.901   2.768  0.6471  0.7221 -0.5972
 8967SOL     OW38533   2.931   3.070   6.690  0.0645  0.1972  0.2364
 8967SOL    HW138534   2.868   2.999   6.698  1.3504 -0.8895  0.6016
 8967SOL    HW238535   2.901   3.123   6.616  0.0979 -0.9918 -0.6275
 8968SOL     OW38536   3.917   0.586   3.780  0.0832  0.3167 -0.1293
 8968SOL    HW138537   3.850   0.521   3.760 -2.9103  2.9548  1.3214
 8968SOL    HW238538   3.895   0.661   3.726  1.5414  1.2396  0.5651
 8969SOL     OW38539   1.017   2.140   9.431  0.0894 -0.1159 -0.6539
 8969SOL    HW138540   0.944   2.078   9.438 -0.5007  0.7699  1.1971
 8969SOL    HW238541   1.050   2.108   9.347  0.1955  0.8505 -0.9774
 8970SOL     OW38542   3.744   0.708   4.764 -0.2663  0.0933 -0.0381
 8970SOL    HW138543   3.811   0.753   4.814  1.2848 -1.3161 -0.8588
 8970SOL    HW238544   3.669   0.742   4.812  0.7907  3.0907 -0.5276
 8971SOL     OW38545   0.521   3.037  13.074  0.4609  0.2085 -0.4230
 8971SOL    HW138546   0.511   2.970  13.007 -0.3606 -0.1454  0.0449
 8971SOL    HW238547   0.585   2.990  13.127 -0.6150 -1.2525 -0.4296
 8972SOL     OW38548   0.849   1.269   7.580 -0.3704  0.2645 -0.4742
 8972SOL    HW138549   0.942   1.261   7.599 -0.1650  0.2974 -1.4779
 8972SOL    HW238550   0.810   1.217   7.650  0.6067 -0.4248 -0.4470
 8973SOL     OW38551   0.628   1.234   4.726 -0.1473  0.3997 -0.3277
 8973SOL    HW138552   0.617   1.143   4.697 -4.2708  0.7530  0.0949
 8973SOL    HW238553   0.628   1.282   4.643  2.1177  0.8455 -0.0652
 8974SOL     OW38554   3.466   3.807  12.077 -0.2231 -0.4004 -0.0171
 8974SOL    HW138555   3.386   3.759  12.099  0.0958 -1.8179 -1.9388
 8974SOL    HW238556   3.520   3.741  12.034 -1.5699  0.0566 -2.4007
 8975SOL     OW38557   4.595   2.169  12.476 -0.0023 -0.0193  0.2075
 8975SOL    HW138558   4.500   2.167  12.485 -0.1974  0.6550 -1.8341
 8975SOL    HW238559   4.615   2.097  12.417 -3.7823 -1.7132  0.9803
 8976SOL     OW38560   0.245   0.565   4.002  0.1674 -0.3620  0.2467
 8976SOL    HW138561   0.186   0.521   3.941  2.8822  1.3283 -3.6882
 8976SOL    HW238562   0.229   0.657   3.981 -1.9798 -0.6424  0.7217
 8977SOL     OW38563   0.060   3.642   2.549 -0.2024  0.0351 -0.3469
 8977SOL    HW138564   0.009   3.669   2.473 -1.0080 -1.2757 -0.2765
 8977SOL    HW238565   0.064   3.546   2.548  1.2200  0.0783  0.9644
 8978SOL     OW38566   3.557   4.081  14.735  0.2832 -0.0856  0.0291
 8978SOL    HW138567   3.506   4.148  14.781  1.9417  2.4233 -1.7899
 8978SOL    HW238568   3.494   4.028  14.686 -0.0469 -2.4328  2.9985
 8979SOL     OW38569   2.197   2.841   9.479 -0.0860  0.1288  0.3221
 8979SOL    HW138570   2.116   2.824   9.431 -0.8336  1.4227  1.1416
 8979SOL    HW238571   2.245   2.760   9.460  0.2533  0.6151 -0.8906
 8980SOL     OW38572   4.522   1.540   9.865 -0.3835 -0.5753 -0.6142
 8980SOL    HW138573   4.454   1.598   9.897 -2.3523 -2.1398 -1.9508
 8980SOL    HW238574   4.499   1.517   9.775 -1.1516  0.7905 -0.7582
 8981SOL     OW38575   4.179   4.466   8.318 -0.1255  0.1216 -0.0466
 8981SOL    HW138576   4.123   4.415   8.377  1.6970 -3.1851 -1.1909
 8981SOL    HW238577   4.262   4.447   8.362 -0.2890 -0.9756 -0.2127
 8982SOL     OW38578   0.830   1.972   7.075  0.1002 -0.3337 -0.4802
 8982SOL    HW138579   0.881   1.958   7.155  0.4939 -1.9660 -1.0124
 8982SOL    HW238580   0.842   1.884   7.041 -1.5446 -0.4836 -0.6710
 8983SOL     OW38581   0.586   0.693  14.811  0.6989  0.6211  0.3787
 8983SOL    HW138582   0.642   0.760  14.770  0.6089  1.4684  1.6289
 8983SOL    HW238583   0.546   0.657  14.733 -1.2445  2.1651  0.6632
 8984SOL     OW38584   3.985   4.269   7.160 -0.4073  0.8798  0.5436
 8984SOL    HW138585   4.079   4.275   7.146 -0.5446 -3.6980 -2.5338
 8984SOL    HW238586   3.979   4.347   7.215 -0.1172  1.5592 -0.3921
 8985SOL     OW38587   0.991   2.518   3.316 -0.1103  0.2766  0.7966
 8985SOL    HW138588   1.045   2.597   3.323  0.3915  0.1186 -1.2944
 8985SOL    HW238589   1.060   2.456   3.294  0.1847 -0.1222  2.8781
 8986SOL     OW38590   0.927   3.435   0.607  0.4341 -0.1853  0.8802
 8986SOL    HW138591   0.887   3.349   0.601 -2.1963  1.1345 -0.3496
 8986SOL    HW238592   0.898   3.455   0.695  1.2420  1.3906  0.7908
 8987SOL     OW38593   0.143   2.548  13.223 -0.0917 -0.4821  1.0117
 8987SOL    HW138594   0.223   2.601  13.213 -0.5567 -0.2800 -1.6679
 8987SOL    HW238595   0.180   2.465  13.194 -0.2902 -0.3882  0.5005
 8988SOL     OW38596   1.160   0.868  10.089 -0.1233  0.2164 -0.2888
 8988SOL    HW138597   1.068   0.843  10.078 -0.2544  1.5329 -2.2180
 8988SOL    HW238598   1.157   0.932  10.161  2.0168 -0.6188  0.5365
 8989SOL     OW38599   2.094   2.784   7.213  0.2296 -0.1879  0.3825
 8989SOL    HW138600   2.089   2.803   7.306  0.1799  0.2366  0.2929
 8989SOL    HW238601   2.006   2.802   7.179 -0.4893 -2.6056  0.8993
 8990SOL     OW38602   4.346   0.573  12.572  0.2134 -0.4375  0.0522
 8990SOL    HW138603   4.257   0.546  12.551 -0.4393  0.8782  1.0935
 8990SOL    HW238604   4.335   0.664  12.545  1.5816 -0.3913 -0.3421
 8991SOL     OW38605   4.456   1.659   8.284 -0.2434 -0.9067  0.2786
 8991SOL    HW138606   4.435   1.703   8.202  0.0994 -1.0591  0.1098
 8991SOL    HW238607   4.390   1.681   8.349 -0.7238  1.7871 -1.1507
 8992SOL     OW38608   2.288   1.014  12.011 -0.2570 -0.1245 -0.3597
 8992SOL    HW138609   2.211   1.020  12.067 -0.2687 -2.8189 -0.1188
 8992SOL    HW238610   2.244   0.971  11.938  0.3045 -0.6373 -0.3930
 8993SOL     OW38611   4.654   1.199   4.485 -0.4094  0.8313 -0.8045
 8993SOL    HW138612   4.705   1.242   4.554 -1.9458 -0.6096  1.2503
 8993SOL    HW238613   4.642   1.269   4.421  1.1095 -1.3809 -3.5057
 8994SOL     OW38614   2.407   3.429   9.080 -0.0375  0.3095 -0.4037
 8994SOL    HW138615   2.325   3.394   9.046 -0.0761 -0.7853  0.8117
 8994SOL    HW238616   2.362   3.470   9.154  1.7301 -3.0664  2.5450
 8995SOL     OW38617   2.449   1.193   7.953 -0.1129  0.3444 -0.0539
 8995SOL    HW138618   2.372   1.143   7.926  2.1427 -2.6219 -1.0625
 8995SOL    HW238619   2.415   1.265   8.006  1.3376  0.2893  0.9436
 8996SOL     OW38620   1.966   4.677   6.247  0.0093  0.2674  0.5261
 8996SOL    HW138621   2.039   4.734   6.223 -0.1705 -0.5901 -2.1107
 8996SOL    HW238622   2.015   4.603   6.283 -1.4542 -0.7672  0.3929
 8997SOL     OW38623   2.514   4.723   0.594 -0.2619  0.1111 -0.0294
 8997SOL    HW138624   2.436   0.015   0.640 -0.5508 -0.9226  0.1747
 8997SOL    HW238625   2.490   4.630   0.596 -0.5874  0.1891 -0.4863
 8998SOL     OW38626   3.344   0.315   4.145 -0.3899 -0.4524  0.0076
 8998SOL    HW138627   3.368   0.225   4.169 -0.0805 -0.0279  1.3142
 8998SOL    HW238628   3.375   0.362   4.223  3.0719 -2.1906 -0.3137
 8999SOL     OW38629   0.066   3.455   9.143 -0.1117  0.3071 -0.2292
 8999SOL    HW138630   0.135   3.410   9.192  0.7078  0.5079 -1.1740
 8999SOL    HW238631   4.735   3.470   9.206 -0.7715  0.2914 -0.9642
 9000SOL     OW38632   2.566   1.491   6.164 -0.0428  0.1044  0.5984
 9000SOL    HW138633   2.591   1.403   6.133 -3.4897 -1.2257  1.5871
 9000SOL    HW238634   2.493   1.515   6.107 -0.6949 -1.4777  0.7673
 9001SOL     OW38635   3.740   1.794   3.527  0.9996  0.0890  0.1003
 9001SOL    HW138636   3.720   1.730   3.459 -1.7838  0.1037  0.8743
 9001SOL    HW238637   3.793   1.734   3.579 -0.1492  0.6551  1.9369
 9002SOL     OW38638   2.550   2.466  17.596  0.2914 -0.4175  0.1731
 9002SOL    HW138639   2.564   2.538  17.658 -1.5609  1.4357 -1.6038
 9002SOL    HW238640   2.472   2.424  17.634 -0.9543  0.8659 -1.0017
 9003SOL     OW38641   2.415   3.515   1.423  0.5265 -0.2965  0.0225
 9003SOL    HW138642   2.412   3.449   1.492  0.9932 -0.2027  0.1301
 9003SOL    HW238643   2.428   3.461   1.345  0.2963  2.3482 -1.8294
 9004SOL     OW38644   2.965   0.551  15.141 -0.1809 -0.7259  0.4272
 9004SOL    HW138645   3.038   0.535  15.202 -1.1733 -2.1486  1.2595
 9004SOL    HW238646   2.987   0.638  15.111  0.8871 -0.8106  0.9690
 9005SOL     OW38647   0.423   0.515   0.116 -0.1036  0.8753 -0.6658
 9005SOL    HW138648   0.474   0.591   0.087  0.4990  0.6260 -0.2601
 9005SOL    HW238649   0.499   0.462   0.139 -1.1252 -0.2313  0.1075
 9006SOL     OW38650   3.959   2.239  17.696 -0.4262  0.7443 -0.0241
 9006SOL    HW138651   4.037   2.187  17.676 -1.3030 -0.3438 -0.5733
 9006SOL    HW238652   3.998   2.303   0.003  1.1785  1.0189 -1.3499
 9007SOL     OW38653   0.239   4.280  17.265  0.6393  0.0010 -0.1177
 9007SOL    HW138654   0.170   4.215  17.278  1.2701 -0.5996  0.2310
 9007SOL    HW238655   0.251   4.267  17.171 -2.0343  1.7229 -0.6988
 9008SOL     OW38656   3.603   2.077  11.703 -0.4240  0.2384  1.0323
 9008SOL    HW138657   3.654   2.125  11.768 -2.9121  1.7278  1.8515
 9008SOL    HW238658   3.622   2.136  11.630 -0.7461  0.1252  0.8593
 9009SOL     OW38659   0.358   2.245   0.220 -0.5972 -0.1969 -0.2751
 9009SOL    HW138660   0.328   2.317   0.165 -1.5064 -0.6291 -0.3527
 9009SOL    HW238661   0.445   2.246   0.181 -0.2656 -1.0299  0.4348
 9010SOL     OW38662   4.722   1.445   5.497  0.5123 -0.0646  0.0898
 9010SOL    HW138663   4.630   1.469   5.485  0.6921  1.1176  1.0911
 9010SOL    HW238664   4.725   1.434   5.593  0.8466 -1.7433 -0.1102
 9011SOL     OW38665   2.660   2.705   2.558  0.3071  0.1026 -0.1101
 9011SOL    HW138666   2.658   2.748   2.643  0.5170 -0.2233  0.0585
 9011SOL    HW238667   2.754   2.696   2.542  0.5685  0.2488  1.4070
 9012SOL     OW38668   1.029   0.485   2.643 -0.5223 -0.1628  0.5580
 9012SOL    HW138669   1.107   0.514   2.690  0.1053 -2.1766  0.7638
 9012SOL    HW238670   0.988   0.419   2.698  0.1790 -0.1688  1.0767
 9013SOL     OW38671   3.333   4.417   3.798  0.3842 -0.5788  0.3978
 9013SOL    HW138672   3.244   4.438   3.826  0.6442  0.4662  0.4275
 9013SOL    HW238673   3.360   4.492   3.746  0.1042 -1.4331 -0.9916
 9014SOL     OW38674   2.016   0.646  13.077 -0.4901  0.0954 -0.1728
 9014SOL    HW138675   1.979   0.725  13.115  0.7567 -0.0590  1.3788
 9014SOL    HW238676   2.106   0.663  13.049 -0.1953 -0.9174  0.1413
 9015SOL     OW38677   2.306   0.335   4.336 -0.0341 -0.3162  0.3963
 9015SOL    HW138678   2.245   0.391   4.384  0.3224  1.0790 -0.7840
 9015SOL    HW238679   2.251   0.270   4.293  0.3362 -1.4219  1.5939
 9016SOL     OW38680   3.922   2.257   4.179 -0.2086  0.1962  0.5514
 9016SOL    HW138681   3.872   2.262   4.098  0.0946  1.3564  0.4342
 9016SOL    HW238682   3.991   2.320   4.158  0.3505 -0.7027 -0.2588
 9017SOL     OW38683   3.471   0.711   5.293  0.3336  0.0264 -0.4694
 9017SOL    HW138684   3.507   0.715   5.382 -0.0258  0.7841 -0.3552
 9017SOL    HW238685   3.484   0.618   5.274  1.9474  0.2776 -0.6268
 9018SOL     OW38686   2.768   4.439   3.579 -0.5156  0.2257 -0.1614
 9018SOL    HW138687   2.856   4.475   3.582  0.7997 -2.9286 -0.5160
 9018SOL    HW238688   2.775   4.343   3.578  0.7582  0.2942  2.2036
 9019SOL     OW38689   3.431   3.792  17.354  0.4549  0.0452 -0.2089
 9019SOL    HW138690   3.526   3.793  17.337  0.5989 -0.1590  0.6013
 9019SOL    HW238691   3.432   3.884  17.381 -1.5480 -0.0379  0.1381
 9020SOL     OW38692   3.170   3.660   3.585 -0.2842  0.3347  0.0967
 9020SOL    HW138693   3.097   3.602   3.610  0.5840 -0.8566 -0.1105
 9020SOL    HW238694   3.121   3.742   3.582  0.0594  0.5227 -0.3518
 9021SOL     OW38695   4.357   2.287   4.739 -0.0380  0.4653  0.0651
 9021SOL    HW138696   4.401   2.359   4.694 -1.2844  0.2990 -1.4422
 9021SOL    HW238697   4.326   2.325   4.821  1.3323  0.4838  0.5650
 9022SOL     OW38698   0.494   2.864  10.893 -0.0959  0.0405 -0.5833
 9022SOL    HW138699   0.567   2.858  10.955 -0.1918 -0.2908 -0.5037
 9022SOL    HW238700   0.422   2.840  10.952 -0.5795  2.1556 -0.3181
 9023SOL     OW38701   1.112   3.788   4.561  0.0340  0.2729 -0.3114
 9023SOL    HW138702   1.176   3.726   4.594 -0.5541  0.7949  1.8203
 9023SOL    HW238703   1.125   3.854   4.630  0.7765 -0.7209  0.5034
 9024SOL     OW38704   3.397   0.183  16.293  0.3195  0.3103  0.1602
 9024SOL    HW138705   3.380   0.216  16.205 -1.3705  1.0260  0.7612
 9024SOL    HW238706   3.344   0.104  16.306  0.5511 -0.1231 -1.5564
 9025SOL     OW38707   2.041   4.576  11.345  0.0161 -1.1442  0.4348
 9025SOL    HW138708   2.052   4.627  11.425  1.4978 -1.1978  0.2528
 9025SOL    HW238709   1.946   4.584  11.340  0.2206  1.5272  0.8639
 9026SOL     OW38710   1.131   4.477   6.539  0.2231  0.2723  0.4676
 9026SOL    HW138711   1.110   4.519   6.623  1.1884  2.2419 -0.2902
 9026SOL    HW238712   1.222   4.505   6.533  0.0683  0.4604 -0.8992
 9027SOL     OW38713   1.397   3.246   9.205  0.7870 -0.2528  0.2607
 9027SOL    HW138714   1.389   3.158   9.242  0.9009 -0.3290  0.1034
 9027SOL    HW238715   1.436   3.223   9.121  0.0019  3.7018 -1.2078
 9028SOL     OW38716   1.515   1.671  12.784 -0.2518  0.2812  0.5007
 9028SOL    HW138717   1.610   1.666  12.772 -0.1753 -0.0670  1.2498
 9028SOL    HW238718   1.479   1.587  12.759 -0.0081  0.2661  0.1986
 9029SOL     OW38719   0.230   4.043   6.287  0.2229  0.1972 -0.0170
 9029SOL    HW138720   0.279   3.961   6.300  2.0637  1.4519  0.9925
 9029SOL    HW238721   0.251   4.067   6.197  0.2339  0.0378 -0.0575
 9030SOL     OW38722   4.308   3.153   1.565  0.0192 -0.0355 -0.2115
 9030SOL    HW138723   4.275   3.095   1.635 -1.2676  0.0109 -0.7804
 9030SOL    HW238724   4.294   3.241   1.601  0.3545 -0.3306  0.6405
 9031SOL     OW38725   1.844   3.400   4.809 -0.1389 -0.4089 -0.8400
 9031SOL    HW138726   1.872   3.457   4.738  3.4933 -0.2628  0.6791
 9031SOL    HW238727   1.886   3.436   4.888  0.6401 -0.5038 -1.2080
 9032SOL     OW38728   0.328   0.765   7.295 -0.1916  0.0671 -0.1548
 9032SOL    HW138729   0.361   0.750   7.206  0.7460 -2.7076  0.6670
 9032SOL    HW238730   0.232   0.764   7.295 -0.2195  2.8156  0.8323
 9033SOL     OW38731   3.652   0.630   0.946  0.3167  0.0807  0.5174
 9033SOL    HW138732   3.557   0.623   0.955  0.5977 -3.5831  0.5819
 9033SOL    HW238733   3.656   0.713   0.897  2.0355 -0.9609 -1.1143
 9034SOL     OW38734   1.990   3.828  13.637  0.2884 -0.3219 -0.4891
 9034SOL    HW138735   1.978   3.884  13.713  0.5267  0.7713 -1.2548
 9034SOL    HW238736   2.005   3.888  13.564 -1.4280 -2.1159 -2.3450
 9035SOL     OW38737   4.126   1.941   0.666  0.1355 -0.2023 -0.0265
 9035SOL    HW138738   4.074   2.006   0.711  0.1470 -1.0448  1.2095
 9035SOL    HW238739   4.103   1.957   0.575  0.0073 -1.3126 -0.1992
 9036SOL     OW38740   0.874   0.347   1.883 -0.2415 -0.2400 -0.0541
 9036SOL    HW138741   0.796   0.350   1.938 -1.3451  1.1313 -1.7097
 9036SOL    HW238742   0.918   0.269   1.918  0.2315 -0.1315 -0.4055
 9037SOL     OW38743   3.244   0.273   7.139 -0.4146  0.3000 -0.0897
 9037SOL    HW138744   3.292   0.352   7.113  1.4537 -0.5851  0.6797
 9037SOL    HW238745   3.316   0.216   7.166 -1.0377 -0.9260 -1.0078
 9038SOL     OW38746   1.057   1.304   2.681 -0.3987 -0.4620 -0.4361
 9038SOL    HW138747   0.967   1.336   2.669 -0.0594  0.2539 -1.0444
 9038SOL    HW238748   1.049   1.242   2.754 -2.5043  0.7415  0.3421
 9039SOL     OW38749   1.216   4.685  17.031  0.2082  0.3312 -0.0799
 9039SOL    HW138750   1.220   0.039  17.053  1.7163 -0.0004  1.0526
 9039SOL    HW238751   1.154   4.652  17.096 -0.2825 -1.5608 -1.5211
 9040SOL     OW38752   4.561   0.972   2.576  0.3391 -0.0001 -0.3238
 9040SOL    HW138753   4.546   0.999   2.486 -1.1350 -0.5820 -0.2555
 9040SOL    HW238754   4.654   0.989   2.582 -0.0930  1.0489  3.2566
 9041SOL     OW38755   0.161   3.939   3.328  0.4261  0.4701  0.4752
 9041SOL    HW138756   0.103   3.882   3.278 -0.8824 -0.5269  3.1371
 9041SOL    HW238757   0.167   3.883   3.406  0.8447 -1.7053 -1.1311
 9042SOL     OW38758   1.623   2.910   7.211 -0.3187 -0.0970  0.2996
 9042SOL    HW138759   1.672   2.990   7.194  1.0262 -1.4955 -2.2979
 9042SOL    HW238760   1.539   2.913   7.165  0.3976 -0.2023 -0.9976
 9043SOL     OW38761   0.819   1.105   1.501  0.1251  0.2537 -0.0974
 9043SOL    HW138762   0.832   1.109   1.406  1.4318  0.2333  0.0810
 9043SOL    HW238763   0.802   1.011   1.505 -0.3595  0.3392 -0.1806
 9044SOL     OW38764   3.551   4.432   7.160  0.4307 -0.5019 -0.1455
 9044SOL    HW138765   3.569   4.338   7.160 -0.3715 -0.6594  0.1343
 9044SOL    HW238766   3.465   4.438   7.201 -0.9230 -0.9399 -2.8965
 9045SOL     OW38767   0.391   2.957   4.347  0.0328  0.0596 -0.3873
 9045SOL    HW138768   0.310   3.003   4.371  0.8093  0.6759  1.0512
 9045SOL    HW238769   0.441   3.025   4.301 -1.4564 -1.6730 -4.5642
 9046SOL     OW38770   1.599   1.047   7.801 -0.5584 -0.0451 -0.0467
 9046SOL    HW138771   1.649   1.069   7.723  0.2290  0.9483  0.7346
 9046SOL    HW238772   1.621   0.958   7.830 -0.8285  0.3684  1.4016
 9047SOL     OW38773   4.190   0.997   1.676  0.3819  0.3648  0.7120
 9047SOL    HW138774   4.103   1.034   1.663  1.0725  2.3883  1.8686
 9047SOL    HW238775   4.182   0.963   1.766 -1.3909  0.5649  0.6276
 9048SOL     OW38776   3.400   2.055   2.164 -0.2838 -0.0162  0.3051
 9048SOL    HW138777   3.410   2.002   2.085 -1.2572 -0.9943  0.8468
 9048SOL    HW238778   3.320   2.104   2.144  0.9496  1.0267 -2.0639
 9049SOL     OW38779   2.300   1.220   3.821  0.2329 -0.2553 -0.1144
 9049SOL    HW138780   2.290   1.243   3.914  0.8655 -3.6811  0.7871
 9049SOL    HW238781   2.217   1.255   3.787 -0.2715 -1.1117  0.2353
 9050SOL     OW38782   4.305   0.196   6.400  0.2679 -0.5241 -0.4622
 9050SOL    HW138783   4.344   0.272   6.443  0.0167  0.2595 -1.6193
 9050SOL    HW238784   4.363   0.126   6.428  0.1092 -0.0904  0.9751
 9051SOL     OW38785   4.037   1.168   9.233 -0.0287 -0.2758  0.2826
 9051SOL    HW138786   4.071   1.250   9.268  1.6252 -1.1533  0.7342
 9051SOL    HW238787   3.976   1.147   9.304 -1.2315 -0.3091 -0.7474
 9052SOL     OW38788   1.083   4.073   8.231 -0.1538 -0.2105 -0.0052
 9052SOL    HW138789   1.136   4.078   8.310 -1.2879 -0.3446  0.7764
 9052SOL    HW238790   1.122   4.013   8.167  0.0440  0.0539 -0.1310
 9053SOL     OW38791   0.690   0.089  17.502  0.2955 -0.0306  0.2591
 9053SOL    HW138792   0.605   0.079  17.460 -1.2612  0.6111  3.2203
 9053SOL    HW238793   0.677   0.047  17.588 -0.4435  1.8291  1.0488
 9054SOL     OW38794   1.298   3.852   6.005 -0.2098 -0.0039  0.6264
 9054SOL    HW138795   1.259   3.926   5.959 -0.4749 -1.4211 -1.4286
 9054SOL    HW238796   1.277   3.864   6.098 -0.7713 -0.3096  0.5411
 9055SOL     OW38797   3.061   4.386   8.404 -0.3972 -0.2509  0.3605
 9055SOL    HW138798   3.100   4.407   8.319 -1.8830 -0.7079 -0.4291
 9055SOL    HW238799   2.967   4.378   8.386 -0.8648  0.8122  2.3612
 9056SOL     OW38800   4.269   4.343  15.437 -0.3611  0.1453 -0.3372
 9056SOL    HW138801   4.271   4.432  15.403 -0.3167  1.1521  2.2836
 9056SOL    HW238802   4.219   4.351  15.518 -2.1539 -1.1676 -1.3174
 9057SOL     OW38803   4.142   4.167  16.387 -0.5594 -0.0435 -0.0213
 9057SOL    HW138804   4.162   4.253  16.350  1.1256  0.4032  1.9472
 9057SOL    HW238805   4.130   4.203  16.475  1.1480  0.3260  0.0715
 9058SOL     OW38806   3.333   0.327   6.082 -0.7179  0.3005 -0.5549
 9058SOL    HW138807   3.367   0.379   6.155 -0.2872 -0.9052  0.1105
 9058SOL    HW238808   3.252   0.371   6.058 -0.5872  1.4642  1.1182
 9059SOL     OW38809   2.508   2.136  12.941 -0.2158  0.6107 -0.2576
 9059SOL    HW138810   2.482   2.179  12.860 -2.2560  0.1389  0.1506
 9059SOL    HW238811   2.575   2.077  12.905  0.4635  2.0949 -1.4117
 9060SOL     OW38812   2.798   3.624   8.955 -0.0042  0.7100  0.2335
 9060SOL    HW138813   2.759   3.591   9.036 -1.5593  1.6084 -0.1650
 9060SOL    HW238814   2.746   3.690   8.911  0.2920  0.8839  0.1419
 9061SOL     OW38815   3.599   4.373   2.995  0.2483  0.3149  0.4767
 9061SOL    HW138816   3.603   4.366   2.900 -2.3680 -1.9866  0.5359
 9061SOL    HW238817   3.507   4.351   3.011  0.2225  0.0669 -0.0146
 9062SOL     OW38818   1.215   4.716   3.563 -0.3604 -0.0586 -0.7440
 9062SOL    HW138819   1.169   4.690   3.643 -0.9510 -1.8681 -1.6551
 9062SOL    HW238820   1.142   4.736   3.506  0.3598  0.8312 -1.3539
 9063SOL     OW38821   4.066   3.195   9.485  0.1060 -0.0244 -0.2146
 9063SOL    HW138822   4.078   3.179   9.579  0.0181  0.2920 -0.1509
 9063SOL    HW238823   3.976   3.175   9.463  0.1467  2.4576 -2.5651
 9064SOL     OW38824   2.272   0.900   2.853  0.5177 -0.3665  0.2059
 9064SOL    HW138825   2.276   0.989   2.887 -0.8151 -0.4642  0.6400
 9064SOL    HW238826   2.261   0.914   2.759 -2.4733  1.4603  0.8262
 9065SOL     OW38827   0.562   0.966  16.082 -0.4714  0.1922  0.1960
 9065SOL    HW138828   0.489   0.936  16.028 -1.1409 -2.0945  2.3339
 9065SOL    HW238829   0.635   0.973  16.021 -0.3176 -1.2116  0.2048
 9066SOL     OW38830   4.645   3.046   3.289  0.5912 -0.4334  0.1576
 9066SOL    HW138831   4.679   3.040   3.378 -0.3097 -0.4129  0.5005
 9066SOL    HW238832   4.653   3.138   3.264 -2.5254 -0.2563 -0.1319
 9067SOL     OW38833   1.279   0.938   8.996 -0.3561  0.4175 -0.7992
 9067SOL    HW138834   1.258   1.031   9.011 -0.8902  0.5861 -2.5745
 9067SOL    HW238835   1.214   0.916   8.930 -0.1859  2.0901 -1.5320
 9068SOL     OW38836   1.661   3.158   9.128  0.5039 -0.2145  0.3505
 9068SOL    HW138837   1.693   3.090   9.187 -3.6831 -3.5760 -1.2478
 9068SOL    HW238838   1.720   3.227   9.157 -3.4098  3.0058  0.7125
 9069SOL     OW38839   4.264   4.412  10.653 -0.3503  0.2525 -0.2084
 9069SOL    HW138840   4.205   4.374  10.718  0.6823 -1.8624 -0.5225
 9069SOL    HW238841   4.327   4.455  10.711  0.0196 -0.2854 -0.2192
 9070SOL     OW38842   0.820   0.389  11.195 -0.1942  0.3188  0.3539
 9070SOL    HW138843   0.900   0.443  11.191  0.9007 -1.4632 -1.5948
 9070SOL    HW238844   0.843   0.322  11.131 -1.3510 -1.3490  1.6901
 9071SOL     OW38845   1.112   0.351  11.264  0.4294 -0.7247 -0.0500
 9071SOL    HW138846   1.166   0.331  11.341  1.7391  0.4725 -0.6630
 9071SOL    HW238847   1.114   0.443  11.287  1.5044 -0.8889  0.4923
 9072SOL     OW38848   2.772   4.351   8.367 -0.0153 -0.0009 -0.7805
 9072SOL    HW138849   2.777   4.357   8.463 -0.6705 -2.3534 -0.6113
 9072SOL    HW238850   2.766   4.256   8.362 -1.8870 -0.0807  2.4939
 9073SOL     OW38851   0.080   4.333   2.322 -0.5279 -0.9857  0.3278
 9073SOL    HW138852   0.117   4.399   2.263  0.1924  0.6240  2.5763
 9073SOL    HW238853   4.730   4.335   2.286 -1.0625  1.8334  1.7727
 9074SOL     OW38854   0.726   1.574   6.665  0.3455  0.1864 -0.3269
 9074SOL    HW138855   0.636   1.544   6.662  1.2518 -2.3911 -1.1125
 9074SOL    HW238856   0.714   1.669   6.654 -0.1228  0.0674 -0.8326
 9075SOL     OW38857   3.608   2.723  14.509  0.4655 -0.1445 -0.3912
 9075SOL    HW138858   3.577   2.801  14.554  2.2466  0.9670 -1.0720
 9075SOL    HW238859   3.649   2.678  14.582  0.0401  0.1553  0.0297
 9076SOL     OW38860   1.948   3.145  10.038  0.1415  0.0816  0.1606
 9076SOL    HW138861   1.870   3.201  10.037 -1.2085 -1.8424 -2.5590
 9076SOL    HW238862   1.922   3.100  10.118  0.6387  1.5190  1.1200
 9077SOL     OW38863   0.162   1.251   6.529 -0.3716  0.4794  0.0706
 9077SOL    HW138864   0.168   1.157   6.549 -1.1110  0.1829 -1.0849
 9077SOL    HW238865   0.072   1.241   6.498 -0.3408  1.2521 -0.2682
 9078SOL     OW38866   0.602   4.554   4.773  0.3606  0.5836  0.0331
 9078SOL    HW138867   0.507   4.565   4.762  0.0388 -1.4831  0.7716
 9078SOL    HW238868   0.602   4.472   4.822 -1.6451 -0.1720 -1.2190
 9079SOL     OW38869   2.844   1.764   6.261 -0.3820  0.4187  0.1874
 9079SOL    HW138870   2.899   1.706   6.208 -1.3346  1.0080 -1.4350
 9079SOL    HW238871   2.890   1.846   6.245  1.6672 -0.5776  0.8948
 9080SOL     OW38872   2.028   2.660   9.269 -0.2832 -0.2117 -0.1509
 9080SOL    HW138873   2.041   2.566   9.279 -2.6493 -0.4294  1.0414
 9080SOL    HW238874   2.090   2.687   9.201 -0.1425  1.7657  0.7477
 9081SOL     OW38875   1.160   0.746   4.543  0.2026  0.3112  0.0119
 9081SOL    HW138876   1.130   0.799   4.616  0.3379  0.1031  0.2169
 9081SOL    HW238877   1.104   0.668   4.547  0.5151  0.1739  1.4187
 9082SOL     OW38878   0.104   1.139   4.131  0.4880 -0.3951  0.2719
 9082SOL    HW138879   0.195   1.155   4.105  0.4965 -1.3662 -0.3090
 9082SOL    HW238880   0.122   1.130   4.224  0.7342 -0.7158  0.1960
 9083SOL     OW38881   2.699   3.984   7.733  0.3416  0.2023 -0.1026
 9083SOL    HW138882   2.687   4.018   7.645 -0.4419  0.0664 -0.0474
 9083SOL    HW238883   2.742   3.898   7.726 -0.7662 -0.1492 -2.5226
 9084SOL     OW38884   0.683   3.945   9.950  0.1847  0.0735 -0.2915
 9084SOL    HW138885   0.624   3.873   9.971  1.7822 -1.3033 -0.5581
 9084SOL    HW238886   0.751   3.932  10.016  0.7889  1.4522 -0.6417
 9085SOL     OW38887   1.572   4.467   5.773  0.4923  0.0587 -0.0239
 9085SOL    HW138888   1.603   4.551   5.805  0.8669  0.2687 -0.9236
 9085SOL    HW238889   1.631   4.403   5.813  0.9630 -0.9788 -2.3279
 9086SOL     OW38890   3.107   1.171   5.472  0.1048  0.2700  0.1968
 9086SOL    HW138891   3.028   1.136   5.431  0.4753  0.4635 -0.6871
 9086SOL    HW238892   3.090   1.263   5.452 -0.4294  0.8912  3.5064
 9087SOL     OW38893   0.672   0.522   8.056 -0.3409 -0.1810  0.4425
 9087SOL    HW138894   0.618   0.587   8.100 -0.4584  1.0564 -1.5080
 9087SOL    HW238895   0.615   0.447   8.039  0.3638 -0.5980 -0.1334
 9088SOL     OW38896   3.276   0.314  13.500 -0.3139  0.2372 -0.1798
 9088SOL    HW138897   3.337   0.313  13.426  0.1173  0.1979  0.1781
 9088SOL    HW238898   3.197   0.332  13.448 -1.8192  0.6471  2.2638
 9089SOL     OW38899   2.140   1.690  10.986  0.0340  0.2513  0.1316
 9089SOL    HW138900   2.230   1.661  11.001  0.2108  1.5226  1.5765
 9089SOL    HW238901   2.081   1.651  11.050 -0.9763  1.4845 -0.0339
 9090SOL     OW38902   0.903   2.537   4.538 -0.0921  0.0415  0.2930
 9090SOL    HW138903   0.864   2.461   4.495 -0.8329  0.5914 -0.0065
 9090SOL    HW238904   0.875   2.604   4.476 -1.5573  0.2513  1.1695
 9091SOL     OW38905   1.095   4.184  15.031  0.2388 -0.7334 -0.3687
 9091SOL    HW138906   1.042   4.113  14.994 -0.5812 -0.7397  0.8147
 9091SOL    HW238907   1.062   4.195  15.120  2.5186 -1.8964  0.6220
 9092SOL     OW38908   2.659   0.474   2.408  0.0935 -0.4159  0.2052
 9092SOL    HW138909   2.602   0.549   2.426  1.6844  0.4347  1.7149
 9092SOL    HW238910   2.639   0.427   2.489  0.1069 -1.4943 -0.4253
 9093SOL     OW38911   1.767   3.267   8.043  0.0601 -0.1503  0.1658
 9093SOL    HW138912   1.830   3.196   8.050 -0.5056 -0.6540  0.1387
 9093SOL    HW238913   1.696   3.233   7.988 -2.3538  1.5869  2.1828
 9094SOL     OW38914   2.181   3.000  10.360 -0.2259  0.0444 -0.0690
 9094SOL    HW138915   2.231   2.953  10.427 -0.6421 -0.8014 -0.3460
 9094SOL    HW238916   2.233   2.971  10.285 -2.9870 -2.1946 -1.1099
 9095SOL     OW38917   3.618   1.602  12.827 -0.5222  0.6720  0.1599
 9095SOL    HW138918   3.621   1.567  12.738  0.5743  0.2149  0.3888
 9095SOL    HW238919   3.676   1.678  12.823 -1.2798  1.2774  0.4801
 9096SOL     OW38920   1.731   2.910   7.956  0.1565  0.5463  0.2821
 9096SOL    HW138921   1.703   2.847   8.023  0.9127  0.2455  0.3198
 9096SOL    HW238922   1.786   2.970   8.007  0.2994  1.8298 -1.3894
 9097SOL     OW38923   1.694   0.239   3.112  0.0087  0.3862  0.1132
 9097SOL    HW138924   1.696   0.144   3.122  1.0508  0.2454 -1.4913
 9097SOL    HW238925   1.603   0.259   3.087  0.2261  2.0362  0.6334
 9098SOL     OW38926   1.876   2.562   7.739 -0.1413  0.0264 -0.1099
 9098SOL    HW138927   1.968   2.568   7.764 -0.4413 -2.3727  1.6074
 9098SOL    HW238928   1.867   2.605   7.654 -1.0655 -0.0671 -0.0567
 9099SOL     OW38929   4.562   1.406   4.276 -0.2474 -0.1536  0.4002
 9099SOL    HW138930   4.599   1.485   4.238  0.8415 -0.1317  1.5131
 9099SOL    HW238931   4.470   1.434   4.280 -0.6815 -1.5096 -0.0266
 9100SOL     OW38932   3.367   1.918   6.186  0.0025 -0.6120 -0.6975
 9100SOL    HW138933   3.319   1.840   6.213 -1.8102  1.1152  1.0846
 9100SOL    HW238934   3.450   1.906   6.233 -0.0078  0.1693 -0.4849
 9101SOL     OW38935   2.448   3.748   5.573  0.3217 -0.2806  0.7098
 9101SOL    HW138936   2.421   3.668   5.529 -0.4100  0.4817 -0.2085
 9101SOL    HW238937   2.519   3.771   5.514 -1.3234  3.0350  0.0449
 9102SOL     OW38938   1.515   0.824   6.575  0.1866 -0.5186  0.8621
 9102SOL    HW138939   1.429   0.819   6.534  0.6487  0.8789 -0.2755
 9102SOL    HW238940   1.500   0.915   6.599 -0.5966  0.2652 -2.6659
 9103SOL     OW38941   1.868   3.775   0.118  0.2931 -0.4680 -0.4373
 9103SOL    HW138942   1.902   3.692   0.085  0.7567 -0.7490  0.7309
 9103SOL    HW238943   1.791   3.743   0.165  0.3494 -0.6110 -0.4427
 9104SOL     OW38944   4.677   1.819   1.515  0.0240 -0.3039  0.5036
 9104SOL    HW138945   4.698   1.867   1.436 -0.6693  1.9120  1.6784
 9104SOL    HW238946   0.024   1.816   1.557  0.1434  1.8133  0.3957
 9105SOL     OW38947   2.061   0.371  11.013  0.1311 -0.6141 -0.3174
 9105SOL    HW138948   2.081   0.444  10.954  2.1369 -1.3165 -0.5283
 9105SOL    HW238949   2.148   0.331  11.012  0.9149  1.1017 -1.6159
 9106SOL     OW38950   2.777   0.244   9.853  0.4405  0.2600  0.1982
 9106SOL    HW138951   2.868   0.214   9.858  0.0178 -1.1212 -0.5899
 9106SOL    HW238952   2.772   0.288   9.768  0.3085 -0.7865 -0.3327
 9107SOL     OW38953   1.024   0.761   2.088 -0.2886  0.0959  0.1664
 9107SOL    HW138954   1.102   0.814   2.105 -1.0041  0.9383  0.8365
 9107SOL    HW238955   1.017   0.714   2.171  3.4356  0.0076  0.4314
 9108SOL     OW38956   4.214   3.660   1.840 -0.1200 -0.1364 -0.2733
 9108SOL    HW138957   4.142   3.683   1.898 -0.6645 -1.7780 -0.2915
 9108SOL    HW238958   4.185   3.684   1.752  0.4948  0.7737 -0.2203
 9109SOL     OW38959   1.854   3.962   4.734  0.8467 -0.0318 -0.3418
 9109SOL    HW138960   1.844   3.901   4.661  1.1406  1.3181 -1.4816
 9109SOL    HW238961   1.906   4.026   4.686  0.9699 -0.7871 -1.2070
 9110SOL     OW38962   0.277   0.497  11.983  0.1616  0.3654  0.0473
 9110SOL    HW138963   0.267   0.489  11.888  1.3139  0.7060 -0.0994
 9110SOL    HW238964   0.286   0.406  12.012  1.3335  1.0526  1.8838
 9111SOL     OW38965   0.410   0.201   0.930 -0.1011  0.1746 -0.1368
 9111SOL    HW138966   0.325   0.201   0.886  0.4322  0.4515 -1.1562
 9111SOL    HW238967   0.387   0.247   1.011 -0.9433  0.4871 -0.5551
 9112SOL     OW38968   3.985   3.283   3.619  0.0052 -0.2124  0.9723
 9112SOL    HW138969   4.071   3.327   3.617  0.4223 -1.0534  0.6576
 9112SOL    HW238970   3.961   3.283   3.527 -0.5222  1.9986  1.1027
 9113SOL     OW38971   3.147   2.616   5.158 -0.1334 -0.8536  0.2753
 9113SOL    HW138972   3.213   2.615   5.227  1.3454 -0.0300 -1.1216
 9113SOL    HW238973   3.147   2.710   5.139  1.4079 -0.7146  0.9747
 9114SOL     OW38974   2.152   2.678   3.725  0.1692  0.2344  0.8488
 9114SOL    HW138975   2.132   2.665   3.817 -1.5094  0.0272  0.4546
 9114SOL    HW238976   2.231   2.728   3.744 -0.2362  1.3304 -0.2748
 9115SOL     OW38977   2.949   3.595   5.052  0.7736  0.1494  0.0449
 9115SOL    HW138978   2.973   3.669   4.997  0.8262  0.4833  0.5190
 9115SOL    HW238979   3.035   3.554   5.063  0.0660 -1.5952 -0.8091
 9116SOL     OW38980   3.681   4.356   4.329 -0.5390 -0.5289 -0.3843
 9116SOL    HW138981   3.655   4.323   4.243 -0.1098  0.8994 -1.0715
 9116SOL    HW238982   3.673   4.285   4.392  1.3293 -0.5768 -0.2162
 9117SOL     OW38983   2.474   2.080   6.713 -0.4352  0.4492 -0.4504
 9117SOL    HW138984   2.548   2.060   6.655  0.7245  0.8604  0.8830
 9117SOL    HW238985   2.409   2.050   6.649 -0.3008  0.1587 -0.4498
 9118SOL     OW38986   0.321   3.953   6.604 -0.0878 -0.1774  0.1953
 9118SOL    HW138987   0.379   3.989   6.536 -0.4012  0.8717  0.4930
 9118SOL    HW238988   0.345   4.005   6.680 -0.0439  0.5471 -0.3171
 9119SOL     OW38989   1.599   2.687   3.166 -0.0151 -0.3034  0.7850
 9119SOL    HW138990   1.592   2.748   3.092  1.0806  0.3211  1.1971
 9119SOL    HW238991   1.629   2.745   3.236  0.5691 -0.5334  0.7245
 9120SOL     OW38992   1.926   4.629   4.438 -0.1237  0.2096  0.0899
 9120SOL    HW138993   1.930   4.541   4.401  1.8113  0.5523 -0.5357
 9120SOL    HW238994   1.831   4.630   4.445 -0.1588  0.6008 -0.4441
 9121SOL     OW38995   0.359   3.123   3.516  0.0375 -0.3958  0.2894
 9121SOL    HW138996   0.270   3.144   3.545  0.5627  1.6625  0.4244
 9121SOL    HW238997   0.397   3.070   3.587  0.3942  1.1175  1.2274
 9122SOL     OW38998   2.189   1.016   0.137 -0.2138 -0.2832 -0.7701
 9122SOL    HW138999   2.223   1.102   0.162  0.2634 -0.5581 -0.4907
 9122SOL    HW239000   2.117   1.003   0.198  1.0416  0.2644  0.8239
 9123SOL     OW39001   4.732   0.541   2.379 -0.0002  0.1824 -0.7294
 9123SOL    HW139002   0.012   0.478   2.310 -1.4977  2.7487 -3.4482
 9123SOL    HW239003   4.698   0.485   2.450  0.7359  1.0903  0.3395
 9124SOL     OW39004   4.370   1.889  12.271 -0.0470  0.0570 -0.0217
 9124SOL    HW139005   4.331   1.870  12.185  1.9669 -1.3902 -0.6103
 9124SOL    HW239006   4.320   1.965  12.299 -1.2577 -0.5860 -0.4084
 9125SOL     OW39007   0.703   3.511   6.696 -0.1958 -0.6361 -0.4869
 9125SOL    HW139008   0.785   3.468   6.720 -1.2643 -1.7676  1.0934
 9125SOL    HW239009   0.684   3.480   6.608 -0.0158 -0.5490 -0.5566
 9126SOL     OW39010   1.880   0.706  11.993 -0.3948  0.0022 -0.1898
 9126SOL    HW139011   1.837   0.775  11.942 -1.0363  0.8099  1.4474
 9126SOL    HW239012   1.860   0.627  11.943  2.3138  0.0898 -1.4339
 9127SOL     OW39013   3.067   2.900   5.005  0.1800  0.0143  0.0864
 9127SOL    HW139014   3.030   2.988   4.996 -0.8003 -0.5341 -1.2406
 9127SOL    HW239015   2.988   2.845   5.007  0.7932 -0.8410  0.7231
 9128SOL     OW39016   0.395   2.807   7.646 -0.7801  0.1778 -0.2891
 9128SOL    HW139017   0.441   2.799   7.563  0.1944  1.3623  0.1364
 9128SOL    HW239018   0.321   2.751   7.625  0.7449 -1.7138 -0.6022
 9129SOL     OW39019   3.966   1.119   4.079 -0.1417  0.1024  0.4831
 9129SOL    HW139020   3.957   1.085   4.168  1.0877  0.3289  0.6980
 9129SOL    HW239021   3.929   1.055   4.018  0.4938  1.4539 -1.3248
 9130SOL     OW39022   4.257   1.349   1.762  0.2338 -0.6295  0.4812
 9130SOL    HW139023   4.180   1.321   1.712  0.9385 -0.1115 -0.8789
 9130SOL    HW239024   4.215   1.387   1.840 -2.0455 -1.6079 -0.2830
 9131SOL     OW39025   0.175   0.618   6.926  0.0668  0.2239  0.1193
 9131SOL    HW139026   0.114   0.681   6.964  0.7866  0.1780  1.3330
 9131SOL    HW239027   0.252   0.674   6.922 -0.4157  0.8463 -0.4483
 9132SOL     OW39028   0.370   2.208   2.342 -0.0486  0.4341 -0.0554
 9132SOL    HW139029   0.340   2.220   2.432  1.8624 -1.3878  0.8144
 9132SOL    HW239030   0.364   2.113   2.336  0.7421  0.4179 -0.6412
 9133SOL     OW39031   3.124   4.213  13.802  0.8359 -0.2654  0.0851
 9133SOL    HW139032   3.194   4.274  13.776  0.1357  0.4663 -0.0683
 9133SOL    HW239033   3.054   4.246  13.746 -1.7826  0.2367  3.7168
 9134SOL     OW39034   3.997   0.907  12.639  0.3328 -0.5241 -0.4204
 9134SOL    HW139035   3.942   0.864  12.705 -0.0594 -2.7259 -2.2120
 9134SOL    HW239036   3.990   0.997  12.670  1.5383 -0.7753  0.5908
 9135SOL     OW39037   2.853   1.108   9.045 -0.2645 -0.2916  0.0622
 9135SOL    HW139038   2.791   1.085   9.114 -0.7912  1.7006  0.2712
 9135SOL    HW239039   2.811   1.078   8.964 -1.0357  0.3010  0.2446
 9136SOL     OW39040   3.256   0.018   7.625  0.0161 -0.1892  0.1669
 9136SOL    HW139041   3.330   0.069   7.657 -0.1834 -0.6276  1.3115
 9136SOL    HW239042   3.244   4.695   7.697 -1.4190 -1.7804 -1.4361
 9137SOL     OW39043   3.784   1.414   7.345  0.9858  0.5629 -0.1663
 9137SOL    HW139044   3.872   1.425   7.308  0.2558  2.4042 -1.3375
 9137SOL    HW239045   3.806   1.396   7.437  3.1226  0.4003 -0.7020
 9138SOL     OW39046   1.213   1.874   3.542  0.3537  0.1305 -0.2410
 9138SOL    HW139047   1.134   1.928   3.550  0.5463  0.5827 -1.3355
 9138SOL    HW239048   1.256   1.909   3.620 -0.3782  2.1569 -0.7543
 9139SOL     OW39049   1.323   1.827  12.886  0.3302  0.1826  0.0117
 9139SOL    HW139050   1.312   1.877  12.804  0.3129  1.9796  1.1114
 9139SOL    HW239051   1.387   1.767  12.847  1.4112  0.5774  1.1654
 9140SOL     OW39052   0.826   0.176   4.225  0.1659  0.5418  0.0551
 9140SOL    HW139053   0.806   0.183   4.132  0.0353  0.7973  0.1029
 9140SOL    HW239054   0.742   0.164   4.271  0.0674  0.6076 -0.1069
 9141SOL     OW39055   1.945   3.236   2.356 -0.1136  0.1862  0.3693
 9141SOL    HW139056   2.040   3.244   2.350 -0.1088  0.1179  0.3556
 9141SOL    HW239057   1.921   3.319   2.314 -0.0923 -0.0446 -0.0878
 9142SOL     OW39058   1.320   2.768   8.146  0.4546  0.2352 -0.3136
 9142SOL    HW139059   1.345   2.791   8.235 -0.1918 -0.8013  0.1395
 9142SOL    HW239060   1.370   2.827   8.090  1.0618  1.3030  1.3737
 9143SOL     OW39061   4.338   0.106   4.268 -0.7078  0.4717  0.0347
 9143SOL    HW139062   4.324   0.011   4.279 -3.5078  0.7667 -0.7876
 9143SOL    HW239063   4.276   0.122   4.340  1.1225  0.6172  1.5837
 9144SOL     OW39064   0.086   3.094   2.978  0.2214  0.5077 -0.0792
 9144SOL    HW139065   0.062   3.170   3.031  1.6714  0.9585 -0.0551
 9144SOL    HW239066   0.155   3.143   2.933 -1.9097  1.9875 -1.7162
 9145SOL     OW39067   4.393   1.626  12.299 -0.1848 -0.9252  0.4102
 9145SOL    HW139068   4.388   1.719  12.318  2.4655 -0.9507  1.2102
 9145SOL    HW239069   4.486   1.608  12.282 -0.2197  1.6466 -2.5516
 9146SOL     OW39070   0.603   3.358   7.396 -0.2184  0.1284 -0.0958
 9146SOL    HW139071   0.670   3.421   7.370 -0.0763  0.0210  0.0084
 9146SOL    HW239072   0.615   3.364   7.491  0.0292 -0.1878 -0.1059
 9147SOL     OW39073   3.338   2.193   9.790 -0.1160 -0.1337 -0.5524
 9147SOL    HW139074   3.412   2.206   9.851  0.0689  0.7786 -0.9729
 9147SOL    HW239075   3.276   2.257   9.825 -0.5989 -0.9897  0.1781
 9148SOL     OW39076   4.205   1.239   2.901  0.4397  0.2118  0.2690
 9148SOL    HW139077   4.159   1.170   2.853 -0.8680  0.6360  0.9283
 9148SOL    HW239078   4.262   1.182   2.952  0.4797 -1.3036 -1.4818
 9149SOL     OW39079   4.581   0.801   8.715 -0.1389 -0.3097  0.3095
 9149SOL    HW139080   4.674   0.817   8.731  0.1652 -0.2256 -1.5837
 9149SOL    HW239081   4.565   0.706   8.720 -1.3007 -0.2894 -3.0781
 9150SOL     OW39082   4.517   4.170   7.262  0.5691 -0.0285 -0.5444
 9150SOL    HW139083   4.511   4.151   7.355  2.0471 -0.5605 -0.5555
 9150SOL    HW239084   4.587   4.236   7.256 -0.4017  1.2038  1.9084
 9151SOL     OW39085   3.252   1.903   5.923  0.1161  0.2500  0.5669
 9151SOL    HW139086   3.169   1.944   5.947  0.1313  1.5711 -1.5959
 9151SOL    HW239087   3.301   1.923   6.003 -0.5669  0.5600  0.9084
 9152SOL     OW39088   4.698   1.544   6.195 -0.1158  0.1676 -0.4191
 9152SOL    HW139089   4.709   1.457   6.155  0.8785  0.4174 -0.6955
 9152SOL    HW239090   4.603   1.548   6.195  0.0092  2.6687 -0.7726
 9153SOL     OW39091   0.943   1.115  15.561 -0.3658 -0.1932  0.4715
 9153SOL    HW139092   1.030   1.155  15.558 -0.1476 -0.6761  0.2887
 9153SOL    HW239093   0.879   1.186  15.563 -0.4378 -0.2927  1.4611
 9154SOL     OW39094   2.502   2.280   6.892 -0.6061 -0.1058  0.1645
 9154SOL    HW139095   2.477   2.220   6.822 -0.7494 -0.5070  0.5608
 9154SOL    HW239096   2.597   2.279   6.896 -0.4324 -0.7506 -4.2540
 9155SOL     OW39097   0.066   1.295   9.070  0.1144  0.1143  0.1024
 9155SOL    HW139098   0.108   1.373   9.034  1.1680  0.1376  1.3731
 9155SOL    HW239099   0.117   1.279   9.150 -1.9629  1.6945  1.7373
 9156SOL     OW39100   4.485   1.407   8.630  0.5033 -0.0999  0.0057
 9156SOL    HW139101   4.506   1.425   8.538 -1.9179 -0.2699 -0.5843
 9156SOL    HW239102   4.553   1.457   8.675 -0.4961  2.0957 -0.9064
 9157SOL     OW39103   1.806   0.869  10.072  0.4864 -0.3940 -0.4581
 9157SOL    HW139104   1.726   0.900  10.028 -1.0261 -0.1958  2.4357
 9157SOL    HW239105   1.869   0.941  10.062  0.7999 -0.8759 -1.9181
 9158SOL     OW39106   3.085   2.779   3.006 -0.1506 -0.4278  0.0111
 9158SOL    HW139107   3.065   2.773   3.099 -1.2488  0.8063 -0.1462
 9158SOL    HW239108   2.996   2.778   2.969  0.2054  0.1661 -0.8720
 9159SOL     OW39109   0.276   1.767  11.718  0.2853 -0.3562  0.7754
 9159SOL    HW139110   0.363   1.807  11.726 -0.4069  1.7063 -2.1893
 9159SOL    HW239111   0.230   1.811  11.790  1.0340  1.4555  0.1345
 9160SOL     OW39112   0.042   1.631   0.775 -0.2145  0.3040  0.3393
 9160SOL    HW139113   4.690   1.645   0.750  0.5802  0.4992 -2.4034
 9160SOL    HW239114   0.073   1.564   0.713 -1.0669 -1.1820  1.5317
 9161SOL     OW39115   1.812   1.587   9.321  0.1043  0.0293 -0.6055
 9161SOL    HW139116   1.802   1.559   9.230 -0.1141 -2.0725  0.0713
 9161SOL    HW239117   1.724   1.571   9.354  0.1054 -2.6087 -1.8644
 9162SOL     OW39118   4.621   0.697   3.900 -0.1643 -0.1340 -0.4208
 9162SOL    HW139119   4.684   0.744   3.954  1.6705 -1.7722 -1.1756
 9162SOL    HW239120   4.565   0.760   3.854 -0.3631  0.1598  0.2176
 9163SOL     OW39121   4.514   3.130   5.516  0.4586 -0.0805  0.1109
 9163SOL    HW139122   4.573   3.188   5.565  0.3550  0.4887 -0.4427
 9163SOL    HW239123   4.570   3.080   5.457 -1.5698 -1.1490 -0.8995
 9164SOL     OW39124   0.040   2.042   8.625 -0.8327  0.5922  0.5206
 9164SOL    HW139125   4.686   2.053   8.646 -1.0357 -0.1956  0.0637
 9164SOL    HW239126   0.053   2.107   8.556  1.5403 -0.5979 -0.1650
 9165SOL     OW39127   2.259   2.636   5.543  0.0555  0.0982  0.4523
 9165SOL    HW139128   2.293   2.558   5.586  0.5373  0.4217  0.6584
 9165SOL    HW239129   2.167   2.621   5.523 -0.0867  1.9589 -0.3658
 9166SOL     OW39130   3.206   3.277   1.050  0.0072 -0.2618  0.7961
 9166SOL    HW139131   3.185   3.188   1.080  0.3836 -1.7409 -3.4386
 9166SOL    HW239132   3.294   3.283   1.086 -0.0909  0.9577  0.8190
 9167SOL     OW39133   4.614   4.054  17.369 -0.0288 -0.3632 -0.1607
 9167SOL    HW139134   4.663   3.977  17.399 -1.1442 -0.6016  1.0673
 9167SOL    HW239135   4.666   4.124  17.408 -1.1369  1.0196 -1.1856
 9168SOL     OW39136   0.886   1.923   6.610 -0.3834 -0.2064  0.0869
 9168SOL    HW139137   0.846   1.879   6.685  1.5026 -2.1903 -0.0721
 9168SOL    HW239138   0.944   1.979   6.661  2.1667 -1.5415 -1.3383
 9169SOL     OW39139   2.259   0.317  11.485  0.7145  0.6724  0.3710
 9169SOL    HW139140   2.202   0.306  11.409  0.2688 -1.4316  0.9998
 9169SOL    HW239141   2.266   0.225  11.510  1.1771  0.8742  0.9931
 9170SOL     OW39142   4.003   0.094  14.166  0.6067 -0.0120 -0.4639
 9170SOL    HW139143   3.951   0.119  14.242 -0.0517  1.5079 -1.4114
 9170SOL    HW239144   4.074   0.049  14.212  0.3562 -0.1327 -0.1976
 9171SOL     OW39145   1.953   4.173  11.667 -0.1349  0.1306 -0.0180
 9171SOL    HW139146   1.995   4.088  11.675 -0.3255  0.0548  0.1908
 9171SOL    HW239147   2.026   4.233  11.649 -0.2896  0.5518  0.7165
 9172SOL     OW39148   4.512   3.788  10.246 -0.0592  0.3677 -0.6929
 9172SOL    HW139149   4.548   3.699  10.242  3.1801  1.7621 -1.6246
 9172SOL    HW239150   4.590   3.842  10.245 -0.0480  0.3521 -0.6754
 9173SOL     OW39151   0.316   0.925   8.520 -0.0388  0.2834 -0.0840
 9173SOL    HW139152   0.255   0.891   8.455  1.5282  0.0756 -1.4496
 9173SOL    HW239153   0.334   0.854   8.583 -0.7060 -0.4086 -0.6668
 9174SOL     OW39154   0.646   1.474   0.164 -0.5318 -0.3772 -0.3194
 9174SOL    HW139155   0.573   1.420   0.194 -0.0480 -0.8889 -0.0467
 9174SOL    HW239156   0.638   1.476   0.068  1.4988 -3.1193 -0.5729
 9175SOL     OW39157   2.486   3.620   1.789  0.8535 -0.1561  0.2410
 9175SOL    HW139158   2.566   3.567   1.799  1.3006  0.6285  0.7504
 9175SOL    HW239159   2.521   3.692   1.737 -0.3495 -1.9757 -3.1222
 9176SOL     OW39160   4.596   3.624   3.906  0.4642 -0.2836 -0.6143
 9176SOL    HW139161   4.642   3.704   3.882  2.1698 -1.1548 -0.2210
 9176SOL    HW239162   4.653   3.587   3.973 -0.1425  0.7019  0.4388
 9177SOL     OW39163   2.017   3.444   3.544  0.3429  0.3230 -0.0629
 9177SOL    HW139164   2.081   3.496   3.495  0.6071  0.0391 -0.0253
 9177SOL    HW239165   1.935   3.480   3.511 -1.0191  0.4397  3.4275
 9178SOL     OW39166   4.105   0.838  11.316  0.4566  0.2160  0.1258
 9178SOL    HW139167   4.134   0.765  11.370 -2.6534 -0.9383  0.2423
 9178SOL    HW239168   4.186   0.889  11.308 -0.3370  1.5502  0.6664
 9179SOL     OW39169   4.466   0.632   4.299 -0.3410  0.3931 -0.7088
 9179SOL    HW139170   4.435   0.613   4.210  0.0247  0.9987 -0.9661
 9179SOL    HW239171   4.410   0.586   4.361  0.4116 -0.2113 -0.4766
 9180SOL     OW39172   4.694   2.125   7.755  0.2810 -0.2097 -0.0251
 9180SOL    HW139173   4.704   2.190   7.686  0.1991  0.7665  0.8728
 9180SOL    HW239174   4.674   2.052   7.696 -0.9602  0.2591 -0.1934
 9181SOL     OW39175   3.305   3.601  16.997 -1.1048 -0.1766  0.0374
 9181SOL    HW139176   3.336   3.635  16.913  1.2531 -0.4489  0.8175
 9181SOL    HW239177   3.296   3.686  17.039  0.1986 -0.1993  0.3410
 9182SOL     OW39178   4.225   2.047   7.525 -0.0919 -0.7080  0.2670
 9182SOL    HW139179   4.195   2.029   7.436 -4.0320 -1.2014  1.6967
 9182SOL    HW239180   4.254   2.138   7.515 -1.4772 -0.1445  1.2547
 9183SOL     OW39181   3.609   4.265   4.058  0.4270 -0.4450 -0.2704
 9183SOL    HW139182   3.692   4.219   4.071  0.3778 -0.3613  0.3249
 9183SOL    HW239183   3.576   4.202   3.995 -0.1265 -2.1900  1.7711
 9184SOL     OW39184   2.114   2.888   1.987  0.1654 -0.3690 -0.1623
 9184SOL    HW139185   2.164   2.819   1.945  2.4865  1.0893  0.2289
 9184SOL    HW239186   2.108   2.860   2.079 -0.2365 -0.9716 -0.3733
 9185SOL     OW39187   0.429   3.236   5.500  0.3336 -0.2719 -0.6499
 9185SOL    HW139188   0.367   3.183   5.449 -0.2044 -0.0370 -0.2383
 9185SOL    HW239189   0.430   3.187   5.582  0.4641  0.6978 -0.0858
 9186SOL     OW39190   3.456   3.776   5.358 -0.4186 -0.4523 -0.0131
 9186SOL    HW139191   3.372   3.745   5.326 -1.5197  1.4603  1.0404
 9186SOL    HW239192   3.423   3.853   5.405  1.4182 -1.3387  2.7722
 9187SOL     OW39193   3.561   1.038   1.462 -0.0188  0.2558  0.4418
 9187SOL    HW139194   3.490   1.094   1.495 -0.5278  0.6512 -1.3071
 9187SOL    HW239195   3.590   0.988   1.538  0.6527  2.3269  1.5549
 9188SOL     OW39196   2.864   1.025   5.484  0.0834  0.0326  0.3788
 9188SOL    HW139197   2.800   1.018   5.554  0.6649  0.4005  0.9510
 9188SOL    HW239198   2.804   1.069   5.424 -0.4961 -2.5799 -0.9684
 9189SOL     OW39199   0.506   3.580   7.589 -0.1733 -0.0808  0.3429
 9189SOL    HW139200   0.496   3.572   7.684 -0.2574  1.2327  0.4529
 9189SOL    HW239201   0.498   3.486   7.576 -1.7883 -0.0909  1.3918
 9190SOL     OW39202   4.478   0.898   9.659 -0.0680  0.3492  0.3402
 9190SOL    HW139203   4.512   0.900   9.569 -1.1310 -0.7033 -0.0795
 9190SOL    HW239204   4.559   0.864   9.698 -0.5578  0.5701  1.5374
 9191SOL     OW39205   0.501   2.111   8.899  0.6723  0.5169 -0.1267
 9191SOL    HW139206   0.408   2.108   8.875  1.2051 -1.1551 -2.0644
 9191SOL    HW239207   0.513   2.204   8.915  2.2547  0.4042 -0.7178
 9192SOL     OW39208   0.241   3.764   9.376 -0.3245  0.2160 -0.4299
 9192SOL    HW139209   0.154   3.802   9.386 -0.2751 -0.0889  1.1224
 9192SOL    HW239210   0.238   3.722   9.462  2.4999  1.5862  0.3365
 9193SOL     OW39211   1.792   1.711   2.890  0.7529  0.2530 -0.3164
 9193SOL    HW139212   1.773   1.684   2.980  2.1082 -0.0328 -0.1074
 9193SOL    HW239213   1.884   1.736   2.882  0.0149  2.0235 -3.2265
 9194SOL     OW39214   1.142   4.672   4.073 -0.1271 -0.0421  0.2961
 9194SOL    HW139215   1.097   4.689   4.156 -0.2427 -0.1836  0.2637
 9194SOL    HW239216   1.194   4.596   4.096  1.1174  0.3049 -1.4088
 9195SOL     OW39217   4.537   0.350   7.465  0.0429  0.1026  0.1162
 9195SOL    HW139218   4.517   0.306   7.382 -1.8272  1.2041 -0.0100
 9195SOL    HW239219   4.615   0.402   7.442 -0.4669  0.1910 -1.4101
 9196SOL     OW39220   3.428   1.779  10.918  0.6405 -0.2457  0.1687
 9196SOL    HW139221   3.338   1.784  10.884  0.2966 -0.6172  1.0400
 9196SOL    HW239222   3.481   1.755  10.841  2.6400  1.6391  0.9620
 9197SOL     OW39223   3.860   1.056   3.465  0.2421 -0.8480 -0.5069
 9197SOL    HW139224   3.930   1.035   3.403  0.6810 -1.8615  0.3390
 9197SOL    HW239225   3.794   1.013   3.411  1.7493 -3.2031 -0.4718
 9198SOL     OW39226   4.254   1.469   2.749 -0.0005  0.2011  0.0844
 9198SOL    HW139227   4.203   1.527   2.805 -2.8650 -1.8250 -0.4513
 9198SOL    HW239228   4.234   1.388   2.796  0.0703 -1.6534 -3.0485
 9199SOL     OW39229   3.429   1.260   3.871  0.2128  0.4339 -0.9181
 9199SOL    HW139230   3.421   1.317   3.947 -0.3989  1.1063 -1.4920
 9199SOL    HW239231   3.398   1.319   3.803  0.6765 -1.2972 -2.6499
 9200SOL     OW39232   2.054   1.966   8.552 -0.1154 -0.1134 -0.0978
 9200SOL    HW139233   2.035   2.055   8.521  2.1905 -0.8253 -3.5041
 9200SOL    HW239234   1.965   1.946   8.584 -1.0969  1.6063 -1.7618
 9201SOL     OW39235   0.746   3.606   7.317 -0.2365  0.5994  0.2722
 9201SOL    HW139236   0.768   3.584   7.226  1.2051 -0.2231  0.8119
 9201SOL    HW239237   0.825   3.654   7.342 -1.2330  0.7024  3.2905
 9202SOL     OW39238   4.539   1.041  16.563 -0.7532 -0.4533 -0.3079
 9202SOL    HW139239   4.461   0.988  16.583 -0.6931 -0.4353 -0.0174
 9202SOL    HW239240   4.499   1.110  16.511 -0.1382  0.4317  0.4108
 9203SOL     OW39241   3.456   2.319   8.957  0.1310 -0.4539 -0.6778
 9203SOL    HW139242   3.456   2.354   8.868  2.1571 -1.8935 -1.2728
 9203SOL    HW239243   3.411   2.393   8.996  0.2842 -0.9333  0.3984
 9204SOL     OW39244   0.068   4.290   1.865 -0.4623  0.4945  0.1417
 9204SOL    HW139245   0.087   4.209   1.816 -1.3711 -1.1693  2.5164
 9204SOL    HW239246   0.126   4.270   1.938  0.9928  1.4035 -0.7668
 9205SOL     OW39247   1.267   2.081   5.587 -0.2130 -0.5081 -0.7885
 9205SOL    HW139248   1.227   2.017   5.527 -0.2086 -0.4469 -0.8574
 9205SOL    HW239249   1.258   2.043   5.674  1.1396 -0.7991 -0.7702
 9206SOL     OW39250   0.528   0.001  16.509  0.1599 -0.3592  0.1755
 9206SOL    HW139251   0.614   0.034  16.482  0.8332 -0.4527  2.2218
 9206SOL    HW239252   0.515   4.674  16.440  0.1506 -0.4953  0.3086
 9207SOL     OW39253   1.292   2.850   8.965  0.0788  0.3875 -0.1215
 9207SOL    HW139254   1.360   2.900   9.011  2.1341 -2.7006  0.2681
 9207SOL    HW239255   1.344   2.823   8.890 -1.7266  0.4636 -1.3834
 9208SOL     OW39256   3.157   3.180   5.942  0.1955 -0.6319 -0.1340
 9208SOL    HW139257   3.113   3.107   5.898  1.8792 -1.6160 -0.2115
 9208SOL    HW239258   3.241   3.176   5.895 -0.4692  1.9922 -1.5179
 9209SOL     OW39259   3.521   1.023  10.795  0.1116 -0.0402  0.0944
 9209SOL    HW139260   3.463   1.086  10.753 -0.1488 -0.6094 -0.3968
 9209SOL    HW239261   3.571   1.004  10.715  0.9738 -1.5475  0.9986
 9210SOL     OW39262   0.024   1.488   0.089  0.7156  0.0052  0.0264
 9210SOL    HW139263   4.715   1.458   0.166 -1.2302  2.8312 -0.0956
 9210SOL    HW239264   0.101   1.521   0.136  1.0769  0.5815 -0.9761
 9211SOL     OW39265   2.755   0.187   1.393  0.1254 -0.4283  0.4745
 9211SOL    HW139266   2.837   0.220   1.357 -0.4691 -0.7623 -1.1933
 9211SOL    HW239267   2.717   0.161   1.309  1.4383  0.4258 -0.3740
 9212SOL     OW39268   3.955   0.814  11.092 -0.0346  0.2273  0.3088
 9212SOL    HW139269   4.014   0.829  11.166  1.0303  1.3128 -0.7453
 9212SOL    HW239270   3.995   0.733  11.061  2.4266  0.9730  1.5093
 9213SOL     OW39271   1.197   3.180  11.117  0.2508  0.0294  0.5291
 9213SOL    HW139272   1.264   3.122  11.153 -0.6453 -1.6589 -0.5042
 9213SOL    HW239273   1.228   3.267  11.144 -2.5756  1.0574  0.4945
 9214SOL     OW39274   3.744   3.793   9.258 -0.3525 -0.5979  0.0157
 9214SOL    HW139275   3.808   3.784   9.329 -1.3883 -0.4090  0.9880
 9214SOL    HW239276   3.737   3.709   9.212  0.5331 -1.3028  1.1658
 9215SOL     OW39277   1.314   4.736  17.675  0.9470  0.2137 -0.3618
 9215SOL    HW139278   1.297   0.086  17.645  1.9388  0.1010 -1.2326
 9215SOL    HW239279   1.224   4.710  17.697  1.0233 -0.1593 -0.4944
 9216SOL     OW39280   2.752   1.713   4.583 -0.2674 -0.1446 -0.2647
 9216SOL    HW139281   2.820   1.771   4.616  0.7879 -1.1016 -0.7675
 9216SOL    HW239282   2.668   1.755   4.604 -0.4429  0.8369 -2.9411
 9217SOL     OW39283   0.589   4.242   9.825 -0.4956 -0.3186  0.3395
 9217SOL    HW139284   0.635   4.184   9.886  2.4676  0.4286 -1.1590
 9217SOL    HW239285   0.613   4.327   9.860  0.3340 -1.2361  2.0016
 9218SOL     OW39286   2.531   1.195   4.758 -0.4316  0.0231 -0.8807
 9218SOL    HW139287   2.585   1.138   4.704 -0.0482 -0.8336  0.4018
 9218SOL    HW239288   2.563   1.178   4.847  0.0609 -0.7175 -1.2028
 9219SOL     OW39289   3.105   4.151  11.624 -0.0414 -0.0232 -0.5041
 9219SOL    HW139290   3.030   4.194  11.666 -0.3357 -1.8878  0.8854
 9219SOL    HW239291   3.089   4.166  11.531 -3.6595  0.8146  0.2566
 9220SOL     OW39292   1.395   3.343   5.799  1.0725  0.1232  0.0738
 9220SOL    HW139293   1.449   3.264   5.805 -2.1849 -1.8412  2.9718
 9220SOL    HW239294   1.413   3.377   5.887  0.9859 -0.8137  0.4540
 9221SOL     OW39295   0.507   2.969   8.397  0.3749  0.0638 -0.1058
 9221SOL    HW139296   0.521   2.875   8.393 -0.2030  0.0049 -0.7342
 9221SOL    HW239297   0.448   2.997   8.327  0.1648  1.1995  0.5198
 9222SOL     OW39298   2.124   1.956   1.621  0.5937 -0.3638  0.7729
 9222SOL    HW139299   2.062   1.891   1.654  0.3759 -0.5833 -0.0745
 9222SOL    HW239300   2.193   1.906   1.577 -0.5338 -1.8202  0.6652
 9223SOL     OW39301   3.108   1.650   4.490  0.0311 -0.2607  0.5484
 9223SOL    HW139302   3.108   1.558   4.517  0.7322 -0.5593 -0.4611
 9223SOL    HW239303   3.072   1.703   4.560  0.7967 -1.0669  1.5458
 9224SOL     OW39304   3.581   3.670   0.271 -0.5289  0.0256  0.2963
 9224SOL    HW139305   3.653   3.728   0.244 -2.1152  1.3761 -1.0081
 9224SOL    HW239306   3.570   3.620   0.191 -1.0522  1.1164 -0.3217
 9225SOL     OW39307   3.645   0.909   1.786 -0.1147  0.9804 -0.5339
 9225SOL    HW139308   3.607   0.827   1.754  1.7679 -1.0303  2.4264
 9225SOL    HW239309   3.619   0.903   1.878  0.6576 -0.6204 -0.4119
 9226SOL     OW39310   1.373   3.109   4.950 -0.0108 -0.6694 -0.3352
 9226SOL    HW139311   1.467   3.103   4.970  0.5219  0.4961 -2.3922
 9226SOL    HW239312   1.340   3.020   4.965  0.9060 -1.1177 -0.9572
 9227SOL     OW39313   3.760   1.155   1.647 -0.7828 -0.6191  0.1678
 9227SOL    HW139314   3.759   1.070   1.692  2.0431  0.4549  2.3354
 9227SOL    HW239315   3.677   1.185   1.683 -0.8526  0.9287 -1.2840
 9228SOL     OW39316   3.809   2.198   6.591 -0.4030  0.2312 -0.0511
 9228SOL    HW139317   3.838   2.283   6.625 -0.2922  0.1570  0.0401
 9228SOL    HW239318   3.728   2.178   6.637  0.1134  1.3049  1.3374
 9229SOL     OW39319   1.012   4.038  16.831  0.5888  0.6546  0.4991
 9229SOL    HW139320   1.014   4.046  16.735 -2.3071 -0.4533  0.3506
 9229SOL    HW239321   0.941   4.100  16.844  0.9404  0.4350  3.4309
 9230SOL     OW39322   3.535   3.837   7.061  0.8348 -0.6733  0.2089
 9230SOL    HW139323   3.473   3.779   7.107  0.9602  1.4589  3.0408
 9230SOL    HW239324   3.614   3.786   7.077  2.2108  1.7952  1.1769
 9231SOL     OW39325   2.243   0.374  17.564 -0.2982  0.1306  0.1801
 9231SOL    HW139326   2.173   0.335  17.511  0.3220  1.4178 -1.5893
 9231SOL    HW239327   2.223   0.467  17.563 -0.6388  0.0538 -0.1321
 9232SOL     OW39328   4.095   0.541  12.870  0.0194 -0.0349 -0.1471
 9232SOL    HW139329   4.012   0.587  12.856 -0.6539 -1.3236 -0.5047
 9232SOL    HW239330   4.156   0.610  12.844 -2.6750  1.8408 -1.5577
 9233SOL     OW39331   3.999   4.377  10.043 -0.3210 -0.1557 -0.1069
 9233SOL    HW139332   4.081   4.339  10.075 -1.1600 -0.4550  1.6833
 9233SOL    HW239333   3.974   4.422  10.123 -1.9847 -0.2941 -0.5657
 9234SOL     OW39334   1.660   1.905   5.069 -0.4820 -0.4697 -0.0724
 9234SOL    HW139335   1.645   1.903   5.163  2.4201  2.3249  0.4663
 9234SOL    HW239336   1.645   1.998   5.052 -1.4111 -0.7432 -0.7570
 9235SOL     OW39337   2.948   0.952   3.757  0.3095 -0.2096 -0.2391
 9235SOL    HW139338   3.037   0.986   3.764  0.1565  0.0730  0.3263
 9235SOL    HW239339   2.962   0.866   3.717  0.0982  0.7325 -2.3279
 9236SOL     OW39340   3.377   1.003   7.956 -0.7657  0.8872  0.2361
 9236SOL    HW139341   3.339   0.930   8.005  0.8252  0.7231  1.2138
 9236SOL    HW239342   3.300   1.052   7.929 -0.9795  1.4073  1.7961
 9237SOL     OW39343   2.952   3.165   3.448 -0.2669  0.4127  0.0852
 9237SOL    HW139344   3.032   3.177   3.397 -1.1755  0.2635 -1.3630
 9237SOL    HW239345   2.911   3.252   3.444  1.7531  1.3433 -0.2255
 9238SOL     OW39346   4.185   0.320   8.418  0.4531  0.0458  0.2525
 9238SOL    HW139347   4.131   0.269   8.477 -0.1446  0.0131 -0.3282
 9238SOL    HW239348   4.226   0.249   8.370 -2.6158  0.7547 -3.4184
 9239SOL     OW39349   4.406   1.839   5.845  0.2604  0.4873 -0.1990
 9239SOL    HW139350   4.312   1.842   5.829  0.1446  1.5591  0.7022
 9239SOL    HW239351   4.436   1.927   5.821 -0.9592  1.1597  0.7728
 9240SOL     OW39352   0.574   1.988   9.201 -0.8033 -0.0468 -0.0576
 9240SOL    HW139353   0.538   1.955   9.119  0.1356 -1.1159 -0.0278
 9240SOL    HW239354   0.550   2.080   9.213 -2.0434 -0.2215 -1.1011
 9241SOL     OW39355   3.298   3.885   3.637  0.5799  0.3473 -0.1138
 9241SOL    HW139356   3.280   3.798   3.601 -0.4138 -0.2500  1.8393
 9241SOL    HW239357   3.364   3.919   3.576  0.7579  0.9673  0.4330
 9242SOL     OW39358   3.536   1.853   2.560 -0.5623 -0.6286 -0.0050
 9242SOL    HW139359   3.545   1.758   2.556  2.2179 -0.3819  0.1835
 9242SOL    HW239360   3.454   1.866   2.608  0.6758  1.5316  1.5186
 9243SOL     OW39361   1.640   3.959  17.728  0.4743  0.1772 -0.5512
 9243SOL    HW139362   1.556   3.968   0.019  0.7731 -0.1815  0.0823
 9243SOL    HW239363   1.631   3.869  17.697 -0.5845  0.2684 -0.5259
 9244SOL     OW39364   2.447   4.495   7.808 -0.1376 -0.3249  0.2991
 9244SOL    HW139365   2.380   4.558   7.784  0.3023  0.3768  0.8865
 9244SOL    HW239366   2.490   4.481   7.724  2.1825  1.3488  1.2032
 9245SOL     OW39367   0.119   2.682  14.943 -0.9835 -0.4981 -0.5547
 9245SOL    HW139368   0.149   2.627  14.871  0.0868  0.4914 -0.8649
 9245SOL    HW239369   0.087   2.753  14.887  2.5263  1.6871  0.2337
 9246SOL     OW39370   3.422   3.399   1.789  0.4404  0.0495  0.1687
 9246SOL    HW139371   3.423   3.495   1.790 -0.5269  0.0729 -1.0647
 9246SOL    HW239372   3.498   3.376   1.736  0.2779 -3.2545  1.3743
 9247SOL     OW39373   3.179   3.852   8.597  0.6189  0.3579 -0.3108
 9247SOL    HW139374   3.174   3.936   8.553 -0.8973 -0.3599 -1.5208
 9247SOL    HW239375   3.091   3.814   8.599  1.0164 -0.6162 -0.8159
 9248SOL     OW39376   1.096   2.604   7.392 -0.2218  0.3196 -0.4702
 9248SOL    HW139377   1.164   2.537   7.401  0.2575  0.6717 -1.4349
 9248SOL    HW239378   1.069   2.591   7.301  0.4216 -1.5298 -0.3988
 9249SOL     OW39379   4.130   3.577  17.519  0.2479 -0.2337 -0.5235
 9249SOL    HW139380   4.112   3.644  17.585 -1.0254  0.4763 -1.5917
 9249SOL    HW239381   4.222   3.560  17.535 -0.1581 -1.8516  0.1257
 9250SOL     OW39382   0.875   3.024  15.459 -0.7489  0.0328  0.4328
 9250SOL    HW139383   0.796   3.026  15.513 -2.1471 -1.3321 -1.5518
 9250SOL    HW239384   0.940   3.041  15.527 -1.0452 -1.5177  1.0954
 9251SOL     OW39385   1.283   4.336   5.171  0.0813 -0.8731 -0.1514
 9251SOL    HW139386   1.338   4.261   5.193 -1.8771 -3.0535 -2.7961
 9251SOL    HW239387   1.294   4.390   5.249 -0.4714 -2.0588  0.7391
 9252SOL     OW39388   4.355   4.204   9.787  0.3362  0.0217 -0.0340
 9252SOL    HW139389   4.334   4.295   9.806 -1.2843  0.0489 -2.0951
 9252SOL    HW239390   4.282   4.178   9.732 -1.2203  2.8350  0.7307
 9253SOL     OW39391   2.295   1.070   4.164 -0.0173  0.4431  0.4298
 9253SOL    HW139392   2.241   1.056   4.242 -0.2821 -0.5722  0.0558
 9253SOL    HW239393   2.281   0.993   4.109 -0.2920  0.4943  0.4326
 9254SOL     OW39394   1.348   2.607   2.630 -0.0673 -0.1942  0.3309
 9254SOL    HW139395   1.439   2.578   2.639 -0.6650 -2.1436  0.1229
 9254SOL    HW239396   1.298   2.527   2.648 -0.5866  0.3004  1.0989
 9255SOL     OW39397   0.743   0.145   4.804 -0.0416  0.4813  0.8504
 9255SOL    HW139398   0.803   0.156   4.878  1.3882 -1.7238  0.0207
 9255SOL    HW239399   0.658   0.145   4.848 -0.0363  0.6872  0.8629
 9256SOL     OW39400   1.279   0.965  16.314  0.3833  0.0032 -0.0205
 9256SOL    HW139401   1.281   0.869  16.307  1.5987  0.0058  0.3048
 9256SOL    HW239402   1.238   0.989  16.231 -0.5411  0.3104  0.5288
 9257SOL     OW39403   2.515   4.663  16.955  0.2891  0.5083 -0.3758
 9257SOL    HW139404   2.464   4.634  16.879  0.7029  0.2748 -0.5624
 9257SOL    HW239405   2.439   4.692  17.005  0.9535 -0.9309  1.4316
 9258SOL     OW39406   0.133   0.568   1.252 -0.4310  0.0470 -0.2540
 9258SOL    HW139407   0.214   0.615   1.270 -0.1017 -0.9164  0.7743
 9258SOL    HW239408   0.082   0.637   1.209  0.2922 -0.7986 -2.4453
 9259SOL     OW39409   3.491   1.999   8.322 -0.3677 -0.0177 -0.9026
 9259SOL    HW139410   3.398   1.994   8.300 -0.0100 -2.4606 -1.8373
 9259SOL    HW239411   3.528   1.948   8.250  4.4286  1.9000  0.1408
 9260SOL     OW39412   1.492   1.222   3.434 -0.0643  0.2044 -0.1192
 9260SOL    HW139413   1.414   1.173   3.458  0.1688 -0.0299  0.1634
 9260SOL    HW239414   1.486   1.294   3.497  0.8229  1.8078 -1.8600
 9261SOL     OW39415   3.630   4.521   7.581 -0.3313 -0.1004  0.8032
 9261SOL    HW139416   3.588   4.553   7.661  2.3793  3.1330  0.9406
 9261SOL    HW239417   3.565   4.454   7.562 -1.6980  1.3245  0.4358
 9262SOL     OW39418   4.539   1.279   1.703 -0.0127  0.6009 -0.6526
 9262SOL    HW139419   4.444   1.285   1.709 -0.0774 -1.8225  0.7411
 9262SOL    HW239420   4.554   1.194   1.661  0.9843  1.1462 -1.4109
 9263SOL     OW39421   3.144   4.118   5.156  0.0099 -0.2880 -0.6234
 9263SOL    HW139422   3.171   4.208   5.173 -2.2939  0.3444 -0.3045
 9263SOL    HW239423   3.137   4.124   5.061 -0.7202 -0.0370 -0.5563
 9264SOL     OW39424   1.898   1.825   3.777 -0.0508  0.0398 -0.3007
 9264SOL    HW139425   1.994   1.826   3.772 -0.0851 -1.3337 -1.4523
 9264SOL    HW239426   1.879   1.794   3.688  0.9119 -0.5647 -0.2916
 9265SOL     OW39427   1.244   2.365   3.225 -0.1140  0.4928  0.3684
 9265SOL    HW139428   1.226   2.444   3.175 -2.3428 -0.5844 -0.5523
 9265SOL    HW239429   1.270   2.301   3.158 -0.0259  0.9587 -0.0386
 9266SOL     OW39430   0.224   2.766   0.082 -0.6381 -0.4306 -0.1349
 9266SOL    HW139431   0.145   2.815   0.103 -1.9113 -2.4804 -0.1117
 9266SOL    HW239432   0.285   2.840   0.076 -1.5128  0.4170  1.3612
 9267SOL     OW39433   0.469   1.609   3.191  0.2281  0.1030 -0.0061
 9267SOL    HW139434   0.516   1.693   3.189 -0.9151  0.7859  1.4622
 9267SOL    HW239435   0.541   1.553   3.219  1.9037  1.0770 -2.2997
 9268SOL     OW39436   2.235   3.659   0.927 -0.1400  0.6807  0.1285
 9268SOL    HW139437   2.230   3.741   0.877 -0.4527 -0.4747 -1.7227
 9268SOL    HW239438   2.148   3.621   0.913  1.0614 -1.4004 -1.6408
 9269SOL     OW39439   2.376   4.493   5.809  0.3289  0.5703  0.6317
 9269SOL    HW139440   2.368   4.428   5.739 -0.1225  1.2514  0.0491
 9269SOL    HW239441   2.453   4.454   5.849  1.2721  0.1109 -1.6266
 9270SOL     OW39442   1.345   0.071  13.085  0.3076  0.5537  0.7577
 9270SOL    HW139443   1.395   0.107  13.158  0.9124 -0.4119  0.8231
 9270SOL    HW239444   1.407   0.053  13.014  0.5064 -2.1474  1.5961
 9271SOL     OW39445   4.294   1.721   2.374 -0.3120 -0.3505 -0.1019
 9271SOL    HW139446   4.252   1.715   2.288 -1.4178 -1.7598  0.5386
 9271SOL    HW239447   4.284   1.630   2.401 -0.0848 -0.4571 -0.3735
 9272SOL     OW39448   0.096   1.615   6.406 -0.4609  0.2572 -0.0060
 9272SOL    HW139449   0.107   1.709   6.391 -1.5584  0.1016 -1.8634
 9272SOL    HW239450   0.035   1.598   6.334  0.4564 -0.8382 -0.5172
 9273SOL     OW39451   3.636   2.249  11.519  0.2795  0.0377  0.3135
 9273SOL    HW139452   3.630   2.331  11.569  2.2752  0.2497  0.2301
 9273SOL    HW239453   3.597   2.281  11.438 -1.1690 -0.7554  0.7153
 9274SOL     OW39454   4.291   0.655  15.737 -0.1904  0.3205  0.2166
 9274SOL    HW139455   4.228   0.725  15.748  0.9242  1.6207 -1.5755
 9274SOL    HW239456   4.265   0.625  15.650  2.5753 -3.1365  0.5594
 9275SOL     OW39457   1.264   0.243   3.521  0.2561 -0.1434 -0.1008
 9275SOL    HW139458   1.354   0.254   3.491  0.3570 -0.7998 -0.0188
 9275SOL    HW239459   1.270   0.148   3.521 -2.3411 -0.3078  2.5164
 9276SOL     OW39460   1.640   4.075   4.447 -0.5675  0.0204  0.3503
 9276SOL    HW139461   1.612   4.093   4.358  3.5574 -1.1197 -1.1878
 9276SOL    HW239462   1.692   3.995   4.439 -1.5296 -0.5362 -0.3441
 9277SOL     OW39463   2.663   1.451   2.010  0.3117  0.0770  0.4187
 9277SOL    HW139464   2.622   1.376   1.967  1.1177 -0.3298  0.3729
 9277SOL    HW239465   2.752   1.441   1.977  0.9053 -1.7437  2.5684
 9278SOL     OW39466   1.970   2.252  11.732 -0.4775 -0.1681 -0.0444
 9278SOL    HW139467   2.045   2.206  11.769 -1.1632  0.3761  2.0182
 9278SOL    HW239468   1.906   2.228  11.800 -0.0132  1.6831  1.0488
 9279SOL     OW39469   3.813   4.518   7.379  0.0177  0.4215 -0.4549
 9279SOL    HW139470   3.868   4.443   7.400  1.5431  1.9885  1.1081
 9279SOL    HW239471   3.740   4.516   7.441 -0.7560 -0.7883 -1.4116
 9280SOL     OW39472   3.173   4.040   6.296 -0.1314  0.1054  0.0181
 9280SOL    HW139473   3.217   3.974   6.349 -0.1441  1.5559  1.8403
 9280SOL    HW239474   3.240   4.073   6.237 -0.4431 -1.5472 -1.2619
 9281SOL     OW39475   1.097   0.305   2.302 -0.1888  0.1206 -0.5172
 9281SOL    HW139476   1.150   0.271   2.375  2.0238 -1.8691 -3.0548
 9281SOL    HW239477   1.150   0.271   2.230  0.3430 -0.2935  0.0625
 9282SOL     OW39478   3.574   4.683  12.657 -0.1054  0.1790  0.0384
 9282SOL    HW139479   3.494   4.694  12.707  0.2357 -0.1856  0.6580
 9282SOL    HW239480   3.583   4.589  12.674 -0.5059  0.1575  0.1202
 9283SOL     OW39481   0.232   4.482   5.911 -0.5392 -0.0387 -0.4628
 9283SOL    HW139482   0.151   4.443   5.881 -0.9072  0.7145 -0.4494
 9283SOL    HW239483   0.286   4.475   5.833 -0.3491  2.3434 -0.5347
 9284SOL     OW39484   3.574   2.215   4.087  0.4427  0.2988 -0.2717
 9284SOL    HW139485   3.517   2.260   4.150 -0.2059 -0.2261 -0.4936
 9284SOL    HW239486   3.636   2.284   4.062  0.4518  0.5919  0.5414
 9285SOL     OW39487   1.673   4.660   9.840  0.3006 -0.0359 -0.1281
 9285SOL    HW139488   1.639   4.586   9.790  0.7037 -2.3279  2.9914
 9285SOL    HW239489   1.761   4.627   9.861  0.1676 -1.1905 -1.3160
 9286SOL     OW39490   2.232   3.199  16.541  0.3595 -0.4526  0.4041
 9286SOL    HW139491   2.201   3.276  16.588 -0.5105 -2.5711  3.2784
 9286SOL    HW239492   2.200   3.126  16.593 -0.3144 -0.6607 -0.3042
 9287SOL     OW39493   4.723   3.820  13.217 -0.1888 -0.5503  0.5728
 9287SOL    HW139494   0.054   3.765  13.181  1.6550  1.0212  1.7539
 9287SOL    HW239495   0.025   3.878  13.282 -0.7889  1.2352 -0.6469
 9288SOL     OW39496   4.489   2.088   8.695  0.0821 -0.0483 -0.2108
 9288SOL    HW139497   4.466   2.121   8.782  0.5501 -1.4669  0.4485
 9288SOL    HW239498   4.453   2.151   8.632 -1.4658  0.2685  0.9959
 9289SOL     OW39499   2.070   1.736  16.435  0.0623  0.3981 -0.5149
 9289SOL    HW139500   2.000   1.719  16.372 -1.8698  0.0413  1.7194
 9289SOL    HW239501   2.125   1.788  16.377 -0.0516  0.1207 -0.8654
 9290SOL     OW39502   1.179   2.900   4.810 -0.2827  0.0377  0.5504
 9290SOL    HW139503   1.146   2.855   4.732 -1.1134  2.2468 -0.3784
 9290SOL    HW239504   1.268   2.867   4.800  0.0114  0.5786  1.3759
 9291SOL     OW39505   4.253   3.044   9.320  0.1511 -0.1972 -0.7045
 9291SOL    HW139506   4.178   3.067   9.375  1.0855  0.8410  0.1182
 9291SOL    HW239507   4.320   3.102   9.356  1.6240 -0.9109 -2.3027
 9292SOL     OW39508   4.440   3.893   5.775 -0.2161 -0.4805  0.5621
 9292SOL    HW139509   4.444   3.876   5.681 -1.0913  1.0775  0.2265
 9292SOL    HW239510   4.530   3.900   5.807 -0.8394  2.6003  1.6586
 9293SOL     OW39511   0.004   2.343   7.611  0.2819  0.2970 -0.1289
 9293SOL    HW139512   4.704   2.324   7.526  1.0293  1.0604 -0.6368
 9293SOL    HW239513   0.095   2.312   7.617  0.3551  0.7745  1.4133
 9294SOL     OW39514   2.425   1.394   9.678  0.4721  0.0564 -0.3060
 9294SOL    HW139515   2.334   1.368   9.661  0.4774 -1.3631  1.8515
 9294SOL    HW239516   2.413   1.483   9.711  1.8886  0.0436  0.2457
 9295SOL     OW39517   3.267   0.956   9.305  0.0701 -0.5271 -0.0522
 9295SOL    HW139518   3.344   0.928   9.255 -1.5861 -2.7936 -1.3621
 9295SOL    HW239519   3.244   1.031   9.250 -0.1878 -0.5256  0.0600
 9296SOL     OW39520   3.818   2.329  16.132 -0.1306 -0.5281 -0.4018
 9296SOL    HW139521   3.761   2.402  16.155  0.0851 -0.9838  1.5881
 9296SOL    HW239522   3.782   2.306  16.046 -0.3370 -0.6568 -0.2791
 9297SOL     OW39523   2.898   0.041   6.199 -0.5416 -0.3477 -0.1768
 9297SOL    HW139524   2.956   0.102   6.245 -0.8737 -0.5341  0.4838
 9297SOL    HW239525   2.913   4.699   6.248  1.3796 -0.4872 -0.9589
 9298SOL     OW39526   1.647   3.147  16.931 -0.3711  0.1766 -0.1953
 9298SOL    HW139527   1.660   3.190  17.016 -0.9939 -1.2083  0.6052
 9298SOL    HW239528   1.553   3.153  16.914 -0.2304  3.6421  0.1189
 9299SOL     OW39529   0.723   0.267   7.308  0.1598  0.4550  0.7694
 9299SOL    HW139530   0.779   0.197   7.275  1.6341  2.1546 -0.3305
 9299SOL    HW239531   0.691   0.307   7.227  0.5000 -1.0618 -0.1195
 9300SOL     OW39532   1.432   1.432   4.965 -0.2295 -0.0162 -0.3689
 9300SOL    HW139533   1.357   1.427   4.905  0.1127  0.8962 -0.8650
 9300SOL    HW239534   1.424   1.523   4.993  2.2977  0.6677 -1.9106
 9301SOL     OW39535   0.753   2.013   8.894 -0.6016  0.4712  0.1142
 9301SOL    HW139536   0.789   1.981   8.811 -0.5668 -0.2136  0.3862
 9301SOL    HW239537   0.663   2.037   8.872 -1.6668 -1.7094  2.0378
 9302SOL     OW39538   0.963   4.088   6.578 -0.5898  0.4970 -0.8046
 9302SOL    HW139539   0.982   4.032   6.653 -0.5280  1.7136  0.0715
 9302SOL    HW239540   1.016   4.044   6.511 -0.4678 -2.9085  1.5339
 9303SOL     OW39541   3.148   2.432   8.385  0.0886  0.1377  0.1579
 9303SOL    HW139542   3.072   2.469   8.430 -0.0801  1.4022 -1.1587
 9303SOL    HW239543   3.152   2.482   8.304  0.5434  0.6315  0.4813
 9304SOL     OW39544   0.488   3.299   7.948 -0.1584  0.3854 -0.3009
 9304SOL    HW139545   0.550   3.227   7.951 -0.5697  0.0407 -0.1602
 9304SOL    HW239546   0.418   3.270   8.006 -1.2435  0.7621 -1.4177
 9305SOL     OW39547   1.455   2.623   6.466  0.6529  0.4129 -0.0052
 9305SOL    HW139548   1.398   2.696   6.490  0.3069  0.3088 -0.4883
 9305SOL    HW239549   1.514   2.675   6.412 -0.6033 -0.3248 -2.1219
 9306SOL     OW39550   3.965   3.511   2.984  0.4834  0.7647 -0.3739
 9306SOL    HW139551   4.012   3.428   2.973  0.6353  0.7759  0.2133
 9306SOL    HW239552   3.887   3.487   2.934  0.6044  2.7014 -1.4919
 9307SOL     OW39553   2.011   3.131  13.846 -0.1548 -0.4760  0.0042
 9307SOL    HW139554   1.945   3.063  13.842 -1.5016  0.8925 -0.7834
 9307SOL    HW239555   2.009   3.161  13.755  1.1922 -0.5115 -0.0473
 9308SOL     OW39556   0.534   4.157  11.405  0.0319  0.4317 -0.5758
 9308SOL    HW139557   0.485   4.238  11.393 -1.4172 -0.7077 -2.3293
 9308SOL    HW239558   0.624   4.178  11.380  0.4727 -1.3364 -0.4742
 9309SOL     OW39559   4.723   2.970   1.806 -0.5065  0.3418 -0.7005
 9309SOL    HW139560   4.634   2.963   1.773 -0.1172  0.1961 -1.7254
 9309SOL    HW239561   4.717   3.039   1.871 -2.5497 -0.9127  0.4415
 9310SOL     OW39562   2.693   2.626   1.520  0.1335  0.2455  0.6114
 9310SOL    HW139563   2.648   2.542   1.519  0.1137  0.2389  1.9560
 9310SOL    HW239564   2.725   2.631   1.430 -0.1967 -1.0393  0.4254
 9311SOL     OW39565   1.672   2.558   0.524 -0.2939  0.4492 -0.0417
 9311SOL    HW139566   1.580   2.576   0.506  0.1918  0.8879 -2.0709
 9311SOL    HW239567   1.660   2.480   0.579 -0.7363 -0.1686 -1.0157
 9312SOL     OW39568   2.995   1.165   9.487  0.3354  0.0508 -0.6206
 9312SOL    HW139569   3.071   1.164   9.544  0.4798 -1.0231 -0.8207
 9312SOL    HW239570   3.022   1.144   9.398 -0.2182  0.2400 -0.8345
 9313SOL     OW39571   3.597   3.219   7.825 -0.7204 -0.5401 -0.9071
 9313SOL    HW139572   3.525   3.158   7.840  0.5905 -1.1513  2.8877
 9313SOL    HW239573   3.677   3.170   7.806 -0.8850 -1.7075  1.3829
 9314SOL     OW39574   2.690   0.186   6.478  0.0493 -0.5509  0.0529
 9314SOL    HW139575   2.765   0.131   6.502  0.9301  0.3996 -0.4699
 9314SOL    HW239576   2.695   0.254   6.546  1.4279 -1.3526  0.7501
 9315SOL     OW39577   0.829   1.388  17.186 -0.1501 -0.1828  0.2187
 9315SOL    HW139578   0.765   1.374  17.116  0.3859 -3.3530  0.3637
 9315SOL    HW239579   0.777   1.372  17.265  2.3844 -1.1461  1.6577
 9316SOL     OW39580   2.167   0.825  10.089  0.1036  0.3598 -0.2193
 9316SOL    HW139581   2.205   0.853  10.006 -0.8792 -3.0298 -1.8198
 9316SOL    HW239582   2.094   0.887  10.096  0.7813  1.0262  0.9028
 9317SOL     OW39583   0.614   4.722   1.529  0.1748 -0.2330  0.1942
 9317SOL    HW139584   0.683   0.022   1.583 -1.2278 -0.0510  1.8582
 9317SOL    HW239585   0.605   0.055   1.466  1.9387  0.5128  0.7930
 9318SOL     OW39586   0.258   2.639   2.833 -0.8935 -0.0511 -0.1711
 9318SOL    HW139587   0.201   2.617   2.906  0.9581 -0.2505  1.2040
 9318SOL    HW239588   0.300   2.718   2.868 -0.0115  0.7923 -3.0717
 9319SOL     OW39589   0.973   4.395   3.038 -0.6879 -0.3515  0.1548
 9319SOL    HW139590   0.951   4.425   2.950 -1.0429  0.0235  0.3734
 9319SOL    HW239591   1.037   4.325   3.022 -1.0489 -0.3210 -1.4827
 9320SOL     OW39592   4.217   0.525   4.692  0.6244 -0.9028  0.5573
 9320SOL    HW139593   4.283   0.547   4.758  1.2392  1.5424 -0.8842
 9320SOL    HW239594   4.169   0.450   4.727  0.9782 -0.9667  0.9036
 9321SOL     OW39595   0.208   1.934   4.978 -0.3486  0.8071 -0.4284
 9321SOL    HW139596   0.292   1.927   5.024 -1.3281  0.1156  1.2441
 9321SOL    HW239597   0.143   1.934   5.048 -0.8871  0.0189 -0.9282
 9322SOL     OW39598   3.113   1.706  16.044  0.2128 -0.0778  0.3524
 9322SOL    HW139599   3.172   1.751  15.984 -1.1547  3.1845  1.4403
 9322SOL    HW239600   3.147   1.723  16.132  0.2430  0.0666  0.3136
 9323SOL     OW39601   1.939   2.134   5.866  0.1478 -0.1116  0.0784
 9323SOL    HW139602   1.876   2.171   5.928  3.0077  2.6606  1.3169
 9323SOL    HW239603   1.894   2.134   5.782 -1.0050 -0.4071  0.6943
 9324SOL     OW39604   4.552   4.105   3.487  0.2578 -0.4692 -0.1285
 9324SOL    HW139605   4.495   4.077   3.415 -1.5345  4.1750 -0.4710
 9324SOL    HW239606   4.499   4.168   3.536 -0.2038 -1.0476  0.1210
 9325SOL     OW39607   4.500   0.471   3.667  0.3109 -0.0480  0.0641
 9325SOL    HW139608   4.498   0.558   3.707 -0.3244 -0.2013  0.3673
 9325SOL    HW239609   4.594   0.456   3.677  0.4021  0.0288 -0.6992
 9326SOL     OW39610   3.702   3.074  15.628 -0.2912 -0.6200  0.1080
 9326SOL    HW139611   3.701   3.142  15.695 -1.0686 -0.5026 -0.0204
 9326SOL    HW239612   3.684   3.133  15.554 -0.0286 -1.3388 -0.5277
 9327SOL     OW39613   3.077   2.292   9.228 -0.4210  0.3667  0.0940
 9327SOL    HW139614   3.055   2.261   9.316  1.1495  0.4454  0.5170
 9327SOL    HW239615   3.003   2.351   9.216  0.8348  2.5174  2.8340
 9328SOL     OW39616   2.398   3.391   8.253  0.5356  0.3267  0.2067
 9328SOL    HW139617   2.373   3.481   8.232  1.1905  0.1378 -1.3892
 9328SOL    HW239618   2.376   3.399   8.345 -0.5807 -1.8484  0.0983
 9329SOL     OW39619   3.347   2.602   1.929  0.4865  0.4378 -0.0824
 9329SOL    HW139620   3.266   2.593   1.879  0.3039 -0.6150  0.4127
 9329SOL    HW239621   3.330   2.680   1.982 -0.5964 -0.0954  0.3663
 9330SOL     OW39622   4.456   4.427  16.042 -0.1054  0.0681 -0.3725
 9330SOL    HW139623   4.465   4.337  16.074  1.4820 -0.1162 -1.2852
 9330SOL    HW239624   4.542   4.432  15.999  0.9035 -1.5780  1.4648
 9331SOL     OW39625   3.262   4.131  10.538  0.6637 -0.2683 -0.3009
 9331SOL    HW139626   3.248   4.057  10.597  2.6270 -1.0717 -0.8735
 9331SOL    HW239627   3.171   4.155  10.519  0.7764  0.5369  0.1533
 9332SOL     OW39628   2.217   4.210  16.042  0.3099  0.2398 -0.3852
 9332SOL    HW139629   2.204   4.298  16.077 -0.4710 -0.5550  1.3145
 9332SOL    HW239630   2.252   4.170  16.122 -0.6543  1.5772  0.7131
 9333SOL     OW39631   3.971   4.694   6.654 -0.1982 -0.1742  0.3320
 9333SOL    HW139632   3.886   4.723   6.624 -1.1047 -2.2555  0.8848
 9333SOL    HW239633   3.952   4.602   6.676 -0.8012 -0.1215 -0.0097
 9334SOL     OW39634   4.692   0.644   2.974  0.7894  0.1617 -0.3322
 9334SOL    HW139635   4.675   0.738   2.980 -0.4485 -0.1488  1.0784
 9334SOL    HW239636   0.023   0.638   3.039  0.9771  0.0968 -0.5390
 9335SOL     OW39637   2.312   3.221  10.700  0.3962 -0.4555  0.4671
 9335SOL    HW139638   2.220   3.212  10.676  0.9596  1.2172 -2.3137
 9335SOL    HW239639   2.323   3.132  10.734 -0.7935 -1.4274 -1.6862
 9336SOL     OW39640   2.320   2.007   1.134  0.4959  0.5325  0.5236
 9336SOL    HW139641   2.318   2.031   1.227  0.8436 -0.4070  0.7657
 9336SOL    HW239642   2.408   1.969   1.133  0.6953  1.0169 -1.1303
 9337SOL     OW39643   0.951   0.191  12.985 -0.4546 -0.1614  0.2440
 9337SOL    HW139644   0.967   0.265  12.927 -2.3316 -2.4794 -3.2165
 9337SOL    HW239645   0.855   0.194  12.991 -0.4573 -0.3973  0.3029
 9338SOL     OW39646   3.788   3.773  14.575  0.8208  0.0372  0.1074
 9338SOL    HW139647   3.877   3.808  14.584  1.3153 -1.0456 -0.5606
 9338SOL    HW239648   3.782   3.802  14.484  1.4436  0.1256  0.0947
 9339SOL     OW39649   3.623   4.224   9.083  0.3194  0.1792  0.9444
 9339SOL    HW139650   3.691   4.196   9.144  0.1725 -0.3678  0.8572
 9339SOL    HW239651   3.541   4.229   9.133  0.0963 -1.2027  0.7098
 9340SOL     OW39652   2.649   3.713   7.876  0.5205  0.1579 -0.4456
 9340SOL    HW139653   2.639   3.620   7.856  1.6979 -0.0465 -0.0795
 9340SOL    HW239654   2.722   3.723   7.937 -0.2452  3.5975 -0.0670
 9341SOL     OW39655   4.037   2.105   2.345  0.0831  0.3277 -0.3024
 9341SOL    HW139656   4.062   2.176   2.405  0.0492  0.2654 -0.2152
 9341SOL    HW239657   4.105   2.102   2.278  0.7220  2.3794  0.2465
 9342SOL     OW39658   1.166   1.393   7.904 -0.2797  0.3641 -0.1323
 9342SOL    HW139659   1.254   1.356   7.905 -0.8588 -1.0447 -0.7520
 9342SOL    HW239660   1.139   1.405   7.995 -0.8873 -0.3447 -0.2230
 9343SOL     OW39661   1.256   2.632   7.655 -0.0878  0.0603  0.3588
 9343SOL    HW139662   1.339   2.592   7.632 -0.7178 -1.2566  0.3483
 9343SOL    HW239663   1.219   2.645   7.567  3.2369  2.9186 -0.5981
 9344SOL     OW39664   1.681   2.136   2.410  0.1301 -0.1584 -0.2043
 9344SOL    HW139665   1.594   2.119   2.447 -0.3153  3.8698  0.5219
 9344SOL    HW239666   1.691   2.074   2.338  3.9097  1.1481 -0.7566
 9345SOL     OW39667   0.689   0.901   2.912 -0.0215  0.0197  0.2713
 9345SOL    HW139668   0.713   0.836   2.846  0.6623 -0.1705  0.7051
 9345SOL    HW239669   0.750   0.972   2.895 -1.2565  1.3244  1.3043
 9346SOL     OW39670   0.960   2.409  16.157 -0.7121 -0.2620  0.8121
 9346SOL    HW139671   1.016   2.453  16.094  0.2606 -1.8269  0.5822
 9346SOL    HW239672   0.874   2.417  16.118 -0.6547 -0.5073  0.6373
 9347SOL     OW39673   2.134   2.125  11.937 -0.5336 -0.5065  0.4065
 9347SOL    HW139674   2.184   2.148  12.016  0.6268 -0.2873 -0.3922
 9347SOL    HW239675   2.056   2.093  11.982 -2.5054  0.7993 -2.0996
 9348SOL     OW39676   4.025   3.009   7.646 -0.2448 -0.4425 -0.0997
 9348SOL    HW139677   4.074   2.955   7.708  2.5291  1.0732 -1.0237
 9348SOL    HW239678   4.100   3.057   7.613  0.6175 -0.7480  1.4274
 9349SOL     OW39679   3.784   4.276   1.951  0.2170  0.1869 -0.4641
 9349SOL    HW139680   3.712   4.277   2.014 -0.8463 -1.4285 -1.6497
 9349SOL    HW239681   3.857   4.269   2.012 -0.2164 -4.4450 -0.4625
 9350SOL     OW39682   1.873   3.393   9.764 -0.0612  0.0290 -0.0393
 9350SOL    HW139683   1.807   3.438   9.712  0.5221 -0.1893 -0.9620
 9350SOL    HW239684   1.892   3.448   9.840 -1.8322  0.8890 -0.2116
 9351SOL     OW39685   3.202   1.586   0.648  0.3630  1.0626 -0.9711
 9351SOL    HW139686   3.206   1.671   0.604  1.1400  0.2133 -2.5101
 9351SOL    HW239687   3.127   1.552   0.599  1.2611  2.0688 -3.0137
 9352SOL     OW39688   0.731   0.816   2.347 -0.3388  0.2505  0.3463
 9352SOL    HW139689   0.650   0.799   2.396 -0.4808  1.5733  0.5647
 9352SOL    HW239690   0.779   0.740   2.380  0.8481  0.8359 -0.0028
 9353SOL     OW39691   4.369   4.022  16.361  0.3967  0.7333 -0.3300
 9353SOL    HW139692   4.391   4.045  16.452  0.2338  0.3070 -0.1867
 9353SOL    HW239693   4.289   4.075  16.355  0.5818  0.9222 -1.0847
 9354SOL     OW39694   3.170   3.676   9.642 -0.0233  1.0831 -0.1084
 9354SOL    HW139695   3.169   3.689   9.737  2.6158 -0.6954  0.1554
 9354SOL    HW239696   3.153   3.582   9.642  1.3722  0.8373  1.3632
 9355SOL     OW39697   0.508   1.155   5.523 -0.4387  0.3659  0.3981
 9355SOL    HW139698   0.481   1.090   5.459  0.4728 -0.4209  0.8154
 9355SOL    HW239699   0.422   1.173   5.561 -1.0552 -2.1908  0.2017
 9356SOL     OW39700   3.273   0.787   0.024 -0.7982 -0.2156 -0.4218
 9356SOL    HW139701   3.363   0.779  17.744 -1.0593  1.6415 -1.5488
 9356SOL    HW239702   3.287   0.844   0.099  0.4538 -0.6978 -0.2861
 9357SOL     OW39703   3.342   3.005  10.072  0.5077  0.1482 -0.1612
 9357SOL    HW139704   3.428   2.966  10.086  0.6070  0.3469 -0.2255
 9357SOL    HW239705   3.343   3.076  10.136 -4.2707 -0.6163  0.7538
 9358SOL     OW39706   1.563   4.583   8.051 -0.2940  0.1325 -0.2767
 9358SOL    HW139707   1.488   4.587   7.992  0.8698  2.2166 -1.6396
 9358SOL    HW239708   1.515   4.591   8.134  0.6494  0.6238  0.2214
 9359SOL     OW39709   0.498   2.042   6.790  0.5479  0.0774 -0.0542
 9359SOL    HW139710   0.524   2.085   6.872  2.0772  1.2780 -1.1664
 9359SOL    HW239711   0.407   2.025   6.813  0.3588 -1.2051 -1.7740
 9360SOL     OW39712   2.567   1.016   5.558  0.5498  0.2498 -0.4337
 9360SOL    HW139713   2.595   1.080   5.493  0.0672  0.9521  0.0463
 9360SOL    HW239714   2.537   0.944   5.503 -1.2127  1.7798 -1.4309
 9361SOL     OW39715   3.650   0.005   6.093  0.0877 -0.0036  0.3265
 9361SOL    HW139716   3.644   0.099   6.075 -1.7570 -0.2123 -0.1595
 9361SOL    HW239717   3.621   4.702   6.011  0.8419  0.4282 -0.1600
 9362SOL     OW39718   4.538   3.017   1.518 -0.8254 -0.1939 -0.5269
 9362SOL    HW139719   4.455   3.063   1.527 -0.1531  0.6753  1.2675
 9362SOL    HW239720   4.504   2.939   1.474 -2.9826 -0.4971  1.6609
 9363SOL     OW39721   2.785   4.250   3.025 -0.3167  0.2766  0.0153
 9363SOL    HW139722   2.717   4.206   3.077 -2.3548  1.5458 -1.5788
 9363SOL    HW239723   2.862   4.195   3.039  0.5868  1.5445  0.1026
 9364SOL     OW39724   4.646   2.445  17.497  0.5247  0.4744 -0.1474
 9364SOL    HW139725   4.575   2.389  17.525 -1.3828  3.2624  0.5935
 9364SOL    HW239726   4.670   2.487  17.580 -0.0966 -2.0186  1.2695
 9365SOL     OW39727   4.102   2.595  15.027 -0.4556 -0.2742 -0.6972
 9365SOL    HW139728   4.051   2.634  15.098  3.2525  1.1665  1.1618
 9365SOL    HW239729   4.173   2.658  15.030 -0.7656  0.1674 -2.3608
 9366SOL     OW39730   4.139   4.714   7.888  0.5025  0.3914 -0.7257
 9366SOL    HW139731   4.117   0.063   7.858  1.1274  1.1420  1.0153
 9366SOL    HW239732   4.234   4.723   7.883  0.5816  0.1508  0.5012
 9367SOL     OW39733   1.279   0.321  11.505 -0.1686 -0.1640  0.6545
 9367SOL    HW139734   1.305   0.252  11.567  0.2111  0.5072  1.2460
 9367SOL    HW239735   1.233   0.381  11.564  0.3366  0.0984  0.7835
 9368SOL     OW39736   1.995   4.337   1.337  0.3389 -0.4476  0.3020
 9368SOL    HW139737   1.995   4.423   1.378  1.0161 -0.2677 -0.0748
 9368SOL    HW239738   1.973   4.282   1.412  0.1524 -1.7749 -0.7325
 9369SOL     OW39739   4.158   1.692   5.600  0.0525  0.2516  0.4139
 9369SOL    HW139740   4.142   1.755   5.530  0.7770 -0.6497 -0.5575
 9369SOL    HW239741   4.199   1.624   5.547  0.7380  0.8316  0.1985
 9370SOL     OW39742   3.264   3.629  11.940 -0.2144 -0.4234  0.3720
 9370SOL    HW139743   3.238   3.648  11.850  0.8962  2.7235  0.7145
 9370SOL    HW239744   3.302   3.542  11.926 -0.8455 -0.2439 -2.4091
 9371SOL     OW39745   4.697   2.860   8.781 -0.1623 -0.9644  0.4037
 9371SOL    HW139746   4.617   2.881   8.830 -2.0509  0.9131 -3.5359
 9371SOL    HW239747   0.029   2.901   8.831  0.0366  0.1053 -0.7563
 9372SOL     OW39748   3.034   0.785  16.929  0.3145 -0.6409 -0.0820
 9372SOL    HW139749   2.991   0.721  16.985 -1.0177  0.9508  0.7369
 9372SOL    HW239750   2.956   0.832  16.900 -0.8756 -2.0744  0.8167
 9373SOL     OW39751   0.187   3.538  17.029 -0.3864  0.5240 -0.0750
 9373SOL    HW139752   0.159   3.459  16.983 -0.3082  0.2559  0.3388
 9373SOL    HW239753   0.187   3.517  17.122  0.2189 -3.0581 -0.8843
 9374SOL     OW39754   1.082   2.144   2.826  1.1000 -0.4976  0.2700
 9374SOL    HW139755   1.034   2.129   2.744  0.9162 -2.6695  0.7771
 9374SOL    HW239756   1.093   2.236   2.805  0.3297 -0.6486 -0.8098
 9375SOL     OW39757   3.091   0.343   9.778  0.4069 -0.2003 -0.5664
 9375SOL    HW139758   3.117   0.431   9.805 -2.6456  0.2374  0.9751
 9375SOL    HW239759   3.093   0.362   9.685  1.2479 -2.8267 -1.0759
 9376SOL     OW39760   0.978   4.333   5.414  0.3363 -0.5102  0.2638
 9376SOL    HW139761   1.061   4.375   5.437  0.7570 -2.1027  1.6637
 9376SOL    HW239762   0.992   4.318   5.321  0.0062  0.1620  0.1046
 9377SOL     OW39763   2.798   0.232  12.064  0.1836 -1.0221  0.4465
 9377SOL    HW139764   2.826   0.206  11.976  0.7368  0.4162  0.2134
 9377SOL    HW239765   2.846   0.177  12.126 -1.1781 -3.6288 -0.7646
 9378SOL     OW39766   4.602   1.158   5.864  0.2241 -0.3710  0.2097
 9378SOL    HW139767   4.508   1.175   5.867  0.0072 -0.5398 -4.7621
 9378SOL    HW239768   4.641   1.242   5.839 -1.1437 -0.0813 -0.9800
 9379SOL     OW39769   2.854   1.399   6.998 -0.8001 -0.0238  0.5962
 9379SOL    HW139770   2.799   1.339   6.947  1.0916 -1.1198 -0.1512
 9379SOL    HW239771   2.820   1.388   7.087 -2.8226 -0.7874 -0.2667
 9380SOL     OW39772   2.599   1.646   2.846 -0.7580  0.8773 -0.2144
 9380SOL    HW139773   2.541   1.679   2.915 -0.2891  1.9047 -0.3146
 9380SOL    HW239774   2.540   1.655   2.771 -0.8267 -0.6093 -0.3490
 9381SOL     OW39775   0.792   3.813   7.656 -0.3068 -0.3839 -0.1422
 9381SOL    HW139776   0.884   3.833   7.639 -0.1364 -1.1280 -0.1335
 9381SOL    HW239777   0.796   3.729   7.608 -1.1056 -1.2913  1.3878
 9382SOL     OW39778   4.365   3.216  16.772  0.2345 -0.3691 -0.2669
 9382SOL    HW139779   4.374   3.122  16.757 -1.5457 -0.7773  1.1151
 9382SOL    HW239780   4.458   3.226  16.790  0.1059  1.0492 -0.4390
 9383SOL     OW39781   3.552   1.842   0.502  0.3040 -0.2303 -0.1202
 9383SOL    HW139782   3.486   1.887   0.449  0.1671 -1.6632 -1.1834
 9383SOL    HW239783   3.508   1.758   0.510 -0.2322 -0.1449 -2.2373
 9384SOL     OW39784   2.169   1.719   9.496 -0.1969 -0.2497  0.4035
 9384SOL    HW139785   2.220   1.777   9.552 -0.7230 -0.3090  0.9413
 9384SOL    HW239786   2.203   1.754   9.414  1.9827 -2.6959  0.2607
 9385SOL     OW39787   0.742   3.218  11.553  0.2227  0.0587 -0.3561
 9385SOL    HW139788   0.833   3.246  11.539  1.2158 -2.7328  0.6564
 9385SOL    HW239789   0.751   3.124  11.541  1.7749  0.3928 -2.0168
 9386SOL     OW39790   2.524   1.073  14.525 -0.3845  0.1471  0.6324
 9386SOL    HW139791   2.609   1.074  14.568  0.0910  1.3387 -0.3307
 9386SOL    HW239792   2.472   1.006  14.571 -0.3756  0.4317  1.0619
 9387SOL     OW39793   1.692   3.457  11.310 -0.1203 -0.2412 -0.4849
 9387SOL    HW139794   1.722   3.444  11.400 -1.4867 -0.6771 -0.0947
 9387SOL    HW239795   1.775   3.470  11.264  0.3366 -0.5236  0.2534
 9388SOL     OW39796   4.360   1.748  13.222 -0.0486 -0.4123 -0.2041
 9388SOL    HW139797   4.311   1.686  13.274  0.3548  0.7262  1.5283
 9388SOL    HW239798   4.328   1.833  13.254  0.8250 -0.4778  0.8327
 9389SOL     OW39799   0.958   3.417   3.324  0.0274  0.3016  0.0332
 9389SOL    HW139800   0.973   3.442   3.415 -0.8957  1.3125 -0.0945
 9389SOL    HW239801   0.890   3.471   3.284 -0.1558 -1.0597 -1.4908
 9390SOL     OW39802   1.268   3.804   6.944 -0.5245  0.4099  0.4214
 9390SOL    HW139803   1.354   3.762   6.946  0.3668  2.1878 -0.3909
 9390SOL    HW239804   1.261   3.818   7.038 -2.5277  1.7229  0.0719
 9391SOL     OW39805   1.592   4.381   8.405 -0.2328  0.1315 -0.1138
 9391SOL    HW139806   1.545   4.457   8.370 -0.7309 -0.3309 -0.4568
 9391SOL    HW239807   1.628   4.329   8.333  0.8432  1.3162 -0.4335
 9392SOL     OW39808   2.019   2.271   7.203 -0.1613 -0.5260  0.5410
 9392SOL    HW139809   1.959   2.245   7.273 -1.7092 -1.5185 -1.1606
 9392SOL    HW239810   1.973   2.333   7.146 -0.0102 -0.2259  0.7445
 9393SOL     OW39811   2.463   4.591   4.916  0.5189 -0.0963 -0.4394
 9393SOL    HW139812   2.375   4.602   4.952  1.1172 -0.9806  1.3085
 9393SOL    HW239813   2.463   4.667   4.859 -0.0044  0.2582  0.0390
 9394SOL     OW39814   0.052   2.862   6.820  0.2916 -0.5492 -0.0798
 9394SOL    HW139815   0.001   2.782   6.813 -0.7177 -0.2338  3.5274
 9394SOL    HW239816   4.738   2.909   6.884 -0.0885 -1.1495  0.0429
 9395SOL     OW39817   2.181   2.968  13.110 -0.2049  0.3242  0.8614
 9395SOL    HW139818   2.247   2.972  13.041 -2.0400 -0.4358 -0.9296
 9395SOL    HW239819   2.220   2.907  13.173  1.2583 -1.7467 -2.0169
 9396SOL     OW39820   0.357   4.407   4.544  0.0251 -0.0897 -0.5540
 9396SOL    HW139821   0.449   4.384   4.529  0.0192 -0.5219  0.0407
 9396SOL    HW239822   0.345   4.408   4.639  1.8096 -0.0999 -0.3160
 9397SOL     OW39823   4.328   0.398   7.854  0.3579 -0.2139 -0.0630
 9397SOL    HW139824   4.286   0.450   7.923  0.0379  1.3439 -1.4262
 9397SOL    HW239825   4.388   0.344   7.906 -1.8781 -0.7904  1.9438
 9398SOL     OW39826   2.535   1.295   1.731 -0.1128 -0.2501  0.1726
 9398SOL    HW139827   2.444   1.300   1.703 -0.1904 -0.2545  0.4192
 9398SOL    HW239828   2.582   1.338   1.660 -0.8090 -0.5318 -0.4479
 9399SOL     OW39829   0.516   4.509   0.004  0.2995 -0.6802  0.0758
 9399SOL    HW139830   0.434   4.521  17.710  0.7705  1.0820 -0.2959
 9399SOL    HW239831   0.513   4.437   0.067  1.4398  1.4791  2.6498
 9400SOL     OW39832   3.756   4.368  14.508 -0.3605  0.5043 -0.0474
 9400SOL    HW139833   3.783   4.279  14.532  0.8146  1.1432  1.0204
 9400SOL    HW239834   3.662   4.384  14.506 -0.5721 -0.8045 -0.4166
 9401SOL     OW39835   1.006   0.518   4.493  0.3401 -0.2433 -0.0620
 9401SOL    HW139836   0.992   0.430   4.529  0.8994  0.1824  1.1992
 9401SOL    HW239837   0.975   0.514   4.403  0.5765  2.0193 -0.2379
 9402SOL     OW39838   0.725   2.435   5.828 -0.1504  0.1229 -0.0415
 9402SOL    HW139839   0.759   2.521   5.800  0.2800  0.2034  0.7131
 9402SOL    HW239840   0.803   2.401   5.874  0.1953  1.8953  0.6951
 9403SOL     OW39841   0.139   3.945   1.948 -0.6732  0.7870 -0.4435
 9403SOL    HW139842   0.139   3.981   1.859  2.0280 -0.0215 -0.7865
 9403SOL    HW239843   0.063   3.888   1.946 -0.1795  0.0844  0.9642
 9404SOL     OW39844   3.380   0.916   5.129 -0.0335 -0.4902  0.5485
 9404SOL    HW139845   3.393   0.840   5.185  0.8801 -0.2831  0.6194
 9404SOL    HW239846   3.394   0.980   5.199  1.1891 -1.3979  1.1454
 9405SOL     OW39847   3.910   0.491   0.706 -0.3475 -0.3993  0.4000
 9405SOL    HW139848   3.908   0.461   0.615  0.8002 -1.8714  0.8481
 9405SOL    HW239849   3.846   0.562   0.708  0.5282  0.4616 -2.2650
 9406SOL     OW39850   0.142   4.353   6.181 -0.1637 -0.0873 -0.5368
 9406SOL    HW139851   0.176   4.291   6.117  1.2345 -0.5505  0.6898
 9406SOL    HW239852   0.073   4.397   6.130 -0.4829 -0.3294 -0.3165
 9407SOL     OW39853   2.185   4.634   6.953 -0.3007 -0.1597  0.1398
 9407SOL    HW139854   2.218   4.686   6.880 -0.7634 -0.6748 -0.4310
 9407SOL    HW239855   2.265   4.619   7.004  0.7115 -2.4764 -2.1733
 9408SOL     OW39856   4.080   1.019   6.443 -0.0847  0.3313  0.4838
 9408SOL    HW139857   4.130   1.095   6.416 -0.9335  1.0022  0.7781
 9408SOL    HW239858   4.086   1.020   6.538 -0.4502  0.1014  0.5107
 9409SOL     OW39859   4.396   1.926   0.733  0.0079  0.0316 -0.3457
 9409SOL    HW139860   4.308   1.917   0.697  0.6196  0.3697 -1.9049
 9409SOL    HW239861   4.412   1.836   0.761 -3.3670 -0.4786  0.0094
 9410SOL     OW39862   0.633   3.832  11.693  0.4306  0.1630  0.6003
 9410SOL    HW139863   0.723   3.865  11.688  1.1348 -1.4776  2.3293
 9410SOL    HW239864   0.638   3.785  11.777  0.0709  0.2246  0.6564
 9411SOL     OW39865   2.403   2.921  10.183 -0.0612  0.2591  0.3296
 9411SOL    HW139866   2.431   2.831  10.166 -1.5470  0.0245 -0.9413
 9411SOL    HW239867   2.477   2.957  10.230 -0.5876  0.4763  0.9910
 9412SOL     OW39868   3.823   2.658  10.547 -0.4333  0.0314 -0.0287
 9412SOL    HW139869   3.860   2.722  10.609  3.1335 -1.4551 -0.6381
 9412SOL    HW239870   3.799   2.592  10.612 -0.0370  0.1221  0.2086
 9413SOL     OW39871   0.861   3.957   3.521 -0.1374 -0.7472  0.0290
 9413SOL    HW139872   0.891   3.927   3.435 -1.2284  3.4621 -1.8483
 9413SOL    HW239873   0.768   3.945   3.503 -0.8780  2.3934  1.6149
 9414SOL     OW39874   4.028   2.109   4.763  0.6933 -0.0864  0.3569
 9414SOL    HW139875   3.939   2.141   4.751 -0.0808 -0.8914  3.9942
 9414SOL    HW239876   4.010   2.091   4.855 -1.1446  2.5667  0.5320
 9415SOL     OW39877   0.005   3.093  14.627 -0.0423  0.4813 -0.8763
 9415SOL    HW139878   4.728   3.180  14.662 -0.9355 -0.5169  1.1641
 9415SOL    HW239879   4.668   3.077  14.571 -0.1325  1.1641 -0.9420
 9416SOL     OW39880   0.008   0.629   2.692 -0.0994 -0.6574 -0.0344
 9416SOL    HW139881   4.737   0.658   2.783  1.7806 -0.5852  0.1469
 9416SOL    HW239882   4.656   0.627   2.661  0.0304 -0.6718 -0.4163
 9417SOL     OW39883   0.417   0.349  10.082 -0.0635  0.2216  0.1734
 9417SOL    HW139884   0.342   0.324  10.027  0.7954 -0.2866 -0.7710
 9417SOL    HW239885   0.436   0.437  10.049 -1.0601  0.0848 -0.7699
 9418SOL     OW39886   3.509   1.574   6.215  0.4299 -0.5687  0.1022
 9418SOL    HW139887   3.505   1.589   6.120 -1.9963 -0.8246  0.1737
 9418SOL    HW239888   3.602   1.555   6.225  1.0764  2.5068 -0.0327
 9419SOL     OW39889   0.520   2.984   2.393 -0.0489 -0.2022 -0.3057
 9419SOL    HW139890   0.606   2.946   2.414  0.6288  1.0820 -0.7752
 9419SOL    HW239891   0.521   3.035   2.313  0.9619  0.5516  0.1949
 9420SOL     OW39892   4.622   4.739   8.847  0.6484 -0.0719 -0.4122
 9420SOL    HW139893   4.585   0.035   8.928 -0.8899 -0.2878 -1.0239
 9420SOL    HW239894   4.646   4.651   8.875 -0.2560 -0.2639 -0.2485
 9421SOL     OW39895   0.067   2.908  12.019 -0.6149  0.4004 -0.1452
 9421SOL    HW139896   0.039   2.927  12.109  1.3476  2.8634 -0.0810
 9421SOL    HW239897   0.155   2.873  12.036 -0.2472  1.3499 -0.1093
 9422SOL     OW39898   0.416   0.973   8.104  0.8119 -0.4466  0.7875
 9422SOL    HW139899   0.385   0.944   8.018 -1.0752 -1.6219  1.8465
 9422SOL    HW239900   0.485   0.908   8.117  0.0232 -0.7602  3.4466
 9423SOL     OW39901   3.466   4.290   2.737  0.5342  0.6091 -0.1930
 9423SOL    HW139902   3.544   4.238   2.759 -1.5008 -2.3936 -0.0355
 9423SOL    HW239903   3.485   4.299   2.644 -0.0579  1.0218 -0.2756
 9424SOL     OW39904   3.229   4.175  16.306 -0.6379  0.9074 -0.1945
 9424SOL    HW139905   3.228   4.112  16.234  0.0263 -1.1262  1.5881
 9424SOL    HW239906   3.166   4.240  16.274 -2.4125  0.1557  1.7724
 9425SOL     OW39907   0.770   0.850   9.432 -0.2579  0.0937  0.2010
 9425SOL    HW139908   0.738   0.763   9.408  0.3616  1.0770 -4.2191
 9425SOL    HW239909   0.857   0.822   9.459  1.0347  1.4475 -2.5001
 9426SOL     OW39910   2.122   2.845   7.487  0.3617  0.1447  0.8050
 9426SOL    HW139911   2.195   2.833   7.548  0.2584  3.3699  1.5877
 9426SOL    HW239912   2.045   2.817   7.537  0.2534  0.8325  1.0310
 9427SOL     OW39913   2.040   3.170  10.677 -0.1229 -0.1204  0.1618
 9427SOL    HW139914   1.990   3.109  10.731 -1.9950 -0.2107 -1.6764
 9427SOL    HW239915   1.996   3.183  10.593  1.4321 -1.6315 -0.8884
 9428SOL     OW39916   1.870   2.545   1.337 -0.4057 -0.6595 -0.1163
 9428SOL    HW139917   1.798   2.483   1.347 -1.4116  0.1799 -2.2560
 9428SOL    HW239918   1.908   2.525   1.252  0.2154  0.7280 -0.1694
 9429SOL     OW39919   3.537   2.823   8.953  0.1719 -0.1046  0.4671
 9429SOL    HW139920   3.606   2.836   8.888  0.7240 -3.5698  0.3395
 9429SOL    HW239921   3.537   2.911   8.990 -1.4982 -0.3514  1.0299
 9430SOL     OW39922   3.048   1.547  13.204 -0.0841  0.2759  0.6682
 9430SOL    HW139923   3.018   1.460  13.179 -0.1834  0.2754  0.7870
 9430SOL    HW239924   3.043   1.552  13.300 -1.2029  1.7748  0.5368
 9431SOL     OW39925   4.450   0.267   3.475 -0.2901  0.3878 -0.4971
 9431SOL    HW139926   4.402   0.329   3.529 -0.4337  0.0345 -0.2186
 9431SOL    HW239927   4.521   0.324   3.446 -1.5184  2.5376  0.7709
 9432SOL     OW39928   2.210   2.478   4.852  0.6287  0.4367  0.2177
 9432SOL    HW139929   2.142   2.463   4.917  0.1498 -0.9849 -0.6073
 9432SOL    HW239930   2.159   2.455   4.774 -0.7885  1.4100  0.8611
 9433SOL     OW39931   3.231   2.261   6.202 -0.2862  0.1599  0.0297
 9433SOL    HW139932   3.149   2.213   6.212 -0.8340  1.2700  0.7645
 9433SOL    HW239933   3.286   2.182   6.208 -0.1643  0.2178 -0.3234
 9434SOL     OW39934   3.755   4.586   2.319 -0.1493 -0.3145  0.1601
 9434SOL    HW139935   3.786   4.640   2.246  2.3823  0.3130  1.6950
 9434SOL    HW239936   3.661   4.600   2.313  0.0305  1.5506  1.7465
 9435SOL     OW39937   2.755   3.199   4.583 -0.2946 -0.4865 -0.7015
 9435SOL    HW139938   2.839   3.169   4.550  0.3810 -0.0043  0.5911
 9435SOL    HW239939   2.683   3.144   4.553 -1.5581  0.7306  0.0563
 9436SOL     OW39940   2.893   0.666   4.592  0.5105 -0.3994 -0.0075
 9436SOL    HW139941   2.959   0.723   4.553  0.1588 -0.6996 -1.0284
 9436SOL    HW239942   2.947   0.625   4.660  2.0488  0.5930 -0.6242
 9437SOL     OW39943   2.390   3.452   6.430 -0.4926 -0.3392  0.7458
 9437SOL    HW139944   2.368   3.514   6.361  0.3822 -1.0050 -0.1295
 9437SOL    HW239945   2.388   3.507   6.509  2.4055  3.2233 -1.6436
 9438SOL     OW39946   4.076   0.975   3.199  0.3177  0.1764  0.5941
 9438SOL    HW139947   4.128   0.919   3.142  1.2247  0.6501  0.9576
 9438SOL    HW239948   4.006   0.999   3.138  1.2414  0.4989 -0.3553
 9439SOL     OW39949   1.067   2.499   2.110 -0.0336 -0.4054  0.0058
 9439SOL    HW139950   1.104   2.414   2.135  1.0362 -0.1749 -0.7950
 9439SOL    HW239951   1.131   2.541   2.052  1.4508  0.8121  2.5009
 9440SOL     OW39952   1.243   3.201   3.481 -0.2282  0.6930  0.1602
 9440SOL    HW139953   1.226   3.235   3.569  1.4569  0.0791  0.7141
 9440SOL    HW239954   1.163   3.151   3.466  1.0258 -2.1623  3.3125
 9441SOL     OW39955   0.575   4.599  12.861 -0.1540 -0.0655  0.0902
 9441SOL    HW139956   0.490   4.574  12.822 -0.3568 -2.1616  1.8896
 9441SOL    HW239957   0.545   4.644  12.939 -2.7547 -0.6616 -0.5505
 9442SOL     OW39958   0.409   0.427   1.371  0.2810  0.0610 -0.1956
 9442SOL    HW139959   0.454   0.501   1.411 -1.1654  0.7744  0.1068
 9442SOL    HW239960   0.377   0.379   1.448 -0.7711 -1.5519 -1.6497
 9443SOL     OW39961   2.203   1.403   5.453 -0.0957 -0.4868 -0.2813
 9443SOL    HW139962   2.259   1.337   5.495 -1.6485 -1.0666  0.9028
 9443SOL    HW239963   2.267   1.471   5.434  1.6369 -1.9189  0.3896
 9444SOL     OW39964   2.639   2.940   5.284  0.0361  0.8097  0.0190
 9444SOL    HW139965   2.694   2.875   5.329 -0.2972  0.6332  0.1724
 9444SOL    HW239966   2.704   3.008   5.267 -0.6392  1.8211  1.4823
 9445SOL     OW39967   3.002   0.030   5.500 -0.1474 -0.4554 -0.1945
 9445SOL    HW139968   2.977   0.101   5.441  0.0034  0.2068  0.5441
 9445SOL    HW239969   2.935   0.035   5.569 -0.4356 -1.5770 -0.3921
 9446SOL     OW39970   1.516   3.180  11.580  0.1585 -0.1567  0.0594
 9446SOL    HW139971   1.477   3.095  11.601 -1.6098  0.0951 -2.2863
 9446SOL    HW239972   1.577   3.151  11.512  0.6938  0.7905  0.1215
 9447SOL     OW39973   4.047   3.725   9.286  0.2721 -0.1260 -0.3709
 9447SOL    HW139974   4.062   3.702   9.194  1.4418  1.9628 -0.7071
 9447SOL    HW239975   4.057   3.648   9.341  0.9911 -0.7072 -1.3169
 9448SOL     OW39976   2.509   4.306  10.082 -0.1337  0.4328 -0.4275
 9448SOL    HW139977   2.583   4.286  10.026 -0.9993 -0.3957 -1.2890
 9448SOL    HW239978   2.457   4.225  10.087  1.7134 -0.8112 -1.5605
 9449SOL     OW39979   4.125   3.916  17.444  0.1469  0.7567  0.3435
 9449SOL    HW139980   4.110   3.904  17.350  1.5041 -1.6459  0.4417
 9449SOL    HW239981   4.207   3.867  17.449 -0.4512 -0.2910 -0.2944
 9450SOL     OW39982   0.527   4.037   1.995 -0.0746  0.5372 -0.1915
 9450SOL    HW139983   0.433   4.054   1.997 -0.1990 -0.1372 -0.5253
 9450SOL    HW239984   0.549   4.067   1.907  2.1793  1.3439  0.6378
 9451SOL     OW39985   4.014   4.552  16.002  0.7907  0.1863 -0.0294
 9451SOL    HW139986   4.064   4.626  16.036  1.7967 -0.3921 -0.2368
 9451SOL    HW239987   4.089   4.520  15.951  0.0668  0.2461 -1.1453
 9452SOL     OW39988   0.090   3.140   4.214  0.5039 -0.0446  0.1463
 9452SOL    HW139989   0.011   3.168   4.260  0.8180  1.6557 -0.3341
 9452SOL    HW239990   0.149   3.128   4.288  1.8502  1.0398 -0.7457
 9453SOL     OW39991   4.252   3.774  11.894  0.7284 -0.1909 -0.1723
 9453SOL    HW139992   4.314   3.815  11.835  1.5903 -1.2574 -0.0040
 9453SOL    HW239993   4.305   3.760  11.972 -1.4597 -0.5196  1.2698
 9454SOL     OW39994   2.654   2.307   1.933  0.1788 -0.0445 -0.7560
 9454SOL    HW139995   2.623   2.231   1.983  1.1035  1.0778  1.5272
 9454SOL    HW239996   2.573   2.356   1.935 -0.5611 -1.2496 -1.0312
 9455SOL     OW39997   1.024   3.584   3.546 -0.1675 -0.1264 -1.1259
 9455SOL    HW139998   1.075   3.665   3.538 -2.9366  1.3564 -3.8645
 9455SOL    HW239999   1.039   3.561   3.637  2.0466  0.9631 -1.2092
 9456SOL     OW40000   0.245   4.647  17.639 -0.4259  0.1194  0.0750
 9456SOL    HW140001   0.152   4.645  17.615 -0.4336 -0.3373  0.1368
 9456SOL    HW240002   0.276   4.582  17.576  0.4711  0.1361  0.5124
 9457SOL     OW40003   4.553   0.906   5.161  0.1846  0.2980 -0.2522
 9457SOL    HW140004   4.596   0.822   5.141  0.1586  0.3778 -0.6411
 9457SOL    HW240005   4.535   0.926   5.069 -0.2319  1.2846  0.0517
 9458SOL     OW40006   4.737   0.510   7.986  0.1477 -0.4584  0.5885
 9458SOL    HW140007   0.003   0.582   7.923  0.8589 -1.5569 -0.6171
 9458SOL    HW240008   4.697   0.561   8.056 -0.1724 -0.6033  0.5130
 9459SOL     OW40009   2.714   4.727   6.755  0.3249 -0.2828 -0.3545
 9459SOL    HW140010   2.780   4.657   6.757  0.3178 -0.2493  0.9108
 9459SOL    HW240011   2.712   4.732   6.659 -2.1699  1.0095 -0.2268
 9460SOL     OW40012   3.681   3.051   2.792  0.0107  0.0253 -0.0787
 9460SOL    HW140013   3.736   3.023   2.719 -0.1915 -1.5903  0.3878
 9460SOL    HW240014   3.624   2.975   2.806 -1.7657  1.0299 -1.7814
 9461SOL     OW40015   2.052   2.206   1.590  0.1444  0.1955 -0.1744
 9461SOL    HW140016   2.065   2.113   1.608 -2.0224 -0.7406 -3.4797
 9461SOL    HW240017   2.111   2.252   1.650  1.2445 -2.0865  0.5124
 9462SOL     OW40018   0.714   1.506   3.297 -0.2168 -0.3147  0.3556
 9462SOL    HW140019   0.756   1.423   3.316  0.7536  0.0311 -0.3047
 9462SOL    HW240020   0.790   1.564   3.292 -0.0034 -0.5562  0.7671
 9463SOL     OW40021   0.774   2.904  17.298 -0.3925 -0.0784 -0.4761
 9463SOL    HW140022   0.828   2.981  17.318  0.9179 -0.7920 -1.3156
 9463SOL    HW240023   0.755   2.925  17.206  1.8098 -0.6696 -1.0536
 9464SOL     OW40024   0.046   3.358  13.531  0.1555  0.0084 -0.5730
 9464SOL    HW140025   4.735   3.427  13.487  0.0809 -0.3482 -1.0390
 9464SOL    HW240026   0.133   3.368  13.494 -0.3114 -1.6486 -2.1237
 9465SOL     OW40027   1.552   0.502   8.259 -0.3313  0.5287 -0.0397
 9465SOL    HW140028   1.568   0.495   8.353  1.2339 -0.3658 -0.3781
 9465SOL    HW240029   1.521   0.414   8.237 -1.7336  0.9486  0.2435
 9466SOL     OW40030   3.360   0.678   2.388  0.3138  0.2010  0.5606
 9466SOL    HW140031   3.357   0.678   2.292 -1.5150 -2.0238  0.6458
 9466SOL    HW240032   3.316   0.595   2.399  1.2811 -0.3586  0.2596
 9467SOL     OW40033   1.098   3.904   6.740 -0.8158 -0.9922  0.0869
 9467SOL    HW140034   1.184   3.873   6.769 -0.7843  0.2198  1.3020
 9467SOL    HW240035   1.078   3.833   6.679  0.0502 -0.3691 -0.9363
 9468SOL     OW40036   0.080   3.710  16.139  0.4718 -0.0194  0.0817
 9468SOL    HW140037   0.170   3.687  16.162  0.4774  0.3785  0.4744
 9468SOL    HW240038   0.055   3.634  16.088  2.6429 -0.6533 -0.0191
 9469SOL     OW40039   3.248   3.785  16.519  0.0819  0.6001  0.0483
 9469SOL    HW140040   3.157   3.766  16.497  0.2116  0.7382 -0.6371
 9469SOL    HW240041   3.270   3.867  16.474 -1.1744  0.3877 -0.9675
 9470SOL     OW40042   1.220   0.564   1.669 -0.2187  0.5634  0.2519
 9470SOL    HW140043   1.284   0.619   1.715  0.8757  0.2011 -0.8696
 9470SOL    HW240044   1.161   0.524   1.733 -0.4808 -0.6867 -0.7912
 9471SOL     OW40045   1.715   2.158   9.105 -0.4453  0.3678 -0.1776
 9471SOL    HW140046   1.769   2.131   9.031  1.0605 -0.3568  1.1633
 9471SOL    HW240047   1.777   2.226   9.135  0.3713 -0.7935  0.7815
 9472SOL     OW40048   2.829   4.325   1.949 -0.5741  0.4661 -0.7024
 9472SOL    HW140049   2.924   4.314   1.947 -0.2336  3.2413 -0.7196
 9472SOL    HW240050   2.828   4.414   1.986  1.5648  0.8744 -1.6151
 9473SOL     OW40051   0.447   0.779  11.747  0.0732  0.2446 -0.0744
 9473SOL    HW140052   0.420   0.696  11.788  1.3545 -0.3988 -0.5336
 9473SOL    HW240053   0.397   0.771  11.666 -0.6780 -2.1078  0.6298
 9474SOL     OW40054   0.406   0.887   4.182 -0.1913  0.1463  0.8818
 9474SOL    HW140055   0.470   0.817   4.199  0.0980  0.2484  0.2237
 9474SOL    HW240056   0.351   0.848   4.114  0.8086  1.0804 -0.4629
 9475SOL     OW40057   1.117   4.178   4.683 -0.1752  0.0547  0.3841
 9475SOL    HW140058   1.026   4.205   4.695 -0.2221  0.6064 -1.1925
 9475SOL    HW240059   1.104   4.097   4.731  0.2889 -0.6759 -0.7247
 9476SOL     OW40060   3.195   1.390   9.278  0.1768 -0.5993 -0.1695
 9476SOL    HW140061   3.202   1.469   9.223 -0.0597 -1.6609 -1.7310
 9476SOL    HW240062   3.140   1.428   9.346  1.1333  3.3404 -1.5906
 9477SOL     OW40063   0.527   1.084   1.308 -0.4448  0.1824 -0.4445
 9477SOL    HW140064   0.494   1.172   1.327 -0.2180  0.1587  0.0623
 9477SOL    HW240065   0.524   1.055   1.399  2.4716  1.8831  0.1882
 9478SOL     OW40066   2.418   3.667   7.357  0.2583  0.2792 -0.0490
 9478SOL    HW140067   2.361   3.708   7.421 -0.1193  0.5701 -0.5782
 9478SOL    HW240068   2.366   3.695   7.283 -0.6478 -2.4534 -0.4577
 9479SOL     OW40069   3.798   0.800   9.382 -0.2173  0.5589  0.3891
 9479SOL    HW140070   3.788   0.876   9.439 -2.6620 -0.0717  0.7999
 9479SOL    HW240071   3.704   0.791   9.365 -0.1564  0.0561  0.3078
 9480SOL     OW40072   0.439   0.574   2.086 -0.0935 -0.1146  0.6680
 9480SOL    HW140073   0.501   0.523   2.138  0.0532 -0.5862  0.0327
 9480SOL    HW240074   0.480   0.582   2.000  0.2165 -1.9324  0.6497
 9481SOL     OW40075   3.526   2.539   1.131  0.4540  0.0732  0.1872
 9481SOL    HW140076   3.612   2.555   1.092 -0.0373 -1.3877 -1.5161
 9481SOL    HW240077   3.565   2.502   1.211 -1.4550 -0.3322  0.9305
 9482SOL     OW40078   0.693   3.991   6.169 -0.2755 -0.3292 -0.4061
 9482SOL    HW140079   0.650   4.075   6.153  0.9286 -0.1166 -2.4752
 9482SOL    HW240080   0.756   3.974   6.099 -2.2085 -0.5090 -2.1215
 9483SOL     OW40081   1.870   4.047   8.079  0.1245 -0.3655 -0.4210
 9483SOL    HW140082   1.953   4.094   8.082  0.1983 -0.4527 -0.9930
 9483SOL    HW240083   1.891   3.954   8.071  2.6278  0.1232  0.6758
 9484SOL     OW40084   0.936   2.714   2.755 -0.5594  0.1252 -0.0331
 9484SOL    HW140085   0.932   2.623   2.785  0.9846  1.0430  2.9957
 9484SOL    HW240086   0.850   2.742   2.785 -1.2378 -1.2890 -0.6378
 9485SOL     OW40087   1.173   4.091   6.158  0.6690  0.3434  0.2714
 9485SOL    HW140088   1.204   4.028   6.223 -0.9682 -0.3719  0.3462
 9485SOL    HW240089   1.169   4.168   6.216  1.0388  0.1326  0.5773
 9486SOL     OW40090   1.418   1.531   2.455 -0.0546  0.2590  0.3620
 9486SOL    HW140091   1.386   1.441   2.457 -3.4428  1.4483  0.1371
 9486SOL    HW240092   1.332   1.573   2.464  0.7269  1.8505  0.4039
 9487SOL     OW40093   4.341   0.457  14.460 -0.7602  0.3493 -0.4776
 9487SOL    HW140094   4.355   0.510  14.381  0.2955 -0.6600 -0.9659
 9487SOL    HW240095   4.412   0.393  14.451 -0.1113  1.2336 -1.7495
 9488SOL     OW40096   3.017   1.439   6.024  0.4836  0.1423  0.0794
 9488SOL    HW140097   3.102   1.429   5.981  1.0463 -1.3320  1.5422
 9488SOL    HW240098   3.000   1.350   6.052  2.2860 -0.5939 -1.1624
 9489SOL     OW40099   0.806   1.576  11.983 -0.3404 -0.4824 -0.1521
 9489SOL    HW140100   0.823   1.659  11.938  1.2477 -0.1199  1.1284
 9489SOL    HW240101   0.849   1.596  12.066  0.4360  0.7724 -0.8558
 9490SOL     OW40102   1.287   3.866   5.152 -0.2034 -0.3975 -0.2660
 9490SOL    HW140103   1.217   3.924   5.182 -0.2525 -0.5297 -0.1225
 9490SOL    HW240104   1.269   3.781   5.193  1.8957  0.1977  1.8244
 9491SOL     OW40105   4.693   1.409   7.511 -0.3589  0.0684 -0.2813
 9491SOL    HW140106   0.023   1.475   7.511 -2.6193  2.4544 -0.5613
 9491SOL    HW240107   4.730   1.340   7.565  0.5960  2.1927  1.7792
 9492SOL     OW40108   4.252   4.328   3.153 -0.5308 -0.1535  0.1491
 9492SOL    HW140109   4.345   4.337   3.175 -0.4354 -0.3542 -0.1724
 9492SOL    HW240110   4.214   4.375   3.227 -1.6668 -2.6075  1.1345
 9493SOL     OW40111   0.335   2.097   7.580 -0.0657 -0.6365  0.2993
 9493SOL    HW140112   0.358   2.062   7.666 -0.9835 -0.7363  0.5044
 9493SOL    HW240113   0.300   2.184   7.600  0.1824 -0.3613 -0.4715
 9494SOL     OW40114   3.470   4.238   6.837  0.3116  0.0763  0.1572
 9494SOL    HW140115   3.509   4.238   6.750  0.3660 -1.5079  0.1853
 9494SOL    HW240116   3.431   4.151   6.849  0.9113 -0.1943  0.1661
 9495SOL     OW40117   3.819   3.209   7.157  0.2087 -0.3154 -0.1445
 9495SOL    HW140118   3.897   3.154   7.151  1.6568  1.6145  1.1934
 9495SOL    HW240119   3.848   3.272   7.091 -1.0707  0.7965  0.3398
 9496SOL     OW40120   1.189   1.540   2.194  0.3301  0.0719 -0.2835
 9496SOL    HW140121   1.158   1.620   2.154 -0.8395 -0.5495 -0.6146
 9496SOL    HW240122   1.175   1.556   2.287  1.9417 -1.3067  0.2119
 9497SOL     OW40123   2.611   2.906   6.203 -0.6765 -0.2726  0.7273
 9497SOL    HW140124   2.683   2.905   6.266  0.6349 -0.8609 -0.7657
 9497SOL    HW240125   2.563   2.827   6.230  1.4808 -2.3901 -1.5978
 9498SOL     OW40126   3.604   2.777   7.313  0.2705  0.3301  0.0877
 9498SOL    HW140127   3.649   2.800   7.394 -1.1080  1.3040  0.5902
 9498SOL    HW240128   3.616   2.858   7.263 -0.1593 -0.4526 -1.2830
 9499SOL     OW40129   4.156   0.498   3.761  0.8217 -0.3996 -0.2907
 9499SOL    HW140130   4.169   0.566   3.695 -0.0940 -0.6279 -0.7004
 9499SOL    HW240131   4.064   0.504   3.785  1.1536  2.4557  0.2563
 9500SOL     OW40132   0.066   4.260  14.212 -0.5418 -0.1295 -0.2530
 9500SOL    HW140133   0.053   4.234  14.121  0.1998 -1.2686 -0.0381
 9500SOL    HW240134   0.161   4.272  14.215 -0.3946 -1.5333  1.1706
 9501SOL     OW40135   2.932   1.357   5.274  0.4468 -0.7312  0.0605
 9501SOL    HW140136   2.963   1.270   5.248  0.0780 -0.7846 -0.2093
 9501SOL    HW240137   2.964   1.405   5.198 -1.4549  0.1094 -0.2101
 9502SOL     OW40138   0.646   1.905   3.833  0.0268  0.1429  0.2209
 9502SOL    HW140139   0.588   1.869   3.766  0.8609  1.3278 -1.1374
 9502SOL    HW240140   0.601   1.873   3.912  0.5660  2.4106  1.4576
 9503SOL     OW40141   3.625   2.559   3.073 -0.3411  0.2769 -0.5810
 9503SOL    HW140142   3.541   2.583   3.112 -0.4938 -1.2093 -0.0013
 9503SOL    HW240143   3.596   2.503   3.000  1.1102  0.3656 -1.2267
 9504SOL     OW40144   0.408   2.381   3.850 -0.5550 -0.0259  0.2065
 9504SOL    HW140145   0.458   2.448   3.898 -0.4469 -0.1732  0.3026
 9504SOL    HW240146   0.342   2.372   3.919  1.8577 -1.4777  2.3508
 9505SOL     OW40147   2.405   0.807   6.811  0.0463 -0.7195 -0.1967
 9505SOL    HW140148   2.426   0.772   6.725 -0.8738 -2.8885  0.4694
 9505SOL    HW240149   2.379   0.728   6.858  0.2137  0.1282  1.3337
 9506SOL     OW40150   4.350   1.064   7.947 -0.6046 -0.0467  0.3602
 9506SOL    HW140151   4.278   1.111   7.904 -1.1395 -0.2179  1.0708
 9506SOL    HW240152   4.344   0.986   7.891 -2.2387  0.4415 -0.1391
 9507SOL     OW40153   2.285   0.781   3.963 -0.3094  0.3754  0.0169
 9507SOL    HW140154   2.209   0.747   3.917  1.5838 -0.5439 -2.4433
 9507SOL    HW240155   2.340   0.813   3.891  2.7596 -1.6958  1.4745
 9508SOL     OW40156   2.213   0.287   3.420 -0.5639 -0.4893 -0.8283
 9508SOL    HW140157   2.200   0.370   3.374  0.6140  0.4210  0.5137
 9508SOL    HW240158   2.297   0.260   3.382 -2.3794 -2.5827 -3.4642
 9509SOL     OW40159   2.507   2.226   2.622  0.4354  0.3486 -0.2057
 9509SOL    HW140160   2.527   2.257   2.534 -0.4166  1.8731  0.1485
 9509SOL    HW240161   2.578   2.277   2.662  1.2604 -0.0018 -1.2379
 9510SOL     OW40162   3.544   0.062   8.541 -0.1807  0.1959  0.3728
 9510SOL    HW140163   3.591   0.120   8.481 -2.4698 -0.7632 -2.3651
 9510SOL    HW240164   3.575   4.712   8.526  2.2759  0.7051  2.3511
 9511SOL     OW40165   0.698   2.238  16.715 -0.3883  0.6793 -0.1584
 9511SOL    HW140166   0.605   2.225  16.733 -0.2641  1.8606  1.3112
 9511SOL    HW240167   0.687   2.289  16.634  2.2909 -0.2687 -1.1294
 9512SOL     OW40168   4.626   2.225   0.440 -0.2923  0.1886 -0.0883
 9512SOL    HW140169   4.573   2.231   0.519 -0.1764  1.2142 -0.0810
 9512SOL    HW240170   4.715   2.239   0.473 -0.6184  0.8811  0.5028
 9513SOL     OW40171   3.151   2.161  15.355  0.1260 -0.6487  0.2421
 9513SOL    HW140172   3.078   2.102  15.337  0.2430 -0.8789  0.5242
 9513SOL    HW240173   3.110   2.222  15.416 -0.9966 -1.6922  0.5149
 9514SOL     OW40174   1.278   1.589   7.237  0.4484 -0.2044  0.0104
 9514SOL    HW140175   1.281   1.660   7.302  0.6928  0.8362 -1.1511
 9514SOL    HW240176   1.256   1.647   7.165  0.4292 -0.7432 -0.4136
 9515SOL     OW40177   0.481   1.712   3.524  0.1542  0.0321  0.1215
 9515SOL    HW140178   0.556   1.716   3.466 -0.1857 -0.3698 -0.3473
 9515SOL    HW240179   0.450   1.802   3.519  0.9634  0.3644  1.2281
 9516SOL     OW40180   3.017   1.733   6.595 -0.6640 -0.1998 -0.2644
 9516SOL    HW140181   2.983   1.805   6.650  1.9344  1.0150 -0.2473
 9516SOL    HW240182   3.008   1.658   6.654  1.6359  0.4720  0.9274
 9517SOL     OW40183   1.002   1.647   6.443  0.2856  0.1593 -0.6039
 9517SOL    HW140184   1.027   1.554   6.445  1.6737  0.5345 -0.4179
 9517SOL    HW240185   1.001   1.661   6.349  3.5126 -0.8949 -0.7898
 9518SOL     OW40186   0.450   2.327  15.991  0.6803  0.5216  0.4177
 9518SOL    HW140187   0.383   2.392  15.967 -1.0372 -1.7113 -0.8735
 9518SOL    HW240188   0.397   2.248  15.986 -0.2808  1.2149 -0.6434
 9519SOL     OW40189   0.039   1.796  14.885 -0.2271  0.3075 -0.4360
 9519SOL    HW140190   4.685   1.774  14.890 -0.1613 -0.0836 -0.8674
 9519SOL    HW240191   0.056   1.818  14.793 -2.0579 -2.0522 -1.3410
 9520SOL     OW40192   1.898   0.369   3.005 -0.1691 -0.9598 -0.3620
 9520SOL    HW140193   1.814   0.339   3.040 -0.7544  2.2190  0.9671
 9520SOL    HW240194   1.859   0.444   2.960  3.7767 -0.0289 -2.2958
 9521SOL     OW40195   1.252   1.025   0.460  0.4453  0.6574  0.1723
 9521SOL    HW140196   1.168   1.013   0.414  0.2236 -2.0483  1.3124
 9521SOL    HW240197   1.311   1.020   0.384  2.1364  2.7515  1.3608
 9522SOL     OW40198   0.158   0.019   6.182 -0.2236  0.4203 -0.2892
 9522SOL    HW140199   0.229   0.017   6.247 -0.4079  0.3972 -0.0907
 9522SOL    HW240200   0.206   0.063   6.111  0.8019  0.0612  0.1736
 9523SOL     OW40201   0.695   1.310  14.441  0.0338 -0.2209  0.6147
 9523SOL    HW140202   0.675   1.226  14.482  1.3110  0.2326  2.1752
 9523SOL    HW240203   0.785   1.322  14.470 -0.7350 -0.9234  3.2113
 9524SOL     OW40204   2.345   1.042   6.925  0.3569  0.7811  0.4559
 9524SOL    HW140205   2.251   1.044   6.912  0.3598 -2.0139  0.0082
 9524SOL    HW240206   2.361   0.952   6.895  0.5909  0.5334  1.2986
 9525SOL     OW40207   2.945   0.872   8.763 -0.3272 -0.5290 -0.3909
 9525SOL    HW140208   2.859   0.904   8.789 -0.7800 -0.7206 -1.6425
 9525SOL    HW240209   2.974   0.834   8.846  1.7087  0.7340 -0.5214
 9526SOL     OW40210   0.425   0.525   2.722 -0.0436 -0.1402  0.2761
 9526SOL    HW140211   0.382   0.609   2.706  0.1414  0.1037  1.0404
 9526SOL    HW240212   0.394   0.476   2.645 -0.3806  1.5396 -0.6448
 9527SOL     OW40213   4.612   2.508  11.806 -0.3695 -0.2963 -0.2957
 9527SOL    HW140214   4.675   2.560  11.757 -1.5049  1.2354 -0.1136
 9527SOL    HW240215   4.577   2.570  11.870 -0.7015  0.9892 -1.7442
 9528SOL     OW40216   2.147   2.342   5.148  0.1561 -0.2236 -0.4361
 9528SOL    HW140217   2.072   2.382   5.192  0.5857  0.3494 -0.2260
 9528SOL    HW240218   2.107   2.263   5.112  1.5823 -0.4123 -1.6113
 9529SOL     OW40219   2.711   0.309   9.123 -0.0312  0.0475 -0.9196
 9529SOL    HW140220   2.663   0.305   9.040  1.8686 -1.5213 -1.9337
 9529SOL    HW240221   2.754   0.223   9.127  2.4665  1.3667  0.3183
 9530SOL     OW40222   4.052   1.037   7.111  0.2194 -0.7139 -0.6081
 9530SOL    HW140223   4.041   0.955   7.063  2.3220 -1.2512 -0.1610
 9530SOL    HW240224   3.966   1.072   7.137  1.6833  0.9387  1.9831
 9531SOL     OW40225   1.097   4.529   3.258 -0.0765 -0.0894  1.0682
 9531SOL    HW140226   1.047   4.479   3.194  1.7146 -0.2937 -0.1655
 9531SOL    HW240227   1.165   4.464   3.277  0.9592  0.4385 -0.8225
 9532SOL     OW40228   1.288   2.226  14.098 -0.7238 -0.1754  0.2415
 9532SOL    HW140229   1.383   2.228  14.108 -0.6516  1.7758 -0.7522
 9532SOL    HW240230   1.280   2.134  14.122 -2.3561  0.1166  0.8354
 9533SOL     OW40231   4.720   2.063  13.769  0.0357  0.0093 -0.2185
 9533SOL    HW140232   0.030   2.032  13.845 -2.2621 -1.9257  0.4424
 9533SOL    HW240233   0.055   2.096  13.717 -1.2065  2.1753 -0.6071
 9534SOL     OW40234   2.717   0.459   5.812 -0.1451 -0.3225 -0.2085
 9534SOL    HW140235   2.694   0.436   5.902 -1.2452  0.8764 -0.1977
 9534SOL    HW240236   2.633   0.465   5.768 -0.1302  3.2259  0.2669
 9535SOL     OW40237   3.560   1.110   0.065 -0.0987 -0.1466  0.0489
 9535SOL    HW140238   3.642   1.087   0.021 -0.2439  2.3709 -1.5462
 9535SOL    HW240239   3.516   1.156  17.747  1.3854  3.0748  1.2038
 9536SOL     OW40240   2.967   2.658   3.944 -0.0388  0.1720  0.3278
 9536SOL    HW140241   2.969   2.611   4.027 -1.0927 -0.6590 -0.1217
 9536SOL    HW240242   2.896   2.721   3.956  0.1534  0.9236 -2.4760
 9537SOL     OW40243   3.740   3.846   5.836 -0.4424 -1.0457 -0.3501
 9537SOL    HW140244   3.795   3.769   5.824 -0.4354 -0.8000 -1.9142
 9537SOL    HW240245   3.767   3.879   5.922 -0.8230  0.2632 -0.7356
 9538SOL     OW40246   2.546   2.637   5.635  0.5468  0.0955  0.0511
 9538SOL    HW140247   2.485   2.571   5.666  0.0206  0.5739  0.0327
 9538SOL    HW240248   2.544   2.624   5.540 -0.8223  1.5595 -0.1165
 9539SOL     OW40249   0.221   0.711   2.491 -0.1895  0.1099 -0.5267
 9539SOL    HW140250   0.175   0.795   2.500  0.1852  0.3213 -0.6044
 9539SOL    HW240251   0.154   0.654   2.454 -0.0048  0.6254 -1.6394
 9540SOL     OW40252   2.005   2.562   8.618  0.4251 -0.4681  0.0593
 9540SOL    HW140253   2.038   2.545   8.530  1.0134  1.1221 -0.0269
 9540SOL    HW240254   2.058   2.638   8.642 -0.4827 -0.0709  0.8600
 9541SOL     OW40255   0.262   1.754   1.253  0.8230  0.0276  0.3702
 9541SOL    HW140256   0.313   1.743   1.172 -0.3189 -0.6011 -0.2717
 9541SOL    HW240257   0.316   1.705   1.315 -0.4162 -0.7603  0.8124
 9542SOL     OW40258   3.718   4.368   6.933 -0.1353  0.2761 -0.0282
 9542SOL    HW140259   3.644   4.308   6.928  1.3725 -1.7450  2.0011
 9542SOL    HW240260   3.682   4.427   6.998 -1.5544 -0.8212  0.1784
 9543SOL     OW40261   2.063   3.856   5.803 -0.2494 -0.0236 -0.3823
 9543SOL    HW140262   2.101   3.936   5.838  1.5291 -1.4433  0.9162
 9543SOL    HW240263   2.072   3.862   5.708  0.5889 -3.0079 -0.4885
 9544SOL     OW40264   3.295   1.174   7.188 -0.0360 -0.2408 -0.0945
 9544SOL    HW140265   3.281   1.195   7.095  0.3625  1.3657  0.2131
 9544SOL    HW240266   3.273   1.260   7.224  2.3475  0.0062  0.7577
 9545SOL     OW40267   3.231   1.550   2.849 -0.5270 -0.1360 -0.0859
 9545SOL    HW140268   3.237   1.553   2.945 -1.1050 -1.2148 -0.0146
 9545SOL    HW240269   3.187   1.634   2.841  1.0044  0.7979  1.3503
 9546SOL     OW40270   2.476   0.525   4.430  0.2615 -0.4217 -0.4942
 9546SOL    HW140271   2.560   0.498   4.465 -0.3766 -1.3871  0.2952
 9546SOL    HW240272   2.432   0.450   4.391  2.9251 -1.5640 -1.2513
 9547SOL     OW40273   0.591   2.567   2.202 -0.1430  0.4352 -0.2288
 9547SOL    HW140274   0.670   2.621   2.202 -0.2084  0.5476  3.0761
 9547SOL    HW240275   0.547   2.624   2.266  0.4100 -2.0403  2.3871
 9548SOL     OW40276   1.871   4.292   3.897 -0.4861  0.1554 -0.1501
 9548SOL    HW140277   1.783   4.277   3.864  0.1691 -0.0111 -1.8268
 9548SOL    HW240278   1.925   4.248   3.831 -1.0979 -0.7812 -0.0258
 9549SOL     OW40279   4.255   3.919   5.974 -0.2867  0.2867 -0.5471
 9549SOL    HW140280   4.270   4.013   5.975  0.6728  0.1048  1.2678
 9549SOL    HW240281   4.320   3.903   5.905  0.5062 -0.0039  0.2723
 9550SOL     OW40282   0.907   1.866   0.568 -0.2179  0.1655 -0.0259
 9550SOL    HW140283   0.821   1.828   0.550 -0.5255  1.1969 -0.7435
 9550SOL    HW240284   0.906   1.954   0.529 -0.7882  0.1750  0.0045
 9551SOL     OW40285   0.071   0.831   0.377 -0.7018 -0.7390  0.6424
 9551SOL    HW140286   0.020   0.849   0.456  0.8270 -0.1046  1.4825
 9551SOL    HW240287   0.159   0.848   0.411 -1.6354  0.7011  2.3377
 9552SOL     OW40288   0.601   2.992   7.764 -0.0971  0.0999  0.7785
 9552SOL    HW140289   0.637   2.955   7.844 -0.8137 -1.8787  0.1764
 9552SOL    HW240290   0.565   2.912   7.727  0.0013  0.8513 -0.9726
 9553SOL     OW40291   2.647   4.588   9.288 -0.5919 -0.2376 -0.3898
 9553SOL    HW140292   2.681   4.616   9.373 -0.3389  0.2822 -0.6661
 9553SOL    HW240293   2.719   4.536   9.254  0.3042  0.3847  0.5615
 9554SOL     OW40294   4.700   0.914   6.768 -0.2013  0.5544 -0.4468
 9554SOL    HW140295   4.666   0.827   6.791  2.8935 -0.1921  1.2198
 9554SOL    HW240296   0.009   0.926   6.850 -0.8275 -0.4127  0.0685
 9555SOL     OW40297   1.417   0.930   0.703 -0.0591 -0.0457  0.1494
 9555SOL    HW140298   1.471   0.932   0.782 -0.0496 -1.7903  0.1889
 9555SOL    HW240299   1.378   1.017   0.710  1.1459  0.6120 -1.3483
 9556SOL     OW40300   4.037   0.416   9.417 -0.5689 -0.7525  0.1310
 9556SOL    HW140301   4.014   0.483   9.352 -0.0998  0.0328  0.7667
 9556SOL    HW240302   3.952   0.372   9.412 -1.3958  0.8692 -0.1125
 9557SOL     OW40303   3.036   1.648  17.604  0.3261  0.2939  0.1684
 9557SOL    HW140304   2.991   1.723  17.643  0.5452  2.4842 -3.7410
 9557SOL    HW240305   3.077   1.689  17.527 -0.7249 -1.6312 -1.4312
 9558SOL     OW40306   1.401   2.414  12.398  0.7906 -0.1031 -0.2792
 9558SOL    HW140307   1.359   2.429  12.482  3.6652  1.5429  0.8557
 9558SOL    HW240308   1.355   2.334  12.374 -1.0843  0.9575 -0.1784
 9559SOL     OW40309   1.125   1.982   1.903 -0.1304  0.0455 -0.3423
 9559SOL    HW140310   1.116   2.055   1.965  2.1927 -1.0049  1.2308
 9559SOL    HW240311   1.181   2.016   1.833  1.4822  0.4054  1.1001
 9560SOL     OW40312   0.281   1.669   0.907 -0.5640  0.3702  0.0182
 9560SOL    HW140313   0.196   1.649   0.868 -0.4218  0.9717 -0.5992
 9560SOL    HW240314   0.278   1.764   0.896  0.9362  0.5421  1.0378
 9561SOL     OW40315   2.034   3.564  13.582 -0.6085 -0.1254  0.1446
 9561SOL    HW140316   2.015   3.649  13.620  1.4702 -0.1726  1.2645
 9561SOL    HW240317   1.950   3.517  13.588 -0.5053 -0.3499 -0.1801
 9562SOL     OW40318   1.760   3.512   2.808  0.3702  0.3711  0.5749
 9562SOL    HW140319   1.762   3.490   2.901  0.5327 -2.2476 -0.0414
 9562SOL    HW240320   1.675   3.475   2.783 -0.4242  3.6532 -1.5778
 9563SOL     OW40321   2.523   2.688  10.118 -0.3447  0.1593 -0.2952
 9563SOL    HW140322   2.440   2.640  10.107  0.2286 -1.2806  1.8369
 9563SOL    HW240323   2.582   2.653  10.051  0.9778  2.7142 -0.4224
 9564SOL     OW40324   1.836   1.556  15.782  0.2151 -0.7522 -0.2983
 9564SOL    HW140325   1.903   1.609  15.738  0.3936 -0.9620 -0.2799
 9564SOL    HW240326   1.787   1.622  15.831  0.5065 -0.8200  0.0823
 9565SOL     OW40327   1.530   3.725   6.584 -0.3654  0.2506 -0.7258
 9565SOL    HW140328   1.532   3.680   6.669 -0.0864 -0.1389 -0.9436
 9565SOL    HW240329   1.448   3.689   6.550 -0.1342  1.6761 -2.7988
 9566SOL     OW40330   0.249   1.237   7.893  0.5120 -0.1691  0.0475
 9566SOL    HW140331   0.224   1.232   7.801  3.8225 -0.1934 -0.8679
 9566SOL    HW240332   0.343   1.249   7.882  1.0833 -3.5705  1.1220
 9567SOL     OW40333   4.366   3.560   2.173 -0.2505  0.2847  0.0317
 9567SOL    HW140334   4.386   3.500   2.101  2.1569  0.4082  0.5812
 9567SOL    HW240335   4.332   3.500   2.239  0.4524  0.2890  0.3923
 9568SOL     OW40336   4.316   0.829   4.660 -0.0813 -0.2569  0.1234
 9568SOL    HW140337   4.387   0.781   4.702  0.1729  2.5012  2.7861
 9568SOL    HW240338   4.353   0.853   4.575  2.1934  0.9696  1.4869
 9569SOL     OW40339   1.743   3.902   5.793  0.9709 -0.9174  0.7373
 9569SOL    HW140340   1.798   3.966   5.749  0.8490 -0.4263  1.2948
 9569SOL    HW240341   1.781   3.822   5.758  0.6167 -1.0750  0.7118
 9570SOL     OW40342   4.239   0.815   3.016  0.5084  0.2324 -0.2684
 9570SOL    HW140343   4.217   0.778   2.930  0.5039  1.4806 -0.8132
 9570SOL    HW240344   4.210   0.747   3.077  0.4042 -0.3908 -1.0131
 9571SOL     OW40345   2.090   4.395   6.839  0.0030  0.4848  0.9290
 9571SOL    HW140346   2.141   4.468   6.873  3.3416 -1.1762 -0.4658
 9571SOL    HW240347   2.145   4.356   6.771 -1.4194  1.6820 -0.9266
   4.73891   4.73891  17.75352
