Membrane in water
40347
    1TMC1    C1    1   0.088   0.142  12.235  0.3650  1.0892 -0.7967
    1TMC1    C2    2   0.032   0.258  12.176  0.5938  0.2915  0.0268
    1TMC1    C3    3   0.115   0.332  12.095  0.2591 -0.1933  0.1528
    1TMC1    C4    4   0.218   0.104  12.211  0.0690 -0.3320 -0.9910
    1TMC1    C5    5   0.301   0.195  12.147  0.8873 -0.8169 -0.7385
    1TMC1    C6    6   0.252   0.309  12.090 -0.1150 -0.0159  0.2814
    1TMC1     C    7   4.733   0.070  12.323 -0.1008  0.2808  0.3961
    1TMC1     O    8   4.627   0.128  12.348 -0.8806  0.0709  0.1240
    1TMC1     H    9   4.670   0.294  12.199  0.3863 -0.4958  0.3785
    1TMC1    H1   10   0.262   0.015  12.255 -0.2445 -0.0522 -0.1073
    1TMC1    H2   11   0.311   0.374  12.027 -0.4376  0.5330  0.5458
    1TMC1    C7   12   0.411   0.132  12.080  0.5137 -0.2636  0.2949
    1TMC1    C8   13   0.066   0.447  12.021 -0.0897  0.7815  0.5575
    1TMC1    O1   14   0.475   0.042  12.141 -0.4536 -0.0344 -0.1540
    1TMC1    O2   15   0.143   0.535  11.990 -0.9712 -0.4811 -0.0976
    1TMC1    O3   16   0.357   0.114  11.961  0.1679 -0.2306  0.2954
    1TMC1    H3   17   0.300   0.182  11.921  0.0083 -2.6009 -3.5198
    1TMC1    O5   18   4.677   0.430  11.989 -0.7106 -0.0256  0.4536
    1TMC1    H5   19   4.641   0.342  12.011  0.3146 -1.0789 -2.0649
    2MPD2     C   20   4.618   4.469  12.674  0.3703  0.1059 -0.3059
    2MPD2    C1   21   4.536   4.549  12.599 -0.1516  0.6993 -0.1002
    2MPD2    C2   22   4.593   4.622  12.496 -0.1298 -0.1029  0.6689
    2MPD2    C3   23   4.732   4.613  12.472 -0.0019 -0.6965  0.0275
    2MPD2    C4   24   0.067   4.522  12.537  0.3757 -0.6468  0.3921
    2MPD2    C5   25   0.009   4.450  12.642  0.8506  0.5916  0.8895
    2MPD2     H   26   4.526   4.693  12.451 -0.3371 -0.7386 -0.0339
    2MPD2    H1   27   0.169   4.500  12.507  1.7763  2.0104  3.1795
    2MPD2    H2   28   4.572   4.410  12.752  1.4541  0.0328  0.2822
    2MPD2    H3   29   0.058   4.371  12.696 -1.5323  0.4223  2.7619
    2MPD2     N   30   0.057   4.694  12.373 -0.2120 -0.0666 -0.2612
    2MPD2    H5   31   0.153   4.667  12.355 -0.2733 -0.7497  0.4048
    2MPD2    N1   32   4.397   4.569  12.620 -0.9986  0.1481 -0.5511
    2MPD2    H7   33   4.353   4.642  12.566  0.1717  1.8997  0.8753
    3TMC1    C1   34   3.794   1.718  10.715 -0.2954 -0.6559 -0.1998
    3TMC1    C2   35   3.739   1.635  10.626  0.3287  0.0465 -0.2391
    3TMC1    C3   36   3.770   1.640  10.497  0.3549 -0.8192  0.1779
    3TMC1    C4   37   3.890   1.812  10.672 -0.0820  0.3996 -0.3046
    3TMC1    C5   38   3.922   1.812  10.541  0.9977 -0.2134 -0.0239
    3TMC1    C6   39   3.870   1.723  10.454 -0.3557 -0.0770  0.7737
    3TMC1     C   40   3.746   1.720  10.849 -0.5477 -0.0065  0.4313
    3TMC1     O   41   3.624   1.695  10.852 -0.5039 -0.0768  0.1719
    3TMC1     H   42   3.669   1.560  10.663 -1.4042  1.2703 -1.0076
    3TMC1    H1   43   3.919   1.896  10.734  1.2277 -1.7183  1.9628
    3TMC1    H2   44   3.882   1.738  10.347  2.1546  0.4227  1.1218
    3TMC1    C7   45   4.002   1.919  10.481 -0.0028  0.0861  0.1593
    3TMC1    C8   46   3.738   1.521  10.418  0.3193  0.1438  0.9452
    3TMC1    O1   47   3.994   2.029  10.536  0.6006 -0.0825  0.0005
    3TMC1    O2   48   3.634   1.460  10.412 -0.1734  0.5461  0.1069
    3TMC1    O3   49   4.113   1.863  10.442  0.2965  0.1360  0.5695
    3TMC1    H3   50   4.104   1.766  10.447  1.8385 -0.1399 -2.0455
    3TMC1    O5   51   3.857   1.474  10.368  0.2269 -0.1131 -0.0192
    3TMC1    H5   52   3.935   1.525  10.400 -2.2545  2.4836  1.9778
    4MPD2     C   53   3.784   1.743  11.367  0.0723  0.6202  0.0111
    4MPD2    C1   54   3.679   1.693  11.278  0.6116  0.3394 -0.6242
    4MPD2    C2   55   3.689   1.712  11.140 -0.0714  0.3852 -0.4992
    4MPD2    C3   56   3.810   1.748  11.083 -0.0295  0.2120 -0.2169
    4MPD2    C4   57   3.913   1.779  11.167  0.5948 -0.2308  0.2639
    4MPD2    C5   58   3.896   1.782  11.301 -0.1761 -0.1360 -0.8438
    4MPD2     H   59   3.598   1.692  11.084  0.6203 -0.9452 -1.1542
    4MPD2    H1   60   4.004   1.821  11.125 -0.1717 -0.1358 -1.3146
    4MPD2    H2   61   3.779   1.744  11.475  1.9893 -0.3522  0.1174
    4MPD2    H3   62   3.983   1.805  11.363  0.5896 -1.1557 -1.5503
    4MPD2     N   63   3.835   1.754  10.946  0.1596  0.2154  0.9138
    4MPD2    H5   64   3.932   1.762  10.917  0.5635  0.8848  2.3946
    4MPD2    N1   65   3.552   1.648  11.333 -0.0526 -0.1946 -0.5201
    4MPD2    H7   66   3.486   1.611  11.266 -0.3160 -0.5707 -0.0525
    5TCq1    O1   67   4.463   3.694  11.455 -0.4032 -0.4022 -0.1758
    5TCq1    C1   68   4.392   3.579  11.437 -0.0949 -0.1255 -0.1793
    5TCq1    O2   69   4.371   3.529  11.327  0.1525 -0.1245 -0.1509
    5TCq1    C2   70   4.401   3.499  11.560  0.3882 -0.1606  0.1564
    5TCq1    C3   71   4.374   3.550  11.684  0.4175  0.6988  0.6990
    5TCq1    C4   72   4.395   3.481  11.795 -0.0273  0.0890 -0.4946
    5TCq1    C5   73   4.454   3.351  11.795  0.4961 -0.1962  0.2430
    5TCq1    C6   74   4.484   3.310  11.672 -0.4682 -0.0098 -0.1387
    5TCq1    C7   75   4.450   3.372  11.554 -0.8549 -0.2124  0.2114
    5TCq1    C8   76   4.501   3.162  11.654 -0.6039 -0.1410 -0.2158
    5TCq1    O4   77   4.437   3.116  11.563 -0.0536 -0.2898 -0.0355
    5TCq1    C9   78   4.326   3.526  11.921 -0.1919 -0.7066  0.1642
    5TCq1    O5   79   4.306   3.650  11.935 -0.0185  0.5122 -0.3166
    5TCq1    O6   80   4.281   3.428  11.990 -0.2358  0.7067  0.3010
    5TCq1    H1   81   4.494   3.717  11.545  0.4641  0.8482 -0.7912
    5TCq1    H2   82   4.324   3.646  11.693  1.3766  1.2297  0.4002
    5TCq1    H3   83   4.455   3.295  11.888 -1.1732 -0.1889  0.2584
    5TCq1    H4   84   4.463   3.321  11.459 -0.2693  1.8020 -0.7770
    6MPD2     C   85   4.543   2.934  11.944  1.0067 -0.1256 -0.0753
    6MPD2    C1   86   4.513   2.968  11.810 -0.5956 -0.3662 -0.2580
    6MPD2    C2   87   4.467   2.876  11.727  0.4631 -0.0230 -0.1800
    6MPD2    C3   88   4.438   2.744  11.767  0.4795 -0.4898 -0.3740
    6MPD2    C4   89   4.457   2.713  11.897  0.2445  0.2384  0.5253
    6MPD2    C5   90   4.509   2.804  11.983  0.5335 -0.2792  0.3207
    6MPD2     H   91   4.464   2.899  11.621  2.0024  0.7112 -0.0612
    6MPD2    H1   92   4.449   2.614  11.941 -0.6777  1.2950  2.7591
    6MPD2    H2   93   4.589   3.004  12.012  1.4817  1.1630 -1.7226
    6MPD2    H3   94   4.525   2.775  12.087 -2.1887  0.1200  0.8485
    6MPD2     N   95   4.393   2.644  11.675  0.0173 -0.1718 -0.5130
    6MPD2    H5   96   4.406   2.666  11.577  0.2072  0.0685 -0.4318
    6MPD2    N1   97   4.540   3.101  11.766 -0.3661  0.2292 -0.2641
    6MPD2    H7   98   4.572   3.165  11.838 -1.9374 -1.3081  1.8119
    7TCq1    O1   99   1.591   2.345  13.515  0.0259 -0.0088 -0.6499
    7TCq1    C1  100   1.494   2.324  13.611  0.5321 -0.1359  0.4211
    7TCq1    O2  101   1.487   2.384  13.717 -0.7836  0.2857 -0.0865
    7TCq1    C2  102   1.402   2.217  13.576 -0.6488  0.0568  0.0676
    7TCq1    C3  103   1.293   2.213  13.656 -0.0094  0.1296 -0.0732
    7TCq1    C4  104   1.202   2.110  13.636  0.0142  0.1389 -0.2830
    7TCq1    C5  105   1.229   2.013  13.548 -0.2223  0.0854  0.9252
    7TCq1    C6  106   1.350   2.011  13.487  0.1972  0.4430  0.0374
    7TCq1    C7  107   1.437   2.111  13.492  0.0769 -0.0520  0.1508
    7TCq1    C8  108   1.408   1.882  13.446  0.1490 -0.1280  0.2132
    7TCq1    O4  109   1.526   1.865  13.470 -0.5641 -0.0777  0.1609
    7TCq1    C9  110   1.084   2.109  13.723 -0.0610 -0.0416  0.1423
    7TCq1    O5  111   1.069   2.208  13.800 -0.1716 -0.5842  0.2936
    7TCq1    O6  112   1.029   1.996  13.747  0.4613 -0.0622  0.2879
    7TCq1    H1  113   1.565   2.308  13.428  1.6299 -0.5534 -0.9008
    7TCq1    H2  114   1.282   2.279  13.741 -1.1480 -0.0057 -0.1139
    7TCq1    H3  115   1.159   1.931  13.548 -0.5660  0.3973 -1.2661
    7TCq1    H4  116   1.514   2.105  13.416  0.1271  0.3806  0.1701
    8MPD2     C  117   1.390   1.410  13.272  0.5119 -0.3094  0.0034
    8MPD2    C1  118   1.479   1.467  13.360 -0.0970 -0.1674 -0.5134
    8MPD2    C2  119   1.453   1.594  13.402  0.1874 -0.0499  1.3072
    8MPD2    C3  120   1.344   1.665  13.358  0.4543 -0.4319 -0.3998
    8MPD2    C4  121   1.257   1.603  13.273 -0.1093 -1.0071  0.2246
    8MPD2    C5  122   1.280   1.477  13.222  0.2786  0.7947 -0.2746
    8MPD2     H  123   1.519   1.629  13.479 -0.8366  0.8903  1.7597
    8MPD2    H1  124   1.177   1.666  13.236  1.0370  0.7225  0.7133
    8MPD2    H2  125   1.410   1.318  13.218 -0.3194  0.7021 -2.0326
    8MPD2    H3  126   1.212   1.436  13.148  0.6795  1.5054 -1.0322
    8MPD2     N  127   1.315   1.794  13.393  0.3836  0.8390  0.5222
    8MPD2    H5  128   1.218   1.823  13.392  0.2186  0.1911 -2.1773
    8MPD2    N1  129   1.591   1.383  13.388  0.3903 -0.5064 -0.3992
    8MPD2    H7  130   1.598   1.285  13.365 -1.8460 -0.5468 -0.8370
    9TMC1    C1  131   4.177   0.795  10.887 -0.1246  0.4286 -0.6598
    9TMC1    C2  132   4.049   0.757  10.924 -0.1636 -0.4493 -0.2418
    9TMC1    C3  133   3.942   0.807  10.847  0.1976 -0.2823 -0.2108
    9TMC1    C4  134   4.195   0.878  10.783  0.5911 -0.1108 -0.0072
    9TMC1    C5  135   4.090   0.929  10.718  0.0333 -0.6857 -0.5678
    9TMC1    C6  136   3.963   0.899  10.754 -0.2330 -1.0807 -0.2023
    9TMC1     C  137   4.296   0.778  10.972  1.0855  0.4223  0.3797
    9TMC1     O  138   4.404   0.816  10.924 -0.2408 -0.1635 -0.2344
    9TMC1     H  139   4.039   0.664  10.980 -3.8516  0.1579  0.1473
    9TMC1    H1  140   4.293   0.917  10.757  0.5584  0.7939  1.2242
    9TMC1    H2  141   3.876   0.943  10.706 -1.7674 -3.6518  0.2143
    9TMC1    C7  142   4.100   0.987  10.586 -0.1368  0.0566  0.6631
    9TMC1    C8  143   3.814   0.764  10.870 -0.2714  0.3653  0.3317
    9TMC1    O1  144   4.015   0.967  10.506  0.2501 -0.5364 -0.0095
    9TMC1    O2  145   3.720   0.780  10.797  0.7251 -0.5743  0.2774
    9TMC1    O3  146   4.221   1.042  10.565 -0.5309 -0.4962 -0.1482
    9TMC1    H3  147   4.264   1.070  10.649 -1.8723 -1.7779  0.9536
    9TMC1    O5  148   3.818   0.763  11.007 -0.2615  0.7724  0.4894
    9TMC1    H5  149   3.902   0.796  11.045 -0.5431  0.0757  1.7073
   10MPD2     C  150   4.502   0.703  11.169  0.3963 -0.4274 -0.2790
   10MPD2    C1  151   4.369   0.688  11.191 -0.5561 -1.0271 -0.5353
   10MPD2    C2  152   4.318   0.643  11.310 -0.6175  0.7313  0.5965
   10MPD2    C3  153   4.406   0.592  11.410  0.8861 -0.1226  0.3512
   10MPD2    C4  154   4.537   0.604  11.377 -0.1808  0.4070 -0.1508
   10MPD2    C5  155   4.586   0.649  11.261  0.1820 -0.4290 -0.6221
   10MPD2     H  156   4.211   0.633  11.325 -0.6370 -1.6095 -1.0364
   10MPD2    H1  157   4.618   0.578  11.444 -1.1976  0.8382  1.2479
   10MPD2    H2  158   4.539   0.737  11.073  1.2182  0.1166  0.2345
   10MPD2    H3  159   4.694   0.650  11.252  0.1770 -1.2603 -0.7965
   10MPD2     N  160   4.365   0.556  11.542  0.3330 -0.4068  0.7661
   10MPD2    H5  161   4.433   0.515  11.607  0.8982  1.1064  1.1252
   10MPD2    N1  162   4.271   0.729  11.096  0.3842  0.4205 -0.1856
   10MPD2    H7  163   4.172   0.717  11.118 -0.1374  1.6162 -1.8601
   11TCq1    O1  164   4.704   1.135  14.851  0.3825  0.4594  0.1549
   11TCq1    C1  165   4.603   1.134  14.757  0.4900 -0.2297  0.0349
   11TCq1    O2  166   4.484   1.131  14.771  0.3782  0.8815  0.0028
   11TCq1    C2  167   4.669   1.071  14.639 -0.3868  0.0970  0.9067
   11TCq1    C3  168   0.024   0.974  14.652 -0.3719 -0.2045 -0.6880
   11TCq1    C4  169   0.060   0.900  14.541  0.3097 -0.7056 -0.0650
   11TCq1    C5  170   0.012   0.926  14.414 -0.8704 -0.5126 -0.5938
   11TCq1    C6  171   4.652   1.016  14.408  0.0350  0.0473  0.4812
   11TCq1    C7  172   4.603   1.081  14.524 -0.7716  0.0336 -0.0084
   11TCq1    C8  173   4.568   1.020  14.289 -0.4281  0.0960 -0.0703
   11TCq1    O4  174   4.485   1.110  14.274 -0.3122  0.5117 -0.4898
   11TCq1    C9  175   0.153   0.787  14.567 -0.3515  0.4391 -0.2128
   11TCq1    O5  176   0.162   0.745  14.687 -0.9883 -0.3394 -0.2744
   11TCq1    O6  177   0.181   0.716  14.466 -0.4534  0.1382  1.1666
   11TCq1    H1  178   0.051   1.170  14.818  0.7172 -1.2599 -0.8125
   11TCq1    H2  179   0.070   0.952  14.748  0.9820  0.2302 -1.2322
   11TCq1    H3  180   0.043   0.858  14.336 -0.6649  0.5199 -1.4116
   11TCq1    H4  181   4.519   1.149  14.516 -1.4792 -0.6453  1.6920
   12MPD2     C  182   4.421   0.947  14.043  0.0331 -0.2937  0.5582
   12MPD2    C1  183   4.521   0.868  14.091  0.4328 -0.2318 -0.4206
   12MPD2    C2  184   4.563   0.759  14.020  0.5399  0.1152 -0.5469
   12MPD2    C3  185   4.508   0.721  13.899  0.2845 -1.0796 -0.0052
   12MPD2    C4  186   4.419   0.813  13.844 -0.3863  0.8896  0.1540
   12MPD2    C5  187   4.373   0.921  13.916  0.0970  0.1143 -0.4095
   12MPD2     H  188   4.648   0.706  14.061 -0.6280  0.2888  2.1200
   12MPD2    H1  189   4.376   0.804  13.745  2.1235 -2.9560 -0.5734
   12MPD2    H2  190   4.369   1.026  14.095  0.8424  0.8081 -0.2987
   12MPD2    H3  191   4.288   0.982  13.888 -0.8992 -0.9652  0.2545
   12MPD2     N  192   4.532   0.602  13.837  0.0415 -1.0573 -0.2659
   12MPD2    H5  193   4.492   0.593  13.745 -0.0989  2.7345 -0.5852
   12MPD2    N1  194   4.584   0.902  14.214  0.0750 -0.2510 -0.1176
   12MPD2    H7  195   4.648   0.834  14.253 -0.7968 -1.3254 -0.5625
   13TCq1    O1  196   4.282   0.099  11.892  0.1444 -0.2732  0.4648
   13TCq1    C1  197   4.409   0.138  11.867 -0.5589  0.1293  0.2243
   13TCq1    O2  198   4.496   0.187  11.938  0.2871  0.2278 -0.1985
   13TCq1    C2  199   4.424   0.161  11.725 -0.2674  0.3509  0.1092
   13TCq1    C3  200   4.548   0.164  11.674 -0.8235 -0.0309  0.4254
   13TCq1    C4  201   4.558   0.188  11.544 -0.2425 -0.2214 -0.4644
   13TCq1    C5  202   4.453   0.211  11.465 -0.3433 -1.0169  0.3024
   13TCq1    C6  203   4.326   0.204  11.519 -0.5657  0.5988 -0.3082
   13TCq1    C7  204   4.308   0.179  11.654 -1.3866 -0.1759 -0.3939
   13TCq1    C8  205   4.208   0.222  11.433  0.6816  0.0111 -0.0093
   13TCq1    O4  206   4.097   0.203  11.480  0.2188  0.9490  0.5550
   13TCq1    C9  207   4.692   0.186  11.490 -0.4899  0.2606 -0.1915
   13TCq1    O5  208   0.044   0.235  11.562  0.0437 -0.0771  0.4746
   13TCq1    O6  209   4.707   0.123  11.380 -0.2234 -0.3794 -0.2755
   13TCq1    H1  210   4.252   0.039  11.821 -0.6736  0.6249  0.0366
   13TCq1    H2  211   4.630   0.136  11.740  2.0483  1.1986 -2.6294
   13TCq1    H3  212   4.475   0.221  11.359  0.9137  2.0450  0.8642
   13TCq1    H4  213   4.206   0.189  11.687 -0.9408  1.1758  0.5884
   14MPD2     C  214   4.229   0.335  11.081  0.5282 -0.5327  1.0212
   14MPD2    C1  215   4.167   0.315  11.206 -0.2914 -0.1315  0.7256
   14MPD2    C2  216   4.031   0.346  11.225  0.1464  0.4453 -0.4202
   14MPD2    C3  217   3.951   0.369  11.120 -0.0496  0.7090 -0.5636
   14MPD2    C4  218   4.009   0.390  10.999  0.1705  0.0741 -0.0972
   14MPD2    C5  219   4.147   0.375  10.982 -0.0890 -1.2431  0.2316
   14MPD2     H  220   3.990   0.330  11.325 -0.8020  2.1189 -0.5518
   14MPD2    H1  221   3.942   0.414  10.917 -0.2779  1.4376  0.6749
   14MPD2    H2  222   4.335   0.319  11.066  0.5580  1.4482 -0.8539
   14MPD2    H3  223   4.188   0.384  10.882 -2.6578  0.2498 -0.6894
   14MPD2     N  224   3.810   0.388  11.141 -0.1118 -0.7721 -0.7505
   14MPD2    H5  225   3.786   0.365  11.237  1.2013  0.3153 -0.1540
   14MPD2    N1  226   4.251   0.271  11.313 -0.0134  0.0346 -0.3357
   14MPD2    H7  227   4.351   0.282  11.300 -0.1084  0.2358 -0.8786
   15TCq1    O1  228   0.348   0.134   1.913  0.1677  0.1233  0.2612
   15TCq1    C1  229   0.403   0.102   1.789 -0.0319  0.1753  0.0979
   15TCq1    O2  230   0.378   0.163   1.684 -0.2121 -0.6345  0.3383
   15TCq1    C2  231   0.503   0.001   1.806  0.6470 -0.1343  0.6405
   15TCq1    C3  232   0.564   4.712   1.929 -0.1358 -0.4360  0.1607
   15TCq1    C4  233   0.658   4.610   1.937  0.0343  0.5580 -0.3225
   15TCq1    C5  234   0.687   4.534   1.829  0.6616 -0.2159 -0.1796
   15TCq1    C6  235   0.626   4.567   1.709  0.2297 -0.2239 -0.2941
   15TCq1    C7  236   0.531   4.664   1.691  0.2394  0.3203  0.5702
   15TCq1    C8  237   0.667   4.487   1.598 -0.0538 -0.2395 -0.1781
   15TCq1    O4  238   0.749   4.400   1.617 -0.5145 -0.5101 -0.0598
   15TCq1    C9  239   0.722   4.584   2.058 -0.7797  0.0408  0.4679
   15TCq1    O5  240   0.744   4.682   2.131 -0.2171  0.1045 -0.1162
   15TCq1    O6  241   0.776   4.472   2.075 -1.0136 -0.1638 -0.0092
   15TCq1    H1  242   0.379   0.075   1.986 -2.1855  0.8310  1.8209
   15TCq1    H2  243   0.553   0.040   2.014  0.8980  0.8492 -0.7193
   15TCq1    H3  244   0.769   4.464   1.833  0.8697  0.0419  0.0382
   15TCq1    H4  245   0.474   4.690   1.603  2.6763 -0.2035 -1.1712
   16MPD2     C  246   0.538   4.503   1.252 -0.0462  0.4178 -0.3549
   16MPD2    C1  247   0.617   4.462   1.353 -0.7684 -0.3301 -0.9459
   16MPD2    C2  248   0.716   4.373   1.317 -0.3076 -0.2798  0.2694
   16MPD2    C3  249   0.742   4.326   1.189  0.1231 -0.5500  0.3235
   16MPD2    C4  250   0.645   4.360   1.091 -0.1122 -0.2316  0.1060
   16MPD2    C5  251   0.550   4.451   1.123 -0.3810 -0.1236 -0.2683
   16MPD2     H  252   0.785   4.344   1.396 -0.1698  1.4541  0.7880
   16MPD2    H1  253   0.655   4.329   0.988 -1.2668  1.2917 -0.4641
   16MPD2    H2  254   0.456   4.569   1.276  0.2420  0.2551  1.0499
   16MPD2    H3  255   0.479   4.494   1.053 -0.3090 -0.7348 -0.7223
   16MPD2     N  256   0.854   4.250   1.171  0.3816  0.5475  0.2971
   16MPD2    H5  257   0.915   4.232   1.250  0.7278  0.2510 -0.0376
   16MPD2    N1  258   0.608   4.523   1.482 -0.2627 -0.0736  0.0304
   16MPD2    H7  259   0.532   4.590   1.490  1.4205  1.5321  2.6006
   17TMC1    C1  260   3.436   0.156  10.867  0.0139  0.8651  0.4574
   17TMC1    C2  261   3.307   0.131  10.838 -0.8909 -0.4378 -0.3029
   17TMC1    C3  262   3.246   0.201  10.739 -0.0969  0.5533  0.3560
   17TMC1    C4  263   3.502   0.268  10.823  0.1681 -0.6132 -0.3141
   17TMC1    C5  264   3.443   0.334  10.716  0.9473  0.1555 -0.4413
   17TMC1    C6  265   3.316   0.306  10.681  0.1557 -0.5080 -0.3349
   17TMC1     C  266   3.477   0.103  10.997 -0.1116 -0.0168  0.3442
   17TMC1     O  267   3.386   0.077  11.074  0.1054  0.1233 -0.4209
   17TMC1     H  268   3.253   0.053  10.891 -3.6231  1.0725 -0.8322
   17TMC1    H1  269   3.606   0.292  10.846 -0.7870  3.1551  0.0765
   17TMC1    H2  270   3.276   0.370  10.603  0.3183  0.4018  0.3322
   17TMC1    C7  271   3.505   0.448  10.650 -0.4253 -0.5139  0.6998
   17TMC1    C8  272   3.106   0.179  10.706 -0.2769 -0.3181 -1.0089
   17TMC1    O1  273   3.451   0.486  10.551 -0.1773 -0.1771 -0.2906
   17TMC1    O2  274   3.018   0.163  10.791  0.3958  0.2520  0.3533
   17TMC1    O3  275   3.635   0.472  10.695  0.3209  0.2911  0.8059
   17TMC1    H3  276   3.654   0.487  10.790 -1.9295  0.7348  1.1889
   17TMC1    O5  277   3.086   0.221  10.578 -0.2528  0.5026 -0.2313
   17TMC1    H5  278   3.167   0.217  10.522 -0.3152  1.8839 -0.4138
   18MPD2     C  279   3.611   0.013  11.248  0.3835 -0.1373  0.2434
   18MPD2    C1  280   3.681   0.041  11.133 -0.2842  0.1806  0.6221
   18MPD2    C2  281   3.813   0.017  11.126  0.1047 -0.6694 -0.0463
   18MPD2    C3  282   3.886   4.712  11.236  0.2738 -0.2028 -0.0168
   18MPD2    C4  283   3.819   4.691  11.353  0.6860  0.1730 -0.2371
   18MPD2    C5  284   3.680   4.708  11.357 -0.9092 -0.4818 -0.0705
   18MPD2     H  285   3.853   0.024  11.025  2.4031 -0.5635  0.8691
   18MPD2    H1  286   3.865   4.665  11.447 -0.1537 -2.5038 -0.5608
   18MPD2    H2  287   3.506   0.034  11.264  0.2591 -0.7472  0.2286
   18MPD2    H3  288   3.625   4.705  11.450  2.8221 -1.9075  2.1010
   18MPD2     N  289   4.025   4.685  11.220  0.7247 -0.4114  0.2824
   18MPD2    H5  290   4.069   4.691  11.129 -2.1035 -0.0417 -1.0322
   18MPD2    N1  291   3.614   0.083  11.013 -0.1037 -0.1390 -0.2077
   18MPD2    H7  292   3.674   0.111  10.935  0.1732 -0.7399 -0.2151
   19TMC2    C1  293   0.843   0.699  14.085 -0.0780  0.3271  0.2523
   19TMC2    C2  294   0.785   0.823  14.059 -0.3108  1.3058  0.5175
   19TMC2    C3  295   0.653   0.836  14.062  0.5159  0.5406  0.2424
   19TMC2    C4  296   0.776   0.588  14.119 -0.5744 -0.9622 -0.3827
   19TMC2    C5  297   0.638   0.603  14.110  0.3446 -0.9135  0.3712
   19TMC2    C6  298   0.578   0.729  14.087 -0.5379  0.2941  0.3750
   19TMC2     C  299   0.965   0.684  14.029  0.0258 -0.2805  0.4618
   19TMC2     O  300   0.997   0.760  13.942 -0.0235  0.5426 -0.2619
   19TMC2     H  301   0.854   0.898  14.021  1.9768 -1.3652 -0.6109
   19TMC2    H1  302   0.822   0.492  14.135 -1.0767 -1.2080 -0.4218
   19TMC2    H2  303   0.471   0.737  14.079 -0.3168  0.9953 -1.6515
   19TMC2    C7  304   0.559   0.478  14.114 -0.0950  0.1527  0.3221
   19TMC2    C8  305   0.580   0.944  14.000  0.0567  0.1761  0.1880
   19TMC2    O1  306   0.611   0.374  14.087  0.3696 -0.3315  0.2617
   19TMC2    O2  307   0.499   0.923  13.910  0.2135  0.6282 -0.3086
   19TMC2    O5  308   0.656   1.057  14.005  0.1439 -0.1259 -0.4048
   19TMC2    H5  309   0.713   1.051  14.085 -2.6772 -0.4871  1.5610
   20MPD2     C  310   1.225   0.607  13.942 -0.0394  0.0726 -0.5778
   20MPD2    C1  311   1.171   0.553  14.051  0.5790 -0.1477 -0.6297
   20MPD2    C2  312   1.241   0.465  14.125 -0.1568  0.1206  0.1061
   20MPD2    C3  313   1.367   0.434  14.089  0.3876  0.8711  0.2850
   20MPD2    C4  314   1.427   0.482  13.974 -0.5364  0.0052 -0.2916
   20MPD2    C5  315   1.358   0.583  13.909 -0.4195  0.2754 -0.9170
   20MPD2     H  316   1.198   0.423  14.216 -1.0628  0.2290 -0.2708
   20MPD2    H1  317   1.532   0.470  13.952 -0.3825  0.0336  0.4353
   20MPD2    H2  318   1.175   0.661  13.862 -1.9324 -0.6134  0.1427
   20MPD2    H3  319   1.415   0.632  13.830  0.6424 -3.2803 -2.3558
   20MPD2     N  320   1.451   0.354  14.166 -0.3601  0.2099  0.3794
   20MPD2    H5  321   1.539   0.337  14.120 -0.5931 -0.8049  0.3145
   20MPD2    N1  322   1.040   0.583  14.090  0.4501 -1.1219  0.2309
   20MPD2    H7  323   1.006   0.535  14.173  0.7538 -0.5069  0.7133
   21TMC2    C1  324   3.385   0.742  14.569  0.4103 -0.3962 -0.3017
   21TMC2    C2  325   3.356   0.617  14.626 -0.1631 -0.1687  0.4600
   21TMC2    C3  326   3.260   0.624  14.725  0.2808 -0.0552  0.0498
   21TMC2    C4  327   3.309   0.855  14.605  0.6114 -0.0606 -0.1856
   21TMC2    C5  328   3.223   0.856  14.712 -0.7982  0.1083 -0.2320
   21TMC2    C6  329   3.186   0.732  14.770  0.8324  0.6708 -0.1903
   21TMC2     C  330   3.464   0.731  14.454  1.1167  0.3725 -0.5189
   21TMC2     O  331   3.530   0.628  14.437 -0.0229  0.1736  0.1403
   21TMC2     H  332   3.393   0.520  14.596 -1.2685  0.0506 -1.5800
   21TMC2    H1  333   3.326   0.952  14.559 -1.5411  0.9101  1.0526
   21TMC2    H2  334   3.116   0.716  14.852  0.9728 -1.2849 -0.4641
   21TMC2    C7  335   3.176   0.975  14.775  0.6550  0.5309 -0.3591
   21TMC2    C8  336   3.211   0.492  14.762 -0.2869  0.3925 -0.0469
   21TMC2    O1  337   3.137   0.947  14.888  0.6163  0.1367 -0.2175
   21TMC2    O2  338   3.139   0.469  14.859  0.8777  0.3381 -0.6456
   21TMC2    O5  339   3.192   0.418  14.651 -0.1442 -0.0617 -0.1894
   21TMC2    H5  340   3.247   0.435  14.571 -0.5683  2.1488  0.0150
   22MPD2     C  341   3.598   0.851  13.986  0.1649 -0.6107  0.4163
   22MPD2    C1  342   3.668   0.807  14.090 -0.6246  0.4064  0.2645
   22MPD2    C2  343   3.610   0.798  14.212 -0.1008 -0.1012  0.2917
   22MPD2    C3  344   3.478   0.841  14.238  0.9358  0.7446 -0.0932
   22MPD2    C4  345   3.421   0.912  14.139  1.4005 -0.2788 -0.6004
   22MPD2    C5  346   3.477   0.917  14.013 -0.5858  0.2169 -0.6311
   22MPD2     H  347   3.672   0.757  14.291 -1.2063  0.6985  1.5632
   22MPD2    H1  348   3.318   0.945  14.149  1.7046  0.3367  0.4739
   22MPD2    H2  349   3.646   0.859  13.890 -0.7960  1.6505  0.1160
   22MPD2    H3  350   3.432   0.958  13.923  0.1132 -0.3008 -1.2121
   22MPD2     N  351   3.430   0.832  14.362 -0.2366 -0.0317  0.5307
   22MPD2    H5  352   3.358   0.901  14.379 -1.5253 -1.2425 -0.0213
   22MPD2    N1  353   3.801   0.773  14.085  0.2393  0.0519 -0.2939
   22MPD2    H7  354   3.851   0.751  14.171 -1.3185  0.8149  0.8009
   23TMC2    C1  355   4.562   2.134  14.508  0.5616 -0.6129  0.6602
   23TMC2    C2  356   4.630   2.200  14.403  0.4629 -0.0574  0.3353
   23TMC2    C3  357   4.571   2.184  14.279 -0.3154 -0.3510 -0.4336
   23TMC2    C4  358   4.443   2.069  14.489 -0.3083  0.2759  0.1149
   23TMC2    C5  359   4.394   2.065  14.360  0.6463  0.1552  0.2047
   23TMC2    C6  360   4.452   2.123  14.252  0.3655 -0.7461  0.5741
   23TMC2     C  361   4.604   2.142  14.648 -0.0386 -0.2172 -0.1190
   23TMC2     O  362   4.587   2.045  14.719  0.4184  0.0680  0.3448
   23TMC2     H  363   4.724   2.250  14.420  0.0889  1.6080 -2.3459
   23TMC2    H1  364   4.387   2.029  14.573 -2.5427 -0.0215 -1.4949
   23TMC2    H2  365   4.405   2.113  14.155 -1.9818  0.2761  1.6032
   23TMC2    C7  366   4.260   2.021  14.334  0.5411 -0.5565 -0.8058
   23TMC2    C8  367   4.640   2.213  14.157  0.7248  0.1829  0.3354
   23TMC2    O1  368   4.195   2.084  14.249 -0.2497 -0.3998 -0.1889
   23TMC2    O2  369   4.600   2.161  14.055  0.2127  0.0542 -0.2521
   23TMC2    O5  370   0.027   2.266  14.187  0.2343  0.2411 -0.7842
   23TMC2    H5  371   0.031   2.308  14.275 -2.3197 -1.1787 -0.0103
   24MPD2     C  372   0.090   2.431  15.018  0.5042 -0.2011  0.9954
   24MPD2    C1  373   0.068   2.288  15.015  0.3466  0.1717  0.1452
   24MPD2    C2  374   0.018   2.235  14.901  0.7572  0.0308  0.4072
   24MPD2    C3  375   4.732   2.308  14.788 -0.0778 -0.2635  0.4939
   24MPD2    C4  376   0.026   2.444  14.793 -0.0815  0.5628  0.1781
   24MPD2    C5  377   0.063   2.507  14.911  0.2858 -0.0627  0.1253
   24MPD2     H  378   4.734   2.129  14.905  0.1123  0.2260  2.0324
   24MPD2    H1  379   0.022   2.502  14.702 -0.4073 -0.1095 -0.2429
   24MPD2    H2  380   0.131   2.490  15.099  0.9617 -1.6371  1.8153
   24MPD2    H3  381   0.089   2.612  14.909 -0.3930  0.1198  0.7319
   24MPD2     N  382   4.681   2.260  14.668 -0.5077  0.1953  0.8009
   24MPD2    H5  383   4.670   2.335  14.601  1.8744  0.6038  0.8841
   24MPD2    N1  384   0.084   2.209  15.138 -0.5300 -0.3388  0.1435
   24MPD2    H7  385   0.060   2.110  15.130  0.2836 -0.5259  0.0200
   25TMC2    C1  386   3.728   4.182  11.742  0.1674  0.4450 -0.0480
   25TMC2    C2  387   3.830   4.280  11.732  0.1308  0.5772  0.0892
   25TMC2    C3  388   3.834   4.377  11.829  0.0508  0.1204  0.3829
   25TMC2    C4  389   3.629   4.197  11.832  0.1342  0.2300  0.3446
   25TMC2    C5  390   3.641   4.292  11.926  1.1101 -0.3783  1.0642
   25TMC2    C6  391   3.747   4.372  11.936 -0.1296 -0.4843  0.0881
   25TMC2     C  392   3.671   4.138  11.615  0.3183 -0.1484  0.1631
   25TMC2     O  393   3.610   4.032  11.613 -0.1524  0.5840  0.3783
   25TMC2     H  394   3.905   4.255  11.657 -0.1150 -1.8340  0.6396
   25TMC2    H1  395   3.545   4.129  11.833  1.3819 -1.2965 -0.1732
   25TMC2    H2  396   3.758   4.455  12.006  1.4084  0.3851 -1.1918
   25TMC2    C7  397   3.523   4.311  12.017 -0.0957  0.4476  0.7942
   25TMC2    C8  398   3.939   4.480  11.823 -0.8777  0.4968 -0.6085
   25TMC2    O1  399   3.463   4.206  12.044  1.0912 -0.1999 -0.6384
   25TMC2    O2  400   4.006   4.478  11.722  0.4374 -0.1018  0.0412
   25TMC2    O5  401   4.001   4.485  11.943 -0.1813 -0.3778 -0.7281
   25TMC2    H5  402   3.944   4.477  12.023  1.2352  0.0718  0.3164
   26MPD2     C  403   3.507   4.245  11.136 -0.1088  0.1144 -1.1520
   26MPD2    C1  404   3.482   4.137  11.213 -0.8621 -0.6154  0.4604
   26MPD2    C2  405   3.528   4.137  11.346 -0.5903 -0.3443 -0.3818
   26MPD2    C3  406   3.621   4.232  11.389 -0.3804 -0.6462 -0.5029
   26MPD2    C4  407   3.653   4.327  11.299 -0.1211  1.0573 -0.8777
   26MPD2    C5  408   3.590   4.344  11.179 -0.3244  0.8469  0.0365
   26MPD2     H  409   3.508   4.052  11.410  0.0038  0.0483  0.3348
   26MPD2    H1  410   3.726   4.402  11.325  0.2231  0.4892 -0.1940
   26MPD2    H2  411   3.469   4.246  11.035 -0.6461 -0.0352 -0.9540
   26MPD2    H3  412   3.622   4.426  11.116 -4.4408  1.6156 -1.0487
   26MPD2     N  413   3.688   4.234  11.514 -0.7232  0.4888 -0.1024
   26MPD2    H5  414   3.747   4.312  11.540 -1.3117  0.3698  1.6452
   26MPD2    N1  415   3.390   4.041  11.163  0.5037  0.1255  0.2122
   26MPD2    H7  416   3.352   4.055  11.070 -0.6675 -0.5984  0.5764
   27TMC2    C1  417   2.198   1.662  11.836  0.4742 -0.0668  0.0311
   27TMC2    C2  418   2.183   1.699  11.707  0.1926  0.0193 -0.0092
   27TMC2    C3  419   2.241   1.811  11.658 -0.4121  0.4623 -0.6001
   27TMC2    C4  420   2.266   1.743  11.922 -0.2567 -0.0601 -0.3194
   27TMC2    C5  421   2.309   1.863  11.877  0.1052 -0.1826  0.4304
   27TMC2    C6  422   2.309   1.890  11.742 -0.5277 -0.0558  0.2226
   27TMC2     C  423   2.125   1.549  11.879  1.0628 -0.1084  0.3129
   27TMC2     O  424   2.063   1.489  11.791  0.5051  0.3867  0.0653
   27TMC2     H  425   2.122   1.647  11.634  3.3330 -1.7106 -1.4335
   27TMC2    H1  426   2.285   1.716  12.025 -0.8475  0.0106 -0.1872
   27TMC2    H2  427   2.353   1.973  11.689 -0.4095 -0.4050 -0.2349
   27TMC2    C7  428   2.421   1.902  11.961  0.2030  0.0854  0.2635
   27TMC2    C8  429   2.271   1.815  11.517  0.6489  0.3051 -0.0577
   27TMC2    O1  430   2.392   1.922  12.078 -0.5643  0.3963  0.3451
   27TMC2    O2  431   2.248   1.915  11.454  0.4406  0.5437 -0.5098
   27TMC2    O5  432   2.347   1.708  11.483  0.5415 -0.4292  0.1618
   27TMC2    H5  433   2.361   1.639  11.550 -0.7545  0.1902  1.0677
   28MPD2     C  434   1.956   1.224  12.248 -0.1049 -0.5258 -0.1320
   28MPD2    C1  435   1.992   1.347  12.307 -0.2699 -0.0891  0.2868
   28MPD2    C2  436   2.042   1.447  12.233 -0.0202 -0.8804  0.2456
   28MPD2    C3  437   2.065   1.434  12.094 -0.7448  0.0213 -0.2505
   28MPD2    C4  438   2.046   1.312  12.032  0.3059  0.2867 -0.7031
   28MPD2    C5  439   1.990   1.215  12.112  0.2077 -0.7102 -0.2882
   28MPD2     H  440   2.066   1.541  12.280 -0.7068 -1.4802  1.7898
   28MPD2    H1  441   2.080   1.291  11.931  0.8763 -0.1292 -0.4263
   28MPD2    H2  442   1.904   1.139  12.291 -0.5420  0.3538  1.0769
   28MPD2    H3  443   1.957   1.122  12.068 -0.3870 -0.7619  0.2693
   28MPD2     N  444   2.116   1.545  12.022  0.5080  0.4792 -0.4040
   28MPD2    H5  445   2.145   1.630  12.070  0.6325  0.7794 -1.0088
   28MPD2    N1  446   1.962   1.352  12.446 -0.5580 -0.1146  0.2255
   28MPD2    H7  447   1.938   1.266  12.494  0.3233 -1.3802 -1.5990
   29TMC2    C1  448   1.881   4.221  14.534  0.1800 -0.2029 -0.4146
   29TMC2    C2  449   1.931   4.211  14.661  0.2372  0.0861 -0.2296
   29TMC2    C3  450   1.984   4.322  14.713 -0.1504  0.8334  0.6403
   29TMC2    C4  451   1.876   4.338  14.468 -0.1845  0.2215 -0.4900
   29TMC2    C5  452   1.920   4.451  14.533 -0.2184  0.1522 -0.9210
   29TMC2    C6  453   1.980   4.444  14.657 -0.2681  0.4469  0.4140
   29TMC2     C  454   1.825   4.102  14.467 -0.2015 -0.0429  0.8675
   29TMC2     O  455   1.867   3.994  14.508 -0.3161 -0.1520  0.3264
   29TMC2     H  456   1.960   4.118  14.708 -0.9084 -1.5682 -2.7776
   29TMC2    H1  457   1.848   4.358  14.366  4.1725  1.6197 -1.4039
   29TMC2    H2  458   2.018   4.535  14.701  0.7105  0.1624  0.1655
   29TMC2    C7  459   1.938   4.572  14.461 -0.4218  0.0660 -0.3570
   29TMC2    C8  460   2.026   4.325  14.855  0.0040  0.3869  0.4334
   29TMC2    O1  461   1.857   4.600  14.371  0.1836  0.3117  0.0250
   29TMC2    O2  462   1.977   4.245  14.932  0.0722  0.0982  0.2475
   29TMC2    O5  463   2.143   4.392  14.864  0.0505  0.3302  0.0911
   29TMC2    H5  464   2.186   4.426  14.782  1.1588 -1.0382  0.1054
   30MPD2     C  465   1.581   3.827  14.114  0.1169  0.1294  0.4149
   30MPD2    C1  466   1.692   3.801  14.192 -0.4424 -0.3932 -0.4101
   30MPD2    C2  467   1.735   3.893  14.283 -0.0925 -0.4616  0.1732
   30MPD2    C3  468   1.672   4.022  14.295 -0.6279 -0.6990  0.8750
   30MPD2    C4  469   1.570   4.057  14.202 -0.2312  0.5965  0.4761
   30MPD2    C5  470   1.524   3.957  14.118  0.0575 -0.5985  0.4732
   30MPD2     H  471   1.826   3.870  14.338  0.0741 -1.2754 -0.4513
   30MPD2    H1  472   1.513   4.149  14.208 -2.5938 -0.6247 -2.9484
   30MPD2    H2  473   1.533   3.752  14.052 -0.0260  0.6496 -0.0980
   30MPD2    H3  474   1.442   3.975  14.049  2.2088 -1.6598 -2.3465
   30MPD2     N  475   1.724   4.126  14.374  0.4246 -0.0370  0.0139
   30MPD2    H5  476   1.689   4.220  14.365  0.5498  0.0480  0.3919
   30MPD2    N1  477   1.759   3.677  14.197 -0.0510  0.2681 -0.5265
   30MPD2    H7  478   1.835   3.675  14.264  2.2540  0.3394 -3.1742
   31TMC2    C1  479   4.231   2.975  15.776 -0.1558 -0.0967 -0.2094
   31TMC2    C2  480   4.097   2.993  15.770 -0.6925 -0.7184  0.5024
   31TMC2    C3  481   4.032   2.981  15.887 -0.4485 -0.6069  0.4140
   31TMC2    C4  482   4.299   2.933  15.892 -0.1284 -0.0911  0.3401
   31TMC2    C5  483   4.224   2.924  16.006  0.0204  0.1038 -0.9583
   31TMC2    C6  484   4.089   2.959  16.009  0.1940 -0.5797  0.1606
   31TMC2     C  485   4.305   2.979  15.649  0.1304  0.2420 -0.5693
   31TMC2     O  486   4.258   3.048  15.557  0.6992  0.4169 -0.0432
   31TMC2     H  487   4.049   2.992  15.673  1.0478 -3.5101 -0.3328
   31TMC2    H1  488   4.402   2.900  15.889 -0.0362  0.2055  0.2219
   31TMC2    H2  489   4.024   2.935  16.092 -0.3533  0.1786 -0.0604
   31TMC2    C7  490   4.293   2.882  16.120  0.2087  0.0350  0.0805
   31TMC2    C8  491   3.886   2.962  15.884  0.1516 -0.3818 -0.1667
   31TMC2    O1  492   4.369   2.787  16.101 -0.3466  0.3849  0.3055
   31TMC2    O2  493   3.832   2.884  15.963 -0.6803 -0.2933 -0.2746
   31TMC2    O5  494   3.843   2.997  15.756 -0.4664 -0.0958 -0.0477
   31TMC2    H5  495   3.896   3.076  15.734 -1.3287  0.8418  1.2528
   32MPD2     C  496   4.662   2.846  15.284 -1.5738 -0.2466  0.0205
   32MPD2    C1  497   4.576   2.952  15.288 -0.3864  0.2517  0.2045
   32MPD2    C2  498   4.502   2.968  15.401  0.6549 -0.2586  0.1078
   32MPD2    C3  499   4.504   2.886  15.513 -0.2035 -0.4940  0.2458
   32MPD2    C4  500   4.590   2.773  15.500 -1.0085 -0.4720  0.0930
   32MPD2    C5  501   4.671   2.765  15.388  0.4206 -0.9897  1.1294
   32MPD2     H  502   4.437   3.054  15.396  0.5826 -0.3053  0.2789
   32MPD2    H1  503   4.598   2.696  15.575 -2.7376 -1.2506 -0.5266
   32MPD2    H2  504   4.722   2.831  15.195 -0.6965  2.1460  0.2092
   32MPD2    H3  505   0.004   2.683  15.383  0.9443 -0.4547 -0.2755
   32MPD2     N  506   4.420   2.898  15.632  0.5862 -0.4362  0.3256
   32MPD2    H5  507   4.433   2.836  15.711  0.2902  1.1144  1.6053
   32MPD2    N1  508   4.578   3.042  15.176  0.3624  0.5739 -0.0376
   32MPD2    H7  509   4.635   3.011  15.098 -0.1567  1.8280 -0.9178
   33TMC2    C1  510   4.407   0.564  10.647  0.8103  1.0265  0.4298
   33TMC2    C2  511   4.280   0.549  10.598  0.4201  0.3441 -0.1242
   33TMC2    C3  512   4.235   0.641  10.511 -0.4366 -0.5325 -0.5123
   33TMC2    C4  513   4.485   0.668  10.600  0.1354 -0.0976 -0.0360
   33TMC2    C5  514   4.442   0.755  10.504  0.1938  0.0786 -0.1865
   33TMC2    C6  515   4.312   0.748  10.459  0.5615  0.6399 -0.0367
   33TMC2     C  516   4.476   0.452  10.711 -0.0570 -0.2985 -0.0668
   33TMC2     O  517   4.409   0.350  10.721 -0.2009 -0.0322 -0.0524
   33TMC2     H  518   4.225   0.460  10.625 -1.5788  1.3271 -0.9957
   33TMC2    H1  519   4.591   0.679  10.619  0.8173 -2.6813 -2.3478
   33TMC2    H2  520   4.264   0.834  10.414 -1.5920 -0.0978  0.8435
   33TMC2    C7  521   4.528   0.846  10.435  0.6828 -0.7096  0.8786
   33TMC2    C8  522   4.097   0.637  10.478  0.3072 -0.4113 -0.4945
   33TMC2    O1  523   4.640   0.874  10.476  0.1665  0.1904 -0.0424
   33TMC2    O2  524   4.011   0.593  10.551 -0.8650 -0.4711  0.4009
   33TMC2    O5  525   4.083   0.672  10.353  0.1028  0.8789  0.1642
   33TMC2    H5  526   4.161   0.684  10.295 -0.8990  1.7969 -0.9736
   34MPD2     C  527   0.002   0.334  11.123  0.3564  0.2660 -0.1106
   34MPD2    C1  528   4.652   0.252  11.055 -0.1347  0.0514 -1.0892
   34MPD2    C2  529   4.599   0.308  10.938 -0.1820 -0.8601  0.9911
   34MPD2    C3  530   4.641   0.431  10.886  0.2012  0.2603 -0.0930
   34MPD2    C4  531   0.005   0.494  10.952 -0.8002  0.5389 -0.4602
   34MPD2    C5  532   0.052   0.448  11.070  0.3790 -0.1571 -0.0113
   34MPD2     H  533   4.512   0.255  10.901 -1.2097  1.6662 -0.2165
   34MPD2    H1  534   0.053   0.586  10.918  2.2187 -0.5766  0.7281
   34MPD2    H2  535   0.049   0.302  11.216  0.4103 -0.7913 -0.4989
   34MPD2    H3  536   0.129   0.511  11.114  0.6531  0.7997 -1.8628
   34MPD2     N  537   4.583   0.501  10.780 -0.4303 -0.6892 -0.5368
   34MPD2    H5  538   4.613   0.595  10.754 -0.3559 -1.0557 -1.7890
   34MPD2    N1  539   4.591   0.136  11.123  0.8236  0.1968  0.3580
   34MPD2    H7  540   4.629   0.112  11.214  1.4617 -1.7973 -0.4411
   35TMC2    C1  541   0.943   1.806  11.518 -0.0355  0.0521  0.2521
   35TMC2    C2  542   0.879   1.925  11.498 -0.4633 -0.7040  0.3277
   35TMC2    C3  543   0.740   1.914  11.483 -0.2053  0.3566 -0.1119
   35TMC2    C4  544   0.876   1.690  11.519  0.8532  0.4019 -0.0159
   35TMC2    C5  545   0.741   1.691  11.515 -0.3372  0.6961  0.3962
   35TMC2    C6  546   0.668   1.801  11.512 -0.1027  0.2393  0.6445
   35TMC2     C  547   1.087   1.796  11.503 -0.0957  0.1624 -0.7455
   35TMC2     O  548   1.140   1.882  11.439  0.4930  0.5486  0.5903
   35TMC2     H  549   0.931   2.017  11.522 -2.7558  0.8850 -0.7429
   35TMC2    H1  550   0.931   1.597  11.519 -1.0400 -0.7020 -2.9697
   35TMC2    H2  551   0.560   1.796  11.514 -0.2420  1.8942 -2.5191
   35TMC2    C7  552   0.680   1.574  11.580  0.2686 -0.1190  0.3629
   35TMC2    C8  553   0.670   2.037  11.452 -0.6718  0.1498  1.1581
   35TMC2    O1  554   0.754   1.508  11.654  0.4277  0.1415  0.5376
   35TMC2    O2  555   0.578   2.076  11.524 -0.1334 -0.8815 -0.2814
   35TMC2    O5  556   0.755   2.103  11.372 -1.1265 -0.3841  0.2827
   35TMC2    H5  557   0.817   2.042  11.327 -1.8699 -0.9684  0.0470
   36MPD2     C  558   1.530   1.550  11.577  0.2452 -0.4846 -0.6066
   36MPD2    C1  559   1.448   1.519  11.676  0.0132 -0.4528  0.2252
   36MPD2    C2  560   1.318   1.569  11.679 -0.5921  0.8010 -0.6940
   36MPD2    C3  561   1.274   1.645  11.571  0.5736 -0.4577  0.2921
   36MPD2    C4  562   1.352   1.673  11.467  0.2542  0.2455  0.2632
   36MPD2    C5  563   1.481   1.628  11.470 -0.1730  0.0600 -0.0765
   36MPD2     H  564   1.244   1.549  11.755  2.5856  1.0327  2.4298
   36MPD2    H1  565   1.319   1.726  11.379  2.6031 -0.0480 -0.8072
   36MPD2    H2  566   1.633   1.516  11.578  0.2291 -0.4508  1.5737
   36MPD2    H3  567   1.550   1.659  11.392 -0.9351  0.8785 -0.4119
   36MPD2     N  568   1.140   1.686  11.568  0.2058 -0.1055  0.3209
   36MPD2    H5  569   1.077   1.629  11.624 -0.7083 -1.7159 -2.3530
   36MPD2    N1  570   1.509   1.455  11.792  0.7361  0.1802  0.6768
   36MPD2    H7  571   1.606   1.427  11.783  0.7220  0.8580 -1.4582
   37TMC2    C1  572   3.838   0.968  11.580 -0.9827  0.4520  0.4891
   37TMC2    C2  573   3.835   0.860  11.497 -0.5534 -0.2324 -0.3206
   37TMC2    C3  574   3.951   0.822  11.433 -0.7484 -0.3291 -0.3716
   37TMC2    C4  575   3.940   1.056  11.568 -0.1796 -0.3304 -0.5667
   37TMC2    C5  576   4.049   1.024  11.500  0.3731 -0.4795  0.1613
   37TMC2    C6  577   4.056   0.906  11.430  1.0233  0.2962  0.5601
   37TMC2     C  578   3.712   1.022  11.620  0.3195 -0.0384  0.3642
   37TMC2     O  579   3.616   0.957  11.583  0.0697  0.4647 -0.4418
   37TMC2     H  580   3.750   0.793  11.505 -1.3918  0.8852  0.1394
   37TMC2    H1  581   3.951   1.145  11.628 -0.5922 -0.9298  0.4118
   37TMC2    H2  582   4.134   0.876  11.362  1.1381  0.7513  0.4918
   37TMC2    C7  583   4.170   1.110  11.512 -0.4113  0.5129 -0.1241
   37TMC2    C8  584   3.950   0.726  11.328  0.2781 -0.0375  0.1010
   37TMC2    O1  585   4.166   1.232  11.525 -0.3800  0.5073 -0.2203
   37TMC2    O2  586   4.012   0.744  11.225 -0.0017 -0.4259  0.0614
   37TMC2    O5  587   3.830   0.662  11.336  0.0642 -0.5415 -0.1699
   37TMC2    H5  588   3.811   0.630  11.427  1.7427  1.3341  0.8517
   38MPD2     C  589   3.389   1.320  11.870  0.2387  0.8673 -0.5267
   38MPD2    C1  590   3.515   1.339  11.929 -0.3909 -0.4149 -0.2993
   38MPD2    C2  591   3.617   1.264  11.875  0.4204  0.0599 -0.7082
   38MPD2    C3  592   3.608   1.194  11.754 -0.5590  0.4270  0.5723
   38MPD2    C4  593   3.481   1.182  11.696  0.3395 -0.9424  0.7028
   38MPD2    C5  594   3.371   1.246  11.755  1.1172  0.3729  0.4458
   38MPD2     H  595   3.713   1.268  11.926 -0.3491 -0.0894  0.7486
   38MPD2    H1  596   3.457   1.115  11.614  0.4375 -0.4834  0.3009
   38MPD2    H2  597   3.298   1.349  11.921 -1.0432 -1.3342 -1.5988
   38MPD2    H3  598   3.270   1.227  11.719  1.9555 -1.2185 -1.0982
   38MPD2     N  599   3.719   1.129  11.708  0.1340 -0.3049 -0.2327
   38MPD2    H5  600   3.810   1.146  11.749  0.8017  0.5095 -2.0179
   38MPD2    N1  601   3.538   1.402  12.051  0.6889 -0.3909 -0.4397
   38MPD2    H7  602   3.633   1.407  12.087  0.6910 -0.9096 -0.3771
   39TMC2    C1  603   1.808   3.313   1.440  0.4383 -0.5339 -0.2166
   39TMC2    C2  604   1.768   3.198   1.504 -0.5180  0.2181 -0.9228
   39TMC2    C3  605   1.862   3.096   1.532  0.0327 -0.0257 -0.2872
   39TMC2    C4  606   1.941   3.343   1.408  0.2970  0.2198 -0.1693
   39TMC2    C5  607   2.030   3.248   1.453 -0.0512  0.1306 -0.0618
   39TMC2    C6  608   1.998   3.119   1.504 -0.1614  0.4051  0.6807
   39TMC2     C  609   1.701   3.391   1.374 -0.3814 -0.2084  0.8231
   39TMC2     O  610   1.584   3.370   1.404  0.3600  0.1603 -0.1685
   39TMC2     H  611   1.661   3.180   1.512 -0.1335 -0.7435  1.9067
   39TMC2    H1  612   1.971   3.439   1.367 -1.6847  1.1853  0.6630
   39TMC2    H2  613   2.072   3.053   1.548  0.0421 -0.2812 -0.6865
   39TMC2    C7  614   2.169   3.274   1.459 -0.5581  0.2090 -0.0686
   39TMC2    C8  615   1.825   2.979   1.609 -0.5601  0.2348  0.0281
   39TMC2    O1  616   2.244   3.178   1.440  0.5266 -0.1174 -0.0527
   39TMC2    O2  617   1.904   2.922   1.682 -0.3880 -0.4549  0.3079
   39TMC2    O5  618   1.713   2.925   1.560  0.1648 -0.1687  0.0509
   39TMC2    H5  619   1.692   2.969   1.475 -2.4302 -0.7151  0.4150
   40MPD2     C  620   1.750   3.618   1.089  0.3334  0.4898  0.6713
   40MPD2    C1  621   1.676   3.540   1.177  0.0973  0.7468 -0.8527
   40MPD2    C2  622   1.537   3.544   1.169 -0.3686  0.5044 -0.1220
   40MPD2    C3  623   1.476   3.619   1.071 -0.4149 -0.0098 -0.2241
   40MPD2    C4  624   1.548   3.712   0.994 -0.0261 -0.2356 -0.3367
   40MPD2    C5  625   1.689   3.702   1.000 -0.0206  0.3680  0.5445
   40MPD2     H  626   1.481   3.479   1.234  1.6150 -0.5980  0.4873
   40MPD2    H1  627   1.497   3.771   0.919 -0.4022 -0.7824 -0.5055
   40MPD2    H2  628   1.857   3.601   1.100 -0.0359 -2.4522 -0.1155
   40MPD2    H3  629   1.748   3.768   0.938 -0.1618  1.5865  1.7152
   40MPD2     N  630   1.333   3.616   1.056  0.2807 -0.0089 -0.6467
   40MPD2    H5  631   1.286   3.660   0.978 -2.2945  1.1742  1.5486
   40MPD2    N1  632   1.752   3.465   1.272 -0.3484  0.2108  0.3880
   40MPD2    H7  633   1.854   3.468   1.277 -0.2948 -1.7448  0.4851
   41TMC2    C1  634   0.143   2.225  13.783 -0.3682  0.4408 -0.0829
   41TMC2    C2  635   0.059   2.299  13.850 -0.4708  0.1785 -0.8125
   41TMC2    C3  636   4.696   2.360  13.786 -0.1249  0.0227 -0.1614
   41TMC2    C4  637   0.131   2.193  13.646  0.8627 -0.0816  0.1514
   41TMC2    C5  638   0.025   2.256  13.582  0.1902  0.1220  0.3879
   41TMC2    C6  639   4.680   2.347  13.647 -0.1504 -0.5212 -0.3945
   41TMC2     C  640   0.235   2.142  13.851  0.0910  0.1766  0.2897
   41TMC2     O  641   0.292   2.056  13.787  0.4075  0.1108 -0.3555
   41TMC2     H  642   0.081   2.325  13.953 -0.6127 -1.8476 -0.2758
   41TMC2    H1  643   0.206   2.129  13.600 -0.8653 -1.4608 -0.7342
   41TMC2    H2  644   4.604   2.404  13.595 -2.1716 -0.3940  2.6702
   41TMC2    C7  645   4.737   2.228  13.446 -0.6674  0.5246  0.4620
   41TMC2    C8  646   4.627   2.457  13.857 -0.7296 -0.4771  0.2864
   41TMC2    O1  647   4.634   2.275  13.391  0.3645  0.2002 -0.5336
   41TMC2    O2  648   4.681   2.536  13.933 -0.1885  0.0017 -0.2370
   41TMC2    O5  649   4.495   2.420  13.838  0.0312 -0.3802  0.2670
   41TMC2    H5  650   4.489   2.330  13.799 -1.9156  0.3465 -1.0778
   42MPD2     C  651   0.419   2.008  14.059 -0.1183  0.2864 -0.0890
   42MPD2    C1  652   0.338   2.117  14.083  0.5172  0.1188  0.1102
   42MPD2    C2  653   0.340   2.179  14.207  0.3544 -0.4391 -0.1610
   42MPD2    C3  654   0.410   2.117  14.314 -0.1111 -0.6709  0.3345
   42MPD2    C4  655   0.488   2.003  14.296  0.9467 -0.1407  0.0979
   42MPD2    C5  656   0.498   1.958  14.162 -0.0373  0.5070  0.3674
   42MPD2     H  657   0.283   2.269  14.228 -1.3101 -1.7139  0.7391
   42MPD2    H1  658   0.536   1.951  14.378  1.1586  3.1469  2.0743
   42MPD2    H2  659   0.414   1.955  13.964 -0.2978 -0.1895  0.1854
   42MPD2    H3  660   0.549   1.862  14.157 -0.1317  0.5139 -0.7238
   42MPD2     N  661   0.398   2.147  14.453  0.4444  0.3051  0.5007
   42MPD2    H5  662   0.461   2.094  14.512  1.1352 -0.4719 -0.9663
   42MPD2    N1  663   0.258   2.181  13.981  0.4011 -0.0854  0.0780
   42MPD2    H7  664   0.212   2.262  14.020  0.7573  0.0572  0.2090
   43TMC2    C1  665   1.442   1.035   1.034  0.2288 -0.3742  0.6409
   43TMC2    C2  666   1.312   1.025   1.013 -0.6551  0.3324  0.0244
   43TMC2    C3  667   1.230   1.090   1.106  0.2582  0.1720 -0.1820
   43TMC2    C4  668   1.496   1.110   1.135 -0.3689 -0.0110 -0.7623
   43TMC2    C5  669   1.415   1.179   1.223 -0.7444 -0.2365 -0.7626
   43TMC2    C6  670   1.277   1.162   1.208 -0.1727  0.9468  1.1071
   43TMC2     C  671   1.530   0.939   0.966 -0.1404 -0.1936 -0.2074
   43TMC2     O  672   1.620   0.883   1.025  0.2927 -0.2483  0.1706
   43TMC2     H  673   1.269   0.960   0.937  2.3235 -1.4916 -0.0913
   43TMC2    H1  674   1.601   1.132   1.147 -0.8890  1.6839  0.6608
   43TMC2    H2  675   1.210   1.214   1.276 -3.3877 -1.1606 -0.4531
   43TMC2    C7  676   1.478   1.254   1.328 -0.0346  0.0678  0.3391
   43TMC2    C8  677   1.096   1.041   1.106 -0.0194  0.0510 -0.6612
   43TMC2    O1  678   1.589   1.300   1.318  0.4016  0.1443  0.0885
   43TMC2    O2  679   1.013   1.102   1.171 -0.2687 -0.3256 -0.2542
   43TMC2    O5  680   1.086   0.908   1.080 -0.1796  0.5138  0.6418
   43TMC2    H5  681   1.175   0.874   1.055 -1.4057 -1.6938 -0.7696
   44MPD2     C  682   1.710   0.726   0.547 -0.5637 -0.6794 -0.0555
   44MPD2    C1  683   1.737   0.693   0.678 -0.3901  0.4929 -0.2923
   44MPD2    C2  684   1.673   0.763   0.775 -0.3052 -0.0341 -0.1333
   44MPD2    C3  685   1.577   0.858   0.740  1.1315 -0.4210 -0.3249
   44MPD2    C4  686   1.545   0.876   0.608  0.5112  0.1857  0.5571
   44MPD2    C5  687   1.619   0.817   0.508 -0.0524 -0.7102  0.1192
   44MPD2     H  688   1.706   0.732   0.874  0.6222  0.5947 -0.2413
   44MPD2    H1  689   1.472   0.949   0.576 -0.6555 -0.4226  1.8153
   44MPD2    H2  690   1.756   0.675   0.463  0.2847 -0.1311  0.0799
   44MPD2    H3  691   1.607   0.839   0.403  1.6408  3.2470  0.7483
   44MPD2     N  692   1.505   0.937   0.836 -0.2985 -0.0811 -0.4306
   44MPD2    H5  693   1.434   1.001   0.800 -1.2067 -0.3241  0.9399
   44MPD2    N1  694   1.824   0.594   0.716  0.2564 -0.1853 -0.0767
   44MPD2    H7  695   1.829   0.567   0.814 -0.8680 -2.2761 -0.5788
   45TMC2    C1  696   3.214   1.878   9.680  0.3300 -0.1032 -0.2922
   45TMC2    C2  697   3.286   1.770   9.714 -0.9019 -0.2078 -0.0206
   45TMC2    C3  698   3.391   1.788   9.806  0.0215  0.4873 -0.4492
   45TMC2    C4  699   3.236   1.999   9.750 -0.7507 -0.1020 -0.2513
   45TMC2    C5  700   3.336   2.009   9.846  0.2023  0.4998 -0.0226
   45TMC2    C6  701   3.422   1.908   9.866 -0.0175 -0.5036  0.1073
   45TMC2     C  702   3.097   1.857   9.593 -0.4436  0.0651  0.7436
   45TMC2     O  703   3.053   1.744   9.591  0.1464 -0.5291  0.1622
   45TMC2     H  704   3.257   1.673   9.676  0.2846 -0.8473  0.7070
   45TMC2    H1  705   3.177   2.087   9.728 -1.1191 -0.5943 -1.2559
   45TMC2    H2  706   3.501   1.913   9.940  1.2551 -0.1999 -1.2768
   45TMC2    C7  707   3.363   2.146   9.901 -0.7270  0.4047  0.1250
   45TMC2    C8  708   3.492   1.686   9.796 -0.6415  0.2606 -0.2373
   45TMC2    O1  709   3.277   2.235   9.883 -0.2213  0.6127 -0.2963
   45TMC2    O2  710   3.462   1.574   9.755 -0.8075 -0.1232 -0.9002
   45TMC2    O5  711   3.610   1.737   9.801 -0.0058  0.0017 -0.3955
   45TMC2    H5  712   3.601   1.835   9.802  0.9120  0.1002 -2.5850
   46MPD2     C  713   2.826   1.873   9.455 -0.0124  0.5320  0.6621
   46MPD2    C1  714   2.888   1.981   9.509 -0.0031 -0.2366  0.4750
   46MPD2    C2  715   2.826   2.102   9.496 -0.1019  0.3033 -0.1935
   46MPD2    C3  716   2.695   2.111   9.450  0.1570 -0.5265 -0.2851
   46MPD2    C4  717   2.638   1.995   9.397 -0.5824  0.5058  0.0112
   46MPD2    C5  718   2.702   1.877   9.403 -0.3769  0.3071 -0.0275
   46MPD2     H  719   2.866   2.192   9.542 -0.8938  0.0676  0.9588
   46MPD2    H1  720   2.542   1.995   9.345  0.0041  0.1214 -1.0634
   46MPD2    H2  721   2.876   1.776   9.449  1.2909  1.2402  0.1246
   46MPD2    H3  722   2.658   1.799   9.342  0.3397  0.1731 -0.3743
   46MPD2     N  723   2.630   2.238   9.453 -0.0639  0.3991  0.1889
   46MPD2    H5  724   2.686   2.323   9.461  0.2249  0.1434  0.8210
   46MPD2    N1  725   3.019   1.972   9.575  0.1247 -0.8099 -0.0877
   46MPD2    H7  726   3.074   2.058   9.585  0.0383 -1.1806  3.7735
   47TMC2    C1  727   0.057   3.162   9.599  0.6982  0.0219 -0.2675
   47TMC2    C2  728   4.734   3.288   9.595  0.6528  0.1803 -0.4604
   47TMC2    C3  729   4.658   3.327   9.703  0.4710 -0.6456 -0.5248
   47TMC2    C4  730   0.039   3.081   9.709 -0.0169  0.3270 -0.2444
   47TMC2    C5  731   4.691   3.125   9.812 -0.3095 -0.4828 -0.4027
   47TMC2    C6  732   4.636   3.250   9.813 -0.1848 -0.3261  0.2856
   47TMC2     C  733   0.145   3.133   9.489  0.1495  0.4153  0.0226
   47TMC2     O  734   0.135   3.194   9.385 -0.0321 -1.1936 -0.2033
   47TMC2     H  735   0.018   3.359   9.516 -3.0800  2.1424  0.2475
   47TMC2    H1  736   0.079   2.981   9.704  0.1721  0.3859  0.0792
   47TMC2    H2  737   4.579   3.295   9.894 -0.8203 -0.0739 -0.3020
   47TMC2    C7  738   4.678   3.041   9.930  0.2506  1.0004  0.3460
   47TMC2    C8  739   4.587   3.453   9.702  0.1950  0.0920  0.5297
   47TMC2    O1  740   4.584   3.060  10.006 -0.0273 -0.1028 -0.4685
   47TMC2    O2  741   4.566   3.514   9.805  0.4442  0.0713  0.1044
   47TMC2    O5  742   4.498   3.442   9.599 -0.1053 -1.0067 -0.1286
   47TMC2    H5  743   4.527   3.379   9.529  0.2570 -0.3651 -0.5537
   48MPD2     C  744   0.349   3.019   9.307 -0.0386 -0.6125  0.4526
   48MPD2    C1  745   0.294   2.951   9.414  0.2658  0.3347 -0.0364
   48MPD2    C2  746   0.332   2.819   9.431  0.1438 -0.7004 -0.1264
   48MPD2    C3  747   0.399   2.753   9.331 -0.0646  0.4043  0.0769
   48MPD2    C4  748   0.441   2.823   9.219 -0.2739 -0.1154 -0.1656
   48MPD2    C5  749   0.416   2.952   9.205 -0.5812  0.5988  0.2516
   48MPD2     H  750   0.313   2.756   9.518  0.4956 -0.9451 -0.2223
   48MPD2    H1  751   0.494   2.774   9.139  1.4997  0.6627  0.5342
   48MPD2    H2  752   0.335   3.125   9.291 -1.5914 -0.6352  1.6817
   48MPD2    H3  753   0.449   2.994   9.111  0.2639  0.7095  0.6015
   48MPD2     N  754   0.445   2.622   9.358 -0.1372  0.1444 -0.2471
   48MPD2    H5  755   0.416   2.581   9.446  3.3857  0.5052  1.0922
   48MPD2    N1  756   0.216   3.017   9.506 -0.4953 -0.3059  0.0527
   48MPD2    H7  757   0.194   2.973   9.595  0.1516  0.7408  0.7352
   49TMC2    C1  758   2.798   4.179  10.680  0.1811 -0.4153  0.1259
   49TMC2    C2  759   2.903   4.219  10.604  0.0924  0.1856  0.2149
   49TMC2    C3  760   2.890   4.235  10.471  1.0853  0.0824  0.1547
   49TMC2    C4  761   2.677   4.153  10.621  0.0741  0.1317  0.3426
   49TMC2    C5  762   2.666   4.183  10.486  0.4009 -0.0152 -0.0120
   49TMC2    C6  763   2.770   4.228  10.406 -0.2271  0.4337  0.4254
   49TMC2     C  764   2.825   4.119  10.806  0.0483  0.1837  0.6206
   49TMC2     O  765   2.751   4.027  10.836 -0.8419 -0.4474  0.2200
   49TMC2     H  766   3.005   4.221  10.640 -0.3232  0.9717  1.3198
   49TMC2    H1  767   2.592   4.117  10.677  0.0656  1.2264  1.0437
   49TMC2    H2  768   2.766   4.253  10.300 -0.4796  1.5162  0.6883
   49TMC2    C7  769   2.558   4.126  10.410 -0.2232 -0.8221 -0.2490
   49TMC2    C8  770   3.006   4.259  10.388 -0.1070 -0.4061 -0.1764
   49TMC2    O1  771   2.525   4.178  10.304 -0.0274  0.0618  0.6150
   49TMC2    O2  772   2.993   4.306  10.277 -0.7977  0.1176  0.5883
   49TMC2    O5  773   3.085   4.153  10.420  0.0144 -0.0018 -0.3675
   49TMC2    H5  774   3.054   4.098  10.495 -1.2560 -0.6085 -1.3293
   50MPD2     C  775   2.927   4.049  11.081  0.1260  0.1975 -0.4556
   50MPD2    C1  776   2.953   4.165  11.015  0.7077 -0.2255  0.0096
   50MPD2    C2  777   3.019   4.263  11.085  0.5822 -0.3643 -0.6995
   50MPD2    C3  778   3.063   4.242  11.210 -0.8395 -0.1198 -0.6531
   50MPD2    C4  779   3.038   4.127  11.277  1.0421 -0.7583  0.5191
   50MPD2    C5  780   2.966   4.031  11.213  0.4431 -0.1907 -0.7027
   50MPD2     H  781   3.035   4.353  11.026  1.4978 -0.6552 -0.8855
   50MPD2    H1  782   3.074   4.098  11.375 -1.2284 -3.2477  0.6101
   50MPD2    H2  783   2.866   3.969  11.040  1.4512 -1.2596  0.4232
   50MPD2    H3  784   2.937   3.940  11.265  0.4394 -0.9615 -2.0323
   50MPD2     N  785   3.151   4.336  11.273  0.2329  0.0922  0.5434
   50MPD2    H5  786   3.169   4.321  11.372  0.8853 -1.9355  0.1193
   50MPD2    N1  787   2.915   4.191  10.884  0.3854  0.3606  0.7771
   50MPD2    H7  788   2.944   4.280  10.844 -0.2331  0.2859  0.1538
   51TMC2    C1  789   3.156   4.616   2.315  0.6925 -0.4899 -0.0886
   51TMC2    C2  790   3.106   4.723   2.243  0.0163 -0.9266  0.4905
   51TMC2    C3  791   3.172   0.100   2.250 -0.3052  0.2632  0.2601
   51TMC2    C4  792   3.279   4.617   2.375  0.5077  0.4290 -0.2564
   51TMC2    C5  793   3.346   4.734   2.371 -0.0013  0.4714  0.6392
   51TMC2    C6  794   3.288   0.107   2.313  0.4045  0.4919 -1.0608
   51TMC2     C  795   3.090   4.486   2.309 -0.1938  0.5153 -0.0636
   51TMC2     O  796   3.165   4.392   2.315  0.2419 -0.3518  0.6614
   51TMC2     H  797   3.017   4.727   2.182  1.0068  1.9726 -0.7869
   51TMC2    H1  798   3.320   4.526   2.417 -3.1705 -1.7160 -1.2457
   51TMC2    H2  799   3.331   0.206   2.322 -0.1826  0.7230 -0.8514
   51TMC2    C7  800   3.498   4.730   2.385 -0.2704  0.1496  0.5387
   51TMC2    C8  801   3.104   0.224   2.214  0.2458  0.5101  0.2691
   51TMC2    O1  802   3.539   4.621   2.417  0.2472 -0.3317  0.1774
   51TMC2    O2  803   2.981   0.234   2.198 -0.3465  0.0313  0.2758
   51TMC2    O5  804   3.189   0.321   2.178  0.4183 -0.2161 -1.0626
   51TMC2    H5  805   3.283   0.292   2.173  0.7498  0.3749  1.5357
   52MPD2     C  806   2.672   4.191   2.218 -0.0684  0.3961 -0.6115
   52MPD2    C1  807   2.805   4.160   2.218 -0.0883 -0.1732  0.3927
   52MPD2    C2  808   2.899   4.260   2.238  0.1136  0.4710 -0.1864
   52MPD2    C3  809   2.861   4.394   2.264  0.5901 -0.4523 -0.4687
   52MPD2    C4  810   2.730   4.424   2.256  0.2549 -0.1935 -0.2039
   52MPD2    C5  811   2.638   4.326   2.225  0.1440  0.4416 -0.1029
   52MPD2     H  812   3.004   4.244   2.217 -0.0959 -2.8773  1.3914
   52MPD2    H1  813   2.695   4.527   2.254  2.0599  0.3874 -1.4002
   52MPD2    H2  814   2.599   4.116   2.189  0.5462 -0.4466  0.0120
   52MPD2    H3  815   2.534   4.356   2.217  0.0887  0.3137  0.1270
   52MPD2     N  816   2.954   4.498   2.281 -0.1564 -0.0256 -0.0764
   52MPD2    H5  817   2.911   4.589   2.267  0.2315  0.5748  2.5172
   52MPD2    N1  818   2.865   4.033   2.180 -0.1612  0.2552  0.1519
   52MPD2    H7  819   2.965   4.033   2.164 -0.2720  0.5148 -0.5177
   53TMC2    C1  820   4.731   1.580  11.409  0.4039  0.0848  0.5069
   53TMC2    C2  821   0.085   1.646  11.331 -0.7743  0.0970  0.0918
   53TMC2    C3  822   0.076   1.786  11.329 -0.2715  0.2755  0.4765
   53TMC2    C4  823   4.643   1.645  11.493 -0.5253  0.3999  0.2092
   53TMC2    C5  824   4.659   1.785  11.499  0.0533 -0.1016  0.2668
   53TMC2    C6  825   0.001   1.859  11.412 -0.7334  0.1585 -0.6527
   53TMC2     C  826   4.721   1.439  11.386  0.2538 -0.3689  0.4650
   53TMC2     O  827   0.087   1.372  11.378 -0.2660  0.6498 -0.4462
   53TMC2     H  828   0.138   1.590  11.255  2.8039 -0.0559  2.6831
   53TMC2    H1  829   4.580   1.585  11.557 -1.8718  1.6619  0.0747
   53TMC2    H2  830   4.727   1.967  11.410  2.1146  0.4322 -2.4269
   53TMC2    C7  831   4.613   1.842  11.624  0.1843  0.5648 -0.0686
   53TMC2    C8  832   0.105   1.839  11.203 -0.8037  0.5127  0.5450
   53TMC2    O1  833   4.551   1.773  11.708 -0.5315 -0.6805 -0.1855
   53TMC2    O2  834   0.098   1.768  11.103 -0.4581 -0.0870 -0.0812
   53TMC2    O5  835   0.181   1.947  11.213  0.3928 -0.0245  0.3011
   53TMC2    H5  836   0.188   1.977  11.306 -0.2333 -0.3910  0.4616
   54MPD2     C  837   4.650   1.157  11.327 -0.6929  0.3370 -1.0063
   54MPD2    C1  838   4.564   1.249  11.390 -0.2379 -0.4741 -0.8040
   54MPD2    C2  839   4.443   1.209  11.433  0.6004  0.4107  0.5336
   54MPD2    C3  840   4.404   1.076  11.433  0.1941 -0.5314 -0.2525
   54MPD2    C4  841   4.490   0.984  11.380  0.5574 -0.8164 -0.2186
   54MPD2    C5  842   4.607   1.024  11.325  0.1046  0.1673  0.5389
   54MPD2     H  843   4.385   1.287  11.480  3.4256  1.7505  1.8072
   54MPD2    H1  844   4.472   0.877  11.371 -1.2269 -0.5064 -0.3378
   54MPD2    H2  845   4.737   1.187  11.268 -0.1649 -2.6422 -1.7179
   54MPD2    H3  846   4.673   0.952  11.277  0.6869  0.3584  1.0601
   54MPD2     N  847   4.282   1.029  11.481  0.4754  0.0925  0.4093
   54MPD2    H5  848   4.273   0.928  11.488 -1.5780  0.0632 -3.0640
   54MPD2    N1  849   4.593   1.388  11.403 -0.1890  0.0644 -0.5283
   54MPD2    H7  850   4.521   1.449  11.439 -0.2358 -0.0395 -0.4442
   55TMC2    C1  851   4.565   0.528  17.293  1.0138 -0.1252 -0.3827
   55TMC2    C2  852   4.604   0.492  17.166 -0.4458 -0.0321  0.3696
   55TMC2    C3  853   4.627   0.356  17.148 -0.1681  0.1333  0.4196
   55TMC2    C4  854   4.545   0.439  17.396  0.4256  0.5692 -0.1824
   55TMC2    C5  855   4.580   0.315  17.372 -0.7025 -0.3228 -0.1100
   55TMC2    C6  856   4.621   0.271  17.253  0.4655 -0.0174  0.4073
   55TMC2     C  857   4.510   0.661  17.314  0.3374  0.2860  0.6593
   55TMC2     O  858   4.495   0.705  17.430  0.2715 -0.7033  0.5346
   55TMC2     H  859   4.599   0.556  17.078 -2.4729  1.9641  1.9379
   55TMC2    H1  860   4.499   0.483  17.484 -0.0558 -0.6809  0.1971
   55TMC2    H2  861   4.645   0.167  17.231  0.8386  1.2128 -4.9198
   55TMC2    C7  862   4.601   0.215  17.482 -0.4453  0.5033 -0.8476
   55TMC2    C8  863   4.660   0.307  17.016  0.2205 -0.4354 -0.6229
   55TMC2    O1  864   4.615   0.096  17.462 -0.0350  0.0364  0.2485
   55TMC2    O2  865   4.639   0.376  16.917 -0.1457  0.4030  0.0065
   55TMC2    O5  866   0.038   0.236  17.035  0.1843  0.4759  0.2493
   55TMC2    H5  867   0.053   0.201  17.125  1.8134 -0.5268 -0.4070
   56MPD2     C  868   4.368   0.866  17.048 -0.6266  1.0843  0.5619
   56MPD2    C1  869   4.394   0.829  17.178  1.0357 -0.3153 -0.4083
   56MPD2    C2  870   4.350   0.903  17.280  0.3299 -0.2010 -0.2702
   56MPD2    C3  871   4.280   1.020  17.252  0.8894 -0.2854  0.1863
   56MPD2    C4  872   4.256   1.061  17.119 -0.5738 -0.5702 -0.3546
   56MPD2    C5  873   4.295   0.974  17.023  0.4715  0.0761 -0.0053
   56MPD2     H  874   4.351   0.862  17.380 -3.2321  0.4446  0.0354
   56MPD2    H1  875   4.191   1.142  17.089  0.6762  0.6512  0.2718
   56MPD2    H2  876   4.392   0.796  16.969  0.4582  2.2082 -0.1033
   56MPD2    H3  877   4.257   0.976  16.922  1.9471 -1.2456 -0.5949
   56MPD2     N  878   4.223   1.082  17.363 -0.0667  0.4418 -0.1510
   56MPD2    H5  879   4.241   1.046  17.457  0.6710  0.4622 -0.2814
   56MPD2    N1  880   4.464   0.707  17.197 -0.2395  0.5534 -0.0114
   56MPD2    H7  881   4.483   0.650  17.115 -1.3923  1.9274 -1.2318
   57TMC2    C1  882   4.232   1.141  13.134 -0.5739 -0.4306  0.1233
   57TMC2    C2  883   4.174   1.183  13.017 -0.2953 -0.5879  0.1586
   57TMC2    C3  884   4.262   1.183  12.913  0.0634  0.4603  0.6775
   57TMC2    C4  885   4.359   1.088  13.143 -0.0955  0.8805  0.6423
   57TMC2    C5  886   4.436   1.081  13.026  0.1040  0.4001  0.0149
   57TMC2    C6  887   4.388   1.137  12.915  0.6591 -0.2662 -0.2240
   57TMC2     C  888   4.163   1.148  13.252 -0.1135  0.4041 -0.4456
   57TMC2     O  889   4.099   1.245  13.274  0.1525 -0.0422 -0.1676
   57TMC2     H  890   4.076   1.230  13.022 -1.8946 -3.8875 -0.6291
   57TMC2    H1  891   4.393   1.048  13.238 -0.3146 -0.9983 -0.0790
   57TMC2    H2  892   4.459   1.131  12.833  0.6884  0.0760 -0.2233
   57TMC2    C7  893   4.575   1.054  13.038  0.1516 -0.0934 -0.4569
   57TMC2    C8  894   4.210   1.237  12.792 -0.0569 -0.2261  0.1727
   57TMC2    O1  895   4.647   1.100  12.955  0.0148 -0.2522  0.3626
   57TMC2    O2  896   4.098   1.289  12.775  0.3400  0.7954  0.5572
   57TMC2    O5  897   4.270   1.188  12.679  0.3349  0.2941 -0.0781
   57TMC2    H5  898   4.357   1.142  12.685 -0.5491 -1.4133 -0.4390
   58MPD2     C  899   4.018   0.977  13.711  0.0094 -0.3029  0.1790
   58MPD2    C1  900   3.994   1.096  13.652 -0.2500 -0.2117  0.3567
   58MPD2    C2  901   4.044   1.116  13.525 -0.0510 -0.1517 -0.0205
   58MPD2    C3  902   4.126   1.021  13.464  0.2213 -0.4275  0.7811
   58MPD2    C4  903   4.151   0.903  13.529 -0.5806  0.8690  0.4775
   58MPD2    C5  904   4.090   0.881  13.655 -0.2420  0.6110 -0.2086
   58MPD2     H  905   4.013   1.208  13.477  2.4408  0.6439 -0.1148
   58MPD2    H1  906   4.223   0.833  13.487 -0.8399  0.9090 -0.0343
   58MPD2    H2  907   3.978   0.960  13.811 -0.3407 -1.5920 -0.1817
   58MPD2    H3  908   4.113   0.786  13.702  1.2644  1.4922  0.8472
   58MPD2     N  909   4.177   1.036  13.331  0.4088 -0.6040  0.1952
   58MPD2    H5  910   4.218   0.953  13.288 -0.3520 -0.4094 -0.8911
   58MPD2    N1  911   3.902   1.196  13.703  0.0459 -0.4740 -0.4195
   58MPD2    H7  912   3.883   1.271  13.638 -1.1860 -0.8345 -0.4645
   59TMC2    C1  913   2.099   0.893  12.938  0.2528 -1.0812  0.3457
   59TMC2    C2  914   2.114   0.783  13.021 -0.9155  0.2152 -1.1506
   59TMC2    C3  915   2.025   0.682  13.014 -0.2972  0.1213 -0.3183
   59TMC2    C4  916   1.985   0.900  12.856  0.2025  0.1777 -0.8461
   59TMC2    C5  917   1.897   0.801  12.862 -0.4645 -0.1973  0.2201
   59TMC2    C6  918   1.916   0.689  12.944 -0.7783  0.2671  0.1576
   59TMC2     C  919   2.137   1.017  13.011  0.3070  0.2273  0.2602
   59TMC2     O  920   2.233   1.003  13.089  0.2272 -0.1086 -0.2975
   59TMC2     H  921   2.194   0.771  13.094  0.1393 -0.5753 -2.4336
   59TMC2    H1  922   1.975   0.984  12.788  0.9646  0.7850 -0.2139
   59TMC2    H2  923   1.850   0.603  12.943 -0.7849  0.2661  1.4753
   59TMC2    C7  924   1.790   0.780  12.764  0.9495 -0.6848 -0.2925
   59TMC2    C8  925   2.045   0.558  13.088 -0.5660  0.7602 -0.4668
   59TMC2    O1  926   1.721   0.680  12.770 -0.3396  0.0595  0.1682
   59TMC2    O2  927   1.944   0.504  13.127 -0.1220  0.0160  0.2305
   59TMC2    O5  928   2.131   0.491  13.016 -0.0268  0.5632  0.2271
   59TMC2    H5  929   2.179   0.540  12.945  1.6396  0.6198  1.3842
   60MPD2     C  930   1.932   1.309  13.093 -0.5001  0.1467  0.3773
   60MPD2    C1  931   2.049   1.236  13.070  0.0474 -0.5569  0.4088
   60MPD2    C2  932   2.169   1.298  13.099  0.6105 -0.5752  0.0588
   60MPD2    C3  933   2.174   1.420  13.161  0.0016  0.8775  0.9992
   60MPD2    C4  934   2.053   1.486  13.183  0.0568 -0.1159  0.4963
   60MPD2    C5  935   1.931   1.437  13.137  0.2873  0.4175 -0.1056
   60MPD2     H  936   2.258   1.239  13.083  0.8669 -0.9390  2.7190
   60MPD2    H1  937   2.058   1.587  13.221  0.8504  0.9583 -2.4619
   60MPD2    H2  938   1.837   1.261  13.077 -1.2914  1.7692  0.1825
   60MPD2    H3  939   1.845   1.501  13.154 -0.9622 -1.3880  0.3679
   60MPD2     N  940   2.284   1.491  13.215  0.2118  0.1643 -0.2223
   60MPD2    H5  941   2.274   1.580  13.262 -0.0235 -0.7657  1.4879
   60MPD2    N1  942   2.045   1.115  12.999  0.6142 -0.0881 -0.3528
   60MPD2    H7  943   1.959   1.085  12.954  0.0274  0.8516  0.1486
   61TMC2    C1  944   1.093   1.885  15.678  0.6148  0.6710 -0.0042
   61TMC2    C2  945   1.156   1.889  15.795 -0.3002 -0.5689  0.1240
   61TMC2    C3  946   1.098   1.975  15.886  0.4975 -0.0578  0.4948
   61TMC2    C4  947   0.970   1.946  15.652 -0.1284 -0.1304 -0.2100
   61TMC2    C5  948   0.924   2.035  15.745 -0.1672 -0.6902 -1.1249
   61TMC2    C6  949   0.989   2.056  15.860 -0.9625  0.0285 -0.5018
   61TMC2     C  950   1.186   1.886  15.566  0.9644  0.1022 -0.5235
   61TMC2     O  951   1.271   1.797  15.571  0.2307  0.2212 -0.8254
   61TMC2     H  952   1.257   1.849  15.798 -1.1373 -2.5568  1.2090
   61TMC2    H1  953   0.933   1.923  15.553 -1.4904  0.1782  0.2257
   61TMC2    H2  954   0.952   2.131  15.929  1.8847 -2.1070  3.3192
   61TMC2    C7  955   0.830   2.136  15.704  0.6159  0.4064 -0.3446
   61TMC2    C8  956   1.171   2.004  16.005  0.6835 -0.3283  0.4496
   61TMC2    O1  957   0.854   2.247  15.744  0.3674  0.0559 -0.0011
   61TMC2    O2  958   1.169   2.118  16.044  0.2577  0.1186  0.1953
   61TMC2    O5  959   1.191   1.895  16.080  0.2807  0.3745 -0.0600
   61TMC2    H5  960   1.143   1.818  16.044  0.4637 -0.0065  0.5151
   62MPD2     C  961   1.382   1.956  15.364  0.3567  0.2210 -0.1413
   62MPD2    C1  962   1.280   2.032  15.400  0.1340 -0.7588 -0.2507
   62MPD2    C2  963   1.260   2.158  15.342 -0.2984 -0.9342 -0.0576
   62MPD2    C3  964   1.360   2.219  15.263  0.0858 -0.8512 -0.3943
   62MPD2    C4  965   1.480   2.144  15.250 -0.5152 -0.5727 -0.4832
   62MPD2    C5  966   1.494   2.014  15.297  0.3309  0.0599  0.1279
   62MPD2     H  967   1.170   2.214  15.364 -0.0504 -0.5261 -0.0903
   62MPD2    H1  968   1.562   2.181  15.190  0.1129 -2.2442 -0.6535
   62MPD2    H2  969   1.405   1.856  15.400  2.2075  0.6013 -0.2738
   62MPD2    H3  970   1.580   1.951  15.276 -1.0911 -1.7099 -0.3952
   62MPD2     N  971   1.351   2.353  15.229  0.7922 -0.2023  0.1377
   62MPD2    H5  972   1.270   2.405  15.259 -0.3002 -0.3802 -2.4864
   62MPD2    N1  973   1.172   1.996  15.485 -0.2966 -0.6779 -0.1805
   62MPD2    H7  974   1.108   2.064  15.523  0.6943 -0.4075  1.0039
   63TMC2    C1  975   0.939   2.463  10.763  0.4677 -0.1704 -0.4380
   63TMC2    C2  976   1.073   2.510  10.778  0.9210 -0.2463 -0.3813
   63TMC2    C3  977   1.124   2.597  10.688 -0.7072  0.2507  0.3950
   63TMC2    C4  978   0.860   2.498  10.652 -0.4369  0.0178  0.5141
   63TMC2    C5  979   0.921   2.591  10.575 -0.0699  0.1753  0.1966
   63TMC2    C6  980   1.045   2.641  10.588 -0.0439  0.2073 -0.4980
   63TMC2     C  981   0.894   2.368  10.857 -0.8572  0.1209  0.4403
   63TMC2     O  982   0.947   2.353  10.967 -0.0425 -0.5806 -0.3668
   63TMC2     H  983   1.129   2.478  10.865 -2.3697 -2.1539  1.0507
   63TMC2    H1  984   0.753   2.486  10.662 -0.6894  0.9993 -0.9113
   63TMC2    H2  985   1.083   2.720  10.524 -0.7406  0.0965 -1.0502
   63TMC2    C7  986   0.847   2.634  10.456  0.3805  0.1779 -0.3882
   63TMC2    C8  987   1.218   2.689  10.730  0.2610 -0.3914 -0.6805
   63TMC2    O1  988   0.734   2.584  10.438 -0.2559 -0.3854 -0.1293
   63TMC2    O2  989   1.215   2.804  10.696 -0.2756 -0.1671  0.0932
   63TMC2    O5  990   1.290   2.635  10.825  0.5059  0.5240 -0.4342
   63TMC2    H5  991   1.282   2.538  10.831  1.7385  0.4307 -0.3723
   64MPD2     C  992   0.576   1.966  10.987 -0.0092  0.0685  0.0856
   64MPD2    C1  993   0.594   1.986  10.850 -0.1502 -0.9619 -0.4141
   64MPD2    C2  994   0.652   2.101  10.790 -0.3229 -0.0353  0.3493
   64MPD2    C3  995   0.729   2.189  10.868 -0.1334 -0.3449 -0.5560
   64MPD2    C4  996   0.717   2.164  11.009 -0.1903  0.4068  0.3519
   64MPD2    C5  997   0.642   2.061  11.064  0.0492  0.3411 -0.0487
   64MPD2     H  998   0.673   2.097  10.683 -0.9209 -0.1905  0.2361
   64MPD2    H1  999   0.773   2.220  11.083  0.8747  0.6808 -0.6742
   64MPD2    H2 1000   0.517   1.887  11.032 -2.8244  1.1993 -1.5865
   64MPD2    H3 1001   0.652   2.058  11.172  1.6726 -1.5316 -0.2636
   64MPD2     N 1002   0.808   2.286  10.797 -0.0867 -0.6097  0.4230
   64MPD2    H5 1003   0.801   2.279  10.696 -2.6713  1.8110  0.4252
   64MPD2    N1 1004   0.548   1.894  10.754 -0.4325  0.2962  0.7643
   64MPD2    H7 1005   0.568   1.925  10.659  0.1357 -1.6898  0.2487
   65TMC2    C1 1006   1.863   2.201  15.547  0.0956 -0.2380 -0.9046
   65TMC2    C2 1007   1.871   2.174  15.415 -0.7011  0.4539 -0.0730
   65TMC2    C3 1008   1.851   2.278  15.327  0.7230  0.1898  0.1039
   65TMC2    C4 1009   1.823   2.321  15.597 -0.7051  0.2686  0.1561
   65TMC2    C5 1010   1.786   2.420  15.506 -0.3032 -0.2327  0.1019
   65TMC2    C6 1011   1.809   2.401  15.366  0.6167 -0.0159  0.1787
   65TMC2     C 1012   1.880   2.094  15.646  0.3279 -0.4994  0.3780
   65TMC2     O 1013   1.894   2.121  15.765 -0.3055 -0.3190  0.0473
   65TMC2     H 1014   1.905   2.080  15.372 -2.2154 -0.2941  0.3759
   65TMC2    H1 1015   1.832   2.341  15.703 -0.4712 -0.5212  0.2846
   65TMC2    H2 1016   1.768   2.473  15.296 -0.2080  0.8460  1.5449
   65TMC2    C7 1017   1.701   2.531  15.544 -0.2985  0.2336 -0.1763
   65TMC2    C8 1018   1.874   2.258  15.187  0.0429 -0.0653 -0.2412
   65TMC2    O1 1019   1.674   2.610  15.454  0.0028  0.4481  0.2280
   65TMC2    O2 1020   1.899   2.143  15.153  0.1913  0.1875 -0.5954
   65TMC2    O5 1021   1.960   2.360  15.157  0.2574 -0.1286  0.1072
   65TMC2    H5 1022   1.938   2.441  15.207 -0.7320  1.0682 -2.2401
   66MPD2     C 1023   1.859   1.838  15.781  0.1576 -0.7194 -0.9255
   66MPD2    C1 1024   1.843   1.851  15.645  0.0916  0.0436 -0.3535
   66MPD2    C2 1025   1.809   1.736  15.569  0.1605 -0.6539 -0.4586
   66MPD2    C3 1026   1.800   1.613  15.630 -0.2156  0.4941 -0.1591
   66MPD2    C4 1027   1.818   1.599  15.766  0.7017  0.0537 -0.4172
   66MPD2    C5 1028   1.846   1.715  15.836 -0.0954 -0.2850 -0.1920
   66MPD2     H 1029   1.798   1.751  15.462 -2.8177 -0.1988 -0.0930
   66MPD2    H1 1030   1.805   1.506  15.820  1.2641  0.8996  1.1574
   66MPD2    H2 1031   1.866   1.918  15.854 -2.9472 -1.1468 -0.1369
   66MPD2    H3 1032   1.856   1.707  15.943  0.0492  1.6340 -0.0707
   66MPD2     N 1033   1.746   1.490  15.568 -0.4941  0.9400 -0.3618
   66MPD2    H5 1034   1.745   1.408  15.628  0.7390  0.9916 -0.2729
   66MPD2    N1 1035   1.862   1.974  15.582  0.2141 -1.0785  0.2768
   66MPD2    H7 1036   1.845   1.975  15.482  2.9910 -1.9171 -0.1891
   67TMC2    C1 1037   2.262   1.571  14.172 -0.3159 -0.6923 -0.0020
   67TMC2    C2 1038   2.249   1.705  14.193 -0.7863 -0.1817 -0.2494
   67TMC2    C3 1039   2.305   1.755  14.307 -0.0628 -0.4656 -0.9177
   67TMC2    C4 1040   2.340   1.490  14.259 -0.1754  0.4246  0.0498
   67TMC2    C5 1041   2.399   1.557  14.371 -0.6761 -0.4440 -0.0205
   67TMC2    C6 1042   2.375   1.691  14.399 -0.2303 -0.1266 -0.1317
   67TMC2     C 1043   2.184   1.490  14.075 -0.0999 -0.0079 -0.3636
   67TMC2     O 1044   2.220   1.379  14.047  0.3336  0.2466  0.1380
   67TMC2     H 1045   2.192   1.774  14.133  0.0349  1.4905  0.8797
   67TMC2    H1 1046   2.349   1.383  14.250  0.5921  0.2852  2.5059
   67TMC2    H2 1047   2.423   1.747  14.479  0.7580 -1.4343  0.1807
   67TMC2    C7 1048   2.471   1.477  14.473  0.0601  0.0906  0.0991
   67TMC2    C8 1049   2.374   1.880  14.277 -0.1180  0.2788 -0.5627
   67TMC2    O1 1050   2.547   1.385  14.446 -0.5139  0.1991 -0.4987
   67TMC2    O2 1051   2.427   1.901  14.166  0.5019 -0.5029 -0.2890
   67TMC2    O5 1052   2.366   1.965  14.380 -0.1011  0.2434  0.0306
   67TMC2    H5 1053   2.316   1.923  14.453 -0.7845 -0.4031 -0.8088
   68MPD2     C 1054   1.987   1.359  13.879 -0.3180 -0.1536  0.4211
   68MPD2    C1 1055   1.974   1.485  13.937  0.0778 -0.3485 -0.0498
   68MPD2    C2 1056   1.846   1.544  13.923 -1.0293  0.1345 -0.0820
   68MPD2    C3 1057   1.738   1.486  13.856 -0.1351 -0.1066 -0.5167
   68MPD2    C4 1058   1.762   1.364  13.798 -0.7057  0.2459  0.0244
   68MPD2    C5 1059   1.885   1.305  13.807  0.6720 -0.2060  0.3017
   68MPD2     H 1060   1.830   1.634  13.981  2.5820 -0.0043  1.1854
   68MPD2    H1 1061   1.691   1.322  13.728  0.4977 -1.5042 -0.1359
   68MPD2    H2 1062   2.084   1.310  13.871  0.9038  2.1723  0.9639
   68MPD2    H3 1063   1.901   1.213  13.751 -1.9791  0.2896 -1.2390
   68MPD2     N 1064   1.613   1.557  13.831  0.3668 -0.6064 -0.7296
   68MPD2    H5 1065   1.536   1.499  13.799 -0.0716 -1.0725  1.1585
   68MPD2    N1 1066   2.072   1.548  14.027  0.4986 -0.3125 -0.5085
   68MPD2    H7 1067   2.048   1.644  14.053  0.9594 -0.4367  0.3808
   69TMC2    C1 1068   0.110   2.489  12.879  0.5176  0.0462 -0.3138
   69TMC2    C2 1069   0.156   2.559  12.989 -0.0072  0.6594  0.8480
   69TMC2    C3 1070   0.257   2.647  12.975  0.2155  0.3055  0.6408
   69TMC2    C4 1071   0.192   2.476  12.772  0.4381  0.4410  0.3552
   69TMC2    C5 1072   0.309   2.546  12.772  0.0608 -0.0149 -0.4872
   69TMC2    C6 1073   0.335   2.645  12.866  0.3865  0.7882  0.4860
   69TMC2     C 1074   4.730   2.407  12.894  0.1587 -0.0361 -0.6031
   69TMC2     O 1075   4.709   2.314  12.817 -0.2883  0.0692 -0.4178
   69TMC2     H 1076   0.090   2.575  13.074 -0.9766  1.9508 -0.1303
   69TMC2    H1 1077   0.184   2.396  12.699 -1.3351  0.8028  0.1413
   69TMC2    H2 1078   0.407   2.724  12.849  0.5098  0.5193 -0.2354
   69TMC2    C7 1079   0.394   2.541  12.649  0.2074 -0.2011  0.0538
   69TMC2    C8 1080   0.284   2.738  13.092 -0.6804  0.0028 -0.5901
   69TMC2    O1 1081   0.338   2.512  12.541  0.5950  0.1454  0.5180
   69TMC2    O2 1082   0.199   2.761  13.180  0.0920 -0.8659  0.0233
   69TMC2    O5 1083   0.415   2.748  13.110 -0.3184 -0.6236 -0.0877
   69TMC2    H5 1084   0.470   2.731  13.031 -0.9987 -1.5422 -0.3592
   70MPD2     C 1085   4.436   2.467  13.104  0.7401 -0.3425 -0.2794
   70MPD2    C1 1086   4.504   2.408  13.003  0.0247 -0.3510  0.4395
   70MPD2    C2 1087   4.445   2.296  12.940 -0.4379 -0.7124 -0.4181
   70MPD2    C3 1088   4.319   2.247  12.983  0.1769 -0.3454  0.0673
   70MPD2    C4 1089   4.252   2.316  13.083 -0.3372  0.0785  0.2907
   70MPD2    C5 1090   4.312   2.426  13.140  0.0849 -0.4326  0.4137
   70MPD2     H 1091   4.495   2.250  12.856  0.9197 -2.0444  1.1276
   70MPD2    H1 1092   4.154   2.287  13.121  0.3488 -2.3450  0.2641
   70MPD2    H2 1093   4.473   2.555  13.153  1.5368 -0.3219 -0.9226
   70MPD2    H3 1094   4.269   2.478  13.225 -0.7990  1.3356 -1.1208
   70MPD2     N 1095   4.237   2.146  12.919  0.5094  0.3187  0.1601
   70MPD2    H5 1096   4.137   2.155  12.935  0.2951 -1.5274 -0.1490
   70MPD2    N1 1097   4.633   2.459  12.974  0.0344 -0.3720 -0.5218
   70MPD2    H7 1098   4.652   2.550  13.014  2.3853 -1.2349  0.3218
   71TMC2    C1 1099   0.474   3.588   1.335 -0.9681 -0.5264  0.1029
   71TMC2    C2 1100   0.555   3.640   1.428 -0.3835  0.0599 -0.6643
   71TMC2    C3 1101   0.499   3.695   1.539  0.5246  0.0502 -0.2125
   71TMC2    C4 1102   0.339   3.608   1.342 -0.2712  0.0976  0.2338
   71TMC2    C5 1103   0.286   3.679   1.443  0.2031 -0.3539  0.6947
   71TMC2    C6 1104   0.367   3.725   1.545  0.5395 -0.5289  0.1505
   71TMC2     C 1105   0.546   3.515   1.228 -0.6665 -0.3825  0.0235
   71TMC2     O 1106   0.665   3.531   1.216  0.7190  0.2568  0.1393
   71TMC2     H 1107   0.663   3.638   1.420 -0.0848  0.6594  2.9860
   71TMC2    H1 1108   0.280   3.569   1.260  1.5045  2.7597 -2.3117
   71TMC2    H2 1109   0.320   3.758   1.637 -1.8602 -0.5034 -1.0894
   71TMC2    C7 1110   0.136   3.669   1.472  0.5193  0.5677 -0.6131
   71TMC2    C8 1111   0.584   3.707   1.655  0.0953 -0.1367  0.0075
   71TMC2    O1 1112   0.101   3.742   1.564  0.3998 -0.2187 -0.2271
   71TMC2    O2 1113   0.549   3.771   1.755  0.1319  0.4586 -0.0082
   71TMC2    O5 1114   0.655   3.595   1.654 -0.4510  0.3095  0.3203
   71TMC2    H5 1115   0.611   3.532   1.593  2.1471 -0.6123 -0.5748
   72MPD2     C 1116   0.595   3.125   0.884  0.4801  0.2464 -0.0828
   72MPD2    C1 1117   0.693   3.204   0.938  0.5620  0.4308 -0.3369
   72MPD2    C2 1118   0.657   3.309   1.022  0.1071  0.0808  0.1407
   72MPD2    C3 1119   0.518   3.336   1.052  0.0254 -0.5384 -0.3750
   72MPD2    C4 1120   0.423   3.255   1.002  0.0000 -0.5380 -0.5209
   72MPD2    C5 1121   0.467   3.156   0.914  0.3341  0.2588  0.1896
   72MPD2     H 1122   0.742   3.365   1.061  0.9054  0.1443 -1.6766
   72MPD2    H1 1123   0.319   3.264   1.031 -0.1842 -2.2466 -0.6557
   72MPD2    H2 1124   0.617   3.058   0.802  0.6348  0.2607 -0.0519
   72MPD2    H3 1125   0.402   3.076   0.879  0.8177 -0.7359  1.5513
   72MPD2     N 1126   0.470   3.426   1.150 -0.1466  0.7297  0.3803
   72MPD2    H5 1127   0.373   3.405   1.171 -0.1685  1.3637  0.9074
   72MPD2    N1 1128   0.825   3.195   0.898  0.6832  0.1172 -0.2510
   72MPD2    H7 1129   0.881   3.279   0.908 -1.3282  1.6153 -1.7998
   73TMC2    C1 1130   1.062   4.730  14.150  0.3555 -0.4541 -0.5060
   73TMC2    C2 1131   1.015   0.089  14.235 -0.2499 -0.3563 -0.3751
   73TMC2    C3 1132   1.075   0.093  14.356 -0.1804  0.5196  0.1013
   73TMC2    C4 1133   1.170   4.653  14.176 -0.3688 -0.3646  0.2161
   73TMC2    C5 1134   1.241   4.674  14.295 -0.0240 -0.1705 -0.1494
   73TMC2    C6 1135   1.188   0.023  14.391 -0.5603 -0.0482 -0.1354
   73TMC2     C 1136   1.069   0.033  14.005 -0.9588  0.1475 -0.0766
   73TMC2     O 1137   1.173   0.001  13.947  0.2063  0.1666  0.1898
   73TMC2     H 1138   0.948   0.171  14.212 -0.2246 -0.1300  0.3504
   73TMC2    H1 1139   1.205   4.577  14.107  1.4671 -1.6634  2.5579
   73TMC2    H2 1140   1.260   0.054  14.466 -1.0550  0.6237  0.0588
   73TMC2    C7 1141   1.384   4.673  14.273 -0.0210  0.2094  0.5675
   73TMC2    C8 1142   1.022   0.191  14.452  0.8821  0.7265  0.5150
   73TMC2    O1 1143   1.457   4.670  14.368  0.1875  0.4856 -0.3664
   73TMC2    O2 1144   0.958   0.297  14.422  0.6774 -0.7215 -0.4844
   73TMC2    O5 1145   1.069   0.162  14.577  0.3878 -0.1784  0.6030
   73TMC2    H5 1146   1.098   0.070  14.595 -0.7146 -0.5619  0.4054
   74MPD2     C 1147   1.038   0.461  13.733 -0.2674 -0.4080  0.2726
   74MPD2    C1 1148   1.128   0.361  13.721  0.7192 -1.0546  0.2099
   74MPD2    C2 1149   1.108   0.248  13.798  0.1838 -0.4862 -0.3661
   74MPD2    C3 1150   0.995   0.234  13.881 -0.1523 -0.4944 -0.6194
   74MPD2    C4 1151   0.901   0.333  13.881  0.2736  0.2142 -0.1760
   74MPD2    C5 1152   0.931   0.446  13.817  0.1557 -0.4056  0.0517
   74MPD2     H 1153   1.189   0.176  13.804 -1.4962 -2.1490  1.9179
   74MPD2    H1 1154   0.811   0.321  13.940  0.3318  2.0760  0.3055
   74MPD2    H2 1155   1.046   0.552  13.674 -0.5509  0.7102  1.9503
   74MPD2    H3 1156   0.862   0.529  13.807  0.3236 -0.5634 -2.5043
   74MPD2     N 1157   0.979   0.132  13.974  0.8886  0.3657  0.2279
   74MPD2    H5 1158   0.892   0.141  14.026  0.1496  0.7724 -1.0587
   74MPD2    N1 1159   1.243   0.379  13.643  0.6305 -0.2072  0.4341
   74MPD2    H7 1160   1.276   0.469  13.610 -0.1544  0.2428  0.8622
   75TMC2    C1 1161   1.451   1.721  13.831 -0.3173 -0.0520 -0.0078
   75TMC2    C2 1162   1.395   1.826  13.903  0.7101 -0.2219 -0.5189
   75TMC2    C3 1163   1.266   1.835  13.909  0.3227 -0.5114 -0.1188
   75TMC2    C4 1164   1.369   1.640  13.749 -0.2130  0.0386  0.7490
   75TMC2    C5 1165   1.240   1.668  13.759  0.3292 -0.5047 -0.0865
   75TMC2    C6 1166   1.180   1.762  13.837  0.5454 -0.0898  0.6099
   75TMC2     C 1167   1.586   1.683  13.866  0.2808  1.1283 -0.1672
   75TMC2     O 1168   1.659   1.771  13.910  0.4981  0.0560  0.6944
   75TMC2     H 1169   1.461   1.888  13.961  0.8725  1.2479 -2.2601
   75TMC2    H1 1170   1.401   1.557  13.687 -1.7888  0.9262 -1.2791
   75TMC2    H2 1171   1.074   1.763  13.859  0.5458  2.2261  0.4870
   75TMC2    C7 1172   1.155   1.621  13.651  0.2284 -0.1709 -0.1621
   75TMC2    C8 1173   1.210   1.914  14.019 -0.7547 -0.8296  0.0060
   75TMC2    O1 1174   1.194   1.519  13.591  0.2138  0.4890  0.6614
   75TMC2    O2 1175   1.264   1.899  14.130  0.0558 -0.0941 -0.4083
   75TMC2    O5 1176   1.083   1.953  13.991  0.2399 -1.0265 -0.1757
   75TMC2    H5 1177   1.063   1.957  13.895 -0.4144  1.2956  0.0473
   76TMC2    C1 1178   0.555   1.613  11.952 -0.3258 -0.3125  0.6061
   76TMC2    C2 1179   0.421   1.615  11.977  0.0037 -0.2586 -0.1192
   76TMC2    C3 1180   0.361   1.547  12.074 -0.1107 -0.0014  0.6540
   76TMC2    C4 1181   0.632   1.533  12.027 -0.5092  0.1475 -0.0965
   76TMC2    C5 1182   0.570   1.459  12.129  0.5737  0.0759  0.1666
   76TMC2    C6 1183   0.435   1.463  12.156 -0.7004 -0.4376  0.7100
   76TMC2     C 1184   0.619   1.718  11.881  0.0621 -0.3497 -0.3741
   76TMC2     O 1185   0.539   1.798  11.826 -0.4732  0.3316 -0.3512
   76TMC2     H 1186   0.353   1.677  11.920  1.5601  0.8357 -0.7890
   76TMC2    H1 1187   0.739   1.513  12.023 -0.3214  1.4773 -1.7512
   76TMC2    H2 1188   0.389   1.418  12.243  1.2585  0.9974  2.4566
   76TMC2    C7 1189   0.659   1.409  12.240  0.3917  0.1754  0.6880
   76TMC2    C8 1190   0.217   1.574  12.104  0.3459  0.0515 -0.2744
   76TMC2    O1 1191   0.762   1.354  12.194  0.3569 -0.1587  0.4850
   76TMC2    O2 1192   0.164   1.667  12.041  0.0067 -0.3788  0.3226
   76TMC2    O5 1193   0.163   1.455  12.124 -0.2440  0.3490  0.1324
   76TMC2    H5 1194   0.230   1.389  12.151 -2.3960 -1.8671  0.0277
   77MPD2     C 1195   0.993   2.065  11.824 -0.2244  0.1265  0.2865
   77MPD2    C1 1196   0.852   2.075  11.830  0.0007 -0.0230  0.4191
   77MPD2    C2 1197   0.778   1.959  11.848 -0.6058 -0.6899  0.2576
   77MPD2    C3 1198   0.831   1.835  11.862  0.2116  0.3392  0.7705
   77MPD2    C4 1199   0.966   1.836  11.857 -0.7891 -0.4034 -0.8317
   77MPD2    C5 1200   1.044   1.943  11.843 -0.1629 -0.1406 -0.2237
   77MPD2     H 1201   0.670   1.975  11.850 -0.5894 -0.2813 -1.8354
   77MPD2    H1 1202   1.009   1.738  11.876 -0.6991  0.0022  1.0567
   77MPD2    H2 1203   1.062   2.148  11.815  0.3606 -0.5017 -1.0280
   77MPD2    H3 1204   1.152   1.940  11.849 -0.1219  1.7263 -0.0304
   77MPD2     N 1205   0.754   1.719  11.891 -0.1474  0.1432  0.7226
   77MPD2    H5 1206   0.805   1.635  11.919  0.7301  0.4282 -0.0287
   77MPD2    N1 1207   0.786   2.199  11.824 -0.4609 -0.1943  0.0967
   77MPD2    H7 1208   0.685   2.189  11.824 -0.1145 -3.6952 -0.2586
   78TMC2    C1 1209   0.573   2.864   1.104 -0.0697 -0.0063 -0.5155
   78TMC2    C2 1210   0.463   2.920   1.162 -0.3643 -0.0584 -0.1725
   78TMC2    C3 1211   0.485   3.021   1.251  0.3293 -0.1475  0.2828
   78TMC2    C4 1212   0.704   2.903   1.134 -0.1487 -0.6427 -0.1144
   78TMC2    C5 1213   0.719   3.004   1.227 -0.6755 -0.0433 -0.0866
   78TMC2    C6 1214   0.611   3.071   1.279  0.3282  0.0161 -0.2243
   78TMC2     C 1215   0.547   2.770   1.000  0.0197  0.1602  0.1499
   78TMC2     O 1216   0.451   2.698   1.021  0.2451  0.3005  0.2023
   78TMC2     H 1217   0.364   2.893   1.126 -1.3694  1.5018  1.4318
   78TMC2    H1 1218   0.792   2.859   1.089 -0.1196 -1.6478  0.9131
   78TMC2    H2 1219   0.613   3.156   1.347  0.6149 -0.7606  0.7232
   78TMC2    C7 1220   0.859   3.039   1.261  0.5421  0.3566 -0.0079
   78TMC2    C8 1221   0.373   3.073   1.330 -0.2801 -0.5580 -0.4019
   78TMC2    O1 1222   0.950   2.986   1.202  0.2286 -0.4610  0.4016
   78TMC2    O2 1223   0.389   3.178   1.390 -0.0867 -0.2870 -0.2788
   78TMC2    O5 1224   0.276   2.981   1.340 -0.0083 -0.4134  0.3417
   78TMC2    H5 1225   0.291   2.902   1.283 -1.3482  0.5728 -1.3741
   79MPD1     C 1226   0.561   2.588   0.529 -0.1990 -0.1448  0.4197
   79MPD1    C1 1227   0.500   2.533   0.637  0.0946 -0.6557  0.1400
   79MPD1    C2 1228   0.510   2.603   0.752  0.8577 -0.2965 -0.0251
   79MPD1    C3 1229   0.599   2.713   0.769  0.2944  0.4113 -1.1009
   79MPD1    C4 1230   0.660   2.760   0.652  0.0061 -0.1318 -0.0314
   79MPD1    C5 1231   0.639   2.694   0.532  0.1072 -0.2909 -0.1746
   79MPD1     H 1232   0.450   2.576   0.838  0.9775  0.6439  0.3557
   79MPD1    H1 1233   0.714   2.854   0.652 -0.2155 -0.0083 -0.9202
   79MPD1    H2 1234   0.547   2.546   0.430  0.9312  2.5848 -0.8679
   79MPD1    H3 1235   0.682   2.736   0.442  1.2750 -0.2204  0.4132
   79MPD1     N 1236   0.626   2.782   0.886 -0.5593 -0.2374 -0.7055
   79MPD1    H5 1237   0.694   2.857   0.882 -0.1788 -0.5342  0.1741
   79MPD1    N1 1238   0.403   2.438   0.623 -0.8307 -0.3120 -0.3895
   79MPD1    H6 1239   0.390   2.387   0.710  0.9841 -0.3105 -0.1145
   79MPD1    H7 1240   0.421   2.377   0.543 -0.0919  0.9739 -1.1984
   80TMC2    C1 1241   4.433   1.108  12.003  0.0036  0.2112  0.7441
   80TMC2    C2 1242   4.543   1.100  11.920 -0.8439 -0.5102  0.1039
   80TMC2    C3 1243   4.535   1.008  11.820 -0.1185  0.5747  0.0705
   80TMC2    C4 1244   4.319   1.038  11.980 -0.1384  0.0068 -0.0426
   80TMC2    C5 1245   4.317   0.958  11.863 -0.1598 -0.6120  0.6884
   80TMC2    C6 1246   4.424   0.940  11.791 -0.0809  0.4272 -0.4083
   80TMC2     C 1247   4.436   1.202  12.114 -0.8110  0.3445  0.0278
   80TMC2     O 1248   4.540   1.259  12.136  0.2255 -0.0077  0.2806
   80TMC2     H 1249   4.641   1.136  11.950 -2.0548  4.0238 -1.4312
   80TMC2    H1 1250   4.235   1.027  12.047  0.0705 -0.1360  0.1928
   80TMC2    H2 1251   4.421   0.867  11.711  2.7016  1.5553 -1.5494
   80TMC2    C7 1252   4.196   0.890  11.825 -0.0046  0.8553  0.1060
   80TMC2    C8 1253   4.635   1.025  11.719 -0.5420 -0.3299  0.0526
   80TMC2    O1 1254   4.183   0.864  11.704  0.3619 -0.8802  0.0796
   80TMC2    O2 1255   4.681   1.130  11.683 -0.6377  0.7340  0.2454
   80TMC2    O5 1256   4.701   0.913  11.710 -0.0027  0.5419 -0.4370
   80TMC2    H5 1257   4.688   0.852  11.785 -0.8900  2.6376  1.1205
   81MPD2     C 1258   4.348   1.367  12.346  0.4035  0.0746  0.0211
   81MPD2    C1 1259   4.266   1.311  12.254 -0.4651 -0.1082 -0.3054
   81MPD2    C2 1260   4.131   1.326  12.277 -0.4698  0.4932  0.5158
   81MPD2    C3 1261   4.090   1.401  12.387 -0.5634  0.1866 -0.2305
   81MPD2    C4 1262   4.180   1.451  12.478  0.2886 -0.3844  0.2871
   81MPD2    C5 1263   4.311   1.425  12.459 -0.3502  0.0550 -0.0929
   81MPD2     H 1264   4.060   1.267  12.219  0.3081 -1.0265  1.0988
   81MPD2    H1 1265   4.148   1.504  12.567  0.2204  0.2371 -0.1108
   81MPD2    H2 1266   4.454   1.368  12.322  0.3751  0.5822 -0.0790
   81MPD2    H3 1267   4.389   1.463  12.524 -2.2898  1.0343  1.6402
   81MPD2     N 1268   3.951   1.417  12.409 -0.1475 -0.1726  0.3336
   81MPD2    H5 1269   3.932   1.464  12.497 -0.8278 -0.7929  0.5188
   81MPD2    N1 1270   4.305   1.238  12.139 -0.7709  0.2349 -0.3256
   81MPD2    H7 1271   4.233   1.186  12.090 -1.1361  1.1418 -0.7525
   82TMC2    C1 1272   2.415   0.647  11.363 -0.3718  0.3024  0.4700
   82TMC2    C2 1273   2.538   0.602  11.406 -0.0650 -0.2280  0.0779
   82TMC2    C3 1274   2.535   0.497  11.494  0.2155 -0.3923 -0.0641
   82TMC2    C4 1275   2.298   0.601  11.424 -0.2102 -0.2043  0.2102
   82TMC2    C5 1276   2.307   0.493  11.502 -0.0714  0.0932 -0.1911
   82TMC2    C6 1277   2.422   0.445  11.547  0.0696  0.1016 -0.2502
   82TMC2     C 1278   2.388   0.758  11.275  0.3999  0.7992  0.1112
   82TMC2     O 1279   2.271   0.766  11.237 -0.1575 -0.1120 -0.4735
   82TMC2     H 1280   2.627   0.637  11.355  0.0684 -1.3334 -0.4276
   82TMC2    H1 1281   2.202   0.648  11.407  0.5625  2.0081  2.0609
   82TMC2    H2 1282   2.430   0.359  11.613 -0.7920 -1.0578 -1.6490
   82TMC2    C7 1283   2.189   0.424  11.554  1.3680  0.3829 -0.4442
   82TMC2    C8 1284   2.670   0.441  11.525  0.0749 -0.4005 -0.6714
   82TMC2    O1 1285   2.202   0.373  11.668  0.2694 -0.3379 -0.1824
   82TMC2    O2 1286   2.770   0.457  11.457  0.0413 -0.4011 -0.1881
   82TMC2    O5 1287   2.663   0.443  11.660  0.8500 -0.9442  0.3750
   82TMC2    H5 1288   2.575   0.461  11.699 -0.3695 -0.9597 -2.3275
   83MPD2     C 1289   2.499   1.156  10.967  0.2818 -0.1700 -0.0613
   83MPD2    C1 1290   2.374   1.104  10.997  0.0405 -0.0099  0.0862
   83MPD2    C2 1291   2.373   0.989  11.078 -0.7443 -0.2763 -0.1389
   83MPD2    C3 1292   2.489   0.939  11.137  0.7913 -0.0807 -0.1989
   83MPD2    C4 1293   2.606   0.993  11.104  0.2941  0.0192  0.1873
   83MPD2    C5 1294   2.604   1.101  11.024  0.3733 -0.0475  0.4564
   83MPD2     H 1295   2.280   0.932  11.085  1.4359 -3.8101  0.2449
   83MPD2    H1 1296   2.694   0.951  11.152  1.4243  1.5291 -0.5497
   83MPD2    H2 1297   2.515   1.236  10.896 -0.5533 -0.1185 -0.1972
   83MPD2    H3 1298   2.697   1.150  10.998 -0.3502  0.1306 -1.7936
   83MPD2     N 1299   2.493   0.829  11.226  0.2962 -0.1269 -0.2299
   83MPD2    H5 1300   2.586   0.799  11.252  0.3340 -0.8934 -1.2499
   83MPD2    N1 1301   2.262   1.172  10.945  0.2944  0.0164 -0.9213
   83MPD2    H7 1302   2.278   1.233  10.865  0.6431 -0.2979 -1.0933
   84TMC2    C1 1303   3.278   4.731  11.401  0.3161 -0.4560 -0.4402
   84TMC2    C2 1304   3.341   4.680  11.513  0.6580  0.5648  0.0621
   84TMC2    C3 1305   3.375   4.557  11.509  0.2810  0.1276 -0.5016
   84TMC2    C4 1306   3.254   4.653  11.286  0.5360 -0.0291  0.1449
   84TMC2    C5 1307   3.291   4.524  11.290  0.6572 -0.2687 -0.3099
   84TMC2    C6 1308   3.336   4.472  11.406 -0.3283 -0.0529  0.1883
   84TMC2     C 1309   3.214   0.123  11.401  0.0116 -0.2744  0.5014
   84TMC2     O 1310   3.159   0.149  11.506 -0.1734  0.0842  0.5685
   84TMC2     H 1311   3.361   0.013  11.592  0.0750 -0.2018  0.9079
   84TMC2    H1 1312   3.239   4.698  11.189  0.6095  2.5851  1.3466
   84TMC2    H2 1313   3.383   4.374  11.398 -0.6101 -0.3517  1.9528
   84TMC2    C7 1314   3.197   4.455  11.213 -0.9757  0.0127  0.0376
   84TMC2    C8 1315   3.452   4.507  11.620 -0.1901  0.1857 -0.0259
   84TMC2    O1 1316   3.184   4.498  11.099 -0.2312 -0.3469  0.1843
   84TMC2    O2 1317   3.524   4.581  11.688 -0.1698 -0.0909  0.4379
   84TMC2    O5 1318   3.406   4.385  11.657  0.0839 -0.3581 -0.6539
   84TMC2    H5 1319   3.344   4.346  11.591  1.4843  0.6282 -2.5542
   85TMC2    C1 1320   4.044   3.508  16.043 -0.2759  0.3590  0.6221
   85TMC2    C2 1321   3.919   3.571  16.004 -0.3908  0.6241 -0.1131
   85TMC2    C3 1322   3.929   3.707  15.979  0.5456 -0.3695  0.6844
   85TMC2    C4 1323   4.157   3.577  16.074  0.0816 -0.2487 -0.2566
   85TMC2    C5 1324   4.151   3.711  16.062  0.2429  0.2205  0.2839
   85TMC2    C6 1325   4.041   3.782  16.014  0.3315  0.7306  0.7837
   85TMC2     C 1326   4.015   3.411  16.143  0.3882  0.9188  0.0309
   85TMC2     O 1327   4.081   3.444  16.242  0.3191  0.5842 -0.2334
   85TMC2     H 1328   3.827   3.515  15.992  0.0954 -0.0091 -0.8497
   85TMC2    H1 1329   4.251   3.529  16.101  0.6979  0.3501 -1.3644
   85TMC2    H2 1330   4.037   3.891  16.008  0.7037  0.6853 -0.3489
   85TMC2    C7 1331   4.275   3.786  16.092  0.1291  0.4843  0.2302
   85TMC2    C8 1332   3.809   3.770  15.937 -0.0088  0.9680 -0.1400
   85TMC2    O1 1333   4.379   3.728  16.132  0.6989  0.1820 -0.5200
   85TMC2    O2 1334   3.821   3.879  15.889  0.4398 -0.6624  1.1608
   85TMC2    O5 1335   3.705   3.729  16.008 -0.3603  0.3349  0.3344
   85TMC2    H5 1336   3.722   3.665  16.082 -1.4410 -0.7651 -0.3771
   86MPD2     C 1337   3.833   3.010  16.406  0.3011  0.1165  0.0634
   86MPD2    C1 1338   3.780   3.007  16.277  0.2176 -0.0354 -0.3811
   86MPD2    C2 1339   3.812   3.103  16.185 -0.6335 -0.0490 -0.1077
   86MPD2    C3 1340   3.904   3.207  16.215 -0.3902 -0.0391  0.0129
   86MPD2    C4 1341   3.945   3.215  16.345 -0.3862  0.5051 -0.5669
   86MPD2    C5 1342   3.914   3.120  16.440 -0.1575 -0.0494  0.4672
   86MPD2     H 1343   3.776   3.097  16.083  0.6764 -2.8122 -0.4228
   86MPD2    H1 1344   3.996   3.300  16.390  0.5397 -0.8895  1.0295
   86MPD2    H2 1345   3.806   2.940  16.484  3.7209 -2.4875 -1.1162
   86MPD2    H3 1346   3.937   3.125  16.546  0.4599  1.1590  0.2737
   86MPD2     N 1347   3.935   3.305  16.111 -0.2970 -0.3761 -0.4168
   86MPD2    H5 1348   3.896   3.311  16.017  1.8003  0.3979 -1.2416
   86MPD2    N1 1349   3.700   2.893  16.241 -0.3802 -0.3182  0.3275
   86MPD2    H7 1350   3.679   2.886  16.141 -0.7418 -0.5520  0.4190
   87TMC2    C1 1351   1.900   1.808   1.082  0.2401  0.8474  0.2937
   87TMC2    C2 1352   2.013   1.864   1.138  0.2664 -0.5927  0.1192
   87TMC2    C3 1353   1.999   1.971   1.216  1.2996 -0.4217 -0.2785
   87TMC2    C4 1354   1.776   1.855   1.100  0.0901 -0.0171 -0.0037
   87TMC2    C5 1355   1.767   1.955   1.187 -0.0409  0.1057 -0.4245
   87TMC2    C6 1356   1.874   2.013   1.249 -0.0006  0.2180  0.0496
   87TMC2     C 1357   1.919   1.719   0.964  0.0589  0.2654 -0.3956
   87TMC2     O 1358   2.035   1.692   0.938  0.3132 -0.0267  0.2711
   87TMC2     H 1359   2.107   1.809   1.137 -0.4517 -1.7283 -2.8971
   87TMC2    H1 1360   1.691   1.820   1.043  1.1648 -0.1218 -1.5464
   87TMC2    H2 1361   1.865   2.085   1.329 -0.0384 -0.5476  0.7332
   87TMC2    C7 1362   1.642   2.020   1.209  0.3546  0.0045 -0.3131
   87TMC2    C8 1363   2.109   2.005   1.291  0.0889 -0.4496  0.2116
   87TMC2    O1 1364   1.648   2.140   1.235  0.8544  0.8474  0.1162
   87TMC2    O2 1365   2.102   2.072   1.397 -0.1603  0.1095 -0.5878
   87TMC2    O5 1366   2.221   2.006   1.215 -0.2462  0.0117 -0.1722
   87TMC2    H5 1367   2.199   1.981   1.122 -0.0944 -1.0046  0.0603
   88MPD2     C 1368   1.310   1.884   1.119 -0.4936 -0.2196  0.3489
   88MPD2    C1 1369   1.401   1.982   1.158  0.2596 -0.3755  0.0254
   88MPD2    C2 1370   1.357   2.110   1.188 -0.2443  0.5186 -0.8691
   88MPD2    C3 1371   1.222   2.141   1.162 -0.0114  0.5120 -0.2430
   88MPD2    C4 1372   1.135   2.043   1.129  0.2997 -0.0628 -0.4845
   88MPD2    C5 1373   1.176   1.915   1.110  0.5142 -0.3344 -0.1829
   88MPD2     H 1374   1.432   2.182   1.220 -0.1315  0.4871 -1.0578
   88MPD2    H1 1375   1.028   2.059   1.129 -0.1325 -2.8876  0.8250
   88MPD2    H2 1376   1.345   1.786   1.089 -1.8495 -0.2132 -1.2104
   88MPD2    H3 1377   1.096   1.844   1.089  0.2614 -0.9909  3.0011
   88MPD2     N 1378   1.170   2.268   1.181  0.0603  0.2991  0.6138
   88MPD2    H5 1379   1.070   2.268   1.168  0.3582  2.5198 -1.6524
   88MPD2    N1 1380   1.538   1.944   1.171  0.6265  0.5518 -0.2614
   88MPD2    H7 1381   1.552   1.845   1.157 -2.0404  0.3040 -1.2457
   89TMC2    C1 1382   2.583   3.963   1.736  0.5659 -0.0625  0.2361
   89TMC2    C2 1383   2.465   3.998   1.795 -0.6897 -0.2378  0.2977
   89TMC2    C3 1384   2.467   4.125   1.855 -0.2957 -0.2568  0.3132
   89TMC2    C4 1385   2.695   4.034   1.752  0.5611 -0.7027  0.0687
   89TMC2    C5 1386   2.691   4.156   1.829 -0.4496 -0.6225  0.1418
   89TMC2    C6 1387   2.573   4.211   1.866 -0.0568 -0.4174 -0.3306
   89TMC2     C 1388   2.600   3.828   1.685  0.2366  0.4368 -0.5822
   89TMC2     O 1389   2.713   3.797   1.663  0.6099  0.0202  0.2190
   89TMC2     H 1390   2.383   3.928   1.807  0.0465 -1.3366 -0.9926
   89TMC2    H1 1391   2.791   3.986   1.739 -0.3523 -1.7873 -2.6106
   89TMC2    H2 1392   2.566   4.299   1.929  2.3077 -0.7132  0.3331
   89TMC2    C7 1393   2.823   4.224   1.842 -0.0162 -0.4603 -0.5911
   89TMC2    C8 1394   2.352   4.170   1.938 -0.5527 -0.0270  0.2293
   89TMC2    O1 1395   2.919   4.155   1.808  0.1452  0.5592 -0.0515
   89TMC2    O2 1396   2.358   4.248   2.030 -0.1719 -0.1591 -0.2289
   89TMC2    O5 1397   2.251   4.091   1.902 -0.2132 -0.1280 -0.3742
   89TMC2    H5 1398   2.261   4.065   1.808 -0.8813 -3.2902  0.4237
   90MPD2     C 1399   2.443   3.368   1.483  0.6223 -0.6673 -0.4286
   90MPD2    C1 1400   2.336   3.449   1.514 -0.0944 -0.0559 -0.6489
   90MPD2    C2 1401   2.355   3.577   1.568 -0.5073 -0.6708 -0.0989
   90MPD2    C3 1402   2.481   3.629   1.591 -0.7325 -0.0579 -0.0934
   90MPD2    C4 1403   2.583   3.545   1.557 -0.0960  0.0146  0.2032
   90MPD2    C5 1404   2.566   3.418   1.516  0.0404 -0.1078 -0.4598
   90MPD2     H 1405   2.262   3.631   1.577  0.3694  0.2166  3.9098
   90MPD2    H1 1406   2.683   3.573   1.587 -0.3389  0.5232  0.5446
   90MPD2    H2 1407   2.445   3.274   1.430  0.5501  0.1724 -1.9417
   90MPD2    H3 1408   2.651   3.354   1.497  2.3244  2.3611  1.6245
   90MPD2     N 1409   2.490   3.763   1.646 -0.1912  0.5465 -0.3301
   90MPD2    H5 1410   2.412   3.827   1.646 -1.0357 -0.4429 -3.9884
   90MPD2    N1 1411   2.201   3.403   1.489 -0.5329 -0.0712 -0.0415
   90MPD2    H7 1412   2.126   3.470   1.505 -1.5369 -0.6519 -2.2799
   91TMC2    C1 1413   3.738   4.294  16.510  0.5357 -0.7763 -0.2516
   91TMC2    C2 1414   3.712   4.369  16.397  0.6064 -0.2468 -0.2963
   91TMC2    C3 1415   3.596   4.362  16.322  0.2699  0.1438  0.2820
   91TMC2    C4 1416   3.663   4.182  16.532 -0.9840 -0.6025  0.4376
   91TMC2    C5 1417   3.556   4.166  16.446 -0.1877 -0.2050  0.4693
   91TMC2    C6 1418   3.512   4.255  16.353 -0.1178  0.5897  0.2986
   91TMC2     C 1419   3.879   4.294  16.555  0.1573  0.4924  0.1958
   91TMC2     O 1420   3.963   4.349  16.484  0.0716  0.0227  0.0916
   91TMC2     H 1421   3.778   4.452  16.376 -1.0044  0.9571 -0.6068
   91TMC2    H1 1422   3.676   4.106  16.608  1.8297 -1.2172 -0.6414
   91TMC2    H2 1423   3.413   4.239  16.311  0.4712  0.9619 -1.2477
   91TMC2    C7 1424   3.482   4.044  16.467 -0.1580  0.5663  0.1966
   91TMC2    C8 1425   3.592   4.440  16.195  0.6260  0.2734 -0.8230
   91TMC2    O1 1426   3.483   3.995  16.579  0.6256 -0.0268 -0.0718
   91TMC2    O2 1427   3.694   4.490  16.146  0.3528  0.5403  0.2873
   91TMC2    O5 1428   3.482   4.411  16.129 -0.5557  0.5019 -0.0930
   91TMC2    H5 1429   3.405   4.373  16.177  0.1978 -1.1096 -0.1938
   92MPD2     C 1430   4.123   4.194  16.683 -0.0309  0.0087  0.5073
   92MPD2    C1 1431   4.012   4.214  16.755 -0.4685  0.0902  0.3734
   92MPD2    C2 1432   4.012   4.191  16.895  0.6703  0.4028  0.1983
   92MPD2    C3 1433   4.114   4.124  16.953 -0.4447  0.3789  1.0752
   92MPD2    C4 1434   4.221   4.075  16.878  0.6250  0.1546 -0.1402
   92MPD2    C5 1435   4.227   4.121  16.745 -0.4322 -0.2663  0.4172
   92MPD2     H 1436   3.933   4.234  16.956  1.0988  3.0488 -1.1241
   92MPD2    H1 1437   4.310   4.024  16.912 -0.0645 -0.3616  0.8981
   92MPD2    H2 1438   4.123   4.201  16.575  0.8371  1.1025  0.5844
   92MPD2    H3 1439   4.312   4.089  16.688 -1.6140  1.7709 -2.4764
   92MPD2     N 1440   4.103   4.106  17.089  0.2717  0.4838 -0.2598
   92MPD2    H5 1441   4.024   4.142  17.142  0.1196 -0.4386  0.1457
   92MPD2    N1 1442   3.890   4.253  16.687  0.4015 -0.1325  0.0799
   92MPD2    H7 1443   3.804   4.231  16.736  0.5135  1.4143  0.9611
   93TMC2    C1 1444   0.981   4.143  14.188  0.1166  0.4223 -1.0770
   93TMC2    C2 1445   0.955   4.198  14.316 -0.1647  0.9639 -0.3626
   93TMC2    C3 1446   1.038   4.285  14.380 -0.2177  0.5244  0.4416
   93TMC2    C4 1447   1.094   4.184  14.119  0.0865  0.0532 -0.0945
   93TMC2    C5 1448   1.187   4.257  14.189 -0.3389 -0.2604  0.1636
   93TMC2    C6 1449   1.153   4.310  14.318  0.5258  0.0483 -0.2552
   93TMC2     C 1450   0.934   4.008  14.158  0.4621  0.0394 -0.8132
   93TMC2     O 1451   1.016   3.943  14.090  0.2282  0.1830  0.1825
   93TMC2     H 1452   0.863   4.176  14.369  0.2128 -2.8519 -1.2640
   93TMC2    H1 1453   1.119   4.150  14.019  0.0972 -0.5644  0.1188
   93TMC2    H2 1454   1.228   4.370  14.368 -0.2741  2.0912 -1.5089
   93TMC2    C7 1455   1.306   4.316  14.132  0.5795  0.3945  0.6378
   93TMC2    C8 1456   1.009   4.346  14.500  1.0159 -0.3965 -0.1869
   93TMC2    O1 1457   1.374   4.378  14.211 -0.0270 -0.2125  0.3357
   93TMC2    O2 1458   1.053   4.459  14.507 -0.0138  0.0846 -0.9252
   93TMC2    O5 1459   1.032   4.259  14.599 -0.2406 -0.5241  0.2661
   93TMC2    H5 1460   1.004   4.168  14.577 -0.4216 -0.2682 -0.5868
   94MPD2     C 1461   0.815   3.739  14.139  0.1498  0.4416 -0.4627
   94MPD2    C1 1462   0.752   3.847  14.195  0.5756 -0.0179 -0.2433
   94MPD2    C2 1463   0.628   3.834  14.249  0.2955 -0.3640 -0.2460
   94MPD2    C3 1464   0.559   3.712  14.251 -0.1924 -1.0524 -0.0759
   94MPD2    C4 1465   0.626   3.607  14.189 -0.0024  0.4320  0.0063
   94MPD2    C5 1466   0.758   3.620  14.137  0.1400 -0.4920 -0.1758
   94MPD2     H 1467   0.588   3.918  14.304 -1.0018 -1.7191  0.8788
   94MPD2    H1 1468   0.580   3.509  14.197  1.6882 -0.4106 -0.5238
   94MPD2    H2 1469   0.912   3.746  14.091 -0.1302  0.8619 -0.9689
   94MPD2    H3 1470   0.800   3.535  14.085 -0.7063 -0.7326 -0.4703
   94MPD2     N 1471   0.424   3.701  14.286 -0.1068  0.0571  0.1186
   94MPD2    H5 1472   0.384   3.622  14.236 -1.6254  1.3933 -0.7781
   94MPD2    N1 1473   0.813   3.974  14.212  0.3906 -0.3684 -0.0756
   94MPD2    H7 1474   0.766   4.046  14.266  1.0000 -0.6831  0.8914
   95TMC2    C1 1475   1.079   0.896  15.998  1.1292  0.0480 -0.0749
   95TMC2    C2 1476   1.032   0.775  16.031  0.0414  0.1562  0.6333
   95TMC2    C3 1477   0.985   0.744  16.152 -0.0465  0.0191 -0.8032
   95TMC2    C4 1478   1.083   0.994  16.094 -0.1373 -0.2194  0.6096
   95TMC2    C5 1479   1.052   0.952  16.217 -0.2041 -0.1766  0.1219
   95TMC2    C6 1480   1.016   0.826  16.255  0.0698  0.2656 -0.0916
   95TMC2     C 1481   1.184   0.907  15.904 -0.8377 -0.3285  0.3612
   95TMC2     O 1482   1.218   1.022  15.875  0.0596  0.0367  0.3296
   95TMC2     H 1483   1.022   0.696  15.957  0.8324  1.2950 -0.6948
   95TMC2    H1 1484   1.100   1.099  16.072  1.9828 -0.2902  1.9005
   95TMC2    H2 1485   0.999   0.787  16.355 -0.1958  0.8335  0.0871
   95TMC2    C7 1486   1.064   1.060  16.316 -0.3265 -0.4338 -0.5014
   95TMC2    C8 1487   0.903   0.623  16.170 -0.6137 -0.3881 -0.6389
   95TMC2    O1 1488   1.130   1.163  16.299 -0.1551  0.3088  0.2613
   95TMC2    O2 1489   0.894   0.569  16.280  0.4013  0.0938 -0.3262
   95TMC2    O5 1490   0.813   0.611  16.066  0.1956  0.2302  0.0471
   95TMC2    H5 1491   0.808   0.685  16.002  0.7520 -0.3674 -0.6760
   96MPD2     C 1492   1.498   0.703  15.562 -0.8709  0.3879 -0.1313
   96MPD2    C1 1493   1.461   0.831  15.586 -0.3083  0.7446 -0.1533
   96MPD2    C2 1494   1.366   0.862  15.680  1.4366  0.1117  1.0833
   96MPD2    C3 1495   1.317   0.756  15.758 -0.3770  0.4699  0.0934
   96MPD2    C4 1496   1.354   0.625  15.734  0.0467 -0.1707  0.8574
   96MPD2    C5 1497   1.440   0.601  15.636  0.0516  0.7075 -0.3237
   96MPD2     H 1498   1.332   0.963  15.700 -1.2823 -0.9267  1.7100
   96MPD2    H1 1499   1.316   0.541  15.792  0.8540  0.3763  2.1793
   96MPD2    H2 1500   1.578   0.677  15.493  0.5514  3.6852  0.3013
   96MPD2    H3 1501   1.473   0.501  15.610 -3.5813 -0.7356  0.6353
   96MPD2     N 1502   1.227   0.781  15.862  0.5874  0.5596 -0.6549
   96MPD2    H5 1503   1.198   0.696  15.910 -0.2325  0.0560 -2.0251
   96MPD2    N1 1504   1.530   0.929  15.506 -0.0951 -0.1657 -0.1183
   96MPD2    H7 1505   1.599   0.885  15.446  0.1932 -1.0739  0.8641
   97TMC2    C1 1506   3.098   4.062   0.295  0.5168 -0.0948  0.4434
   97TMC2    C2 1507   2.999   3.985   0.234 -0.6868 -0.2603 -0.5837
   97TMC2    C3 1508   2.976   4.010   0.104  0.0085 -0.4414 -0.1341
   97TMC2    C4 1509   3.180   4.145   0.223 -0.5530  0.1762  0.4524
   97TMC2    C5 1510   3.141   4.178   0.092  0.9828  0.5626 -0.7335
   97TMC2    C6 1511   3.036   4.112   0.032 -0.1893 -0.1574  0.2212
   97TMC2     C 1512   3.112   4.052   0.442 -0.1903  0.2192 -0.5290
   97TMC2     O 1513   3.057   3.957   0.490 -0.0204  0.1839  0.2954
   97TMC2     H 1514   2.931   3.926   0.294  2.0144 -2.1459  0.6107
   97TMC2    H1 1515   3.262   4.198   0.270  0.1212  0.1830 -0.7500
   97TMC2    H2 1516   3.000   4.149  17.686  3.6987  2.2369 -0.3396
   97TMC2    C7 1517   3.167   4.316   0.064  0.8223 -0.5204  0.3629
   97TMC2    C8 1518   2.858   3.948   0.050 -0.3526  0.1465  0.7941
   97TMC2    O1 1519   3.237   4.370   0.147 -0.6117 -0.5548  0.2384
   97TMC2    O2 1520   2.809   3.992  17.694 -0.4465  0.4306  0.0426
   97TMC2    O5 1521   2.874   3.817   0.081 -0.1869  0.1155 -0.3616
   97TMC2    H5 1522   2.926   3.794   0.161 -2.3438 -0.6497  0.8245
   98MPD2     C 1523   3.173   4.322   0.885 -0.2339  0.4832 -0.2148
   98MPD2    C1 1524   3.120   4.198   0.862  0.0162 -0.0033  0.4127
   98MPD2    C2 1525   3.114   4.148   0.732  0.1419 -0.5091  0.1475
   98MPD2    C3 1526   3.175   4.213   0.627  0.5474  0.2611  0.0729
   98MPD2    C4 1527   3.238   4.335   0.644 -0.0798  0.1631 -0.2030
   98MPD2    C5 1528   3.240   4.385   0.776  0.0925  0.5689 -0.8773
   98MPD2     H 1529   3.070   4.051   0.709  1.1623 -1.0872  0.6554
   98MPD2    H1 1530   3.284   4.393   0.565 -0.5587 -1.2623 -1.5270
   98MPD2    H2 1531   3.166   4.376   0.979 -0.2558 -0.5461  0.3791
   98MPD2    H3 1532   3.286   4.481   0.794 -0.7717  0.3793  2.4024
   98MPD2     N 1533   3.168   4.171   0.492  0.0629  0.1943  0.0954
   98MPD2    H5 1534   3.193   4.240   0.421 -1.6068 -1.0044 -1.6597
   98MPD2    N1 1535   3.055   4.130   0.962  0.3351  0.4999 -0.6815
   98MPD2    H7 1536   2.989   4.061   0.929  0.5754 -0.7849  1.5491
   99TMC2    C1 1537   1.105   1.427   2.091  0.2284  0.5615  0.2365
   99TMC2    C2 1538   1.061   1.512   2.190  0.4697 -0.0491  0.0227
   99TMC2    C3 1539   1.000   1.452   2.299 -0.2970 -0.0759 -0.1323
   99TMC2    C4 1540   1.103   1.291   2.114  0.1372  0.2212  0.3954
   99TMC2    C5 1541   1.047   1.243   2.227 -0.7328  0.3302  0.3891
   99TMC2    C6 1542   0.978   1.317   2.313  0.1395 -1.3747  0.5017
   99TMC2     C 1543   1.184   1.477   1.984 -0.0467 -0.8494  0.3117
   99TMC2     O 1544   1.204   1.600   1.987 -0.0348  0.3663  0.2372
   99TMC2     H 1545   1.062   1.620   2.175 -0.6428  0.3508  2.7563
   99TMC2    H1 1546   1.151   1.222   2.045 -1.0629  0.0512 -0.2849
   99TMC2    H2 1547   0.918   1.281   2.396 -0.0795 -1.9476  0.1002
   99TMC2    C7 1548   1.024   1.101   2.246  0.2343  0.4499  0.0805
   99TMC2    C8 1549   0.902   1.537   2.358 -0.3304  0.0293 -0.5474
   99TMC2    O1 1550   1.028   1.069   2.365 -0.4871 -0.2339  0.3003
   99TMC2    O2 1551   0.868   1.639   2.306  0.0484  0.6879  0.2988
   99TMC2    O5 1552   0.890   1.507   2.488 -0.4868  0.0007 -0.0243
   99TMC2    H5 1553   0.957   1.444   2.521 -0.8297 -0.8295 -0.9125
  100MPD2     C 1554   1.407   1.508   1.785  0.1282  0.0259 -0.3387
  100MPD2    C1 1555   1.309   1.412   1.777 -0.1855  0.2054  0.7568
  100MPD2    C2 1556   1.309   1.324   1.668 -0.1182 -0.3693 -0.0984
  100MPD2    C3 1557   1.401   1.339   1.565  0.0151 -0.0974 -0.4186
  100MPD2    C4 1558   1.493   1.443   1.569 -0.8551 -0.4438 -0.2329
  100MPD2    C5 1559   1.499   1.523   1.679 -0.1683  0.2763  0.0941
  100MPD2     H 1560   1.236   1.244   1.668  0.7717 -1.1864  1.0395
  100MPD2    H1 1561   1.565   1.468   1.492 -0.9180  1.6003  0.3788
  100MPD2    H2 1562   1.406   1.580   1.865  0.3236  0.7705 -1.0033
  100MPD2    H3 1563   1.578   1.598   1.679  0.3656 -0.2868  0.4190
  100MPD2     N 1564   1.392   1.260   1.444 -0.4778 -0.7240  0.0230
  100MPD2    H5 1565   1.311   1.198   1.445 -0.8943 -0.2099 -1.3947
  100MPD2    N1 1566   1.213   1.388   1.879  0.0915  0.2428 -0.3972
  100MPD2    H7 1567   1.159   1.302   1.881 -1.2099  1.0367 -1.0066
  101TMC2    C1 1568   3.512   2.071  13.179 -0.0646  0.1674  0.1845
  101TMC2    C2 1569   3.514   2.171  13.276  0.5222 -0.3041  0.1080
  101TMC2    C3 1570   3.590   2.278  13.244  0.0388  0.2771 -0.3246
  101TMC2    C4 1571   3.592   2.073  13.065  0.2543 -0.5790  0.9948
  101TMC2    C5 1572   3.670   2.182  13.045 -0.5357  0.1813  0.0542
  101TMC2    C6 1573   3.670   2.289  13.132 -0.1908  0.7851  0.5660
  101TMC2     C 1574   3.381   2.003  13.171 -0.0111 -0.5891 -0.3510
  101TMC2     O 1575   3.328   1.980  13.276  0.8072  0.2321 -0.4100
  101TMC2     H 1576   3.453   2.167  13.365  0.5692 -1.1421  0.1052
  101TMC2    H1 1577   3.599   1.989  12.998 -0.1201 -2.6165  3.5254
  101TMC2    H2 1578   3.719   2.385  13.118  1.3022 -0.0536  0.0530
  101TMC2    C7 1579   3.754   2.194  12.927 -0.0925 -0.7210 -0.3540
  101TMC2    C8 1580   3.593   2.398  13.316  0.0738 -0.1849  0.8438
  101TMC2    O1 1581   3.742   2.108  12.840 -0.4116  0.4421  0.0237
  101TMC2    O2 1582   3.676   2.491  13.314  0.6673 -0.4998  0.2927
  101TMC2    O5 1583   3.479   2.396  13.386 -0.0702  0.3575 -0.6060
  101TMC2    H5 1584   3.410   2.337  13.349  1.2961 -1.1809 -0.6519
  102MPD2     C 1585   3.200   1.932  12.859 -0.2103  0.4759 -0.3662
  102MPD2    C1 1586   3.216   1.941  13.000 -0.2343 -0.0886 -0.5897
  102MPD2    C2 1587   3.123   1.892  13.084  0.6808  0.0838 -0.1586
  102MPD2    C3 1588   3.012   1.828  13.039  0.1493 -0.1785  0.0001
  102MPD2    C4 1589   2.995   1.826  12.902 -0.3736 -0.1197  0.6026
  102MPD2    C5 1590   3.085   1.878  12.815 -0.0464  0.2248 -0.2348
  102MPD2     H 1591   3.146   1.883  13.189  1.1813  2.8814 -0.0340
  102MPD2    H1 1592   2.903   1.794  12.855  0.6880 -1.4503 -0.5726
  102MPD2    H2 1593   3.280   1.970  12.796  0.2509 -1.1079 -0.7388
  102MPD2    H3 1594   3.054   1.869  12.712 -0.8193 -2.3966  0.2142
  102MPD2     N 1595   2.921   1.774  13.129  0.0781 -0.1340  0.3980
  102MPD2    H5 1596   2.955   1.777  13.225 -0.8157  2.5452  0.6310
  102MPD2    N1 1597   3.338   1.996  13.040 -0.3555 -0.0573  0.4803
  102MPD2    H7 1598   3.401   2.029  12.968 -0.3593  1.9062  1.3643
  103TMC2    C1 1599   0.723   1.829  12.892  0.9046  0.0583 -0.3372
  103TMC2    C2 1600   0.843   1.815  12.954 -0.3712  0.8407  0.0498
  103TMC2    C3 1601   0.867   1.894  13.063 -0.1821  0.5438 -0.8820
  103TMC2    C4 1602   0.621   1.911  12.940  0.2784 -0.0762  0.6569
  103TMC2    C5 1603   0.651   1.983  13.050 -0.1187  0.1046 -0.6418
  103TMC2    C6 1604   0.772   1.975  13.113 -0.4213  0.6214  0.2186
  103TMC2     C 1605   0.687   1.750  12.778  0.0974 -0.0666  0.0923
  103TMC2     O 1606   0.605   1.793  12.696 -0.8177  0.2424 -0.5384
  103TMC2     H 1607   0.926   1.766  12.905 -1.4016  1.4764 -2.3243
  103TMC2    H1 1608   0.531   1.924  12.880 -0.3948  1.0909  1.9264
  103TMC2    H2 1609   0.771   2.018  13.213 -1.1338 -0.8060  0.8260
  103TMC2    C7 1610   0.534   2.024  13.124  1.2128 -0.1393  0.5025
  103TMC2    C8 1611   0.997   1.869  13.115 -0.0285  0.6888 -0.3245
  103TMC2    O1 1612   0.547   2.031  13.246  0.8203 -0.1506  0.1786
  103TMC2    O2 1613   1.078   1.793  13.061 -0.1335  0.6492 -0.1032
  103TMC2    O5 1614   1.046   1.954  13.206  0.2534  0.0409 -0.2453
  103TMC2    H5 1615   0.990   2.026  13.242  0.0715 -0.3801  0.3050
  104MPD2     C 1616   0.821   1.414  12.724 -0.2193  0.1461  0.1607
  104MPD2    C1 1617   0.743   1.523  12.698  0.2264 -0.0900 -0.3506
  104MPD2    C2 1618   0.683   1.542  12.578 -0.2811  0.4338 -0.1596
  104MPD2    C3 1619   0.699   1.442  12.481 -0.2945 -0.1109  0.2489
  104MPD2    C4 1620   0.777   1.330  12.502 -0.4287 -0.1157  0.3720
  104MPD2    C5 1621   0.839   1.321  12.626  0.6357 -0.2715 -0.6444
  104MPD2     H 1622   0.617   1.628  12.566  0.4626  0.7327 -2.0782
  104MPD2    H1 1623   0.795   1.246  12.435 -0.3325  0.1801  0.0306
  104MPD2    H2 1624   0.867   1.390  12.820  3.9103  0.6080 -1.6987
  104MPD2    H3 1625   0.920   1.251  12.644  0.0777 -0.8746 -0.4866
  104MPD2     N 1626   0.625   1.454  12.364 -0.8178  0.4629  0.7736
  104MPD2    H5 1627   0.552   1.523  12.378 -0.3258  1.5263 -1.7777
  104MPD2    N1 1628   0.744   1.622  12.793  0.1861  0.1868  0.4984
  104MPD2    H7 1629   0.788   1.591  12.878  3.7250  0.0399 -1.3778
  105TMC2    C1 1630   2.196   1.309   0.128  0.0078 -0.2442  0.6432
  105TMC2    C2 1631   2.234   1.441   0.109 -0.0222  0.8853 -0.0839
  105TMC2    C3 1632   2.217   1.523   0.213  0.7653  0.2548 -0.0243
  105TMC2    C4 1633   2.125   1.265   0.234 -0.1689  0.4312 -0.5692
  105TMC2    C5 1634   2.107   1.359   0.333 -0.0773  0.4952  0.1514
  105TMC2    C6 1635   2.159   1.485   0.327 -1.1034  0.3333  0.2808
  105TMC2     C 1636   2.218   1.203   0.029 -0.3319  0.0675 -0.1533
  105TMC2     O 1637   2.223   1.083   0.061  0.0627  0.1179  0.0260
  105TMC2     H 1638   2.307   1.479   0.038  0.5327  2.1477  1.1741
  105TMC2    H1 1639   2.080   1.167   0.228 -2.8396  1.4714  2.3094
  105TMC2    H2 1640   2.145   1.559   0.406  4.9458  1.4272  0.3148
  105TMC2    C7 1641   1.988   1.347   0.413 -0.2519  0.0762  0.4926
  105TMC2    C8 1642   2.307   1.629   0.226  0.0022  0.4646 -0.9285
  105TMC2    O1 1643   1.908   1.261   0.384 -0.0298  0.2237  0.0674
  105TMC2    O2 1644   2.348   1.668   0.333 -0.0395 -0.4319 -0.2471
  105TMC2    O5 1645   2.295   1.705   0.117 -0.5081 -0.1630  0.5611
  105TMC2    H5 1646   2.259   1.667   0.035 -1.6358  0.1651  0.9095
  106MPD2     C 1647   2.355   1.085  17.297 -0.7722  0.1486 -0.0041
  106MPD2    C1 1648   2.299   1.214  17.298  0.7164 -0.1596 -0.4804
  106MPD2    C2 1649   2.266   1.272  17.416 -0.0308  0.6319  0.6421
  106MPD2    C3 1650   2.275   1.196  17.533 -0.5408  0.0072 -0.2578
  106MPD2    C4 1651   2.327   1.071  17.537  0.2901  0.4755 -0.1274
  106MPD2    C5 1652   2.361   1.013  17.420 -0.6143  0.1269 -0.2649
  106MPD2     H 1653   2.226   1.372  17.423  1.1855  1.1904 -0.5263
  106MPD2    H1 1654   2.333   1.009  17.626  0.1962 -0.2465 -0.6253
  106MPD2    H2 1655   2.376   1.032  17.205 -1.3330  0.6824 -0.4464
  106MPD2    H3 1656   2.395   0.911  17.417 -0.5599  0.1586 -0.7528
  106MPD2     N 1657   2.240   1.261  17.653  0.1525 -0.1603  0.8056
  106MPD2    H5 1658   2.226   1.361  17.642 -0.2571  0.0160  2.9225
  106MPD2    N1 1659   2.289   1.291  17.185 -0.3405 -0.7484  0.3852
  106MPD2    H7 1660   2.258   1.386  17.201  1.7546 -0.2305  1.2639
  107TMC2    C1 1661   2.793   0.762  11.720 -0.6205 -0.2806 -0.2338
  107TMC2    C2 1662   2.691   0.850  11.697 -0.0660  0.1638  0.4245
  107TMC2    C3 1663   2.690   0.903  11.569  0.2573 -0.0586  0.6554
  107TMC2    C4 1664   2.881   0.714  11.625 -0.6313  0.8120 -0.1356
  107TMC2    C5 1665   2.880   0.771  11.502  0.1172  0.3200  0.3627
  107TMC2    C6 1666   2.790   0.867  11.470 -0.5093 -0.2061  0.1061
  107TMC2     C 1667   2.801   0.708  11.861  0.1195 -0.1129  0.1504
  107TMC2     O 1668   2.739   0.772  11.948 -0.6111 -0.0962  0.4804
  107TMC2     H 1669   2.626   0.884  11.777 -2.9958  0.9805 -2.3254
  107TMC2    H1 1670   2.970   0.661  11.656 -0.8975  0.3890 -0.0912
  107TMC2    H2 1671   2.790   0.927  11.379 -1.9878  0.1424  0.3359
  107TMC2    C7 1672   2.952   0.715  11.390  0.1219 -0.2189  0.3961
  107TMC2    C8 1673   2.596   1.012  11.534  0.6956 -0.2379  0.1717
  107TMC2    O1 1674   2.948   0.780  11.282 -0.2512 -0.0094  0.0036
  107TMC2    O2 1675   2.605   1.088  11.437 -0.3622  0.0596 -0.0258
  107TMC2    O5 1676   2.478   0.965  11.570 -0.4926  0.0657 -0.0296
  107TMC2    H5 1677   2.467   0.907  11.649 -0.5265  0.4054  0.2167
  108MPD2     C 1678   2.990   0.430  11.999 -0.2217 -0.5342 -0.0209
  108MPD2    C1 1679   2.882   0.517  11.996 -0.5497 -0.0066  0.5867
  108MPD2    C2 1680   2.793   0.530  12.100  0.4863 -0.4834  0.1096
  108MPD2    C3 1681   2.818   0.461  12.218 -0.0221 -0.6831  0.2067
  108MPD2    C4 1682   2.932   0.374  12.221 -1.0837  0.0913 -0.2104
  108MPD2    C5 1683   3.010   0.352  12.108 -0.3384 -0.0388 -0.0632
  108MPD2     H 1684   2.713   0.603  12.090  0.4773 -0.4589  0.3843
  108MPD2    H1 1685   2.966   0.335  12.316 -1.7431 -0.6545 -0.2754
  108MPD2    H2 1686   3.055   0.416  11.913 -0.4611  0.4671 -0.3618
  108MPD2    H3 1687   3.098   0.290  12.120 -0.4957 -0.4305 -0.8994
  108MPD2     N 1688   2.742   0.463  12.334 -0.2025  0.3359  0.3166
  108MPD2    H5 1689   2.765   0.392  12.403 -1.3145  0.7037  1.0691
  108MPD2    N1 1690   2.873   0.595  11.881  0.2682  0.5120  0.2779
  108MPD2    H7 1691   2.933   0.563  11.806 -1.0523 -0.1033 -0.5287
  109TMC2    C1 1692   2.074   3.899   0.513 -0.2724 -0.1691 -0.1406
  109TMC2    C2 1693   2.113   4.013   0.455  0.2120  0.4213 -0.2924
  109TMC2    C3 1694   2.225   4.069   0.502  0.6184  0.0729 -0.2057
  109TMC2    C4 1695   2.146   3.838   0.617  0.2671  0.2123  0.0815
  109TMC2    C5 1696   2.249   3.911   0.666  0.5022  0.0350 -0.7702
  109TMC2    C6 1697   2.293   4.028   0.607 -0.0454  0.1474 -0.0958
  109TMC2     C 1698   1.931   3.868   0.504 -0.2016 -0.5705  0.6533
  109TMC2     O 1699   1.876   3.911   0.404 -0.1952 -0.4240  0.3773
  109TMC2     H 1700   2.056   4.060   0.376 -0.7252  2.0245  1.3499
  109TMC2    H1 1701   2.123   3.736   0.647 -1.4538  1.5217  3.1482
  109TMC2    H2 1702   2.377   4.086   0.644 -0.6401  0.9185  0.0738
  109TMC2    C7 1703   2.333   3.871   0.781 -0.1394 -0.1122  0.1671
  109TMC2    C8 1704   2.234   4.213   0.471  0.3105  0.6474 -0.0414
  109TMC2    O1 1705   2.441   3.924   0.794 -0.4593  0.1464  0.5019
  109TMC2    O2 1706   2.213   4.248   0.353 -0.1532  0.4101 -0.1563
  109TMC2    O5 1707   2.207   4.284   0.581 -0.3099  0.6638  0.2989
  109TMC2    H5 1708   2.182   4.227   0.657  2.6650 -1.3777 -0.2608
  110MPD2     C 1709   1.503   3.585   0.605  0.0415  0.1866 -0.3080
  110MPD2    C1 1710   1.608   3.531   0.679  0.2537  0.5494 -0.2430
  110MPD2    C2 1711   1.739   3.584   0.662  0.5253  0.0811 -0.2418
  110MPD2    C3 1712   1.764   3.707   0.592  0.3144 -0.6810 -0.2176
  110MPD2    C4 1713   1.654   3.758   0.538 -0.4658  0.3151 -0.4892
  110MPD2    C5 1714   1.529   3.701   0.539 -0.2238  0.3618 -0.5410
  110MPD2     H 1715   1.827   3.547   0.713  0.2542  0.2254  0.3275
  110MPD2    H1 1716   1.641   3.861   0.506 -3.1913 -0.2226 -1.1274
  110MPD2    H2 1717   1.407   3.536   0.604  0.2393 -0.2233  1.9713
  110MPD2    H3 1718   1.444   3.743   0.487  0.9003  1.3882 -1.5620
  110MPD2     N 1719   1.891   3.768   0.590 -0.0527  0.0337  0.1060
  110MPD2    H5 1720   1.965   3.734   0.650  0.7816 -0.6964 -1.3318
  110MPD2    N1 1721   1.581   3.414   0.760 -0.3702 -0.4643  0.0524
  110MPD2    H7 1722   1.485   3.381   0.756  0.1732 -1.8887 -1.0304
  111TMC2    C1 1723   3.011   2.232  12.022 -0.2724 -0.2728 -0.0874
  111TMC2    C2 1724   2.947   2.192  12.138  0.5001  1.0031  0.5393
  111TMC2    C3 1725   3.016   2.103  12.221  0.9918 -0.5543 -0.5819
  111TMC2    C4 1726   3.140   2.195  11.993  0.3330  0.4128 -0.0089
  111TMC2    C5 1727   3.202   2.120  12.080 -0.2810  0.4675  0.6224
  111TMC2    C6 1728   3.148   2.067  12.189  0.2723 -0.2575 -0.2044
  111TMC2     C 1729   2.951   2.330  11.932  0.3459 -0.1088  0.3851
  111TMC2     O 1730   3.000   2.347  11.821  0.7612  0.1629 -0.1730
  111TMC2     H 1731   2.846   2.218  12.165 -0.1324  0.9717 -1.7567
  111TMC2    H1 1732   3.186   2.225  11.900  1.1351 -3.1723 -0.7607
  111TMC2    H2 1733   3.190   1.985  12.246  1.2229  0.3117 -0.0913
  111TMC2    C7 1734   3.341   2.090  12.071  0.2084 -0.1213 -0.2396
  111TMC2    C8 1735   2.967   2.096  12.355 -0.5879  0.6679  0.0905
  111TMC2    O1 1736   3.399   2.047  12.170  0.1050 -0.4103  0.2638
  111TMC2    O2 1737   2.853   2.116  12.397 -0.3586  0.0834  0.4085
  111TMC2    O5 1738   3.070   2.063  12.434  0.0548  0.3067  0.3205
  111TMC2    H5 1739   3.161   2.086  12.406 -1.2978  1.7295 -2.8932
  112MPD2     C 1740   2.580   2.636  11.792 -0.3261  0.1470  0.0591
  112MPD2    C1 1741   2.688   2.593  11.726 -0.0813 -0.5108  0.1065
  112MPD2    C2 1742   2.775   2.507  11.792 -0.0289 -0.2194  1.0638
  112MPD2    C3 1743   2.763   2.483  11.928  0.2853  0.2513 -0.8354
  112MPD2    C4 1744   2.665   2.553  11.999  0.0241 -0.6355 -0.0440
  112MPD2    C5 1745   2.574   2.628  11.929  0.0841 -0.0119 -0.0411
  112MPD2     H 1746   2.840   2.450  11.727 -1.7320 -1.0020  0.0537
  112MPD2    H1 1747   2.657   2.541  12.106 -0.8128 -0.8436 -0.1281
  112MPD2    H2 1748   2.497   2.687  11.745 -0.3176 -1.5878 -1.8347
  112MPD2    H3 1749   2.498   2.683  11.983  0.4401  0.6742 -0.2320
  112MPD2     N 1750   2.851   2.397  11.996  0.1659  0.2558 -0.1517
  112MPD2    H5 1751   2.829   2.374  12.092  3.0965 -0.9229  0.2428
  112MPD2    N1 1752   2.702   2.613  11.586  0.1817  0.0877 -0.6688
  112MPD2    H7 1753   2.785   2.571  11.546 -0.2409  0.2972 -1.7721
  113TMC2    C1 1754   0.060   0.173   0.707  0.7991 -0.3928 -0.0499
  113TMC2    C2 1755   0.090   0.194   0.572  0.1504  0.1080  0.4553
  113TMC2    C3 1756   0.090   0.084   0.490  0.3946  0.1352  0.0749
  113TMC2    C4 1757   0.023   0.054   0.757 -0.6374  1.8319  0.2670
  113TMC2    C5 1758   0.026   4.682   0.673 -0.9223 -0.1407  0.0012
  113TMC2    C6 1759   0.058   4.696   0.539  0.4975  0.9619  0.6073
  113TMC2     C 1760   0.154   0.254   0.786 -0.0567  0.1639  0.6659
  113TMC2     O 1761   0.185   0.359   0.734  0.6277  0.0458 -0.2508
  113TMC2     H 1762   0.115   0.292   0.532  0.4872  0.0952  0.6353
  113TMC2    H1 1763   4.730   0.041   0.860 -1.4577  1.4816 -0.0202
  113TMC2    H2 1764   0.079   4.611   0.476  0.4424 -1.1220  3.4060
  113TMC2    C7 1765   0.044   4.551   0.725 -0.4148 -0.0322  0.4200
  113TMC2    C8 1766   0.147   0.100   0.354 -0.1274 -0.5156 -0.7887
  113TMC2    O1 1767   0.004   4.463   0.648 -0.3488 -0.1011 -0.3050
  113TMC2    O2 1768   0.144   0.209   0.295  0.5141  0.8454  0.2342
  113TMC2    O5 1769   0.231   4.735   0.344  0.1442  0.3983 -0.1032
  113TMC2    H5 1770   0.226   4.665   0.413  0.5665 -1.6386 -2.1639
  114MPD2     C 1771   0.493   0.335   1.160 -0.8826  0.2468  0.0589
  114MPD2    C1 1772   0.444   0.418   1.069 -0.2013  0.0087 -0.3105
  114MPD2    C2 1773   0.355   0.368   0.980  0.3201 -0.5081  0.0888
  114MPD2    C3 1774   0.290   0.249   0.990 -0.3738 -0.3921 -0.3718
  114MPD2    C4 1775   0.340   0.167   1.087  0.2030 -0.0859  0.0910
  114MPD2    C5 1776   0.440   0.208   1.168 -0.5810 -0.0672 -0.0357
  114MPD2     H 1777   0.330   0.438   0.901  1.3950 -0.1633  0.0572
  114MPD2    H1 1778   0.305   0.069   1.115 -0.3128  0.4586  1.3791
  114MPD2    H2 1779   0.561   0.364   1.240 -3.1815 -0.0248  2.1139
  114MPD2    H3 1780   0.468   0.139   1.247 -1.2674  0.6530  0.8375
  114MPD2     N 1781   0.187   0.200   0.907 -0.2140 -0.6142 -0.0414
  114MPD2    H5 1782   0.153   0.107   0.929  1.2061 -1.0256  0.3873
  114MPD2    N1 1783   0.478   0.557   1.054  0.5297  0.1904 -0.9970
  114MPD2    H7 1784   0.459   0.608   0.969 -1.9607  1.3718  0.2654
  115TMC2    C1 1785   1.926   3.387  17.556 -0.1046 -0.7386 -0.3978
  115TMC2    C2 1786   1.978   3.282  17.618  0.7215  0.6069 -0.2647
  115TMC2    C3 1787   2.058   3.306  17.730  0.3021  1.0728  0.0399
  115TMC2    C4 1788   1.956   3.519  17.583 -0.1341 -0.3402 -0.1873
  115TMC2    C5 1789   2.038   3.531  17.692  0.6589  0.4705 -0.5345
  115TMC2    C6 1790   2.082   3.434   0.018 -0.0632  0.5921 -0.0721
  115TMC2     C 1791   1.808   3.353  17.481  0.7227 -0.1783 -0.7875
  115TMC2     O 1792   1.820   3.244  17.424  0.2601  0.0960 -0.6638
  115TMC2     H 1793   1.943   3.182  17.596  2.2582  0.4337 -1.8906
  115TMC2    H1 1794   1.916   3.589  17.511  1.1864 -0.3900 -0.9801
  115TMC2    H2 1795   2.147   3.452   0.104 -2.1139  1.3509  1.3226
  115TMC2    C7 1796   2.090   3.661  17.731  0.6516  0.0885  0.1500
  115TMC2    C8 1797   2.112   3.200   0.065  0.1842  0.0708 -0.4923
  115TMC2    O1 1798   2.134   3.673   0.095  0.1828  0.5691  0.4722
  115TMC2    O2 1799   2.174   3.219   0.169  0.0687  0.0666 -0.5282
  115TMC2    O5 1800   2.141   3.102  17.728  0.0417 -0.2211 -0.2051
  115TMC2    H5 1801   2.102   3.100  17.638  3.1736 -0.1547 -1.5912
  116MPD2     C 1802   1.312   3.261  17.547  0.5645 -0.0503  1.3593
  116MPD2    C1 1803   1.413   3.190  17.489  0.1857 -0.1678 -0.0418
  116MPD2    C2 1804   1.540   3.232  17.482  0.6230  0.2100 -0.0881
  116MPD2    C3 1805   1.567   3.352  17.539  0.6613  0.0039 -0.8627
  116MPD2    C4 1806   1.467   3.423  17.609  0.0694  0.6280  0.7841
  116MPD2    C5 1807   1.338   3.379  17.614 -0.3305 -0.0531 -0.1722
  116MPD2     H 1808   1.611   3.173  17.425  0.9028  1.3879 -0.9595
  116MPD2    H1 1809   1.497   3.514  17.659 -0.2770 -0.0325  2.2008
  116MPD2    H2 1810   1.214   3.218  17.560 -0.1248 -0.1456 -4.0613
  116MPD2    H3 1811   1.262   3.428  17.672  0.1646  0.2429  0.2207
  116MPD2     N 1812   1.697   3.412  17.540  0.1663 -0.5514 -0.6665
  116MPD2    H5 1813   1.706   3.496  17.597 -1.3362 -1.6241  1.1673
  116MPD2    N1 1814   1.372   3.066  17.426 -0.6637 -0.7090 -0.4624
  116MPD2    H7 1815   1.274   3.057  17.401 -0.8420  1.2467 -0.4096
  117TMC2    C1 1816   0.316   4.355  14.156  0.0276  0.1717 -0.0754
  117TMC2    C2 1817   0.404   4.287  14.239  0.5552  0.2459  0.4089
  117TMC2    C3 1818   0.505   4.350  14.304 -0.0794 -0.3927  0.3460
  117TMC2    C4 1819   0.332   4.490  14.146 -0.6561  0.5068 -0.2879
  117TMC2    C5 1820   0.426   4.554  14.214 -0.3892  0.0020 -0.1152
  117TMC2    C6 1821   0.518   4.492  14.290 -0.1814 -0.1073  0.1723
  117TMC2     C 1822   0.184   4.298  14.160 -0.1911  0.0366 -0.2758
  117TMC2     O 1823   0.142   4.227  14.247 -0.4327 -0.0280  0.1117
  117TMC2     H 1824   0.389   4.181  14.257  2.2917 -0.0604 -0.0028
  117TMC2    H1 1825   0.251   4.543  14.096 -1.6291  0.7617  1.5790
  117TMC2    H2 1826   0.597   4.555  14.329 -0.4891  0.7879 -0.6443
  117TMC2    C7 1827   0.427   4.696  14.209 -0.1405 -0.8087  0.3321
  117TMC2    C8 1828   0.602   4.269  14.365  0.0283 -0.8122 -0.0560
  117TMC2    O1 1829   0.540   0.005  14.213  0.1688  0.5875  0.3382
  117TMC2    O2 1830   0.630   4.161  14.311 -0.3235 -0.7454 -0.0633
  117TMC2    O5 1831   0.701   4.360  14.396  0.0774 -0.2837 -0.2554
  117TMC2    H5 1832   0.662   4.431  14.452 -0.0915  0.2913 -1.0975
  118MPD2     C 1833   0.138   0.193  14.176  0.1111 -0.2807  0.6120
  118MPD2    C1 1834   0.272   0.159  14.182  0.3299  0.0711  0.2590
  118MPD2    C2 1835   0.361   0.261  14.184 -0.1952  0.1117  0.0382
  118MPD2    C3 1836   0.333   0.393  14.172  0.5146  0.4392  0.2214
  118MPD2    C4 1837   0.198   0.430  14.190 -0.3276 -0.0482  0.1451
  118MPD2    C5 1838   0.108   0.324  14.180 -0.2083 -0.5864 -0.7856
  118MPD2     H 1839   0.465   0.230  14.186 -0.3538 -0.2301  2.7670
  118MPD2    H1 1840   0.163   0.532  14.203 -0.7678 -0.3910  1.6108
  118MPD2    H2 1841   0.052   0.130  14.191  0.2595 -0.4176  0.8876
  118MPD2    H3 1842   0.005   0.359  14.184  0.2356  0.6493 -0.1731
  118MPD2     N 1843   0.427   0.498  14.160 -0.9329  0.3867  0.1574
  118MPD2    H5 1844   0.406   0.592  14.194 -0.9997  0.3542  0.2052
  118MPD2    N1 1845   0.304   0.021  14.194  0.2499 -0.4739  0.7739
  118MPD2    H7 1846   0.226   4.694  14.191  1.4736 -2.1164  4.6746
  119TMC2    C1 1847   3.794   1.258  13.247 -0.3747  0.1349 -1.2805
  119TMC2    C2 1848   3.807   1.282  13.119 -0.2464 -0.2904 -0.2310
  119TMC2    C3 1849   3.728   1.207  13.040  0.1409  0.4674 -0.5428
  119TMC2    C4 1850   3.706   1.163  13.291  0.2691  0.0779 -0.1986
  119TMC2    C5 1851   3.619   1.093  13.205 -0.1043  0.4144 -0.2210
  119TMC2    C6 1852   3.630   1.118  13.071  0.5412 -0.1935  0.0568
  119TMC2     C 1853   3.823   1.353  13.350  0.5387  0.1010 -0.5887
  119TMC2     O 1854   3.784   1.324  13.465 -0.1181  0.7221  0.2584
  119TMC2     H 1855   3.876   1.360  13.087 -0.2023 -0.3697 -0.3268
  119TMC2    H1 1856   3.692   1.143  13.397 -3.0752  1.7962 -0.2960
  119TMC2    H2 1857   3.574   1.065  12.995 -0.7854 -1.0744  1.6523
  119TMC2    C7 1858   3.490   1.078  13.266 -0.3902 -0.7118  0.4486
  119TMC2    C8 1859   3.716   1.258  12.907  0.4279  0.5460  0.2254
  119TMC2    O1 1860   3.488   1.078  13.384 -0.0760 -0.3748  0.2569
  119TMC2    O2 1861   3.756   1.371  12.879  1.0115 -0.7648 -0.0233
  119TMC2    O5 1862   3.734   1.150  12.831 -0.3358  0.1468 -0.3806
  119TMC2    H5 1863   3.732   1.062  12.873  0.3751 -0.6553 -2.0310
  120MPD2     C 1864   4.018   1.765  13.581  0.0822 -0.2324  0.5453
  120MPD2    C1 1865   3.919   1.683  13.625 -0.2984  0.4553 -0.1812
  120MPD2    C2 1866   3.870   1.588  13.539  0.1426 -0.1338 -0.5753
  120MPD2    C3 1867   3.925   1.567  13.410  0.5542 -0.9369  0.6046
  120MPD2    C4 1868   4.021   1.654  13.367 -0.0636  0.5750 -0.1417
  120MPD2    C5 1869   4.058   1.754  13.453  0.2333  0.7288  0.3487
  120MPD2     H 1870   3.791   1.522  13.576  0.1238  0.1647 -0.0847
  120MPD2    H1 1871   4.072   1.643  13.272  2.1735  1.3303  0.9475
  120MPD2    H2 1872   4.058   1.847  13.641 -2.0627  0.6900  0.7399
  120MPD2    H3 1873   4.128   1.831  13.421  0.8749  0.6250  1.5127
  120MPD2     N 1874   3.885   1.472  13.311  0.0483 -0.1936 -0.3027
  120MPD2    H5 1875   3.915   1.492  13.216 -2.7265  3.8121 -0.3526
  120MPD2    N1 1876   3.868   1.702  13.760  0.4212  0.6677  0.1625
  120MPD2    H7 1877   3.913   1.781  13.804 -0.3395  0.3213  1.5652
  121TMC2    C1 1878   0.292   2.649  14.427 -0.2387  0.2477  0.0499
  121TMC2    C2 1879   0.286   2.710  14.546 -0.9433  0.2135 -0.5974
  121TMC2    C3 1880   0.168   2.763  14.585 -0.1702  0.3121 -0.7864
  121TMC2    C4 1881   0.187   2.636  14.346 -0.0613 -0.3650  0.6282
  121TMC2    C5 1882   0.068   2.696  14.384  0.2162  0.5769 -1.0782
  121TMC2    C6 1883   0.057   2.756  14.502  0.2092 -0.0964  0.0252
  121TMC2     C 1884   0.424   2.608  14.375  0.2170 -0.6181  0.1203
  121TMC2     O 1885   0.495   2.568  14.466  0.2145 -0.3228 -0.1079
  121TMC2     H 1886   0.376   2.710  14.607 -1.9855  2.5358  0.9228
  121TMC2    H1 1887   0.195   2.586  14.250 -0.6348  4.1101 -1.7708
  121TMC2    H2 1888   4.704   2.804  14.537  0.9796  1.4821 -0.1532
  121TMC2    C7 1889   4.693   2.622  14.317 -0.5674  0.7152 -0.3397
  121TMC2    C8 1890   0.164   2.855  14.687  0.2554  0.1703 -0.0081
  121TMC2    O1 1891   4.714   2.510  14.273 -0.1983 -0.2043 -0.2675
  121TMC2    O2 1892   0.072   2.930  14.712 -0.0821  0.1650 -0.2426
  121TMC2    O5 1893   0.260   2.817  14.779 -0.7482  0.4093 -0.0924
  121TMC2    H5 1894   0.314   2.738  14.756 -2.9611 -0.4628 -2.3270
  122MPD2     C 1895   0.675   2.591  14.227  0.1822 -0.2842 -0.6134
  122MPD2    C1 1896   0.562   2.637  14.171 -1.2185  0.1242  0.1510
  122MPD2    C2 1897   0.556   2.662  14.039 -0.3622 -0.6631 -1.1410
  122MPD2    C3 1898   0.671   2.654  13.957  0.4104 -0.1584  0.4791
  122MPD2    C4 1899   0.790   2.619  14.023 -0.1247 -0.3640  0.3779
  122MPD2    C5 1900   0.789   2.590  14.155 -0.1598  0.8311 -0.7318
  122MPD2     H 1901   0.459   2.687  13.995 -1.5661 -0.3240  1.7112
  122MPD2    H1 1902   0.874   2.597  13.958  0.6580 -0.3962  1.4001
  122MPD2    H2 1903   0.694   2.546  14.324 -2.4937  0.0976  0.0810
  122MPD2    H3 1904   0.879   2.543  14.191 -1.0690 -0.9936 -0.8281
  122MPD2     N 1905   0.662   2.657  13.813 -0.1268  0.0452  0.0701
  122MPD2    H5 1906   0.750   2.649  13.764  0.3246  1.8987  0.5828
  122MPD2    N1 1907   0.441   2.646  14.242 -0.5631 -0.0515 -0.2112
  122MPD2    H7 1908   0.358   2.682  14.195  0.6688  1.6926 -1.0564
  123TMC2    C1 1909   3.489   0.984  10.722 -0.2295  0.0260 -0.2877
  123TMC2    C2 1910   3.535   1.091  10.793 -0.4939  0.0120  0.4293
  123TMC2    C3 1911   3.598   1.191  10.727 -0.1331  0.1642 -0.1335
  123TMC2    C4 1912   3.508   0.978  10.590  0.9364 -0.4822 -0.0509
  123TMC2    C5 1913   3.569   1.079  10.524  0.3368  0.4840  0.2536
  123TMC2    C6 1914   3.619   1.188  10.591 -0.1359 -0.4893 -0.2813
  123TMC2     C 1915   3.381   0.896  10.770 -0.3437 -0.3799 -0.0316
  123TMC2     O 1916   3.367   0.869  10.891  0.1300 -0.4145 -0.3497
  123TMC2     H 1917   3.498   1.091  10.895 -1.5558  0.9487  0.0436
  123TMC2    H1 1918   3.500   0.883  10.540  0.1656 -0.4156 -0.0433
  123TMC2    H2 1919   3.677   1.262  10.537 -2.4222  1.1291 -0.5255
  123TMC2    C7 1920   3.555   1.071  10.379  0.4273  0.2332 -0.3352
  123TMC2    C8 1921   3.679   1.290  10.792 -0.1735  0.1012 -0.4446
  123TMC2    O1 1922   3.532   0.960  10.331  0.5347  0.1169 -0.2354
  123TMC2    O2 1923   3.787   1.331  10.747  0.1867 -0.0459  0.2900
  123TMC2    O5 1924   3.616   1.323  10.909 -0.0474 -0.2343 -0.1819
  123TMC2    H5 1925   3.520   1.301  10.912 -0.2508  0.3695 -2.4310
  124MPD2     C 1926   2.979   0.578  10.679  0.4100 -0.0239 -0.3495
  124MPD2    C1 1927   3.002   0.650  10.563  0.1403 -0.5656 -0.0918
  124MPD2    C2 1928   3.113   0.740  10.559  0.2719  0.1899  0.2849
  124MPD2    C3 1929   3.188   0.768  10.671  0.0526  0.9469  0.3043
  124MPD2    C4 1930   3.157   0.693  10.783 -0.2079 -0.1402 -0.1527
  124MPD2    C5 1931   3.053   0.608  10.790 -0.9065  0.1071  0.3897
  124MPD2     H 1932   3.144   0.789  10.468 -0.2696 -0.3361 -0.1847
  124MPD2    H1 1933   3.211   0.709  10.875  0.6274  2.3034 -1.0539
  124MPD2    H2 1934   2.897   0.507  10.688 -0.0578  0.8529  2.2961
  124MPD2    H3 1935   3.028   0.552  10.879  1.9558 -0.8504  0.6124
  124MPD2     N 1936   3.293   0.862  10.668  0.1735 -0.0119  0.5991
  124MPD2    H5 1937   3.311   0.911  10.581  0.5629 -0.6606  0.3127
  124MPD2    N1 1938   2.911   0.621  10.455 -0.0310 -0.3108 -0.2267
  124MPD2    H7 1939   2.832   0.558  10.469 -0.0147  0.1474  1.8060
  125TMC2    C1 1940   4.270   2.647  10.567 -0.3435 -0.1261  0.5122
  125TMC2    C2 1941   4.243   2.530  10.626  1.2895 -0.0218 -0.1120
  125TMC2    C3 1942   4.321   2.427  10.596  0.3413 -0.1504  0.0816
  125TMC2    C4 1943   4.365   2.646  10.464  0.2700  0.7247 -0.6222
  125TMC2    C5 1944   4.438   2.534  10.432 -0.4316  0.0035 -0.1727
  125TMC2    C6 1945   4.423   2.423  10.508  0.3988  0.4484  0.3362
  125TMC2     C 1946   4.187   2.761  10.605  0.2146 -0.2030  0.5118
  125TMC2     O 1947   4.097   2.728  10.686  0.0461  0.0388 -0.8612
  125TMC2     H 1948   4.152   2.505  10.679 -0.1664  4.1894 -0.6472
  125TMC2    H1 1949   4.382   2.736  10.406  2.5236  0.3813 -0.5002
  125TMC2    H2 1950   4.485   2.334  10.506 -1.7505 -1.1042  1.8121
  125TMC2    C7 1951   4.565   2.549  10.366 -0.3233  0.4342  0.1762
  125TMC2    C8 1952   4.319   2.304  10.677  0.1505  0.6330  0.1234
  125TMC2    O1 1953   4.641   2.460  10.389  0.0635 -0.0259  0.6056
  125TMC2    O2 1954   4.351   2.192  10.647  0.5846 -0.1948  0.2454
  125TMC2    O5 1955   4.275   2.331  10.801 -0.2173  0.2516 -0.0870
  125TMC2    H5 1956   4.289   2.425  10.827  0.7123 -0.0016  0.3102
  126MPD1     C 1957   4.173   3.234  10.757 -0.3058  0.1606  0.4863
  126MPD1    C1 1958   4.266   3.235  10.659  0.2346 -0.2445  0.0756
  126MPD1    C2 1959   4.286   3.121  10.585  0.1402  0.0382  0.1728
  126MPD1    C3 1960   4.215   3.006  10.616  0.3475 -0.0723 -0.0533
  126MPD1    C4 1961   4.126   3.006  10.723 -0.1737 -0.1486  0.3495
  126MPD1    C5 1962   4.104   3.119  10.790  0.3711  0.2406 -0.5447
  126MPD1     H 1963   4.347   3.121  10.496  0.3830  0.0707  0.3392
  126MPD1    H1 1964   4.058   2.924  10.746 -2.2670  0.9479 -1.9251
  126MPD1    H2 1965   4.157   3.320  10.820 -1.3494  0.8415 -0.7149
  126MPD1    H3 1966   4.037   3.116  10.875  1.0439 -0.0849 -0.0190
  126MPD1     N 1967   4.231   2.879  10.548  0.1491 -0.1971  0.3498
  126MPD1    H5 1968   4.308   2.875  10.482  1.8739  1.0559  2.2723
  126MPD1    N1 1969   4.332   3.356  10.630  0.8584 -0.1978 -0.3251
  126MPD1    H6 1970   4.414   3.325  10.578  1.5285 -1.0420  1.2637
  126MPD1    H7 1971   4.373   3.400  10.712  0.5616  1.4958 -1.0800
  127TMC2    C1 1972   0.394   1.523  10.033  0.6700 -0.0234  0.1395
  127TMC2    C2 1973   0.490   1.427  10.054 -0.1608  0.7037  0.0043
  127TMC2    C3 1974   0.451   1.295  10.061 -0.1756  0.3271  0.7019
  127TMC2    C4 1975   0.262   1.487  10.029  0.2789  0.2629  0.9348
  127TMC2    C5 1976   0.226   1.354  10.051 -0.0761  0.0339 -0.8304
  127TMC2    C6 1977   0.317   1.252  10.058 -0.4893 -0.9881  0.3354
  127TMC2     C 1978   0.415   1.647   9.957 -0.0789 -0.1766  0.3557
  127TMC2     O 1979   0.331   1.694   9.880  0.0985 -0.4669  0.3318
  127TMC2     H 1980   0.593   1.456  10.038  0.7325 -1.9832  0.7889
  127TMC2    H1 1981   0.187   1.565  10.038 -0.4813 -0.1682 -1.5482
  127TMC2    H2 1982   0.294   1.149  10.084 -0.9922 -1.0889 -0.5080
  127TMC2    C7 1983   0.083   1.330  10.054 -0.1316 -0.4469  0.5053
  127TMC2    C8 1984   0.553   1.200  10.018  0.0169  0.3192 -0.4257
  127TMC2    O1 1985   0.023   1.393   9.970 -0.2276  0.0236  0.2142
  127TMC2    O2 1986   0.672   1.233  10.004  0.1114  0.3011  0.2041
  127TMC2    O5 1987   0.491   1.103   9.944  0.1393 -0.3039 -0.3829
  127TMC2    H5 1988   0.404   1.070   9.975  0.0949  1.2347  1.1069
  128MPD2     C 1989   0.697   1.874  10.011  0.2740  0.1264 -0.2071
  128MPD2    C1 1990   0.587   1.829   9.945 -0.0605 -0.1698 -0.3399
  128MPD2    C2 1991   0.535   1.902   9.838 -0.3272  0.2631  0.0732
  128MPD2    C3 1992   0.605   2.014   9.801 -0.2005 -0.0177 -0.8010
  128MPD2    C4 1993   0.721   2.053   9.864  0.2663 -0.2330 -0.3904
  128MPD2    C5 1994   0.768   1.985   9.972  0.3151 -0.2338  0.2430
  128MPD2     H 1995   0.442   1.873   9.790 -0.0915  0.9471 -0.7851
  128MPD2    H1 1996   0.773   2.147   9.846  1.3236 -0.4720  1.3640
  128MPD2    H2 1997   0.732   1.817  10.097  1.8321 -2.0170 -2.2691
  128MPD2    H3 1998   0.846   2.024  10.036 -0.7251 -0.1361  1.4560
  128MPD2     N 1999   0.534   2.094   9.702  0.4029  1.0892 -0.7331
  128MPD2    H5 2000   0.456   2.053   9.652 -0.1056  0.4626  0.5931
  128MPD2    N1 2001   0.536   1.704   9.993 -0.2858  1.2152  0.0781
  128MPD2    H7 2002   0.597   1.655  10.058  2.0057  3.1322 -0.6387
  129TMC2    C1 2003   1.980   3.367   1.820  0.2901  0.8159 -0.1788
  129TMC2    C2 2004   1.975   3.501   1.781  0.0709  0.8682  0.1674
  129TMC2    C3 2005   1.851   3.550   1.752 -0.3189  0.3822  0.6836
  129TMC2    C4 2006   1.866   3.292   1.837  0.0787 -0.3410  0.4560
  129TMC2    C5 2007   1.746   3.353   1.817 -0.0298  0.6542 -0.2586
  129TMC2    C6 2008   1.733   3.481   1.773  0.1639 -0.4683 -0.1951
  129TMC2     C 2009   2.110   3.302   1.817  0.5636 -0.9823  0.2527
  129TMC2     O 2010   2.108   3.183   1.794 -0.4899 -0.6847 -0.2830
  129TMC2     H 2011   2.063   3.565   1.773  0.1536  1.0538  2.3658
  129TMC2    H1 2012   1.865   3.185   1.851 -0.5274 -0.5563 -1.3079
  129TMC2    H2 2013   1.636   3.512   1.734  0.1287 -1.5531 -0.9568
  129TMC2    C7 2014   1.630   3.276   1.830  0.0922  0.6645 -0.1808
  129TMC2    C8 2015   1.846   3.697   1.744  0.3672  0.1784 -0.4050
  129TMC2    O1 2016   1.640   3.155   1.824  0.4806 -0.1424 -0.3783
  129TMC2    O2 2017   1.928   3.771   1.697 -0.1112  0.1251 -0.1374
  129TMC2    O5 2018   1.743   3.740   1.825  0.7785 -0.0961  0.2022
  129TMC2    H5 2019   1.680   3.666   1.842 -1.0496  1.3354 -0.3149
  130MPD2     C 2020   2.395   3.217   1.818  0.1107  0.1216 -0.1739
  130MPD2    C1 2021   2.353   3.347   1.849  0.0425  0.0470  0.1843
  130MPD2    C2 2022   2.449   3.444   1.877  0.4480  0.1750 -0.2552
  130MPD2    C3 2023   2.578   3.419   1.856 -0.0007  0.2065  0.2549
  130MPD2    C4 2024   2.619   3.291   1.825  0.5768 -0.1902  0.2308
  130MPD2    C5 2025   2.526   3.188   1.803 -0.0868 -0.4755 -0.0398
  130MPD2     H 2026   2.418   3.545   1.901 -0.8676 -0.6557  1.5766
  130MPD2    H1 2027   2.717   3.247   1.828 -0.5949 -2.7176  1.6621
  130MPD2    H2 2028   2.330   3.130   1.816 -1.4518  1.3261 -1.3366
  130MPD2    H3 2029   2.569   3.091   1.779 -0.3711 -0.4686 -0.5704
  130MPD2     N 2030   2.660   3.530   1.888 -0.2525 -0.4256 -0.2816
  130MPD2    H5 2031   2.614   3.615   1.918  0.5055 -0.4547  0.9754
  130MPD2    N1 2032   2.216   3.385   1.848 -0.2362  0.4774 -0.2340
  130MPD2    H7 2033   2.205   3.481   1.880  0.3069  0.2145  0.7618
  131TMC2    C1 2034   3.193   1.402  10.282 -0.3933  0.1147  0.0146
  131TMC2    C2 2035   3.195   1.388  10.414 -0.7076  0.0523  0.2206
  131TMC2    C3 2036   3.292   1.453  10.480  0.4298  0.6064 -0.0247
  131TMC2    C4 2037   3.266   1.495  10.216 -0.6757  0.0967  0.2732
  131TMC2    C5 2038   3.349   1.571  10.289 -0.2744  0.7222 -0.6748
  131TMC2    C6 2039   3.364   1.556  10.420  0.2403 -0.7180  0.3241
  131TMC2     C 2040   3.096   1.325  10.209  0.4484  0.3969  0.4318
  131TMC2     O 2041   3.022   1.259  10.277  0.4212  0.2811 -0.0057
  131TMC2     H 2042   3.136   1.317  10.470  2.9649 -2.5360  0.8550
  131TMC2    H1 2043   3.257   1.519  10.111 -0.8032  2.6793  0.8644
  131TMC2    H2 2044   3.442   1.601  10.480  0.3415  1.4354 -1.4136
  131TMC2    C7 2045   3.430   1.655  10.208 -0.3217 -0.4750 -0.5227
  131TMC2    C8 2046   3.338   1.399  10.605 -0.4256  0.3305  1.0151
  131TMC2    O1 2047   3.446   1.630  10.091  0.1615  0.0876  0.6436
  131TMC2    O2 2048   3.383   1.473  10.693  0.4230  0.2572 -0.0171
  131TMC2    O5 2049   3.284   1.278  10.643 -0.1992 -0.1196 -0.1867
  131TMC2    H5 2050   3.286   1.221  10.563  0.6504  1.8968 -1.6031
  132MPD2     C 2051   2.996   1.311   9.861 -0.1318 -0.7356 -0.1947
  132MPD2    C1 2052   3.019   1.260   9.990  0.4137  0.0096  0.0727
  132MPD2    C2 2053   2.976   1.134  10.025  0.4193  0.1909 -0.2219
  132MPD2    C3 2054   2.885   1.058   9.945  0.1019 -0.8511 -0.5856
  132MPD2    C4 2055   2.858   1.112   9.816  0.3466 -0.4133  0.0425
  132MPD2    C5 2056   2.925   1.229   9.781 -0.0587  0.3111  0.8800
  132MPD2     H 2057   3.007   1.088  10.119  0.9580 -0.5969 -0.7779
  132MPD2    H1 2058   2.802   1.066   9.736 -1.5098  3.6315 -1.0091
  132MPD2    H2 2059   3.046   1.399   9.820  1.5950 -0.3094  2.8036
  132MPD2    H3 2060   2.888   1.259   9.684 -0.3068  1.9672  1.4840
  132MPD2     N 2061   2.847   0.933   9.992 -0.4562 -0.1060  0.7562
  132MPD2    H5 2062   2.878   0.914  10.086 -1.0752 -3.3996  0.2814
  132MPD2    N1 2063   3.107   1.332  10.075 -0.0350 -0.3895 -0.0668
  132MPD2    H7 2064   3.153   1.417  10.042  0.7786  0.8519  4.2418
  133TMC2    C1 2065   3.361   2.620   9.742  0.3221  0.6022  0.2482
  133TMC2    C2 2066   3.404   2.504   9.676 -0.0636 -0.0508 -0.0428
  133TMC2    C3 2067   3.542   2.487   9.662 -0.3296  0.1679  0.7105
  133TMC2    C4 2068   3.449   2.716   9.796  0.7670  0.3655 -0.8164
  133TMC2    C5 2069   3.582   2.695   9.775  0.5114 -1.0852 -0.0875
  133TMC2    C6 2070   3.630   2.584   9.707  0.4529  0.1363  0.2827
  133TMC2     C 2071   3.220   2.654   9.732  0.2615  0.4244 -0.5210
  133TMC2     O 2072   3.138   2.568   9.713  0.1787 -0.0501  0.0069
  133TMC2     H 2073   3.333   2.427   9.647 -2.2114  1.6173  0.8553
  133TMC2    H1 2074   3.406   2.804   9.843 -2.0806 -1.7188  0.4974
  133TMC2    H2 2075   3.736   2.562   9.704  0.8271  2.1457 -0.8270
  133TMC2    C7 2076   3.681   2.786   9.836  0.2128  0.3651 -0.9764
  133TMC2    C8 2077   3.594   2.354   9.636  0.6175  0.1008 -0.3014
  133TMC2    O1 2078   3.793   2.738   9.841 -0.1180 -0.0877  0.2421
  133TMC2    O2 2079   3.704   2.320   9.679  0.1901 -0.0535 -0.1253
  133TMC2    O5 2080   3.527   2.292   9.532 -0.0507 -0.1712 -0.5907
  133TMC2    H5 2081   3.449   2.341   9.498  0.8613  1.0784 -0.9208
  134MPD2     C 2082   3.060   2.990   9.722 -0.0252  0.5530 -0.0067
  134MPD2    C1 2083   3.064   2.856   9.705 -0.1976  0.8657  0.7096
  134MPD2    C2 2084   2.950   2.791   9.658 -0.3301  0.0799 -0.3171
  134MPD2    C3 2085   2.831   2.857   9.629 -0.8351  0.9402  0.3432
  134MPD2    C4 2086   2.832   2.994   9.646 -0.0273  0.1517 -0.1869
  134MPD2    C5 2087   2.941   3.061   9.700  0.0055 -0.2066  0.5411
  134MPD2     H 2088   2.962   2.683   9.649 -1.6311 -0.0385 -0.5827
  134MPD2    H1 2089   2.741   3.050   9.633  1.9444  2.8168 -2.4370
  134MPD2    H2 2090   3.143   3.050   9.759 -1.2643  1.7539  0.8201
  134MPD2    H3 2091   2.934   3.164   9.733 -0.6860 -0.4555  1.1459
  134MPD2     N 2092   2.718   2.791   9.577 -0.3353  0.4230  0.9801
  134MPD2    H5 2093   2.631   2.843   9.581  0.8205  2.4317  0.4028
  134MPD2    N1 2094   3.193   2.791   9.725 -0.1803  0.0817  0.3188
  134MPD2    H7 2095   3.266   2.859   9.741  3.7753 -4.3645  1.2022
  135TMC2    C1 2096   4.515   3.874  10.930 -0.4054  0.5278  0.3159
  135TMC2    C2 2097   4.433   3.933  11.027  0.0585 -0.1215 -0.4672
  135TMC2    C3 2098   4.375   3.844  11.113  0.8421 -0.9242  0.3439
  135TMC2    C4 2099   4.534   3.740  10.915  0.1691  0.4650  0.7924
  135TMC2    C5 2100   4.458   3.655  10.995 -0.6294 -1.1669 -0.3683
  135TMC2    C6 2101   4.382   3.708  11.094  0.3206 -0.2932 -0.3558
  135TMC2     C 2102   4.594   3.975  10.856 -0.9691  0.2022 -0.2970
  135TMC2     O 2103   4.604   4.081  10.909 -0.0172  0.0315  0.1285
  135TMC2     H 2104   4.412   4.040  11.033  1.1895 -0.0476  2.0909
  135TMC2    H1 2105   4.602   3.704  10.838 -1.2934 -0.1186 -0.2109
  135TMC2    H2 2106   4.319   3.639  11.150  0.8150 -0.2597  0.2428
  135TMC2    C7 2107   4.465   3.510  10.962 -0.2993  0.2683  0.2731
  135TMC2    C8 2108   4.263   3.896  11.184  0.2498 -0.3979 -1.4487
  135TMC2    O1 2109   4.507   3.484  10.850 -0.2140  0.1960 -0.2418
  135TMC2    O2 2110   4.251   3.863  11.302 -0.4548 -0.4426  0.5507
  135TMC2    O5 2111   4.163   3.925  11.099 -0.6136  0.0489 -0.1743
  135TMC2    H5 2112   4.193   3.940  11.007 -2.7280  1.2014 -0.6758
  136MPD2     C 2113   0.019   4.128  10.683  0.3994  0.6884  0.4099
  136MPD2    C1 2114   4.704   4.009  10.643  0.0642 -0.2870 -0.4406
  136MPD2    C2 2115   4.738   3.960  10.516 -0.2487 -0.4851 -0.6862
  136MPD2    C3 2116   0.078   4.030  10.430 -0.1578  0.2467  0.8716
  136MPD2    C4 2117   0.127   4.156  10.470  0.0909 -0.3927 -0.3784
  136MPD2    C5 2118   0.095   4.199  10.595  0.2109  0.2020 -0.0965
  136MPD2     H 2119   4.692   3.871  10.475  2.0054 -2.1935  0.5323
  136MPD2    H1 2120   0.195   4.208  10.404  0.2139 -0.5748 -0.3966
  136MPD2    H2 2121   0.002   4.187  10.772 -1.5159 -1.1317  1.2389
  136MPD2    H3 2122   0.131   4.299  10.614  0.8837 -0.0014 -0.2778
  136MPD2     N 2123   0.114   3.984  10.301  0.6398 -0.0846 -0.4583
  136MPD2    H5 2124   0.156   4.049  10.235  1.7847 -0.3926 -0.0347
  136MPD2    N1 2125   4.622   3.929  10.728 -0.7964  0.6780  0.1898
  136MPD2    H7 2126   4.588   3.841  10.691  3.1009 -0.6006 -0.3132
  137TMC2    C1 2127   0.035   2.367  10.000  0.2378  0.0174 -0.4468
  137TMC2    C2 2128   0.149   2.403   9.942  0.8400  0.5368 -0.3504
  137TMC2    C3 2129   0.134   2.493   9.838  0.2962  0.0772 -0.4402
  137TMC2    C4 2130   4.652   2.425   9.979  0.1598  0.6328 -0.0427
  137TMC2    C5 2131   4.645   2.518   9.879 -0.3264 -0.1803  0.0141
  137TMC2    C6 2132   0.021   2.549   9.800  0.1308 -0.3392  0.9812
  137TMC2     C 2133   0.036   2.277  10.115 -0.0493  0.2961  0.2940
  137TMC2     O 2134   0.139   2.263  10.175  0.3931  0.3696  0.1096
  137TMC2     H 2135   0.247   2.372   9.975 -0.1633 -1.7791  0.4671
  137TMC2    H1 2136   4.573   2.403  10.049 -0.5226 -0.6116 -1.2196
  137TMC2    H2 2137   0.015   2.598   9.703  0.2572 -0.2133  1.0369
  137TMC2    C7 2138   4.537   2.614   9.872  0.2973 -0.5717 -0.1946
  137TMC2    C8 2139   0.239   2.486   9.742 -0.5265  0.8444 -0.0627
  137TMC2    O1 2140   4.533   2.704   9.788  0.5170  0.2622 -0.4975
  137TMC2    O2 2141   0.255   2.571   9.658  0.2489 -0.2049  0.2417
  137TMC2    O5 2142   0.219   2.353   9.714  0.1748 -0.0817  0.0433
  137TMC2    H5 2143   0.182   2.300   9.787  0.4799  0.5891  0.6790
  138MPD2     C 2144   4.558   1.983  10.176 -0.1910 -0.2882  0.5232
  138MPD2    C1 2145   4.641   2.085  10.208  0.5812  0.4680 -0.4942
  138MPD2    C2 2146   4.700   2.082  10.336  0.3319 -0.9585 -0.0407
  138MPD2    C3 2147   4.644   2.003  10.437  0.4092 -0.4153 -0.3257
  138MPD2    C4 2148   4.553   1.905  10.406 -0.3824 -0.0620  0.9536
  138MPD2    C5 2149   4.520   1.890  10.275 -0.5230  0.9321 -0.1596
  138MPD2     H 2150   0.039   2.154  10.364 -1.6117  1.1761 -0.2130
  138MPD2    H1 2151   4.501   1.852  10.486 -0.1283 -0.2474  0.9975
  138MPD2    H2 2152   4.515   1.979  10.077 -1.5509 -1.9748  1.1797
  138MPD2    H3 2153   4.450   1.810  10.252 -0.1787  1.3537 -2.7070
  138MPD2     N 2154   4.674   2.042  10.570  0.1516  0.0099 -0.2851
  138MPD2    H5 2155   0.002   2.119  10.577 -0.6383  0.6470  0.1799
  138MPD2    N1 2156   4.675   2.181  10.106 -0.6928 -0.0283  0.2039
  138MPD2    H7 2157   4.617   2.171  10.023  0.3119 -1.0410 -0.3843
  139TMC2    C1 2158   0.520   0.710  13.665  0.1889 -1.5631 -0.9833
  139TMC2    C2 2159   0.645   0.765  13.672  0.1353  0.3875  0.0113
  139TMC2    C3 2160   0.650   0.893  13.618  0.6328  0.2850 -0.2838
  139TMC2    C4 2161   0.408   0.770  13.617  0.2350  0.2169 -0.2827
  139TMC2    C5 2162   0.415   0.899  13.572  0.2136  0.9208 -0.2804
  139TMC2    C6 2163   0.538   0.965  13.573 -0.1015  0.0592 -0.5082
  139TMC2     C 2164   0.506   0.588  13.737  0.3364  0.4015 -0.8793
  139TMC2     O 2165   0.618   0.553  13.766 -0.2403  0.2553  0.3666
  139TMC2     H 2166   0.731   0.719  13.718  0.0141  0.6506  0.4955
  139TMC2    H1 2167   0.310   0.724  13.622  1.7700 -2.9688  0.1914
  139TMC2    H2 2168   0.542   1.072  13.561 -3.4409  0.0470 -1.7478
  139TMC2    C7 2169   0.300   0.982  13.613 -0.1129 -0.2901  0.4915
  139TMC2    C8 2170   0.780   0.960  13.644  0.5229  0.0879  0.6032
  139TMC2    O1 2171   0.227   1.031  13.520 -1.0567 -0.1752 -0.2361
  139TMC2    O2 2172   0.867   0.928  13.724 -0.2180  0.0657 -0.3637
  139TMC2    O5 2173   0.783   1.064  13.552 -0.2460 -0.1189  0.0849
  139TMC2    H5 2174   0.727   1.048  13.472  0.2451  3.0691 -0.8895
  140MPD2     C 2175   0.259   0.328  13.781  0.1614  0.5202 -0.2564
  140MPD2    C1 2176   0.380   0.386  13.766  0.0014 -0.6014  0.5716
  140MPD2    C2 2177   0.489   0.298  13.765 -0.2860  0.2309  0.0442
  140MPD2    C3 2178   0.468   0.165  13.793  0.2367  0.0640  0.5000
  140MPD2    C4 2179   0.346   0.112  13.806 -0.6327  0.0557  0.6438
  140MPD2    C5 2180   0.237   0.191  13.797 -0.2902 -0.0872 -0.3184
  140MPD2     H 2181   0.589   0.333  13.740 -0.1355 -0.7136 -0.6922
  140MPD2    H1 2182   0.336   0.005  13.824  1.1481 -0.1975  0.1066
  140MPD2    H2 2183   0.174   0.394  13.773  0.0380  0.6361  2.1386
  140MPD2    H3 2184   0.137   0.149  13.805 -0.5183  0.5458  0.1986
  140MPD2     N 2185   0.578   0.081  13.783  0.6031  0.2680  0.1107
  140MPD2    H5 2186   0.662   0.134  13.764  2.1079 -1.8782  0.7503
  140MPD2    N1 2187   0.384   0.520  13.732  0.2883  0.0448 -0.4310
  140MPD2    H7 2188   0.296   0.570  13.717  1.0239  1.9277  1.5905
  141TMC2    C1 2189   0.333   2.231  14.655 -0.4988  0.6389  0.0925
  141TMC2    C2 2190   0.352   2.122  14.727  0.8594  0.7037 -0.1095
  141TMC2    C3 2191   0.391   2.136  14.859 -0.8362  0.6124 -0.1693
  141TMC2    C4 2192   0.355   2.360  14.702  0.3641  0.1396  0.0437
  141TMC2    C5 2193   0.393   2.367  14.830 -0.3358 -0.3975 -0.1730
  141TMC2    C6 2194   0.411   2.262  14.919 -0.0108 -0.3190 -0.1825
  141TMC2     C 2195   0.298   2.212  14.517  0.8381 -0.1373 -0.2974
  141TMC2     O 2196   0.222   2.290  14.455  0.3406 -0.1823 -0.1947
  141TMC2     H 2197   0.333   2.019  14.697  2.1734  0.0426  1.3143
  141TMC2    H1 2198   0.343   2.445  14.636 -2.0398  0.7790  1.2885
  141TMC2    H2 2199   0.451   2.271  15.019  2.5986  0.2254 -1.2491
  141TMC2    C7 2200   0.441   2.491  14.869  0.0977 -0.3363  0.3233
  141TMC2    C8 2201   0.384   2.021  14.949  0.5102 -0.1191 -0.0143
  141TMC2    O1 2202   0.387   2.589  14.819 -0.3030 -0.4716  0.3527
  141TMC2    O2 2203   0.303   1.930  14.931 -0.4785  0.3538 -0.4427
  141TMC2    O5 2204   0.486   2.022  15.040 -0.1900  0.1719 -0.3026
  141TMC2    H5 2205   0.561   2.077  15.008  0.4224 -0.9599 -0.7860
  142TMC2    C1 2206   3.073   0.686   9.782  0.0374 -0.6707 -0.0405
  142TMC2    C2 2207   3.037   0.738   9.664  0.1615 -0.2265  0.0252
  142TMC2    C3 2208   3.093   0.859   9.633 -0.3617  0.5438  0.4372
  142TMC2    C4 2209   3.160   0.748   9.862 -0.7394 -0.4045  0.1459
  142TMC2    C5 2210   3.209   0.873   9.838  0.4415  0.3939  0.1304
  142TMC2    C6 2211   3.181   0.925   9.717 -0.4008 -0.1528 -0.3778
  142TMC2     C 2212   2.977   0.591   9.837  0.7221 -0.0833 -0.3753
  142TMC2     O 2213   2.869   0.578   9.779 -0.1690 -0.1159 -0.5641
  142TMC2     H 2214   2.977   0.675   9.600  1.0596 -2.1560  1.0853
  142TMC2    H1 2215   3.181   0.711   9.962  0.4004  0.7204  0.3233
  142TMC2    H2 2216   3.212   1.025   9.689 -0.0677  0.0525  0.7434
  142TMC2    C7 2217   3.290   0.936   9.936  0.2550  0.5009 -0.8572
  142TMC2    C8 2218   3.096   0.905   9.501 -0.1075 -0.2032  0.3899
  142TMC2    O1 2219   3.322   0.868  10.037  0.1215  0.4154 -0.1708
  142TMC2    O2 2220   3.194   0.966   9.461  0.2329 -0.0790  0.4493
  142TMC2    O5 2221   2.982   0.873   9.436 -0.0877  0.4010 -0.2952
  142TMC2    H5 2222   2.920   0.826   9.495 -1.0605  0.9328 -0.8895
  143MPD2     C 2223   2.871   0.204  10.159 -0.5953 -0.3546 -0.0503
  143MPD2    C1 2224   2.793   0.260  10.062 -0.5057  0.6904 -0.2362
  143MPD2    C2 2225   2.849   0.347   9.978 -0.0023  0.3726 -0.6040
  143MPD2    C3 2226   2.970   0.401  10.006 -0.0401 -0.0434 -0.1065
  143MPD2    C4 2227   3.051   0.333  10.097 -0.1898  0.5095 -0.0132
  143MPD2    C5 2228   2.997   0.238  10.172 -1.0043 -0.6076  0.3956
  143MPD2     H 2229   2.788   0.375   9.892 -1.7728 -3.0995 -0.4531
  143MPD2    H1 2230   3.147   0.365  10.137 -2.1218  2.8716  2.6739
  143MPD2    H2 2231   2.828   0.128  10.223  0.1620  0.0292  0.8987
  143MPD2    H3 2232   3.061   0.189  10.245  1.4255  0.9075 -0.7148
  143MPD2     N 2233   3.021   0.517   9.943 -0.1284  0.4828 -0.4447
  143MPD2    H5 2234   3.117   0.534   9.973 -0.6533  0.6118  1.1086
  143MPD2    N1 2235   2.661   0.214  10.063 -0.0117  0.1111 -0.1264
  143MPD2    H7 2236   2.633   0.143  10.130  2.9130 -1.9115 -1.0679
  144TMC2    C1 2237   1.036   4.546   1.013 -0.6049  0.1827  0.2046
  144TMC2    C2 2238   1.155   4.505   0.963 -0.1248  0.5639  0.4011
  144TMC2    C3 2239   1.257   4.480   1.055 -0.7762 -0.1254  0.2259
  144TMC2    C4 2240   1.006   4.558   1.147  0.9075 -0.3194  0.6375
  144TMC2    C5 2241   1.095   4.515   1.229  0.2952  0.4992 -0.1507
  144TMC2    C6 2242   1.224   4.478   1.190  0.5217  0.2753 -0.1737
  144TMC2     C 2243   0.932   4.520   0.918 -1.0840 -0.0203  0.8432
  144TMC2     O 2244   0.959   4.446   0.825 -1.1806 -0.2964 -0.4184
  144TMC2     H 2245   1.181   4.501   0.858 -0.5780 -1.1139  0.3594
  144TMC2    H1 2246   0.905   4.589   1.170  1.3782  1.0504  0.8304
  144TMC2    H2 2247   1.298   4.444   1.262 -0.0045  2.1037  1.2312
  144TMC2    C7 2248   1.086   4.537   1.371 -0.1407  0.3549 -0.3288
  144TMC2    C8 2249   1.373   4.407   1.006 -0.6429  0.0376  0.5727
  144TMC2    O1 2250   1.179   4.500   1.441 -0.1229  0.4010 -0.0235
  144TMC2    O2 2251   1.386   4.333   0.908 -0.0650  0.4482  0.1688
  144TMC2    O5 2252   1.470   4.442   1.089  0.1843  0.0329  0.2533
  144TMC2    H5 2253   1.429   4.517   1.138  0.6732  1.0207 -0.8723
  145MPD2     C 2254   0.474   4.655   0.720  0.2348 -0.5074  0.9062
  145MPD2    C1 2255   0.559   4.547   0.690 -0.3317 -1.1295  0.1257
  145MPD2    C2 2256   0.677   4.528   0.760 -0.6411 -0.9259 -0.0066
  145MPD2    C3 2257   0.712   4.624   0.853 -1.1090  0.2737  0.1702
  145MPD2    C4 2258   0.626   4.722   0.889  0.0562 -0.6617  0.0100
  145MPD2    C5 2259   0.508   0.003   0.821 -0.7255  0.4163 -0.1599
  145MPD2     H 2260   0.729   4.437   0.732 -1.3787 -1.5940  0.8243
  145MPD2    H1 2261   0.653   0.053   0.967 -3.4342 -0.1249  0.7530
  145MPD2    H2 2262   0.378   4.665   0.672  0.9823  0.9927 -0.2555
  145MPD2    H3 2263   0.434   0.071   0.860 -2.5475 -2.0157  0.6055
  145MPD2     N 2264   0.825   4.612   0.935  0.0720  0.0945  0.0842
  145MPD2    H5 2265   0.831   4.658   1.025  0.3856  1.1683 -0.4877
  145MPD2    N1 2266   0.530   4.445   0.590 -0.2178 -0.4482 -0.0975
  145MPD2    H7 2267   0.599   4.372   0.578 -0.1426 -0.5748  1.0564
  146TMC2    C1 2268   2.801   2.981  12.070  0.4905  0.5113 -1.0993
  146TMC2    C2 2269   2.789   3.027  11.943  1.0582 -0.1903  0.2500
  146TMC2    C3 2270   2.837   2.952  11.843 -0.4836  0.0270  0.2835
  146TMC2    C4 2271   2.874   2.869  12.098  0.0108  0.5999  0.8064
  146TMC2    C5 2272   2.911   2.791  11.994 -0.2901  0.1218 -0.8681
  146TMC2    C6 2273   2.898   2.832  11.861  0.0517 -0.4097 -0.1862
  146TMC2     C 2274   2.771   3.074  12.180 -0.7940  0.0490 -0.2020
  146TMC2     O 2275   2.752   3.187  12.138 -0.2854  0.0902 -0.9780
  146TMC2     H 2276   2.751   3.128  11.930 -1.0480 -0.6687  2.7545
  146TMC2    H1 2277   2.913   2.845  12.196  0.5763  0.1151  0.4669
  146TMC2    H2 2278   2.918   2.772  11.773  1.1019  2.8306 -2.1723
  146TMC2    C7 2279   3.018   2.693  11.998  0.1100  0.6892  0.1333
  146TMC2    C8 2280   2.809   2.993  11.706  0.4906  0.2131  0.9332
  146TMC2    O1 2281   3.096   2.672  11.903 -0.0608  0.1449 -0.1772
  146TMC2    O2 2282   2.709   3.053  11.669 -0.6974 -0.3562  0.0530
  146TMC2    O5 2283   2.931   2.993  11.647  0.0490 -0.4998  0.0959
  146TMC2    H5 2284   3.002   2.949  11.699  0.1767 -2.0419 -1.3497
  147MPD2     C 2285   3.337   2.402  12.283 -0.3257 -0.0123  0.2040
  147MPD2    C1 2286   3.222   2.432  12.353  0.4481 -0.3030 -0.1519
  147MPD2    C2 2287   3.123   2.518  12.303 -0.3802  0.4987 -0.1729
  147MPD2    C3 2288   3.127   2.552  12.169  0.3240  0.8523 -0.0285
  147MPD2    C4 2289   3.237   2.511  12.092 -0.1516  0.9811  0.2418
  147MPD2    C5 2290   3.340   2.439  12.148  0.1021 -0.2666  0.1804
  147MPD2     H 2291   3.043   2.562  12.361 -0.7861 -1.0207  0.4290
  147MPD2    H1 2292   3.240   2.523  11.984 -0.2843 -0.5578  0.0628
  147MPD2    H2 2293   3.422   2.352  12.327 -0.7014 -0.2972  0.6057
  147MPD2    H3 2294   3.417   2.414  12.076 -0.3967 -2.1064  0.3022
  147MPD2     N 2295   3.024   2.637  12.121 -0.6120  0.0380 -0.0113
  147MPD2    H5 2296   2.949   2.663  12.184  0.7616  2.0377  0.7828
  147MPD2    N1 2297   3.220   2.375  12.481 -0.0842 -0.9994 -0.7510
  147MPD2    H7 2298   3.303   2.324  12.510  0.1682 -0.8262 -1.1766
  148TMC2    C1 2299   2.928   1.885  10.467 -1.3962 -0.3260 -0.4571
  148TMC2    C2 2300   2.934   1.995  10.556  0.4702  0.3805  0.8409
  148TMC2    C3 2301   2.960   1.960  10.686  0.6465 -0.1851 -0.9638
  148TMC2    C4 2302   2.959   1.756  10.502  0.5315  0.0221 -0.0466
  148TMC2    C5 2303   2.988   1.736  10.631 -0.2245  0.5960  0.1216
  148TMC2    C6 2304   2.977   1.833  10.723 -0.6668 -0.2278 -0.2650
  148TMC2     C 2305   2.831   1.903  10.364  0.3334 -0.2250 -1.0525
  148TMC2     O 2306   2.806   2.018  10.333 -0.3115  0.0412 -0.0848
  148TMC2     H 2307   2.899   2.094  10.529  1.9804  0.8965  0.7677
  148TMC2    H1 2308   2.956   1.676  10.429 -1.0660 -0.8553  1.0009
  148TMC2    H2 2309   2.979   1.811  10.829 -1.5959  0.4262 -0.1009
  148TMC2    C7 2310   3.000   1.594  10.672  0.5598  0.1694  0.1761
  148TMC2    C8 2311   2.928   2.066  10.782  0.3376 -0.0593  0.3599
  148TMC2    O1 2312   2.957   1.517  10.582 -0.4821 -0.4880  0.0842
  148TMC2    O2 2313   2.870   2.171  10.759 -0.2235  0.1217 -0.2036
  148TMC2    O5 2314   3.019   2.054  10.880  0.5781 -0.0298  0.0515
  148TMC2    H5 2315   3.085   1.982  10.869  0.1589 -0.5766  1.2144
  149MPD2     C 2316   2.595   1.867  10.177  0.4193 -0.7531 -0.5104
  149MPD2    C1 2317   2.636   1.780  10.265 -0.6312  0.5679  0.8273
  149MPD2    C2 2318   2.560   1.665  10.279 -0.2060  0.2156 -0.4204
  149MPD2    C3 2319   2.446   1.647  10.204 -0.0131 -0.6325 -0.7148
  149MPD2    C4 2320   2.417   1.739  10.106 -0.2884 -0.1002 -0.0319
  149MPD2    C5 2321   2.491   1.851  10.095  0.6897 -1.0371  0.1047
  149MPD2     H 2322   2.604   1.587  10.339 -3.1780 -0.7502  0.5175
  149MPD2    H1 2323   2.339   1.724  10.031  0.5984 -0.3478 -0.9021
  149MPD2    H2 2324   2.651   1.959  10.161  0.0228 -0.6058 -1.0287
  149MPD2    H3 2325   2.471   1.920  10.013  1.3938 -0.9571  0.0044
  149MPD2     N 2326   2.381   1.528  10.205  0.3461  0.3443 -0.0510
  149MPD2    H5 2327   2.311   1.508  10.134  1.0963  2.0539 -1.2739
  149MPD2    N1 2328   2.748   1.792  10.351  0.4697 -0.4977 -0.1994
  149MPD2    H7 2329   2.772   1.703  10.394  1.0176 -0.3474 -0.2028
  150TMC2    C1 2330   0.220   0.818  12.396  0.4319 -0.1711  0.0272
  150TMC2    C2 2331   0.171   0.921  12.320  0.1390  0.3757  0.0158
  150TMC2    C3 2332   0.255   1.021  12.277  0.7078 -0.2266  0.2963
  150TMC2    C4 2333   0.352   0.816  12.449 -0.7095  0.3858  0.6227
  150TMC2    C5 2334   0.431   0.921  12.398  0.0764 -0.3596 -0.5097
  150TMC2    C6 2335   0.385   1.025  12.317  0.2227  0.7379  0.6817
  150TMC2     C 2336   0.127   0.709  12.444  0.4034 -0.4782  0.4901
  150TMC2     O 2337   0.147   0.662  12.557 -0.2389  0.4449  0.1257
  150TMC2     H 2338   0.067   0.941  12.299 -0.3991  0.7162  3.0968
  150TMC2    H1 2339   0.392   0.734  12.507  2.3201 -0.3905 -2.5304
  150TMC2    H2 2340   0.447   1.100  12.268 -0.4288  1.3021  0.7234
  150TMC2    C7 2341   0.575   0.931  12.427 -0.5546  0.5092  0.2250
  150TMC2    C8 2342   0.228   1.104  12.158 -0.1177  0.4312  0.6772
  150TMC2    O1 2343   0.631   1.019  12.364  0.2804 -0.2246 -0.4394
  150TMC2    O2 2344   0.293   1.206  12.147  0.5945 -0.4901 -0.3898
  150TMC2    O5 2345   0.207   1.018  12.059 -0.1129 -0.6952 -0.2569
  150TMC2    H5 2346   0.175   0.930  12.088 -3.3797  0.9245  1.0856
  151MPD2     C 2347   4.422   0.470  12.388 -0.3036  0.0371 -0.7616
  151MPD2    C1 2348   4.453   0.527  12.272 -0.1608 -0.3377 -0.3684
  151MPD2    C2 2349   4.573   0.593  12.264  0.0701 -0.9907 -0.4791
  151MPD2    C3 2350   4.655   0.616  12.369  0.1400 -0.2211 -0.2961
  151MPD2    C4 2351   4.621   0.558  12.491  0.1621 -0.5076 -0.0790
  151MPD2    C5 2352   4.505   0.489  12.502 -0.6480 -0.4097 -0.4602
  151MPD2     H 2353   4.596   0.641  12.170 -2.9665 -0.3688 -0.9319
  151MPD2    H1 2354   4.686   0.567  12.577 -3.8736  1.3795  2.8288
  151MPD2    H2 2355   4.334   0.408  12.400  0.4917 -0.2679  3.7411
  151MPD2    H3 2356   4.475   0.463  12.603  0.1729  3.1126  0.6757
  151MPD2     N 2357   0.029   0.692  12.351 -0.2639  0.1497 -0.0467
  151MPD2    H5 2358   0.046   0.738  12.262  3.9686 -0.5895  0.3993
  151MPD2    N1 2359   4.361   0.502  12.168  0.0703 -0.4930  0.4452
  151MPD2    H7 2360   4.286   0.436  12.184 -1.6178  0.9476 -1.4141
  152TMC2    C1 2361   4.504   0.619  12.900  0.8130  0.1361  0.3255
  152TMC2    C2 2362   4.578   0.533  12.969  0.7003 -0.2202  0.0345
  152TMC2    C3 2363   4.711   0.547  12.966 -0.5113 -0.2123  0.5512
  152TMC2    C4 2364   4.555   0.731  12.835 -1.1080  0.0278  0.2220
  152TMC2    C5 2365   4.693   0.738  12.831 -0.3456 -0.2236 -0.1572
  152TMC2    C6 2366   0.035   0.643  12.898 -0.5493 -0.4749  0.3810
  152TMC2     C 2367   4.368   0.588  12.877 -0.2794 -0.6496  0.5380
  152TMC2     O 2368   4.324   0.624  12.770 -0.3560  0.2099 -0.0841
  152TMC2     H 2369   4.533   0.461  13.036 -1.5766 -1.6944 -3.0751
  152TMC2    H1 2370   4.491   0.810  12.799 -0.5015  0.9472  1.1502
  152TMC2    H2 2371   0.143   0.650  12.907 -0.6385  0.4931  0.6983
  152TMC2    C7 2372   0.010   0.851  12.759  0.2504 -0.0855 -0.1571
  152TMC2    C8 2373   0.050   0.437  13.016 -0.2751 -0.1658  0.2207
  152TMC2    O1 2374   4.672   0.901  12.676  0.1091 -0.0841 -0.4461
  152TMC2    O2 2375   4.734   0.367  13.097  0.3581 -0.3558  0.1107
  152TMC2    O5 2376   0.124   0.415  12.906  0.2032  0.1503 -0.7806
  152TMC2    H5 2377   0.177   0.334  12.921 -0.3268 -0.3544 -1.6386
  153MPD2     C 2378   4.119   0.477  13.104 -0.2895  0.1047  0.4685
  153MPD2    C1 2379   4.173   0.497  12.986  0.2201 -0.1895 -0.6455
  153MPD2    C2 2380   4.093   0.499  12.874  0.1934 -0.6635 -0.7364
  153MPD2    C3 2381   3.959   0.482  12.889 -0.0843  0.1467 -0.0372
  153MPD2    C4 2382   3.903   0.460  13.010 -0.4699 -0.4496 -0.0553
  153MPD2    C5 2383   3.982   0.454  13.118 -0.3495  0.0778 -0.0223
  153MPD2     H 2384   4.128   0.526  12.775  0.5146  1.4654 -0.0451
  153MPD2    H1 2385   3.805   0.415  13.023 -1.0144  0.5422 -0.7323
  153MPD2    H2 2386   4.177   0.474  13.195  0.9677 -2.7267 -0.4087
  153MPD2    H3 2387   3.945   0.430  13.217 -0.1389  1.1227  0.3080
  153MPD2     N 2388   3.889   0.486  12.769  0.4027 -0.0500  0.7362
  153MPD2    H5 2389   3.949   0.505  12.689 -0.5382 -0.0943  0.0137
  153MPD2    N1 2390   4.307   0.535  12.985  0.5952 -0.2851  0.3251
  153MPD2    H7 2391   4.359   0.532  13.072  0.5029  1.8981  0.4683
  154TMC2    C1 2392   1.487   1.596   0.197  0.0986 -0.7245 -0.2416
  154TMC2    C2 2393   1.491   1.462   0.166 -0.1006 -0.0801 -0.0318
  154TMC2    C3 2394   1.610   1.401   0.148 -0.2635 -0.3127  0.1336
  154TMC2    C4 2395   1.598   1.666   0.239  0.6682  0.5634  0.3457
  154TMC2    C5 2396   1.713   1.595   0.227  0.0249  0.0945  0.6637
  154TMC2    C6 2397   1.724   1.476   0.169  0.0532 -0.1921  0.2114
  154TMC2     C 2398   1.359   1.664   0.212 -0.1703  0.7823  0.5640
  154TMC2     O 2399   1.268   1.585   0.248  0.0968  0.6146  0.0902
  154TMC2     H 2400   1.404   1.404   0.139 -0.2029 -0.1180  0.3735
  154TMC2    H1 2401   1.593   1.769   0.273 -0.0213  0.6461 -0.0167
  154TMC2    H2 2402   1.821   1.429   0.172  0.0053 -0.5626 -4.0050
  154TMC2    C7 2403   1.833   1.651   0.275 -0.4009 -0.4924  0.5926
  154TMC2    C8 2404   1.604   1.257   0.138  0.5764  0.1772  0.6627
  154TMC2    O1 2405   1.929   1.633   0.207  0.1894  0.1782 -0.1014
  154TMC2    O2 2406   1.503   1.195   0.169 -0.0584 -0.1568  0.6710
  154TMC2    O5 2407   1.726   1.209   0.128  0.0967 -0.2152 -0.0309
  154TMC2    H5 2408   1.795   1.267   0.090 -0.0084 -0.9803 -1.4062
  155MPD2     C 2409   1.250   2.011   0.156  0.2557  0.2594  0.1244
  155MPD2    C1 2410   1.245   1.886   0.208 -0.5173 -0.4501 -0.1370
  155MPD2    C2 2411   1.132   1.840   0.270  0.1584  0.1095  0.3054
  155MPD2    C3 2412   1.029   1.928   0.294  0.0620  0.5194 -1.1331
  155MPD2    C4 2413   1.048   2.060   0.268  0.2014 -0.5592 -0.1313
  155MPD2    C5 2414   1.158   2.101   0.192 -0.0505  0.2492  0.4102
  155MPD2     H 2415   1.117   1.737   0.300 -0.6253 -0.1881 -1.0783
  155MPD2    H1 2416   0.981   2.140   0.298  0.5910  0.6185 -2.3935
  155MPD2    H2 2417   1.337   2.037   0.096 -0.7049  0.0142 -1.3715
  155MPD2    H3 2418   1.166   2.204   0.159  0.0233 -0.2286 -1.0522
  155MPD2     N 2419   0.918   1.882   0.363 -0.5210 -0.6417  0.7856
  155MPD2    H5 2420   0.940   1.801   0.419  1.9323 -0.2188  0.4218
  155MPD2    N1 2421   1.353   1.802   0.196 -0.4802 -0.5531 -0.5052
  155MPD2    H7 2422   1.435   1.849   0.159 -1.4615  0.4505 -1.3717
  156TMC2    C1 2423   4.718   3.195  12.540 -0.2223 -0.0234  0.4863
  156TMC2    C2 2424   0.104   3.141  12.541  0.1886  0.0075 -0.1952
  156TMC2    C3 2425   0.173   3.169  12.439  0.6814 -0.2052  0.4385
  156TMC2    C4 2426   4.657   3.256  12.434 -0.1571  1.1577 -0.3332
  156TMC2    C5 2427   4.734   3.263  12.319  0.3535 -0.5268  0.5127
  156TMC2    C6 2428   0.134   3.237  12.331  0.0579 -0.4844 -0.6542
  156TMC2     C 2429   4.681   3.273  12.655 -0.1498 -0.4823  0.2703
  156TMC2     O 2430   4.563   3.314  12.661  0.0383 -0.4266  0.1084
  156TMC2     H 2431   0.152   3.091  12.624  0.6807 -0.1395 -0.5662
  156TMC2    H1 2432   4.561   3.307  12.439 -0.0259  1.3115  0.5060
  156TMC2    H2 2433   0.205   3.264  12.254  0.8391 -1.4702 -0.2741
  156TMC2    C7 2434   4.692   3.355  12.217 -0.0599  0.2107 -0.2126
  156TMC2    C8 2435   0.315   3.144  12.445  0.2474  0.2142  0.2482
  156TMC2    O1 2436   4.602   3.438  12.238 -0.1103 -0.3596  1.2465
  156TMC2    O2 2437   0.374   3.147  12.548 -0.3624  0.3620  0.3152
  156TMC2    O5 2438   0.355   3.089  12.325 -0.6778  0.3373 -0.5146
  156TMC2    H5 2439   0.274   3.074  12.273 -0.5270 -2.0318 -0.0539
  157MPD2     C 2440   0.150   3.325  12.949 -0.1347  0.2293 -0.0758
  157MPD2    C1 2441   0.036   3.349  12.873  0.6365 -0.3089 -0.3817
  157MPD2    C2 2442   4.673   3.435  12.919  0.3058  0.5370  0.1082
  157MPD2    C3 2443   4.688   3.500  13.039 -0.6202 -0.5212 -0.1504
  157MPD2    C4 2444   0.063   3.482  13.112  0.5114  0.1845 -0.3841
  157MPD2    C5 2445   0.163   3.397  13.065  0.0461  0.6857  0.4514
  157MPD2     H 2446   4.585   3.450  12.856 -0.2150  0.5979  0.8488
  157MPD2    H1 2447   0.077   3.522  13.212 -3.0053 -0.2610  0.3040
  157MPD2    H2 2448   0.227   3.265  12.901 -0.2548  0.3074 -0.3691
  157MPD2    H3 2449   0.237   3.358  13.135 -0.9571 -0.4567  0.8764
  157MPD2     N 2450   4.597   3.605  13.076  0.2617 -0.3243 -0.0113
  157MPD2    H5 2451   4.516   3.615  13.016 -0.3696 -0.4101  0.8285
  157MPD2    N1 2452   0.044   3.278  12.753  0.1006  0.1117 -0.2373
  157MPD2    H7 2453   0.125   3.222  12.728  2.6015  2.3684  2.9530
  158TMC2    C1 2454   0.219   1.726  12.805 -1.0456 -0.0241 -0.2921
  158TMC2    C2 2455   0.280   1.665  12.699 -0.2854 -0.3631 -0.4644
  158TMC2    C3 2456   0.193   1.630  12.595  0.5403 -0.1903  0.5522
  158TMC2    C4 2457   0.093   1.762  12.817  0.4764 -0.8726  0.6280
  158TMC2    C5 2458   0.011   1.723  12.714 -0.2295 -0.0343  0.3523
  158TMC2    C6 2459   0.056   1.651  12.611  0.0801 -0.6358  0.2026
  158TMC2     C 2460   0.308   1.722  12.921  0.0014  0.0145  1.2984
  158TMC2     O 2461   0.415   1.665  12.911 -0.3794 -0.2439  0.2759
  158TMC2     H 2462   0.387   1.650  12.685 -0.3214 -2.2498  1.3456
  158TMC2    H1 2463   0.052   1.805  12.907 -1.6635 -0.3696 -0.5875
  158TMC2    H2 2464   4.724   1.627  12.532 -1.0655  0.8865  0.7596
  158TMC2    C7 2465   4.607   1.709  12.731 -0.2897  0.0082  0.2224
  158TMC2    C8 2466   0.253   1.564  12.479 -0.2152  0.0955  0.0655
  158TMC2    O1 2467   4.543   1.731  12.630  0.2077 -0.1464 -0.0088
  158TMC2    O2 2468   0.369   1.589  12.445 -0.3860  0.0962  0.3166
  158TMC2    O5 2469   0.161   1.500  12.402  0.2607 -0.0353 -0.8586
  158TMC2    H5 2470   0.084   1.459  12.447  0.5852  0.6191  0.2947
  159MPD2     C 2471   0.346   1.684  13.442  0.1208 -0.6287  0.2079
  159MPD2    C1 2472   0.231   1.753  13.407 -0.3642  0.3467  0.1091
  159MPD2    C2 2473   0.205   1.788  13.274  0.2260  0.7930  0.4215
  159MPD2    C3 2474   0.286   1.746  13.170 -0.1627  0.6193 -0.8554
  159MPD2    C4 2475   0.398   1.675  13.200  0.4240 -0.2586  0.1029
  159MPD2    C5 2476   0.432   1.646  13.337 -0.2585  0.4420  0.2865
  159MPD2     H 2477   0.120   1.853  13.256 -0.3416  0.9182  3.5433
  159MPD2    H1 2478   0.462   1.641  13.120  0.6698 -0.0786  0.2252
  159MPD2    H2 2479   0.364   1.659  13.546  0.9408  1.8245  0.6528
  159MPD2    H3 2480   0.519   1.581  13.344 -0.6663  0.0527  1.6521
  159MPD2     N 2481   0.250   1.771  13.038  0.4246  0.5078  0.2560
  159MPD2    H5 2482   0.167   1.828  13.021  1.1484  2.2928  2.7490
  159MPD2    N1 2483   0.151   1.787  13.517  0.2767 -0.1053 -0.2968
  159MPD2    H7 2484   0.179   1.744  13.605 -0.8126  1.7254  0.9237
  160TMC2    C1 2485   3.603   0.192   1.968  0.5448  0.4119 -0.4125
  160TMC2    C2 2486   3.541   0.072   1.978 -0.4218 -0.6601  0.6092
  160TMC2    C3 2487   3.613   4.698   1.947 -0.1762 -0.3755 -0.0836
  160TMC2    C4 2488   3.731   0.205   1.922  0.1141  0.5163 -0.1284
  160TMC2    C5 2489   3.805   0.092   1.896  0.2627  0.1677 -0.1123
  160TMC2    C6 2490   3.741   4.707   1.901 -0.1752 -0.9544  0.9290
  160TMC2     C 2491   3.522   0.308   2.012 -0.7331  0.4072  0.0286
  160TMC2     O 2492   3.446   0.291   2.105  0.3333 -0.9564 -0.2995
  160TMC2     H 2493   3.448   0.057   2.030  0.3767 -1.6576  1.7515
  160TMC2    H1 2494   3.773   0.305   1.913  0.4946  0.3060 -0.6727
  160TMC2    H2 2495   3.798   4.617   1.882  2.5689  1.1187 -0.6251
  160TMC2    C7 2496   3.951   0.103   1.857  0.5208  0.0344 -0.4955
  160TMC2    C8 2497   3.541   4.570   1.934 -0.2895  0.1640  0.7451
  160TMC2    O1 2498   4.026   0.015   1.897  0.0184 -0.0638  0.1404
  160TMC2    O2 2499   3.491   4.516   2.029 -0.1529 -0.0051 -0.5800
  160TMC2    O5 2500   3.582   4.506   1.827  0.4620  0.0647 -0.5566
  160TMC2    H5 2501   3.618   4.565   1.757 -1.3326 -0.4070 -1.9017
  161MPD2     C 2502   3.362   0.560   2.040  0.4095  0.9187 -0.0458
  161MPD2    C1 2503   3.450   0.530   1.937  0.0075 -0.1600 -0.6671
  161MPD2    C2 2504   3.474   0.622   1.839  0.2482  0.0153  0.7984
  161MPD2    C3 2505   3.411   0.749   1.848 -0.1193 -0.5901 -0.1955
  161MPD2    C4 2506   3.323   0.773   1.952  0.1776  0.2637  0.2850
  161MPD2    C5 2507   3.293   0.675   2.044 -0.5697  0.2130 -0.2805
  161MPD2     H 2508   3.545   0.602   1.760 -0.5982  1.5714 -0.3704
  161MPD2    H1 2509   3.278   0.871   1.961 -2.4122 -0.9173  0.0877
  161MPD2    H2 2510   3.345   0.498   2.126 -0.1716  1.1745  0.0256
  161MPD2    H3 2511   3.233   0.698   2.131 -0.1790  1.1349 -0.2581
  161MPD2     N 2512   3.436   0.848   1.752 -0.2410 -0.2752 -0.0932
  161MPD2    H5 2513   3.372   0.927   1.765  0.3781  0.1932  0.0925
  161MPD2    N1 2514   3.534   0.417   1.925 -0.3615 -0.4772 -0.6264
  161MPD2    H7 2515   3.606   0.417   1.854  0.7048  1.6373  0.4479
  162TMC2    C1 2516   2.084   2.597   0.965 -0.6334 -0.3087  0.1952
  162TMC2    C2 2517   2.063   2.483   1.031  0.4696 -0.2087 -0.2387
  162TMC2    C3 2518   1.933   2.457   1.067 -0.2354  0.3701 -0.2001
  162TMC2    C4 2519   1.982   2.686   0.931 -0.5697 -0.3783  0.5454
  162TMC2    C5 2520   1.856   2.660   0.972  0.1437  0.2271  0.5149
  162TMC2    C6 2521   1.827   2.548   1.048 -0.3942  0.0400  0.0458
  162TMC2     C 2522   2.219   2.617   0.904  1.1418 -0.6984 -0.4430
  162TMC2     O 2523   2.227   2.665   0.792 -0.3964 -0.3753  0.0736
  162TMC2     H 2524   2.139   2.406   1.031  1.3356  0.6383 -1.2046
  162TMC2    H1 2525   2.001   2.772   0.867 -2.2405 -0.0901  0.4223
  162TMC2    H2 2526   1.729   2.513   1.079 -1.5510  1.7728 -1.6376
  162TMC2    C7 2527   1.741   2.742   0.929 -0.0212  0.9078  0.3040
  162TMC2    C8 2528   1.888   2.324   1.038  0.2196 -0.2989 -0.5305
  162TMC2    O1 2529   1.763   2.824   0.842  0.1139  0.3177 -0.0111
  162TMC2    O2 2530   1.816   2.306   0.940 -0.1854 -0.5721  0.0295
  162TMC2    O5 2531   1.985   2.243   1.077 -0.4848  0.1073 -0.1118
  162TMC2    H5 2532   2.043   2.279   1.147  0.0413  0.1292 -0.5660
  163MPD2     C 2533   2.707   2.466   0.895  0.1847 -0.1880  0.7080
  163MPD2    C1 2534   2.627   2.522   0.802 -0.8336 -0.7836 -0.6137
  163MPD2    C2 2535   2.501   2.576   0.829  0.3227  0.0390  0.4467
  163MPD2    C3 2536   2.449   2.564   0.953  0.2242 -0.1237  0.2065
  163MPD2    C4 2537   2.526   2.499   1.048 -0.5034 -0.0426 -0.5773
  163MPD2    C5 2538   2.651   2.442   1.018 -0.0360 -0.3376  0.4871
  163MPD2     H 2539   2.439   2.616   0.749 -0.9125 -0.9082  0.9348
  163MPD2    H1 2540   2.484   2.490   1.147 -2.9009  4.7244 -1.1254
  163MPD2    H2 2541   2.809   2.435   0.872 -0.7910 -1.4181 -1.9667
  163MPD2    H3 2542   2.707   2.393   1.097  0.5692  0.3552  0.4861
  163MPD2     N 2543   2.311   2.582   0.993 -0.2804  0.0167  0.7992
  163MPD2    H5 2544   2.288   2.551   1.087  1.5104 -1.0858  0.8802
  163MPD2    N1 2545   2.681   2.514   0.672  0.1289  0.1980 -0.6444
  163MPD2    H7 2546   2.767   2.460   0.671 -0.8123 -1.2964 -1.6494
  164TMC2    C1 2547   3.397   1.615  11.509  0.0638 -0.3463 -0.1800
  164TMC2    C2 2548   3.378   1.577  11.642 -0.0473  0.0679  0.6992
  164TMC2    C3 2549   3.250   1.589  11.695  0.0060  0.5665 -0.0923
  164TMC2    C4 2550   3.295   1.638  11.423 -0.2272  0.0734  0.0918
  164TMC2    C5 2551   3.171   1.660  11.480  0.3401 -0.1923  0.4216
  164TMC2    C6 2552   3.149   1.645  11.619  0.3861 -0.5594  0.1126
  164TMC2     C 2553   3.536   1.614  11.464  0.5094 -0.0430  0.8445
  164TMC2     O 2554   3.620   1.595  11.550 -0.2106  0.0939  0.1521
  164TMC2     H 2555   3.459   1.534  11.699 -0.5831  1.5968  2.5761
  164TMC2    H1 2556   3.317   1.676  11.324  4.7202 -1.4146  0.6366
  164TMC2    H2 2557   3.047   1.649  11.655 -0.3303 -1.5073 -1.7871
  164TMC2    C7 2558   3.094   1.768  11.418 -0.2991 -0.2233 -0.1519
  164TMC2    C8 2559   3.218   1.585  11.842  0.3922  0.7215 -0.6109
  164TMC2    O1 2560   3.121   1.791  11.304  0.2612 -0.4267 -0.4377
  164TMC2    O2 2561   3.108   1.565  11.886 -0.0208 -0.1050  0.2250
  164TMC2    O5 2562   3.294   1.692  11.886  0.0344  0.3355  1.3448
  164TMC2    H5 2563   3.385   1.684  11.851 -0.9380  2.2564 -1.5584
  165TMC2    C1 2564   4.147   4.519   2.464 -0.7241  0.7933  0.2098
  165TMC2    C2 2565   4.177   4.462   2.587  0.2708  0.4488 -0.2712
  165TMC2    C3 2566   4.296   4.390   2.595  0.0119 -0.2034  0.1196
  165TMC2    C4 2567   4.241   4.515   2.370  0.0699  0.3418  0.0513
  165TMC2    C5 2568   4.355   4.452   2.389  0.2173 -0.7659  0.1226
  165TMC2    C6 2569   4.392   4.395   2.498 -0.0265 -0.1656 -0.3374
  165TMC2     C 2570   4.022   4.582   2.434  0.5429 -0.1028  0.1297
  165TMC2     O 2571   3.921   4.550   2.498  0.2426  0.4206 -0.1852
  165TMC2     H 2572   4.104   4.482   2.665 -0.4890 -0.8225 -0.6512
  165TMC2    H1 2573   4.221   4.541   2.266  0.4758  0.5613  0.0289
  165TMC2    H2 2574   4.495   4.364   2.510 -0.9057 -2.0585  2.2963
  165TMC2    C7 2575   4.458   4.454   2.282 -0.0207 -0.9903  0.1430
  165TMC2    C8 2576   4.346   4.350   2.726  0.0526 -0.0723 -0.5972
  165TMC2    O1 2577   4.523   4.351   2.277  0.3178  0.0936  0.0479
  165TMC2    O2 2578   4.468   4.340   2.748 -0.0692 -0.3699  0.5791
  165TMC2    O5 2579   4.243   4.308   2.799 -0.1212 -0.2131 -0.5020
  165TMC2    H5 2580   4.159   4.310   2.748 -2.0787  2.9565  2.9036
  166MPD2     C 2581   3.741   0.241   2.278  0.3268  0.5078  0.0444
  166MPD2    C1 2582   3.696   0.115   2.304 -0.0191 -0.3465 -0.3293
  166MPD2    C2 2583   3.795   0.021   2.334 -0.3053 -0.2946  0.8995
  166MPD2    C3 2584   3.930   0.040   2.306 -0.9402  0.4100  0.3057
  166MPD2    C4 2585   3.966   0.152   2.237  0.0458 -0.3246  0.1553
  166MPD2    C5 2586   3.871   0.253   2.230 -0.2038 -0.0297 -0.0211
  166MPD2     H 2587   3.760   4.660   2.364 -1.3593 -0.0007  0.6467
  166MPD2    H1 2588   4.062   0.185   2.200 -0.0389 -1.2086 -0.8616
  166MPD2    H2 2589   3.674   0.325   2.292  0.4695  0.4338  1.2307
  166MPD2    H3 2590   3.901   0.350   2.191 -1.6009  0.6130  0.4915
  166MPD2     N 2591   4.032   4.679   2.328 -0.8268  0.7170  0.6794
  166MPD2    H5 2592   4.122   4.698   2.286 -1.0737  0.3673 -0.0005
  166MPD2    N1 2593   3.559   0.104   2.332 -0.4415 -0.3043  0.0389
  166MPD2    H7 2594   3.491   0.180   2.331 -0.0184  0.0879  1.1276
  167TMC2    C1 2595   2.843   1.720  12.521  0.1838 -0.3528  0.5368
  167TMC2    C2 2596   2.760   1.819  12.582 -0.2725  0.1614 -0.1308
  167TMC2    C3 2597   2.673   1.781  12.680 -0.3013  0.1659 -0.1799
  167TMC2    C4 2598   2.832   1.591  12.554 -0.1468  0.8269 -0.3896
  167TMC2    C5 2599   2.731   1.561  12.637  0.0024 -0.0407  0.4023
  167TMC2    C6 2600   2.654   1.648  12.703 -0.0120 -0.5875  0.9531
  167TMC2     C 2601   2.889   1.739  12.383 -0.7075  0.1505  0.0265
  167TMC2     O 2602   2.983   1.669  12.349  0.0619 -0.4748  0.0758
  167TMC2     H 2603   2.768   1.923  12.552  2.3232 -0.1095 -0.4127
  167TMC2    H1 2604   2.869   1.518  12.483  1.4130  0.5431  0.7083
  167TMC2    H2 2605   2.580   1.615  12.775  0.3752 -0.4148  1.4299
  167TMC2    C7 2606   2.718   1.422  12.672 -0.6414  0.4321  0.4616
  167TMC2    C8 2607   2.594   1.888  12.728  0.3502  0.7207  0.8071
  167TMC2    O1 2608   2.671   1.402  12.782 -0.1506  0.0316  0.4296
  167TMC2    O2 2609   2.635   2.002  12.715  0.1731  0.1249  0.3422
  167TMC2    O5 2610   2.464   1.855  12.719  0.3882 -0.1372  0.2243
  167TMC2    H5 2611   2.433   1.763  12.735  0.2542  0.1274  1.4583
  168MPD2     C 2612   2.909   1.797  12.085  0.1791  0.3527  0.7049
  168MPD2    C1 2613   2.800   1.829  12.165  0.2199 -0.5141 -0.3097
  168MPD2    C2 2614   2.685   1.873  12.106  0.5634 -1.0649 -0.1908
  168MPD2    C3 2615   2.671   1.879  11.966  0.3745 -0.3284  0.1167
  168MPD2    C4 2616   2.787   1.862  11.894 -0.6302 -0.3982  0.6922
  168MPD2    C5 2617   2.902   1.816  11.948 -0.1178  0.2654 -0.2923
  168MPD2     H 2618   2.602   1.883  12.176  0.3356 -3.5397 -0.1119
  168MPD2    H1 2619   2.787   1.858  11.785  1.3363  2.1156  0.6022
  168MPD2    H2 2620   3.003   1.764  12.128  0.1878  0.3470  0.6812
  168MPD2    H3 2621   2.989   1.795  11.887 -0.3202 -0.6961 -0.2546
  168MPD2     N 2622   2.546   1.889  11.901 -0.6831  0.1764  0.4467
  168MPD2    H5 2623   2.546   1.876  11.801  1.2540 -1.5976  0.6706
  168MPD2    N1 2624   2.797   1.811  12.306  0.2179  0.2049  0.3603
  168MPD2    H7 2625   2.711   1.835  12.354  1.7740  0.1476  3.1576
  169MPD1     C 2626   0.051   2.298   9.281  0.2045  0.4837 -0.1101
  169MPD1    C1 2627   4.737   2.184   9.217  0.7976 -0.4216 -1.1192
  169MPD1    C2 2628   0.050   2.066   9.263  0.4342  0.0074  0.4439
  169MPD1    C3 2629   0.131   2.051   9.378  0.2299 -0.6026 -0.1752
  169MPD1    C4 2630   0.170   2.169   9.440 -0.2650  0.3391 -0.1466
  169MPD1    C5 2631   0.137   2.292   9.387  0.5316  0.1348  0.2395
  169MPD1     H 2632   0.025   1.975   9.209 -1.1142 -0.6382  2.2596
  169MPD1    H1 2633   0.244   2.170   9.519  1.2642  1.4849 -1.5846
  169MPD1    H2 2634   0.025   2.395   9.239 -1.7167 -0.0763 -0.2044
  169MPD1    H3 2635   0.176   2.383   9.430  1.0254  0.0418 -0.0110
  169MPD1     N 2636   0.175   1.922   9.417  0.0099  0.9536 -0.0312
  169MPD1    H5 2637   0.133   1.845   9.365 -3.0255  2.3317  0.3497
  169MPD1    N1 2638   4.677   2.201   9.094 -0.6619  0.0777  1.0389
  169MPD1    H6 2639   4.623   2.287   9.097  0.7440  0.9657  0.4160
  169MPD1    H7 2640   4.609   2.127   9.076  1.6687 -1.5011 -1.1938
  170MPD1     C 2641   3.220   3.419  13.634  0.0467  0.3336 -0.4943
  170MPD1    C1 2642   3.236   3.409  13.773 -0.3808 -0.2890  0.3046
  170MPD1    C2 2643   3.283   3.521  13.846  0.4580 -0.2190 -0.5765
  170MPD1    C3 2644   3.289   3.643  13.777  0.4200  0.4790  0.5180
  170MPD1    C4 2645   3.286   3.639  13.639  0.9431  0.3104 -0.1391
  170MPD1    C5 2646   3.252   3.532  13.570  0.0366  0.6193 -0.2535
  170MPD1     H 2647   3.299   3.528  13.953  2.1276  0.1730 -0.8420
  170MPD1    H1 2648   3.297   3.729  13.580 -1.6582  0.7306  0.0122
  170MPD1    H2 2649   3.185   3.342  13.566 -1.9728  1.0293 -0.2355
  170MPD1    H3 2650   3.231   3.536  13.463  1.1963 -1.3334 -0.5502
  170MPD1     N 2651   3.302   3.760  13.856 -0.2509 -0.0705  0.2608
  170MPD1    H5 2652   3.314   3.746  13.956  0.1173  0.6412  0.3164
  170MPD1    N1 2653   3.235   3.283  13.834 -0.2453  0.2589 -0.1802
  170MPD1    H6 2654   3.169   3.223  13.784  1.9496 -0.8294 -1.7978
  170MPD1    H7 2655   3.325   3.236  13.830  0.3789  1.4955 -0.8280
  171MPD1     C 2656   1.429   0.101  15.352 -0.1986 -0.3845 -0.2880
  171MPD1    C1 2657   1.550   0.069  15.300  0.0897  0.3910 -0.2460
  171MPD1    C2 2658   1.653   0.037  15.388 -0.1499  0.0588  0.6821
  171MPD1    C3 2659   1.642   0.046  15.525 -0.2528 -0.0617 -0.5658
  171MPD1    C4 2660   1.518   0.092  15.574 -0.0771 -0.5459  0.8352
  171MPD1    C5 2661   1.414   0.117  15.486  0.2833 -0.1219  0.7427
  171MPD1     H 2662   1.743   4.737  15.342 -1.4923 -0.9553 -1.1574
  171MPD1    H1 2663   1.503   0.126  15.676  1.1172  0.3046  0.7280
  171MPD1    H2 2664   1.348   0.123  15.284  0.3279 -0.5695 -0.9689
  171MPD1    H3 2665   1.317   0.149  15.523 -0.0568 -0.8788  0.4923
  171MPD1     N 2666   1.741   0.014  15.616  0.0590 -0.6433 -0.5262
  171MPD1    H5 2667   1.728   0.031  15.715  0.0715 -0.9842 -0.4661
  171MPD1    N1 2668   1.559   0.044  15.159 -0.4769 -0.2577  0.7745
  171MPD1    H6 2669   1.484   0.083  15.103  1.0233 -0.5473 -1.4395
  171MPD1    H7 2670   1.654   0.047  15.122  0.1887 -1.9126  2.3666
  172MPD1     C 2671   1.092   3.980   0.127 -0.6580 -0.0405  0.6236
  172MPD1    C1 2672   0.976   4.058   0.119  0.7033 -0.0260 -0.4318
  172MPD1    C2 2673   0.963   4.177   0.189 -1.0998  0.4094  0.8640
  172MPD1    C3 2674   1.077   4.226   0.255  0.6739  0.2264  0.3207
  172MPD1    C4 2675   1.197   4.161   0.241  0.7989 -0.0870 -0.4828
  172MPD1    C5 2676   1.204   4.044   0.173 -0.1559  0.5619 -0.0267
  172MPD1     H 2677   0.870   4.231   0.190  0.1989  2.6626  1.2512
  172MPD1    H1 2678   1.290   4.209   0.268 -0.6198  0.2942  3.7964
  172MPD1    H2 2679   1.105   3.885   0.077  1.8085  1.8851 -2.4191
  172MPD1    H3 2680   1.301   3.997   0.161 -0.9041 -0.9077 -0.3795
  172MPD1     N 2681   1.086   4.339   0.339 -0.0313 -0.5346 -0.1035
  172MPD1    H5 2682   1.179   4.377   0.355 -0.8696  1.2661  0.5101
  172MPD1    N1 2683   0.865   3.990   0.071  0.1552  0.1707  0.1559
  172MPD1    H6 2684   0.881   3.922  17.747  1.1818  0.4057  0.1671
  172MPD1    H7 2685   0.792   4.048   0.031 -0.3616 -0.6915 -0.1446
  173MPD1     C 2686   2.999   4.631  14.227 -0.3218 -0.2735 -0.2787
  173MPD1    C1 2687   3.063   4.526  14.280  0.5374  0.6685  0.5503
  173MPD1    C2 2688   2.997   4.413  14.313  0.3969  0.0620  0.0261
  173MPD1    C3 2689   2.862   4.396  14.309  0.3047 -0.0337 -0.2188
  173MPD1    C4 2690   2.788   4.500  14.254  0.0136 -0.3923  0.6609
  173MPD1    C5 2691   2.863   4.613  14.210  0.0884 -0.1572  1.0447
  173MPD1     H 2692   3.064   4.332  14.342  0.0794 -0.4884 -0.7740
  173MPD1    H1 2693   2.680   4.509  14.248  0.1798  1.4693  0.4265
  173MPD1    H2 2694   3.053   4.713  14.181  2.0476 -0.9490  1.2889
  173MPD1    H3 2695   2.811   4.690  14.154 -1.3006 -1.4992  0.4808
  173MPD1     N 2696   2.798   4.283  14.369 -0.0759  0.3965 -0.4575
  173MPD1    H5 2697   2.862   4.207  14.391 -0.8203 -0.4293 -1.1119
  173MPD1    N1 2698   3.205   4.533  14.279  0.6972 -0.2614 -0.5475
  173MPD1    H6 2699   3.233   4.631  14.291 -0.5288 -0.0934  0.9055
  173MPD1    H7 2700   3.254   4.467  14.340  0.1347  0.7194  0.9601
  174MPD1     C 2701   2.762   3.343  14.655  0.4768 -0.3351  0.0393
  174MPD1    C1 2702   2.868   3.430  14.645 -0.6735  0.0622 -0.0880
  174MPD1    C2 2703   2.841   3.566  14.654 -0.2584  0.4011  0.2062
  174MPD1    C3 2704   2.709   3.609  14.650 -0.0852 -0.1546  0.5565
  174MPD1    C4 2705   2.609   3.517  14.661  0.4647  0.1179  0.4981
  174MPD1    C5 2706   2.634   3.389  14.665  1.3553  0.1690 -0.1910
  174MPD1     H 2707   2.920   3.640  14.661  0.9883 -0.7194 -2.2977
  174MPD1    H1 2708   2.509   3.554  14.643 -0.7445 -2.5658  1.6733
  174MPD1    H2 2709   2.778   3.236  14.664 -2.0917 -0.7486 -0.3863
  174MPD1    H3 2710   2.543   3.331  14.665  1.5681 -0.1497  1.6930
  174MPD1     N 2711   2.665   3.736  14.618 -0.4119  0.0991 -0.0903
  174MPD1    H5 2712   2.565   3.750  14.614 -0.1911  1.1250 -1.7766
  174MPD1    N1 2713   3.000   3.383  14.669 -0.1084 -0.2757  0.7687
  174MPD1    H6 2714   3.017   3.289  14.634  0.8466 -0.1688  0.9578
  174MPD1    H7 2715   3.071   3.434  14.617  0.6836 -1.2897  0.8473
  175MPD1     C 2716   0.714   0.321  15.522 -0.2003 -0.0028 -0.3931
  175MPD1    C1 2717   0.743   0.203  15.586 -0.0601  0.0743 -0.0867
  175MPD1    C2 2718   0.793   0.201  15.717 -0.4296  0.7222 -0.5910
  175MPD1    C3 2719   0.775   0.313  15.796 -0.2029 -0.7870 -0.4721
  175MPD1    C4 2720   0.714   0.418  15.739  0.1895  0.2305 -0.4727
  175MPD1    C5 2721   0.683   0.431  15.599 -0.5451 -0.5300 -0.6534
  175MPD1     H 2722   0.843   0.116  15.761 -1.2479 -0.5551 -2.0896
  175MPD1    H1 2723   0.673   0.499  15.798  1.6686  1.6944 -1.4640
  175MPD1    H2 2724   0.688   0.332  15.418 -1.3501 -3.2367 -0.4369
  175MPD1    H3 2725   0.628   0.517  15.563 -1.0885  0.3924  2.3512
  175MPD1     N 2726   0.807   0.319  15.930 -0.2801  0.0687 -0.2951
  175MPD1    H5 2727   0.788   0.408  15.975  3.2432  0.7216 -0.0924
  175MPD1    N1 2728   0.771   0.093  15.503 -0.2751  0.6878  0.1324
  175MPD1    H6 2729   0.766   0.002  15.549  2.2400  1.0822  1.1929
  175MPD1    H7 2730   0.707   0.093  15.423  1.8179 -2.2784 -1.5635
  176MPD1     C 2731   2.574   2.238  16.948  0.5701  0.0656 -0.7807
  176MPD1    C1 2732   2.499   2.354  16.930 -0.1781  0.0319 -0.0462
  176MPD1    C2 2733   2.465   2.419  17.046  0.2415  0.4366  0.2534
  176MPD1    C3 2734   2.492   2.368  17.171 -0.7252  0.0579 -0.3050
  176MPD1    C4 2735   2.567   2.252  17.184  0.3290  0.4515  0.2170
  176MPD1    C5 2736   2.611   2.189  17.075  0.8304  0.2259 -0.2131
  176MPD1     H 2737   2.415   2.515  17.042  0.8011  0.7902  1.6269
  176MPD1    H1 2738   2.591   2.205  17.279  1.5188  0.1265 -0.2510
  176MPD1    H2 2739   2.602   2.179  16.861  0.3496  1.0961 -1.5442
  176MPD1    H3 2740   2.678   2.105  17.086  0.0593 -0.5025 -1.1129
  176MPD1     N 2741   2.454   2.450  17.279  0.2291  0.0030 -0.0209
  176MPD1    H5 2742   2.423   2.545  17.266  1.1751  0.5636  1.9252
  176MPD1    N1 2743   2.440   2.384  16.808 -0.2072 -0.0717 -0.0629
  176MPD1    H6 2744   2.487   2.358  16.722 -1.3867 -0.6888 -0.5183
  176MPD1    H7 2745   2.419   2.483  16.796  3.1641  0.7512  0.7256
  177MPD1     C 2746   0.347   1.570   9.149  0.1868  0.7385 -0.1919
  177MPD1    C1 2747   0.459   1.569   9.233 -0.1175 -0.4433  0.5118
  177MPD1    C2 2748   0.519   1.693   9.245 -0.3983  0.6197  0.4887
  177MPD1    C3 2749   0.461   1.811   9.195  0.3679  0.6367 -0.0710
  177MPD1    C4 2750   0.338   1.806   9.123  0.5978 -0.4973  0.1176
  177MPD1    C5 2751   0.285   1.678   9.102  0.1393 -0.8374  0.1399
  177MPD1     H 2752   0.610   1.699   9.305  0.5087  2.2695 -1.0469
  177MPD1    H1 2753   0.276   1.890   9.095  1.5935 -0.5073 -2.1552
  177MPD1    H2 2754   0.291   1.478   9.141  1.1932  0.1331 -0.2231
  177MPD1    H3 2755   0.191   1.666   9.050  0.7171  1.5797 -1.4821
  177MPD1     N 2756   0.515   1.931   9.253 -0.1880  0.1295 -0.3590
  177MPD1    H5 2757   0.590   1.916   9.320 -1.6829 -0.7782  1.1073
  177MPD1    N1 2758   0.528   1.449   9.269 -0.2270  0.9798 -0.3703
  177MPD1    H6 2759   0.603   1.457   9.337 -1.0900  0.8029  0.6033
  177MPD1    H7 2760   0.458   1.375   9.278  1.5872 -0.9791 -2.4627
  178MPD1     C 2761   3.345   3.521   0.130  0.3313  0.5108  0.0914
  178MPD1    C1 2762   3.316   3.605   0.030 -0.2904 -0.1671 -0.7735
  178MPD1    C2 2763   3.371   3.584  17.660  0.7700 -1.1148 -0.0985
  178MPD1    C3 2764   3.457   3.472  17.632  0.7948  0.9341 -0.4131
  178MPD1    C4 2765   3.485   3.388  17.741  0.0638 -0.8184  0.3497
  178MPD1    C5 2766   3.430   3.421   0.115 -0.4833  0.7169  0.8308
  178MPD1     H 2767   3.335   3.649  17.580 -0.6680  0.4265  1.8023
  178MPD1    H1 2768   3.558   3.308  17.744  1.8586  0.8380  0.8174
  178MPD1    H2 2769   3.309   3.522   0.232  0.5031 -0.0543  0.1594
  178MPD1    H3 2770   3.443   3.365   0.207  0.7799 -3.1281 -1.7111
  178MPD1     N 2771   3.513   3.431  17.503  0.3202  0.2374  0.3768
  178MPD1    H5 2772   3.572   3.349  17.494  1.0990  1.0547 -2.1356
  178MPD1    N1 2773   3.237   3.724   0.046  0.0624 -0.6840 -0.0845
  178MPD1    H6 2774   3.202   3.760  17.708  2.3242  2.0053  0.1369
  178MPD1    H7 2775   3.162   3.719   0.116 -0.5183 -3.4548 -0.8884
  179MPD1     C 2776   2.761   1.828  16.425 -0.4578  0.4580  0.2887
  179MPD1    C1 2777   2.710   1.882  16.309 -0.1714 -0.3850 -0.0613
  179MPD1    C2 2778   2.750   1.826  16.186 -0.3828  0.2050  0.1915
  179MPD1    C3 2779   2.827   1.708  16.186  0.3850  0.1225 -0.5827
  179MPD1    C4 2780   2.872   1.656  16.302 -0.7211 -0.5007  0.4555
  179MPD1    C5 2781   2.839   1.718  16.417  0.8394  0.2945  0.1319
  179MPD1     H 2782   2.704   1.862  16.094 -0.2371  0.0047  0.0400
  179MPD1    H1 2783   2.925   1.561  16.294 -0.1677 -0.0259 -1.6151
  179MPD1    H2 2784   2.754   1.873  16.524  1.8564  0.4915  0.4487
  179MPD1    H3 2785   2.855   1.665  16.511  1.5535 -0.5553 -0.4699
  179MPD1     N 2786   2.856   1.635  16.073  0.5386 -0.3637  0.0043
  179MPD1    H5 2787   2.921   1.557  16.081  0.1200 -0.6165  1.0252
  179MPD1    N1 2788   2.649   2.012  16.307  0.3034  0.4343  0.4775
  179MPD1    H6 2789   2.590   2.024  16.224 -0.0717 -1.7727  0.4218
  179MPD1    H7 2790   2.595   2.028  16.392  0.9338  0.9794  0.7703
  180MPD1     C 2791   2.796   2.448  15.422  0.4803 -0.4651 -0.2868
  180MPD1    C1 2792   2.918   2.487  15.377  0.4817  0.4193 -0.3512
  180MPD1    C2 2793   2.918   2.541  15.246 -0.5031 -0.2075 -0.0582
  180MPD1    C3 2794   2.798   2.532  15.164 -0.4274  0.6862 -0.1729
  180MPD1    C4 2795   2.692   2.458  15.213 -0.4984 -0.5902 -0.8757
  180MPD1    C5 2796   2.691   2.422  15.342  0.5620  0.6047  0.8357
  180MPD1     H 2797   3.010   2.587  15.211 -1.1931  2.0338  1.0359
  180MPD1    H1 2798   2.608   2.430  15.151 -1.3474 -1.6502  0.7599
  180MPD1    H2 2799   2.778   2.419  15.525 -0.8628 -1.9681 -0.9467
  180MPD1    H3 2800   2.610   2.363  15.381 -1.2702  0.4448 -3.2207
  180MPD1     N 2801   2.805   2.579  15.032 -0.9310  0.4631  0.3537
  180MPD1    H5 2802   2.888   2.634  15.010 -0.7231 -0.9225 -2.2790
  180MPD1    N1 2803   3.028   2.519  15.463  0.1181 -0.0010  0.6199
  180MPD1    H6 2804   3.121   2.537  15.425 -1.2920  3.7261 -1.0785
  180MPD1    H7 2805   3.032   2.450  15.537 -2.1358 -1.4048 -0.5559
  181MPD1     C 2806   4.716   0.178  10.635 -0.4117  0.5363 -0.0219
  181MPD1    C1 2807   4.726   0.053  10.677 -0.2850 -0.0259  0.0397
  181MPD1    C2 2808   0.101   4.719  10.640 -0.5099  0.8766 -0.3620
  181MPD1    C3 2809   0.218   0.048  10.602  0.0041 -0.1224 -0.2699
  181MPD1    C4 2810   0.201   0.180  10.568  0.2777 -0.8243  0.1030
  181MPD1    C5 2811   0.086   0.251  10.585  0.7482 -0.6596 -0.2177
  181MPD1     H 2812   0.113   4.618  10.678 -1.3969  0.5699 -0.9075
  181MPD1    H1 2813   0.277   0.240  10.519  0.2050 -0.1960  0.7588
  181MPD1    H2 2814   4.623   0.232  10.650 -0.0971  0.8826  0.6810
  181MPD1    H3 2815   0.076   0.355  10.557  0.6726 -0.4203  0.6914
  181MPD1     N 2816   0.347   4.732  10.585  0.3898 -0.0085  0.4032
  181MPD1    H5 2817   0.428   0.055  10.578 -0.4965  1.4567  3.1147
  181MPD1    N1 2818   4.619   4.737  10.748  1.2735  0.2802  0.1353
  181MPD1    H6 2819   4.652   4.655  10.799  0.9973 -0.3975 -0.7661
  181MPD1    H7 2820   4.595   0.063  10.824 -2.2587 -0.3031 -0.4620
  182MPD1     C 2821   4.041   3.589   1.987 -0.1510 -0.3692 -0.1540
  182MPD1    C1 2822   4.129   3.690   2.011 -0.0260 -0.5090 -0.0954
  182MPD1    C2 2823   4.098   3.815   1.962 -0.0833  0.0683  0.1097
  182MPD1    C3 2824   3.984   3.827   1.884  0.6258  0.6674  0.2366
  182MPD1    C4 2825   3.899   3.723   1.863 -0.6239 -1.0092 -0.9305
  182MPD1    C5 2826   3.924   3.606   1.918  0.0350  0.3632  0.0538
  182MPD1     H 2827   4.163   3.900   1.978  0.1400  0.1643 -1.2858
  182MPD1    H1 2828   3.806   3.742   1.811 -0.4001 -1.4157 -1.4809
  182MPD1    H2 2829   4.060   3.492   2.032 -0.8818 -0.3046  0.2995
  182MPD1    H3 2830   3.864   3.517   1.900 -0.3187  0.3565  1.3135
  182MPD1     N 2831   3.944   3.954   1.826  0.8080  0.2197 -0.8264
  182MPD1    H5 2832   3.860   3.945   1.769  1.0647  0.6271 -1.2646
  182MPD1    N1 2833   4.232   3.667   2.111 -0.5804 -0.3929  0.0268
  182MPD1    H6 2834   4.314   3.726   2.103 -0.7878  0.0461  1.1762
  182MPD1    H7 2835   4.267   3.571   2.106 -0.5192 -0.4063  0.8129
  183MPD1     C 2836   1.256   3.846   9.243  0.3211 -0.5525  0.6664
  183MPD1    C1 2837   1.205   3.815   9.367 -0.0391  0.1071  0.2431
  183MPD1    C2 2838   1.189   3.933   9.446  0.2867 -0.0853 -0.2829
  183MPD1    C3 2839   1.199   4.063   9.399 -0.2758 -0.4433 -0.1552
  183MPD1    C4 2840   1.230   4.081   9.263  0.5707 -0.1219 -0.1687
  183MPD1    C5 2841   1.266   3.970   9.192  0.2174 -0.0305  0.1364
  183MPD1     H 2842   1.163   3.921   9.550 -0.6485  1.8132 -0.2998
  183MPD1    H1 2843   1.239   4.182   9.223 -0.2599  0.0118 -0.0137
  183MPD1    H2 2844   1.270   3.768   9.170 -1.3431 -1.0163  0.8429
  183MPD1    H3 2845   1.309   3.981   9.093  0.6840 -1.9303  0.1312
  183MPD1     N 2846   1.193   4.169   9.493  0.1376  0.5160  0.5403
  183MPD1    H5 2847   1.187   4.151   9.592  0.4607  1.9995  0.8248
  183MPD1    N1 2848   1.216   3.686   9.411 -0.1155 -0.0476 -0.2231
  183MPD1    H6 2849   1.193   3.620   9.337 -0.7351  0.1520 -0.2018
  183MPD1    H7 2850   1.151   3.680   9.489  0.8699 -0.9533  0.5361
  184MPD1     C 2851   0.199   1.945  10.818  0.2728  1.0936 -0.0585
  184MPD1    C1 2852   0.171   1.840  10.743 -0.3695  0.1662  0.6794
  184MPD1    C2 2853   0.189   1.860  10.606 -0.4765  0.9111  0.5125
  184MPD1    C3 2854   0.247   1.971  10.557  0.3605 -0.8948 -0.3696
  184MPD1    C4 2855   0.281   2.074  10.635  0.2059 -0.0017  0.5990
  184MPD1    C5 2856   0.253   2.063  10.767 -0.0457  0.2161  0.2640
  184MPD1     H 2857   0.148   1.780  10.547  3.0095 -0.4611 -0.0377
  184MPD1    H1 2858   0.333   2.153  10.583 -2.9765  0.4226 -1.9834
  184MPD1    H2 2859   0.200   1.936  10.926 -0.0622  2.1376  0.0380
  184MPD1    H3 2860   0.286   2.145  10.830 -0.8809  0.5636  0.2514
  184MPD1     N 2861   0.284   2.000  10.422 -0.0487 -0.5072 -0.1051
  184MPD1    H5 2862   0.325   2.090  10.402  0.4762 -0.7157  0.0287
  184MPD1    N1 2863   0.106   1.725  10.794 -0.3850  0.1826  0.0128
  184MPD1    H6 2864   0.114   1.725  10.895  3.1908 -0.2474 -0.2738
  184MPD1    H7 2865   0.007   1.728  10.770 -0.3616 -0.6566 -0.1682
  185MPD1     C 2866   4.524   1.776   9.625 -0.5192  0.0182 -0.2144
  185MPD1    C1 2867   4.563   1.912   9.620  0.8981  0.0231 -0.6075
  185MPD1    C2 2868   4.680   1.951   9.681 -0.4946  0.0277 -0.0310
  185MPD1    C3 2869   0.014   1.863   9.756 -0.4553 -0.1301  0.0299
  185MPD1    C4 2870   4.711   1.729   9.769 -0.2141 -0.7396  0.0360
  185MPD1    C5 2871   4.599   1.686   9.694  0.1215 -0.3126  0.3809
  185MPD1     H 2872   4.712   2.053   9.660  2.0617 -0.4414  1.5800
  185MPD1    H1 2873   0.037   1.662   9.826 -0.5298 -1.1580 -0.0961
  185MPD1    H2 2874   4.429   1.744   9.585 -0.2318 -0.1369 -0.7770
  185MPD1    H3 2875   4.572   1.584   9.672  0.1338 -0.0778 -0.7165
  185MPD1     N 2876   0.136   1.896   9.821 -0.1061 -0.0581  0.4258
  185MPD1    H5 2877   0.191   1.816   9.853  1.3543  0.1111 -1.6774
  185MPD1    N1 2878   4.493   2.000   9.530 -0.2707 -0.4943 -0.0820
  185MPD1    H6 2879   4.495   1.964   9.434 -2.1619  1.3047 -0.7935
  185MPD1    H7 2880   4.529   2.095   9.534  0.9123 -1.0280  1.7619
  186MPD1     C 2881   3.316   1.293  15.711 -0.4347  0.2556 -0.1120
  186MPD1    C1 2882   3.306   1.256  15.837 -0.4038 -0.4687  0.3295
  186MPD1    C2 2883   3.337   1.344  15.938 -0.0604 -0.0756  0.4399
  186MPD1    C3 2884   3.361   1.477  15.910  0.0383 -0.3488 -0.3638
  186MPD1    C4 2885   3.366   1.514  15.776  0.0348 -0.2329  0.1697
  186MPD1    C5 2886   3.342   1.420  15.678  0.4769 -0.0846  0.2189
  186MPD1     H 2887   3.343   1.309  16.040 -3.2108  2.0519  1.3508
  186MPD1    H1 2888   3.382   1.617  15.747  2.1936 -1.2202 -2.1031
  186MPD1    H2 2889   3.298   1.229  15.625 -0.3456  4.3304 -3.1747
  186MPD1    H3 2890   3.354   1.452  15.575  0.0573  1.2525  0.5814
  186MPD1     N 2891   3.368   1.583  16.006 -0.6197  0.3942  0.3747
  186MPD1    H5 2892   3.411   1.670  15.974  1.7631 -1.2368 -0.8448
  186MPD1    N1 2893   3.300   1.119  15.877 -0.2861 -0.4962  0.4624
  186MPD1    H6 2894   3.268   1.117  15.973  0.6542 -0.4137  0.7776
  186MPD1    H7 2895   3.234   1.071  15.816  0.0619 -1.0262  0.5072
  187MPD1     C 2896   2.568   3.458   0.263 -0.1018  0.2773 -0.7085
  187MPD1    C1 2897   2.478   3.392   0.184  0.7688 -0.1922  0.3694
  187MPD1    C2 2898   2.436   3.444   0.066 -1.1517  0.1635 -0.3471
  187MPD1    C3 2899   2.485   3.569   0.028 -0.3865 -0.2116 -0.1493
  187MPD1    C4 2900   2.565   3.639   0.109  0.1572  0.0668 -0.1847
  187MPD1    C5 2901   2.613   3.579   0.219  0.1228 -0.1854  0.2315
  187MPD1     H 2902   2.377   3.386  17.745 -2.0062  0.1858  0.3502
  187MPD1    H1 2903   2.593   3.742   0.087  1.9941 -0.9443 -2.6144
  187MPD1    H2 2904   2.613   3.418   0.353 -2.5769  2.8327  1.6861
  187MPD1    H3 2905   2.683   3.619   0.291  0.5513  1.1171 -0.9237
  187MPD1     N 2906   2.451   3.636  17.657  0.6413  0.0659 -0.4084
  187MPD1    H5 2907   2.488   3.729  17.643  2.2670 -0.2941  1.4323
  187MPD1    N1 2908   2.465   3.255   0.200 -0.2949 -0.3858 -0.0892
  187MPD1    H6 2909   2.495   3.227   0.293 -2.1456  1.4652  1.0706
  187MPD1    H7 2910   2.366   3.232   0.187 -0.8715  1.4376  1.0843
  188MPD1     C 2911   2.942   3.359  10.046  0.0979  0.1723 -0.1609
  188MPD1    C1 2912   3.057   3.301  10.086 -0.4696 -0.4096  0.3470
  188MPD1    C2 2913   3.055   3.164  10.111 -0.2182  0.1281 -0.1110
  188MPD1    C3 2914   2.943   3.085  10.098  0.1670 -0.1485 -0.0806
  188MPD1    C4 2915   2.828   3.152  10.082 -0.5284 -0.1126  0.3192
  188MPD1    C5 2916   2.824   3.288  10.045  0.4765  0.1695  0.3838
  188MPD1     H 2917   3.153   3.120  10.130  0.0017  0.5855 -0.1977
  188MPD1    H1 2918   2.739   3.094  10.060 -1.7847  1.4825  1.2875
  188MPD1    H2 2919   2.947   3.465  10.024  1.8171 -0.4878 -3.1132
  188MPD1    H3 2920   2.732   3.341  10.026  1.3958  1.7362  0.2934
  188MPD1     N 2921   2.941   2.943  10.083  0.3649 -0.1372  0.1152
  188MPD1    H5 2922   2.852   2.895  10.071  0.0045  1.0536 -1.8878
  188MPD1    N1 2923   3.176   3.372  10.099  0.0506  0.2935 -0.0973
  188MPD1    H6 2924   3.159   3.467  10.133 -0.7211  0.0701  0.1402
  188MPD1    H7 2925   3.244   3.330  10.162  1.4012  3.1129  0.3290
  189MPD1     C 2926   3.804   0.631   0.706 -0.0727 -0.2434  0.5652
  189MPD1    C1 2927   3.714   0.722   0.668 -0.1310  0.2839 -0.6868
  189MPD1    C2 2928   3.610   0.677   0.582  0.7173 -0.2769  0.0652
  189MPD1    C3 2929   3.614   0.553   0.513  0.6596  0.0373  0.9579
  189MPD1    C4 2930   3.719   0.475   0.551  0.1208 -0.3204  0.4954
  189MPD1    C5 2931   3.811   0.504   0.645 -0.3881 -0.3773 -0.6223
  189MPD1     H 2932   3.525   0.743   0.570  0.6257  0.0063  2.2554
  189MPD1    H1 2933   3.736   0.381   0.500 -0.6567  0.4787 -1.2376
  189MPD1    H2 2934   3.872   0.654   0.787  0.3799 -2.1398  0.7252
  189MPD1    H3 2935   3.896   0.439   0.658 -1.9875 -2.4472 -0.4332
  189MPD1     N 2936   3.512   0.512   0.429 -0.1028 -0.2355  0.3279
  189MPD1    H5 2937   3.442   0.582   0.408  0.8244  0.5857 -0.0455
  189MPD1    N1 2938   3.696   0.841   0.738  0.1743 -0.1471 -0.4196
  189MPD1    H6 2939   3.775   0.892   0.776 -0.6872  0.4231  0.6098
  189MPD1    H7 2940   3.648   0.907   0.677 -0.4850  0.9879  1.3288
  190MPD1     C 2941   2.743   3.010  15.390 -0.1179  0.5731  0.1680
  190MPD1    C1 2942   2.753   3.055  15.521  0.1460  0.0596  0.5180
  190MPD1    C2 2943   2.867   3.032  15.593 -0.6166 -0.1075  0.4251
  190MPD1    C3 2944   2.964   2.944  15.534 -0.8273  0.3580  0.0816
  190MPD1    C4 2945   2.946   2.888  15.405  0.0139 -0.1835  0.1117
  190MPD1    C5 2946   2.833   2.927  15.334 -0.4441  0.4824 -0.4865
  190MPD1     H 2947   2.873   3.070  15.694  0.8132  0.6568  0.0590
  190MPD1    H1 2948   3.011   2.820  15.352  0.2803  1.7624 -2.0757
  190MPD1    H2 2949   2.662   3.041  15.326 -0.3090  1.6389  0.9196
  190MPD1    H3 2950   2.822   2.893  15.232  0.3097  2.1793 -1.1370
  190MPD1     N 2951   3.081   2.912  15.615  0.0969  0.4116  0.6168
  190MPD1    H5 2952   3.089   2.964  15.701  0.9965 -0.1622  0.8778
  190MPD1    N1 2953   2.643   3.111  15.588 -0.4034  0.4341 -0.0078
  190MPD1    H6 2954   2.557   3.056  15.582  0.1473 -0.3653 -0.5349
  190MPD1    H7 2955   2.664   3.138  15.684  0.5650  1.2827 -0.4534
  191MPD1     C 2956   2.643   4.262  13.645  0.5165  0.3603  0.0578
  191MPD1    C1 2957   2.719   4.229  13.539  0.6887 -0.4176  0.0425
  191MPD1    C2 2958   2.656   4.179  13.431  0.0274 -0.0524  0.1158
  191MPD1    C3 2959   2.524   4.147  13.435 -0.1284  0.4971  0.0652
  191MPD1    C4 2960   2.441   4.193  13.536  0.4528  1.0123 -0.3034
  191MPD1    C5 2961   2.510   4.242  13.641 -0.2319  0.6854  1.0277
  191MPD1     H 2962   2.712   4.171  13.339  0.8525  1.3251  0.5013
  191MPD1    H1 2963   2.333   4.196  13.538  0.5150  1.3418  2.9157
  191MPD1    H2 2964   2.682   4.329  13.721 -1.4036 -1.0673  2.2803
  191MPD1    H3 2965   2.449   4.291  13.717 -0.4174  3.4958 -0.9166
  191MPD1     N 2966   2.471   4.109  13.306 -0.1194  0.5294 -0.0123
  191MPD1    H5 2967   2.543   4.091  13.236 -0.0430 -0.0690  0.2147
  191MPD1    N1 2968   2.842   4.292  13.526 -0.8395 -0.2622  0.6955
  191MPD1    H6 2969   2.892   4.292  13.615 -2.0587 -1.6389  1.3702
  191MPD1    H7 2970   2.907   4.247  13.461 -1.8158 -1.1263  0.3360
  192MPD1     C 2971   1.667   3.546  13.004 -0.3630  0.3672 -1.0136
  192MPD1    C1 2972   1.663   3.676  12.954 -0.3729 -0.3739  0.0184
  192MPD1    C2 2973   1.785   3.741  12.965  0.3252  0.5084 -0.2878
  192MPD1    C3 2974   1.900   3.690  13.012  0.1889  0.3215  0.4023
  192MPD1    C4 2975   1.893   3.565  13.072 -0.4490  0.7618 -0.1376
  192MPD1    C5 2976   1.777   3.493  13.065  0.6250 -0.3656 -0.3109
  192MPD1     H 2977   1.792   3.846  12.939  1.1651  0.7692  0.9764
  192MPD1    H1 2978   1.977   3.525  13.127  0.2903  0.4305 -1.4925
  192MPD1    H2 2979   1.575   3.488  12.995  0.7600 -1.3762 -1.4149
  192MPD1    H3 2980   1.776   3.398  13.117 -2.4670  0.4526  1.1257
  192MPD1     N 2981   2.018   3.764  13.028  0.6195 -0.3878 -0.7973
  192MPD1    H5 2982   2.083   3.729  13.097  1.0789 -0.4929 -1.2847
  192MPD1    N1 2983   1.541   3.737  12.917 -0.0932  0.3298  0.0898
  192MPD1    H6 2984   1.552   3.808  12.845  0.0860 -1.4066 -1.5918
  192MPD1    H7 2985   1.477   3.668  12.879 -0.3938  0.8177 -0.2911
  193MPD1     C 2986   1.492   4.735  16.972  0.0331  0.7435 -0.6191
  193MPD1    C1 2987   1.534   0.006  16.840  0.1476 -0.5296 -1.0510
  193MPD1    C2 2988   1.609   0.116  16.806 -0.2958 -0.0706 -0.0325
  193MPD1    C3 2989   1.670   0.203  16.898 -0.3031  0.2084 -0.1927
  193MPD1    C4 2990   1.636   0.183  17.034  0.2805  0.0605 -0.3010
  193MPD1    C5 2991   1.544   0.083  17.068 -0.1512 -0.4980 -0.9205
  193MPD1     H 2992   1.638   0.122  16.702 -2.2946 -1.4417 -0.6732
  193MPD1    H1 2993   1.672   0.248  17.113  0.1083  0.3718 -0.4744
  193MPD1    H2 2994   1.428   4.654  17.005 -0.2302  1.1010 -0.2639
  193MPD1    H3 2995   1.514   0.068  17.171  0.9666 -0.8051 -0.6406
  193MPD1     N 2996   1.769   0.306  16.865  0.2692  0.1151 -0.0041
  193MPD1    H5 2997   1.811   0.345  16.949 -0.1474  1.6041 -0.4872
  193MPD1    N1 2998   1.480   4.653  16.740  0.1530 -0.6628  0.4570
  193MPD1    H6 2999   1.540   4.652  16.658 -1.8700  2.5974 -1.0576
  193MPD1    H7 3000   1.486   4.557  16.775  1.4358 -0.5184  0.6218
  194MPD1     C 3001   3.999   2.393  17.152 -0.3942  0.1395 -0.0114
  194MPD1    C1 3002   4.044   2.349  17.030 -0.4642 -0.9698  0.3542
  194MPD1    C2 3003   4.055   2.212  17.021 -0.3094 -0.0446 -0.2404
  194MPD1    C3 3004   4.008   2.125  17.113 -0.6698  0.1088 -0.1789
  194MPD1    C4 3005   3.949   2.169  17.230  0.4141 -0.1026 -0.2974
  194MPD1    C5 3006   3.951   2.309  17.251  0.1106 -0.3384  0.0281
  194MPD1     H 3007   4.114   2.176  16.938 -0.2254 -0.0914 -0.1614
  194MPD1    H1 3008   3.926   2.103  17.313 -0.6481  1.9660  1.0669
  194MPD1    H2 3009   4.004   2.499  17.173 -3.4259  0.2630  0.1126
  194MPD1    H3 3010   3.905   2.356  17.338 -2.1596 -1.8806 -0.3422
  194MPD1     N 3011   4.024   1.983  17.098  0.5062 -0.4802  0.6279
  194MPD1    H5 3012   3.987   1.920  17.169 -0.0252  1.2337  1.8769
  194MPD1    N1 3013   4.110   2.438  16.937  0.4013 -0.0825 -0.3098
  194MPD1    H6 3014   4.106   2.398  16.844  0.8177 -1.5269  0.2866
  194MPD1    H7 3015   4.072   2.532  16.935  1.1289  0.1997 -0.9028
  195MPD1     C 3016   2.545   3.968   0.342  0.1696  0.5292 -0.0016
  195MPD1    C1 3017   2.557   3.873   0.442 -0.3621 -0.9094 -0.1124
  195MPD1    C2 3018   2.459   3.773   0.455 -0.3659  0.4522 -0.0340
  195MPD1    C3 3019   2.374   3.761   0.348 -0.0451 -0.5711 -0.4319
  195MPD1    C4 3020   2.369   3.852   0.243 -0.1705  0.2417  0.7040
  195MPD1    C5 3021   2.452   3.959   0.241 -0.5479 -0.1155 -0.3447
  195MPD1     H 3022   2.462   3.700   0.534 -0.9912  1.2827  0.7453
  195MPD1    H1 3023   2.302   3.833   0.159 -0.4682 -1.1642  1.2467
  195MPD1    H2 3024   2.617   4.048   0.345 -0.7993  1.4237 -0.6003
  195MPD1    H3 3025   2.453   4.020   0.152  1.7729 -0.0409 -0.2902
  195MPD1     N 3026   2.276   3.657   0.335 -0.0415 -0.7548 -0.1054
  195MPD1    H5 3027   2.228   3.657   0.245  0.1534 -0.5120 -0.2093
  195MPD1    N1 3028   2.675   3.868   0.524 -0.0255 -0.1306  0.2811
  195MPD1    H6 3029   2.635   3.818   0.603 -0.3758  1.3088  1.0207
  195MPD1    H7 3030   2.708   3.962   0.544  1.6418 -0.5249 -0.6339
  196MPD1     C 3031   0.845   2.570   0.193 -0.3432 -0.3347  0.2197
  196MPD1    C1 3032   0.855   2.701   0.158  0.6431 -0.3469  0.3222
  196MPD1    C2 3033   0.923   2.785   0.246  1.0076 -0.9485  0.1495
  196MPD1    C3 3034   0.966   2.747   0.371  0.3651  0.1749 -0.0519
  196MPD1    C4 3035   0.948   2.613   0.409 -0.3645 -0.1208  0.1816
  196MPD1    C5 3036   0.888   2.525   0.316 -0.2506  0.0762  0.6263
  196MPD1     H 3037   0.933   2.889   0.214 -0.6300 -0.9191 -0.2781
  196MPD1    H1 3038   0.978   2.574   0.505 -0.7345  0.2033  0.4270
  196MPD1    H2 3039   0.797   2.501   0.125 -0.1552 -0.1652 -0.0827
  196MPD1    H3 3040   0.862   2.426   0.352  2.2140 -0.2729  1.4433
  196MPD1     N 3041   1.019   2.836   0.462  0.0392 -0.1958 -0.2827
  196MPD1    H5 3042   1.050   2.800   0.552  0.8276  1.7519  0.2229
  196MPD1    N1 3043   0.804   2.736   0.035  0.9959 -0.5054 -0.4785
  196MPD1    H6 3044   0.717   2.689   0.010 -0.7000  0.8577  2.8831
  196MPD1    H7 3045   0.778   2.834   0.029 -1.2449 -1.1261 -0.7474
  197MPD1     C 3046   0.835   0.798  17.702  0.3424  0.3679  0.2150
  197MPD1    C1 3047   0.882   0.925  17.698  0.5858  0.2947  0.2090
  197MPD1    C2 3048   0.950   0.962  17.589  0.0944 -0.6630  0.3398
  197MPD1    C3 3049   0.945   0.888  17.471 -0.5170 -0.3161  0.3223
  197MPD1    C4 3050   0.885   0.764  17.474 -0.9562  0.8161 -0.4888
  197MPD1    C5 3051   0.832   0.714  17.592  0.0891  0.5448  0.1936
  197MPD1     H 3052   0.999   1.057  17.571 -0.9058 -0.8229 -3.2081
  197MPD1    H1 3053   0.879   0.701  17.386 -0.7342  1.7805 -1.2020
  197MPD1    H2 3054   0.789   0.766   0.045 -0.9087  0.7040 -0.2809
  197MPD1    H3 3055   0.786   0.617  17.603 -0.8554  0.9268 -0.3885
  197MPD1     N 3056   1.011   0.921  17.351 -0.0258 -0.3239  0.2282
  197MPD1    H5 3057   1.004   0.852  17.277  1.6778  0.2624 -0.4941
  197MPD1    N1 3058   0.887   0.996   0.071 -0.0863 -0.7979 -0.0002
  197MPD1    H6 3059   0.808   0.975   0.132 -1.5781 -1.4107 -2.1214
  197MPD1    H7 3060   0.889   1.097   0.063 -1.2160 -0.8263 -0.7592
  198MPD1     C 3061   3.404   3.062  15.379  0.7378 -0.4537 -0.2405
  198MPD1    C1 3062   3.468   3.127  15.482 -0.5276  0.2237  0.0777
  198MPD1    C2 3063   3.401   3.224  15.556  0.3067  0.0440 -0.0810
  198MPD1    C3 3064   3.270   3.251  15.531 -0.2165 -0.2446 -0.4643
  198MPD1    C4 3065   3.206   3.173  15.432  0.0023 -0.0472 -0.3774
  198MPD1    C5 3066   3.269   3.082  15.355  0.2102  0.2032 -0.7586
  198MPD1     H 3067   3.453   3.268  15.640  0.8628 -0.4181 -0.1899
  198MPD1    H1 3068   3.100   3.191  15.420  0.2351  0.0773 -2.2299
  198MPD1    H2 3069   3.460   2.996  15.315  0.2824 -0.8336 -0.2474
  198MPD1    H3 3070   3.213   3.026  15.281  0.4728 -2.0398  0.7289
  198MPD1     N 3071   3.195   3.343  15.611 -0.0594  0.0834  0.3194
  198MPD1    H5 3072   3.242   3.371  15.697 -1.7846  1.0226  0.9681
  198MPD1    N1 3073   3.604   3.098  15.513 -0.1521 -0.1346  0.3969
  198MPD1    H6 3074   3.626   3.005  15.478 -0.4153 -0.4365  1.0286
  198MPD1    H7 3075   3.621   3.100  15.613  0.3660 -2.0800  0.3414
  199MPD1     C 3076   0.578   0.363  10.636  0.7671 -0.0601 -0.2388
  199MPD1    C1 3077   0.621   0.404  10.509 -0.1040 -0.0734 -0.2958
  199MPD1    C2 3078   0.547   0.499  10.440  0.2288  0.0017 -0.2029
  199MPD1    C3 3079   0.422   0.527  10.487  0.9407  0.2176  0.0356
  199MPD1    C4 3080   0.385   0.483  10.609  0.4060  0.6882 -0.2144
  199MPD1    C5 3081   0.464   0.409  10.688 -0.3579 -0.5345 -0.3154
  199MPD1     H 3082   0.575   0.538  10.343  0.5282  0.9003  0.2433
  199MPD1    H1 3083   0.293   0.521  10.653  0.8049  3.7665 -2.0456
  199MPD1    H2 3084   0.641   0.303  10.700 -2.3431 -1.7887  1.1765
  199MPD1    H3 3085   0.425   0.376  10.784 -0.8442 -2.3578 -1.1510
  199MPD1     N 3086   0.325   0.601  10.419  0.1338  0.6017 -0.2957
  199MPD1    H5 3087   0.244   0.630  10.472  1.4259  0.6919  1.6092
  199MPD1    N1 3088   0.741   0.360  10.454  0.9616  0.5046 -0.1234
  199MPD1    H6 3089   0.713   0.317  10.366 -0.5879  1.4617 -0.0900
  199MPD1    H7 3090   0.774   0.281  10.510 -0.4144 -0.4086 -0.5976
  200MPD1     C 3091   3.536   0.300  14.810 -0.2875 -0.1548  0.0588
  200MPD1    C1 3092   3.585   0.241  14.693  0.3263  0.3652  0.7900
  200MPD1    C2 3093   3.721   0.209  14.688 -0.3892 -0.0904  0.2996
  200MPD1    C3 3094   3.803   0.223  14.795  0.0011  0.1201  0.1683
  200MPD1    C4 3095   3.755   0.266  14.913  0.3424 -0.1949 -0.4193
  200MPD1    C5 3096   3.620   0.301  14.919  0.0065  0.3001  0.1434
  200MPD1     H 3097   3.763   0.165  14.598  0.4375  1.2979  0.0077
  200MPD1    H1 3098   3.813   0.291  15.001  1.6919 -0.1595 -1.3212
  200MPD1    H2 3099   3.435   0.337  14.824 -0.0785  1.1499 -1.9746
  200MPD1    H3 3100   3.583   0.342  15.013  0.7926 -1.9950  1.4542
  200MPD1     N 3101   3.937   0.185  14.782  0.2642  0.0205  0.2411
  200MPD1    H5 3102   3.961   0.150  14.691  0.9606  0.5245  0.2318
  200MPD1    N1 3103   3.509   0.234  14.577  0.2197  0.2402  0.2961
  200MPD1    H6 3104   3.548   0.165  14.514  0.9100 -0.9832  2.0865
  200MPD1    H7 3105   3.418   0.199  14.609 -1.0816  4.3685  1.1502
  201MPD1     C 3106   1.135   3.677  13.762 -0.0845  0.6901  0.7809
  201MPD1    C1 3107   1.199   3.642  13.877  0.5369 -0.0476 -0.4055
  201MPD1    C2 3108   1.331   3.603  13.861  0.0212 -0.6922 -0.1447
  201MPD1    C3 3109   1.392   3.589  13.734  0.0641 -0.4200 -0.2301
  201MPD1    C4 3110   1.316   3.614  13.620  0.2806  0.4497 -0.0256
  201MPD1    C5 3111   1.193   3.660  13.641 -0.0235 -0.4064  0.2532
  201MPD1     H 3112   1.397   3.579  13.944  0.5834  1.6444  0.0673
  201MPD1    H1 3113   1.354   3.598  13.520 -1.0690 -2.0713 -0.1234
  201MPD1    H2 3114   1.036   3.720  13.769 -0.4880 -0.1626  0.3214
  201MPD1    H3 3115   1.129   3.677  13.555 -0.9709  3.3861  1.6849
  201MPD1     N 3116   1.524   3.536  13.732  0.1020  0.5731  0.5595
  201MPD1    H5 3117   1.576   3.533  13.818  0.5450  0.8459  0.2990
  201MPD1    N1 3118   1.152   3.674  14.001  0.5922 -0.2089 -0.1890
  201MPD1    H6 3119   1.198   3.616  14.071  0.4066 -0.2914 -0.1370
  201MPD1    H7 3120   1.051   3.680  13.996  0.6955  1.9666 -0.0035
  202MPD1     C 3121   2.789   4.650  10.015  0.3073 -1.3448 -0.2413
  202MPD1    C1 3122   2.704   4.636   9.905  0.1252  0.2799  0.5934
  202MPD1    C2 3123   2.626   4.519   9.909 -0.0496  0.0705 -0.4051
  202MPD1    C3 3124   2.608   4.446  10.023 -0.0854 -0.0306  0.4532
  202MPD1    C4 3125   2.681   4.476  10.138  0.2084  0.2257  0.0170
  202MPD1    C5 3126   2.768   4.580  10.129  0.1551  0.5153  0.5103
  202MPD1     H 3127   2.598   4.481   9.811 -0.7945 -0.1937 -0.0851
  202MPD1    H1 3128   2.677   4.407  10.222 -1.3519 -2.0288 -1.9209
  202MPD1    H2 3129   2.865   4.725  10.030 -0.6508 -0.2845 -0.6930
  202MPD1    H3 3130   2.836   4.596  10.212 -0.3609 -1.3383  1.3082
  202MPD1     N 3131   2.535   4.322  10.030  0.4033  0.1307 -0.3826
  202MPD1    H5 3132   2.537   4.271  10.117 -3.4176  1.5485  0.5457
  202MPD1    N1 3133   2.756   4.675   9.781  0.1374  0.1555 -0.0704
  202MPD1    H6 3134   2.784   0.035   9.784  2.5019 -0.5011 -0.6649
  202MPD1    H7 3135   2.691   4.662   9.704  2.0105 -1.0458 -1.4465
  203MPD1     C 3136   0.211   3.786  13.122  0.7938  0.2173  0.5183
  203MPD1    C1 3137   0.279   3.707  13.215 -0.2954 -0.0716  0.2226
  203MPD1    C2 3138   0.413   3.687  13.184  0.3070 -0.0866 -0.2486
  203MPD1    C3 3139   0.470   3.714  13.060 -0.3792  0.8326  0.1850
  203MPD1    C4 3140   0.392   3.787  12.967  0.7635 -0.9233 -0.7328
  203MPD1    C5 3141   0.273   3.830  13.012  0.2661  0.6754  1.0340
  203MPD1     H 3142   0.475   3.644  13.262 -0.5818  3.5506  2.4561
  203MPD1    H1 3143   0.437   3.833  12.880  2.0301 -1.5741 -0.4222
  203MPD1    H2 3144   0.109   3.821  13.131  0.5786 -0.5145  0.8751
  203MPD1    H3 3145   0.219   3.901  12.952  0.9159  1.0815  0.9215
  203MPD1     N 3146   0.602   3.668  13.036 -0.2063 -0.2990  0.1560
  203MPD1    H5 3147   0.654   3.643  13.119 -0.6321  2.3696  1.2375
  203MPD1    N1 3148   0.227   3.692  13.338 -0.7074 -0.3401 -0.6270
  203MPD1    H6 3149   0.125   3.688  13.340 -0.6788 -0.7016  0.5705
  203MPD1    H7 3150   0.257   3.602  13.375  3.6913  2.6107  2.9754
  204MPD1     C 3151   3.463   0.904  17.036  0.5791 -0.4269  0.5420
  204MPD1    C1 3152   3.563   0.911  16.945 -0.0551  0.5133  0.3263
  204MPD1    C2 3153   3.691   0.892  16.987 -0.0928 -0.2693  0.4432
  204MPD1    C3 3154   3.725   0.878  17.122 -0.1268  0.2585  0.0373
  204MPD1    C4 3155   3.627   0.898  17.215  0.1768 -1.1305  0.1525
  204MPD1    C5 3156   3.497   0.903  17.166 -0.0459  0.1694 -0.2183
  204MPD1     H 3157   3.774   0.869  16.920 -0.2898  1.6108 -0.4356
  204MPD1    H1 3158   3.647   0.903  17.322 -1.3044  0.4855  0.3697
  204MPD1    H2 3159   3.360   0.893  17.004  0.5924  0.3682  0.2398
  204MPD1    H3 3160   3.422   0.904  17.244  2.4593  1.3456  2.1707
  204MPD1     N 3161   3.857   0.832  17.148  0.0024  0.5308  0.2013
  204MPD1    H5 3162   3.923   0.825  17.071  0.4486 -0.2445  0.6555
  204MPD1    N1 3163   3.529   0.902  16.810  0.0924  0.4210  0.1063
  204MPD1    H6 3164   3.600   0.943  16.749  0.7129 -0.3162  0.3213
  204MPD1    H7 3165   3.442   0.950  16.790 -0.1675  0.7403  1.9946
  205MPD1     C 3166   4.579   4.171  17.246  0.1920 -0.1276 -0.1467
  205MPD1    C1 3167   4.559   4.101  17.367 -0.4042 -0.6371 -0.1543
  205MPD1    C2 3168   4.528   4.183  17.469  0.5350  0.0005 -0.1928
  205MPD1    C3 3169   4.489   4.318  17.450  0.5482  0.0918  0.4913
  205MPD1    C4 3170   4.476   4.361  17.320 -0.0770 -0.1204  0.7724
  205MPD1    C5 3171   4.525   4.290  17.219 -0.6002  0.7920 -0.3013
  205MPD1     H 3172   4.529   4.134  17.565 -0.5669  2.5856  1.1502
  205MPD1    H1 3173   4.430   4.456  17.294  0.6643 -0.6037 -2.3310
  205MPD1    H2 3174   4.623   4.113  17.166  2.5623  0.7464  0.5403
  205MPD1    H3 3175   4.523   4.338  17.121  0.7191 -0.9293 -1.1646
  205MPD1     N 3176   4.444   4.400  17.563 -0.1566 -0.2243 -0.5340
  205MPD1    H5 3177   4.404   4.490  17.539 -0.0608  0.3661  1.5439
  205MPD1    N1 3178   4.614   3.972  17.390 -0.6218 -0.2866  0.1969
  205MPD1    H6 3179   4.570   3.922  17.468 -0.7767 -0.3796  0.0494
  205MPD1    H7 3180   4.603   3.921  17.303 -1.1860  3.2864 -1.8160
  206MPD1     C 3181   4.361   2.242  17.488  0.1205 -0.4172 -0.0225
  206MPD1    C1 3182   4.376   2.131  17.411  0.3513 -1.0813 -0.5187
  206MPD1    C2 3183   4.399   2.148  17.278  0.3029 -0.2663 -0.3734
  206MPD1    C3 3184   4.363   2.269  17.211 -0.9444 -0.0016 -0.1564
  206MPD1    C4 3185   4.329   2.374  17.297 -0.0153 -0.3490 -0.4839
  206MPD1    C5 3186   4.327   2.366  17.438 -0.1492 -0.0046  0.3281
  206MPD1     H 3187   4.423   2.059  17.221 -1.9257 -1.4701  0.5783
  206MPD1    H1 3188   4.298   2.466  17.249  1.3121  0.4586  0.2013
  206MPD1    H2 3189   4.362   2.228  17.595 -0.4066  0.7299  0.1331
  206MPD1    H3 3190   4.304   2.450  17.502 -0.0215  0.7629 -0.6220
  206MPD1     N 3191   4.368   2.303  17.077  0.4693  0.3046 -0.2548
  206MPD1    H5 3192   4.322   2.388  17.047 -1.8855 -0.4111  1.3185
  206MPD1    N1 3193   4.417   2.009  17.475  0.3370  0.1269  0.1215
  206MPD1    H6 3194   4.403   1.938  17.403  3.1997 -1.2489  0.9472
  206MPD1    H7 3195   4.354   1.999  17.554  0.8337  2.7460  0.8444
  207MPD1     C 3196   2.227   4.399   9.315 -0.1661 -0.8804 -0.1491
  207MPD1    C1 3197   2.204   4.534   9.326 -0.1517 -0.0969  0.0372
  207MPD1    C2 3198   2.248   4.599   9.435 -0.3276 -0.0681 -0.2990
  207MPD1    C3 3199   2.294   4.529   9.548  0.0020 -0.7816 -0.0508
  207MPD1    C4 3200   2.304   4.393   9.532  0.1143 -0.5590 -0.5493
  207MPD1    C5 3201   2.293   4.329   9.410  0.0033 -0.2210 -0.0170
  207MPD1     H 3202   2.236   4.707   9.433  0.8687  0.1123  2.4956
  207MPD1    H1 3203   2.331   4.325   9.613  3.1805 -1.6352 -2.4547
  207MPD1    H2 3204   2.211   4.341   9.225 -0.4215  0.2050 -0.7924
  207MPD1    H3 3205   2.331   4.231   9.386 -0.3453 -0.3818  0.0902
  207MPD1     N 3206   2.320   4.594   9.678  0.2250  0.0509  0.0347
  207MPD1    H5 3207   2.369   4.539   9.748  0.7521 -1.6294 -1.6550
  207MPD1    N1 3208   2.180   4.612   9.210  0.6425  0.9142 -0.2491
  207MPD1    H6 3209   2.137   4.569   9.129  1.1462  0.3878 -0.2344
  207MPD1    H7 3210   2.150   4.704   9.241  0.4773 -0.1064  2.6638
  208MPD1     C 3211   0.274   3.569   0.956  0.3846 -0.8871 -0.5678
  208MPD1    C1 3212   0.141   3.543   0.965 -0.0875  0.0588  0.1485
  208MPD1    C2 3213   0.058   3.639   1.023  0.0553 -0.0668 -0.2813
  208MPD1    C3 3214   0.112   3.754   1.078  0.3705 -0.0086 -0.0245
  208MPD1    C4 3215   0.251   3.771   1.073 -0.4973  0.0075 -0.3561
  208MPD1    C5 3216   0.332   3.682   1.011  0.4103  0.5103 -0.1834
  208MPD1     H 3217   4.689   3.624   1.031 -0.2151  1.1941 -1.4828
  208MPD1    H1 3218   0.298   3.865   1.100 -0.7160  0.1589 -0.5041
  208MPD1    H2 3219   0.351   3.514   0.903  2.3003  1.6672 -0.4565
  208MPD1    H3 3220   0.440   3.694   1.015  0.5512 -0.6393 -0.4481
  208MPD1     N 3221   0.021   3.845   1.126  0.0173  0.0595 -0.0950
  208MPD1    H5 3222   4.662   3.823   1.102 -0.0418 -0.0556  0.2480
  208MPD1    N1 3223   0.075   3.437   0.901 -0.9835 -0.1803  0.0073
  208MPD1    H6 3224   0.140   3.360   0.886  0.8836  1.1527  1.1595
  208MPD1    H7 3225   0.000   3.405   0.961 -2.7762  0.5542 -1.8208
  209MPD1     C 3226   2.165   3.822  11.505 -0.0056  0.0170 -0.7553
  209MPD1    C1 3227   2.299   3.803  11.466 -0.2293 -0.7245 -0.3184
  209MPD1    C2 3228   2.354   3.877  11.369  0.8315 -0.1420  0.1360
  209MPD1    C3 3229   2.285   3.963  11.286  0.7647  0.3098  0.4489
  209MPD1    C4 3230   2.147   3.969  11.308  0.1017  0.2312  0.3354
  209MPD1    C5 3231   2.099   3.912  11.425 -0.6308  0.1653  0.7455
  209MPD1     H 3232   2.461   3.870  11.355  0.7894 -0.8008  0.1578
  209MPD1    H1 3233   2.087   4.039  11.252 -3.5991 -1.7177  1.8990
  209MPD1    H2 3234   2.123   3.786  11.598  0.7365 -1.9300 -1.1740
  209MPD1    H3 3235   1.996   3.929  11.457 -0.9410  0.7782 -0.5785
  209MPD1     N 3236   2.358   4.036  11.188 -0.4046  0.5886  0.1080
  209MPD1    H5 3237   2.457   4.048  11.204 -0.0350 -0.9791 -0.9603
  209MPD1    N1 3238   2.383   3.739  11.555 -0.0007 -0.1498  0.4006
  209MPD1    H6 3239   2.466   3.697  11.516 -0.4232 -1.3729  0.8175
  209MPD1    H7 3240   2.332   3.668  11.607 -0.7225  0.2739  0.2737
  210MPD1     C 3241   2.813   0.150  11.170  0.3665 -0.2299  0.1382
  210MPD1    C1 3242   2.823   0.042  11.251  0.0344 -0.6326 -0.0024
  210MPD1    C2 3243   2.754   4.669  11.209 -0.4885 -0.1374 -0.2480
  210MPD1    C3 3244   2.682   4.665  11.089  0.9548  0.7256 -0.2830
  210MPD1    C4 3245   2.671   0.044  11.010  0.3277  1.1231 -0.1170
  210MPD1    C5 3246   2.741   0.152  11.047  0.3447 -0.3157 -0.0422
  210MPD1     H 3247   2.753   4.580  11.271  3.3644 -1.2989 -1.8503
  210MPD1    H1 3248   2.617   0.047  10.915 -0.6090  2.0419  0.4330
  210MPD1    H2 3249   2.866   0.240  11.198  0.0301 -0.2012  0.6738
  210MPD1    H3 3250   2.730   0.249  10.999 -1.9042 -0.3934  0.3257
  210MPD1     N 3251   2.628   4.549  11.033 -0.1232 -0.1648  0.1393
  210MPD1    H5 3252   2.576   4.558  10.947 -1.8591 -0.8004  1.1308
  210MPD1    N1 3253   2.866   0.069  11.383 -0.4067 -0.2456 -0.5104
  210MPD1    H6 3254   2.881   4.721  11.436  0.3846  0.1218 -0.1453
  210MPD1    H7 3255   2.948   0.130  11.390  0.3150 -0.9917 -2.2347
  211MPD1     C 3256   4.547   3.793   0.311  0.7796 -0.1880 -0.2790
  211MPD1    C1 3257   4.473   3.907   0.332 -0.0298  0.5949  0.0166
  211MPD1    C2 3258   4.401   3.968   0.224  0.8985  0.1327 -0.1591
  211MPD1    C3 3259   4.409   3.921   0.097  0.2570 -0.4537  0.2176
  211MPD1    C4 3260   4.490   3.808   0.078  0.1900  0.5850 -0.1325
  211MPD1    C5 3261   4.555   3.746   0.182 -0.8472  0.1935  0.0418
  211MPD1     H 3262   4.344   4.060   0.238  0.4597 -0.0965 -0.4145
  211MPD1    H1 3263   4.494   3.762  17.729 -1.1438 -1.2916  0.7124
  211MPD1    H2 3264   4.603   3.739   0.386 -0.8935  1.6884  2.3572
  211MPD1    H3 3265   4.622   3.664   0.160  0.1814  1.0888 -0.1412
  211MPD1     N 3266   4.334   3.984  17.743 -0.4853 -0.1460 -0.1949
  211MPD1    H5 3267   4.269   4.054   0.027 -0.3607  1.1623 -2.7122
  211MPD1    N1 3268   4.479   3.969   0.457 -0.5534 -0.8018  0.2278
  211MPD1    H6 3269   4.490   3.913   0.541 -2.8962  0.7991  1.5908
  211MPD1    H7 3270   4.394   4.020   0.479  0.0307  0.9605 -1.6758
  212MPD1     C 3271   4.132   2.579  16.439  0.4451 -0.8201  0.2085
  212MPD1    C1 3272   4.044   2.650  16.514  0.0914 -0.0202 -0.1837
  212MPD1    C2 3273   3.960   2.584  16.607 -0.0769 -0.7230  0.0480
  212MPD1    C3 3274   3.976   2.445  16.626  0.7851  0.2775 -0.3383
  212MPD1    C4 3275   4.081   2.377  16.563  0.2843 -0.0877 -0.6660
  212MPD1    C5 3276   4.154   2.450  16.475 -0.1509  0.6761  0.0110
  212MPD1     H 3277   3.886   2.644  16.658 -1.1286  0.0508 -2.3952
  212MPD1    H1 3278   4.099   2.273  16.588  1.7315  0.3479  0.1301
  212MPD1    H2 3279   4.203   2.626  16.371  0.7139  1.7094  2.2426
  212MPD1    H3 3280   4.229   2.396  16.419 -0.5228 -0.5724  0.7200
  212MPD1     N 3281   3.891   2.369  16.713 -0.6649 -0.2072  0.2140
  212MPD1    H5 3282   3.921   2.272  16.712 -1.2027 -0.3793  0.9528
  212MPD1    N1 3283   4.030   2.788  16.493 -0.4161  0.6136 -0.1395
  212MPD1    H6 3284   4.120   2.834  16.487 -0.3286  0.3458 -0.8646
  212MPD1    H7 3285   3.974   2.830  16.566  2.2040 -0.5397  2.5405
  213MPD1     C 3286   2.613   2.513  15.783 -0.0953 -0.5955 -0.0748
  213MPD1    C1 3287   2.540   2.435  15.691 -0.1131 -0.2680 -0.1560
  213MPD1    C2 3288   2.453   2.503  15.617  0.3565 -0.4561 -0.0627
  213MPD1    C3 3289   2.461   2.640  15.603  0.3954 -0.3134 -0.5304
  213MPD1    C4 3290   2.544   2.716  15.680  0.1567  0.2249 -0.2143
  213MPD1    C5 3291   2.618   2.650  15.774  0.3477 -0.3791 -0.2214
  213MPD1     H 3292   2.381   2.453  15.554  0.9585 -1.7492  0.2732
  213MPD1    H1 3293   2.546   2.825  15.684 -2.0331  0.2353  0.0971
  213MPD1    H2 3294   2.687   2.474  15.851  0.8452  3.6857  1.3713
  213MPD1    H3 3295   2.684   2.704  15.841 -1.0841 -0.0616  0.9249
  213MPD1     N 3296   2.373   2.700  15.508 -0.3287 -0.2286 -0.0294
  213MPD1    H5 3297   2.332   2.639  15.439 -0.3586  2.1910 -2.1774
  213MPD1    N1 3298   2.499   2.306  15.733 -0.5058 -0.3598  0.0986
  213MPD1    H6 3299   2.448   2.253  15.662  0.8684 -3.5900  1.5152
  213MPD1    H7 3300   2.579   2.250  15.763  1.9263  3.6580  1.0555
  214MPD1     C 3301   1.725   2.665  14.755  0.0716 -0.2127  0.0559
  214MPD1    C1 3302   1.732   2.595  14.872  0.0889  0.4790  0.0499
  214MPD1    C2 3303   1.821   2.634  14.975  0.3876  0.1762 -0.0146
  214MPD1    C3 3304   1.889   2.754  14.964  0.3306  0.2241  0.0399
  214MPD1    C4 3305   1.876   2.827  14.855  0.0653  0.3470  0.3765
  214MPD1    C5 3306   1.794   2.781  14.747 -0.3563 -0.2937 -0.1499
  214MPD1     H 3307   1.836   2.578  15.066 -0.0739 -1.3488 -0.8900
  214MPD1    H1 3308   1.924   2.924  14.845 -0.1107  0.5017  1.0607
  214MPD1    H2 3309   1.671   2.628  14.668  0.9265  1.1109 -1.0305
  214MPD1    H3 3310   1.797   2.841  14.657 -0.6754 -2.3366 -1.5315
  214MPD1     N 3311   1.967   2.808  15.071 -0.1719  0.3129  0.3794
  214MPD1    H5 3312   1.999   2.904  15.063  0.1937  0.2032  0.5200
  214MPD1    N1 3313   1.665   2.469  14.871 -0.3158  0.5372  0.2870
  214MPD1    H6 3314   1.620   2.442  14.958 -1.3602  1.4408  0.0249
  214MPD1    H7 3315   1.593   2.461  14.800  0.7925  1.2451 -0.9160
  215MPD1     C 3316   1.357   4.469  11.167  0.5215  0.1023 -0.5932
  215MPD1    C1 3317   1.451   4.538  11.098  0.0061 -0.1795  0.6103
  215MPD1    C2 3318   1.588   4.525  11.140  0.0432  0.0837 -0.3330
  215MPD1    C3 3319   1.618   4.439  11.243  0.0490  0.7336  0.0512
  215MPD1    C4 3320   1.516   4.376  11.318 -0.5561 -0.2700 -0.5413
  215MPD1    C5 3321   1.388   4.394  11.281 -0.4163  0.0008  0.1961
  215MPD1     H 3322   1.667   4.583  11.095  0.3451  0.9952  1.3827
  215MPD1    H1 3323   1.532   4.319  11.408 -3.6108  0.0727  0.2334
  215MPD1    H2 3324   1.252   4.475  11.140  0.1622 -1.0119  0.5658
  215MPD1    H3 3325   1.305   4.361  11.341 -0.3925 -3.1009 -1.4777
  215MPD1     N 3326   1.757   4.433  11.278 -0.5201  0.0551 -0.3136
  215MPD1    H5 3327   1.814   4.496  11.221 -0.1866 -0.3524 -0.4290
  215MPD1    N1 3328   1.412   4.641  11.007  0.3842 -0.2251  0.4155
  215MPD1    H6 3329   1.314   4.656  10.985  0.7176  1.3862  0.0088
  215MPD1    H7 3330   1.471   4.645  10.924  2.0702 -3.1501  1.4685
  216MPD1     C 3331   3.782   1.212  16.844  0.6434  0.4139 -0.3192
  216MPD1    C1 3332   3.832   1.222  16.974  0.2361 -0.2442 -0.2457
  216MPD1    C2 3333   3.742   1.250  17.074 -0.0955  0.1098  0.4055
  216MPD1    C3 3334   3.622   1.303  17.053  1.0160 -0.3024  0.3545
  216MPD1    C4 3335   3.576   1.301  16.925  0.4400  0.1912  0.0678
  216MPD1    C5 3336   3.660   1.262  16.822  0.2463  0.0549 -0.5204
  216MPD1     H 3337   3.783   1.240  17.174 -2.7700 -1.9403  1.2759
  216MPD1    H1 3338   3.475   1.325  16.895  1.0486 -1.3241 -3.2136
  216MPD1    H2 3339   3.843   1.176  16.762 -0.9189 -0.4825 -1.1024
  216MPD1    H3 3340   3.619   1.264  16.722  0.3996  1.3044 -0.5516
  216MPD1     N 3341   3.538   1.323  17.166 -0.0846  0.2722 -0.3226
  216MPD1    H5 3342   3.581   1.306  17.256 -0.2186  1.1269 -0.0944
  216MPD1    N1 3343   3.968   1.184  16.995  0.1229 -0.8005  0.3846
  216MPD1    H6 3344   4.028   1.216  16.919  2.1036  1.5031  2.9211
  216MPD1    H7 3345   4.013   1.223  17.077  1.0536 -0.5070 -0.2728
  217MPD1     C 3346   0.018   4.541   9.660 -0.1013 -0.5163 -0.1631
  217MPD1    C1 3347   0.051   4.437   9.573 -0.0119  0.2613 -0.4905
  217MPD1    C2 3348   0.058   4.311   9.634 -0.9698  0.0359 -0.1431
  217MPD1    C3 3349   0.053   4.302   9.771  0.1237 -0.7290 -0.1588
  217MPD1    C4 3350   0.036   4.410   9.853  0.2662  0.8485  0.2367
  217MPD1    C5 3351   0.009   4.529   9.795 -0.2881  0.0484  0.0109
  217MPD1     H 3352   0.061   4.221   9.573 -1.3057 -0.3443  0.4028
  217MPD1    H1 3353   0.039   4.388   9.959  3.2458 -1.8613 -0.3922
  217MPD1    H2 3354   4.719   4.634   9.617  0.1487  0.6850  2.2085
  217MPD1    H3 3355   4.710   4.609   9.858 -0.8619  0.8467 -1.3449
  217MPD1     N 3356   0.058   4.174   9.845  0.1244  0.1991  0.5768
  217MPD1    H5 3357   0.053   4.189   9.946  1.4523 -0.2597  0.7165
  217MPD1    N1 3358   0.019   4.452   9.433  0.5536  0.6364 -0.5652
  217MPD1    H6 3359   0.062   4.377   9.380 -0.3880  0.8730 -1.6603
  217MPD1    H7 3360   0.059   4.542   9.405 -0.8440  0.6054 -2.6748
  218MPD1     C 3361   2.945   0.007  12.126 -0.1337 -0.8502  0.8669
  218MPD1    C1 3362   2.819   0.008  12.070  0.0704  0.2808 -0.2215
  218MPD1    C2 3363   2.730   4.637  12.099  0.3152  0.2601 -0.1922
  218MPD1    C3 3364   2.767   4.548  12.200 -0.7653 -0.0422 -0.4221
  218MPD1    C4 3365   2.885   4.565  12.273 -0.1630  0.4796  0.2916
  218MPD1    C5 3366   2.972   4.661  12.233 -0.1277  0.7600 -0.1998
  218MPD1     H 3367   2.634   4.633  12.049  0.0663  0.2396  0.2878
  218MPD1    H1 3368   2.926   4.504  12.353 -2.1671  1.0447  1.7399
  218MPD1    H2 3369   3.023   0.074  12.091 -2.7736  2.4418  1.1844
  218MPD1    H3 3370   3.069   4.662  12.283  0.3847  1.4232 -1.1967
  218MPD1     N 3371   2.681   4.444  12.223 -0.2549 -0.8902 -0.3246
  218MPD1    H5 3372   2.599   4.442  12.163 -0.4475 -0.8155 -0.0676
  218MPD1    N1 3373   2.799   0.093  11.963 -0.6154  0.2152 -0.1664
  218MPD1    H6 3374   2.702   0.117  11.942 -0.7396 -1.3527 -1.3959
  218MPD1    H7 3375   2.845   0.183  11.978 -0.0754 -0.1353  0.2769
  219MPD1     C 3376   1.914   3.873  11.925 -0.2635  0.4342  0.5089
  219MPD1    C1 3377   2.005   3.967  11.881  0.3338  0.7660 -0.2694
  219MPD1    C2 3378   2.095   4.012  11.973  0.0700 -0.8006 -0.1605
  219MPD1    C3 3379   2.083   3.988  12.106  0.3826 -0.3097 -0.1331
  219MPD1    C4 3380   1.988   3.897  12.149 -0.0011  0.4252  0.0214
  219MPD1    C5 3381   1.914   3.835  12.052  0.0491  0.1788 -0.0940
  219MPD1     H 3382   2.176   4.076  11.940  0.8507 -1.2029  0.9908
  219MPD1    H1 3383   1.978   3.874  12.254 -0.0947 -0.9560 -0.2881
  219MPD1    H2 3384   1.842   3.834  11.854  0.3489 -0.0959  0.1837
  219MPD1    H3 3385   1.837   3.765  12.079  0.8892  0.3359  2.7028
  219MPD1     N 3386   2.186   4.039  12.198  0.1777  0.3199 -0.3054
  219MPD1    H5 3387   2.196   3.992  12.287  3.1919  0.9371 -0.3025
  219MPD1    N1 3388   2.033   3.988  11.745  1.1235  0.1042  0.6881
  219MPD1    H6 3389   2.097   4.065  11.727  1.7221  0.2327  3.4576
  219MPD1    H7 3390   1.956   3.975  11.680  3.8205 -0.2050 -2.4810
  220MPD1     C 3391   1.462   0.077   9.685 -0.1773  0.3886 -0.7582
  220MPD1    C1 3392   1.411   0.096   9.813 -0.8229 -0.1155 -0.0690
  220MPD1    C2 3393   1.473   0.026   9.916 -0.1920 -0.5486  0.3597
  220MPD1    C3 3394   1.578   4.685   9.905 -0.2886  0.3305  0.1605
  220MPD1    C4 3395   1.643   4.678   9.784 -0.3074  0.1924 -0.6348
  220MPD1    C5 3396   1.585   0.006   9.677  0.2871 -0.1394  0.4962
  220MPD1     H 3397   1.428   0.029  10.014  0.0673 -1.1608  0.4967
  220MPD1    H1 3398   1.730   4.615   9.769 -0.5644 -0.1642 -0.6285
  220MPD1    H2 3399   1.412   0.122   9.600 -0.6622  1.4012  0.0662
  220MPD1    H3 3400   1.631   4.727   9.580 -1.0200  1.0308 -0.3280
  220MPD1     N 3401   1.630   4.615  10.018 -0.2729  0.3820  0.6836
  220MPD1    H5 3402   1.576   4.593  10.101 -1.4028 -0.5678 -0.3208
  220MPD1    N1 3403   1.292   0.168   9.827 -0.3124 -0.1495  0.3022
  220MPD1    H6 3404   1.288   0.248   9.764  0.8823 -0.5867 -0.3301
  220MPD1    H7 3405   1.276   0.200   9.923 -0.4460  1.6739 -0.3263
  221MPD1     C 3406   0.930   2.378  16.097  0.6432 -0.4049  0.1884
  221MPD1    C1 3407   1.034   2.453  16.043 -0.4496 -0.8420  0.3428
  221MPD1    C2 3408   1.023   2.590  16.044 -0.0197 -0.2727  0.6947
  221MPD1    C3 3409   0.919   2.648  16.114  0.1139  0.5505  0.4464
  221MPD1    C4 3410   0.822   2.570  16.185  0.5834  0.0261  0.4028
  221MPD1    C5 3411   0.830   2.434  16.170  0.1625 -0.7175  0.0023
  221MPD1     H 3412   1.091   2.648  15.983  0.1325  2.7971  3.8011
  221MPD1    H1 3413   0.729   2.614  16.222 -0.2488 -1.7156  0.3710
  221MPD1    H2 3414   0.940   2.270  16.102 -0.1260 -0.5270 -0.9494
  221MPD1    H3 3415   0.755   2.375  16.221 -1.1309 -1.0955 -2.3512
  221MPD1     N 3416   0.905   2.789  16.124  0.4880  0.1676 -0.0304
  221MPD1    H5 3417   0.826   2.832  16.172 -1.0479 -1.2558 -1.3236
  221MPD1    N1 3418   1.125   2.384  15.959  0.3275  0.4549 -0.4408
  221MPD1    H6 3419   1.213   2.435  15.956  0.7022 -0.0799  1.2571
  221MPD1    H7 3420   1.141   2.289  15.993  0.7250  0.0273 -1.8237
  222MPD1     C 3421   3.413   2.701   0.437  0.0500  0.3800 -0.4965
  222MPD1    C1 3422   3.379   2.666   0.571  0.3294  0.1033 -0.3994
  222MPD1    C2 3423   3.325   2.772   0.648 -0.1949  0.3486 -0.3611
  222MPD1    C3 3424   3.284   2.893   0.600 -0.1996 -0.0913 -0.1246
  222MPD1    C4 3425   3.316   2.919   0.470 -0.1966 -0.0653 -0.2577
  222MPD1    C5 3426   3.378   2.828   0.392  0.1844  0.0046  0.5618
  222MPD1     H 3427   3.311   2.750   0.753 -0.6120  0.4340 -0.4009
  222MPD1    H1 3428   3.287   3.008   0.416  1.2207  0.9881  0.7265
  222MPD1    H2 3429   3.465   2.630   0.373  2.7263  3.1473 -1.4034
  222MPD1    H3 3430   3.413   2.857   0.293  3.4919 -2.1597  1.1095
  222MPD1     N 3431   3.225   2.998   0.672  0.1836  0.4215 -0.1641
  222MPD1    H5 3432   3.221   3.090   0.627  2.4534  0.9703  0.7701
  222MPD1    N1 3433   3.424   2.544   0.624  0.1853 -0.1679 -0.3528
  222MPD1    H6 3434   3.385   2.519   0.715  0.6440  0.3810 -0.0000
  222MPD1    H7 3435   3.395   2.469   0.562 -2.6675 -0.6210  1.5308
  223MPD1     C 3436   2.780   2.976   1.571 -0.2205  0.8496 -0.9109
  223MPD1    C1 3437   2.884   2.912   1.518  0.2474  0.0603  0.6226
  223MPD1    C2 3438   2.918   2.931   1.388 -0.5876 -0.2717 -0.0895
  223MPD1    C3 3439   2.844   3.016   1.314  0.3330 -0.1233  0.1202
  223MPD1    C4 3440   2.731   3.077   1.359  0.0248 -0.5211  0.0436
  223MPD1    C5 3441   2.700   3.048   1.486 -0.5779  0.0625  0.0608
  223MPD1     H 3442   2.996   2.868   1.346 -1.2203 -0.5640 -0.8337
  223MPD1    H1 3443   2.666   3.142   1.301 -0.4512 -0.1463  0.9916
  223MPD1    H2 3444   2.762   2.981   1.678 -0.1645 -2.7208 -0.7151
  223MPD1    H3 3445   2.614   3.105   1.519 -1.3755 -0.0186 -1.8464
  223MPD1     N 3446   2.899   3.046   1.189 -0.6057  0.7716 -0.4078
  223MPD1    H5 3447   2.977   2.987   1.162 -1.6178 -1.7976  2.2946
  223MPD1    N1 3448   2.976   2.836   1.604  0.2617 -0.1879 -0.1632
  223MPD1    H6 3449   2.931   2.798   1.687  1.6997 -0.0645  0.6603
  223MPD1    H7 3450   3.023   2.761   1.554  1.8476 -1.5826  3.4237
  224MPD1     C 3451   0.658   0.039   8.988  0.4637 -0.2069 -0.0463
  224MPD1    C1 3452   0.633   0.069   9.117 -0.2042  0.0698 -0.1416
  224MPD1    C2 3453   0.659   4.708   9.213  1.1525  0.3145 -0.1266
  224MPD1    C3 3454   0.718   4.581   9.179 -0.0361  0.2721  0.1154
  224MPD1    C4 3455   0.751   4.561   9.048  0.1147 -0.1396  0.2232
  224MPD1    C5 3456   0.722   4.663   8.957  0.3875 -0.3814  0.4554
  224MPD1     H 3457   0.620   4.727   9.312  2.6330  0.0011  0.5122
  224MPD1    H1 3458   0.793   4.467   9.014 -0.9144 -0.4881 -0.0886
  224MPD1    H2 3459   0.638   0.114   8.912 -1.9967 -0.5550  0.2733
  224MPD1    H3 3460   0.748   4.643   8.853 -0.3610  0.7757  0.0510
  224MPD1     N 3461   0.744   4.481   9.276 -0.0862  0.3611  0.5998
  224MPD1    H5 3462   0.779   4.395   9.236  0.3948  0.6647  0.3748
  224MPD1    N1 3463   0.556   0.181   9.147  0.2936 -0.7906  0.5377
  224MPD1    H6 3464   0.552   0.219   9.241 -1.0286 -0.8227  0.4914
  224MPD1    H7 3465   0.584   0.262   9.092 -0.7016 -1.2272 -0.6083
  225MPD1     C 3466   2.367   4.659  12.307  0.4100  0.4234  0.1119
  225MPD1    C1 3467   2.234   4.626  12.278  0.1680 -0.7261  0.5788
  225MPD1    C2 3468   2.136   4.622  12.375  0.5925 -0.6525 -0.0033
  225MPD1    C3 3469   2.164   4.656  12.507  0.6905  0.3313 -0.5912
  225MPD1    C4 3470   2.297   4.688  12.539 -0.8866 -0.3148 -0.2019
  225MPD1    C5 3471   2.395   4.696  12.440  0.4459  0.3198  0.3076
  225MPD1     H 3472   2.034   4.602  12.345 -0.0299  1.6369  0.5625
  225MPD1    H1 3473   2.335   4.699  12.640  0.5827  1.1457 -0.9220
  225MPD1    H2 3474   2.447   4.663  12.234  0.4297  1.8587  0.2134
  225MPD1    H3 3475   2.501   4.710  12.459  0.6108  1.3749 -1.4220
  225MPD1     N 3476   2.069   4.652  12.610  0.1369  0.2858 -0.0455
  225MPD1    H5 3477   2.108   4.687  12.697  3.2977 -0.4507 -1.1444
  225MPD1    N1 3478   2.200   4.615  12.138  0.4365 -0.3812  0.5035
  225MPD1    H6 3479   2.126   4.545  12.129 -1.1507  1.5021 -1.2080
  225MPD1    H7 3480   2.282   4.591  12.084  0.1149  2.5962 -1.3551
  226MPD1     C 3481   0.636   3.941   9.881  0.1692  0.5875  0.3533
  226MPD1    C1 3482   0.719   3.998   9.965  0.1612  0.3284 -0.0836
  226MPD1    C2 3483   0.662   4.094  10.052  0.0866  0.6094 -0.3135
  226MPD1    C3 3484   0.526   4.137  10.049  0.0084 -0.0318  0.5610
  226MPD1    C4 3485   0.452   4.068   9.957 -0.0791 -0.0355 -0.2338
  226MPD1    C5 3486   0.504   3.970   9.873 -0.6329 -0.7541 -0.3484
  226MPD1     H 3487   0.733   4.148  10.114 -0.2118  0.6796 -0.0287
  226MPD1    H1 3488   0.346   4.081   9.938 -0.0146 -1.2030 -1.4129
  226MPD1    H2 3489   0.663   3.851   9.828 -1.5235 -0.4314  1.1965
  226MPD1    H3 3490   0.440   3.919   9.802  1.5214 -0.6840 -2.3351
  226MPD1     N 3491   0.469   4.231  10.134 -0.5545  0.0295  0.0198
  226MPD1    H5 3492   0.529   4.292  10.188  0.8545 -2.6015  1.3779
  226MPD1    N1 3493   0.851   3.948   9.974 -0.1208 -0.1515  0.1384
  226MPD1    H6 3494   0.918   4.011  10.016 -2.5438  2.6173 -0.1719
  226MPD1    H7 3495   0.886   3.886   9.901 -1.0320 -0.7716  0.2231
  227MPD1     C 3496   4.343   0.022  10.062  0.0110 -0.4192 -0.2789
  227MPD1    C1 3497   4.347   4.625  10.103  0.5674  0.4013  0.9339
  227MPD1    C2 3498   4.469   4.571  10.133  0.9443 -0.2837 -0.2277
  227MPD1    C3 3499   4.585   4.653  10.149 -0.4850  0.0253 -0.0564
  227MPD1    C4 3500   4.569   0.043  10.111 -0.1877 -0.2818 -0.2071
  227MPD1    C5 3501   4.453   0.094  10.064  0.3966 -0.3548 -0.2979
  227MPD1     H 3502   4.481   4.465  10.153 -3.6687 -0.7913 -0.0643
  227MPD1    H1 3503   4.641   0.123  10.125 -1.2144  0.9115 -1.6429
  227MPD1    H2 3504   4.250   0.077  10.048  1.1016  1.7734  1.0615
  227MPD1    H3 3505   4.448   0.199  10.039  0.3587 -0.2135  0.3059
  227MPD1     N 3506   4.717   4.603  10.174 -0.0145 -0.3870  0.4986
  227MPD1    H5 3507   4.729   4.502  10.175 -1.2145 -0.5129  2.4227
  227MPD1    N1 3508   4.233   4.544  10.110  0.0253 -0.3407  0.0119
  227MPD1    H6 3509   4.144   4.592  10.107 -0.3779 -1.1174 -0.4121
  227MPD1    H7 3510   4.238   4.476  10.186 -1.4183 -0.0865  0.3399
  228MPD1     C 3511   3.866   2.722  12.869 -0.0956 -0.5298 -0.2050
  228MPD1    C1 3512   3.839   2.671  12.748 -0.5952 -0.2942  0.9758
  228MPD1    C2 3513   3.725   2.595  12.732 -0.4945  0.4474  0.4027
  228MPD1    C3 3514   3.645   2.561  12.850  0.4534 -0.1615 -0.1163
  228MPD1    C4 3515   3.684   2.604  12.976 -0.4827 -0.0849  0.3709
  228MPD1    C5 3516   3.791   2.684  12.980 -0.3049 -0.7277 -0.1900
  228MPD1     H 3517   3.701   2.547  12.638 -0.3404  2.6286 -0.7639
  228MPD1    H1 3518   3.621   2.585  13.062  1.4447 -0.7048  1.6239
  228MPD1    H2 3519   3.953   2.782  12.892 -1.7023  1.4175  0.8585
  228MPD1    H3 3520   3.807   2.728  13.077  1.3220 -0.9445 -0.3524
  228MPD1     N 3521   3.531   2.478  12.827  0.1637 -0.1031 -0.0845
  228MPD1    H5 3522   3.502   2.442  12.737 -1.1826  0.8843 -0.0527
  228MPD1    N1 3523   3.924   2.698  12.640 -0.4915 -0.5822  0.3506
  228MPD1    H6 3524   3.931   2.623  12.571  0.3616 -1.6296  1.5711
  228MPD1    H7 3525   4.016   2.727  12.672 -0.7213  0.1652  0.3387
  229MPD1     C 3526   3.074   1.890  14.107 -0.8822 -0.6141 -0.0792
  229MPD1    C1 3527   3.071   1.756  14.100 -0.0730 -0.0400  0.1223
  229MPD1    C2 3528   3.131   1.681  14.203  0.2248  0.3289 -0.0296
  229MPD1    C3 3529   3.175   1.753  14.315 -0.5073  0.1628 -0.3450
  229MPD1    C4 3530   3.162   1.889  14.328  0.3809 -0.6375  0.0157
  229MPD1    C5 3531   3.117   1.952  14.222 -0.1202  0.3986 -0.9582
  229MPD1     H 3532   3.146   1.574  14.196  2.0785  0.4795  1.7873
  229MPD1    H1 3533   3.179   1.940  14.422  0.0529 -0.1184 -0.2063
  229MPD1    H2 3534   3.032   1.950  14.028  0.3674  0.1539 -0.1694
  229MPD1    H3 3535   3.106   2.060  14.234 -2.0887 -0.1239  2.0595
  229MPD1     N 3536   3.234   1.683  14.431 -0.0170  0.5371  0.7807
  229MPD1    H5 3537   3.263   1.739  14.510  0.3454 -0.0266  1.0506
  229MPD1    N1 3538   3.036   1.706  13.974 -0.1227  0.3823 -0.1710
  229MPD1    H6 3539   3.024   1.605  13.979 -2.1892  0.6892  1.1438
  229MPD1    H7 3540   2.954   1.757  13.943  0.1745  0.9756  0.0126
  230MPD1     C 3541   3.502   1.600  15.393  0.3992  0.9926 -0.5776
  230MPD1    C1 3542   3.591   1.510  15.328  0.0168 -0.4308 -0.7102
  230MPD1    C2 3543   3.578   1.499  15.186 -0.0186 -0.1180 -0.2448
  230MPD1    C3 3544   3.479   1.566  15.114 -0.2808  0.4596  0.7366
  230MPD1    C4 3545   3.399   1.648  15.183 -0.5331 -0.0265 -0.3340
  230MPD1    C5 3546   3.406   1.662  15.317 -0.0639  0.1657 -0.3972
  230MPD1     H 3547   3.649   1.436  15.135  1.1538 -0.0000  1.2219
  230MPD1    H1 3548   3.318   1.701  15.135 -0.7762 -0.0225  0.0792
  230MPD1    H2 3549   3.515   1.625  15.498  0.3439  0.4399 -0.4405
  230MPD1    H3 3550   3.333   1.730  15.361  1.2101  0.8243  0.7062
  230MPD1     N 3551   3.464   1.533  14.975  0.1393  0.3404 -0.0710
  230MPD1    H5 3552   3.532   1.468  14.937  1.7386  1.5502  0.7088
  230MPD1    N1 3553   3.692   1.446  15.400  0.0610 -0.8497 -0.0757
  230MPD1    H6 3554   3.716   1.361  15.350 -1.2074 -0.4265 -1.3966
  230MPD1    H7 3555   3.668   1.417  15.495 -1.2100 -2.9931 -1.0334
  231MPD1     C 3556   2.360   3.257  15.982  0.1541 -0.3384 -0.1233
  231MPD1    C1 3557   2.337   3.180  15.870  0.1188  0.1827 -0.0351
  231MPD1    C2 3558   2.275   3.241  15.760  0.0295  0.3380  0.1118
  231MPD1    C3 3559   2.200   3.357  15.779  0.0130 -0.2943 -0.1842
  231MPD1    C4 3560   2.218   3.430  15.893 -0.1201  0.0722 -0.3153
  231MPD1    C5 3561   2.296   3.381  15.994  0.1551 -0.1876  0.5464
  231MPD1     H 3562   2.271   3.184  15.668  0.1135 -2.7636  2.0514
  231MPD1    H1 3563   2.174   3.526  15.917 -0.8552 -0.3665  0.0939
  231MPD1    H2 3564   2.419   3.221  16.066 -0.3480  0.3470  0.5210
  231MPD1    H3 3565   2.304   3.450  16.077 -1.6596  2.6474 -1.6493
  231MPD1     N 3566   2.134   3.426  15.668  0.3003  0.5698 -0.6475
  231MPD1    H5 3567   2.104   3.521  15.689 -0.0312  0.8067 -2.1867
  231MPD1    N1 3568   2.424   3.071  15.840  0.4924 -0.3472  0.1865
  231MPD1    H6 3569   2.394   3.013  15.762 -0.9017  0.3038  0.2339
  231MPD1    H7 3570   2.428   3.014  15.925 -0.0423  0.2103  0.5870
  232MPD1     C 3571   3.156   1.107   0.087 -0.1423 -0.2302  0.1714
  232MPD1    C1 3572   3.055   1.179   0.150 -0.2761 -0.8507  0.1136
  232MPD1    C2 3573   2.989   1.122   0.258  0.8560  0.2313 -0.0041
  232MPD1    C3 3574   3.009   0.992   0.295 -0.1568  0.6445 -0.1881
  232MPD1    C4 3575   3.105   0.921   0.231  0.9774  0.3002  0.3054
  232MPD1    C5 3576   3.181   0.982   0.131  0.1094 -0.4012 -0.0351
  232MPD1     H 3577   2.914   1.181   0.310  0.8315  1.0375 -0.9488
  232MPD1    H1 3578   3.144   0.827   0.267  1.1225  0.2164 -0.0669
  232MPD1    H2 3579   3.215   1.144   0.004 -1.0333  1.3263  0.2468
  232MPD1    H3 3580   3.271   0.933   0.098 -0.7005 -0.6187 -1.9407
  232MPD1     N 3581   2.936   0.931   0.404 -0.2792 -1.0439 -0.3966
  232MPD1    H5 3582   2.859   0.986   0.441  2.2243  2.3470 -0.1996
  232MPD1    N1 3583   3.050   1.314   0.115  0.3086  0.3274 -0.0144
  232MPD1    H6 3584   2.972   1.361   0.161 -1.0657 -1.1246 -0.8758
  232MPD1    H7 3585   3.050   1.337   0.016 -0.8517 -1.6111 -0.4539
  233MPD1     C 3586   3.511   4.684   0.347  0.2863  0.1815  0.5384
  233MPD1    C1 3587   3.521   4.574   0.269  0.2297 -0.6523 -0.1252
  233MPD1    C2 3588   3.556   4.447   0.321 -0.2032  0.3531  0.3200
  233MPD1    C3 3589   3.554   4.421   0.456 -0.1352 -0.5423  0.3207
  233MPD1    C4 3590   3.536   4.534   0.542 -0.0882  0.2807 -0.0155
  233MPD1    C5 3591   3.517   4.662   0.484 -0.4127 -0.0693 -0.3975
  233MPD1     H 3592   3.582   4.363   0.258 -2.2684  0.7955 -1.1152
  233MPD1    H1 3593   3.543   4.520   0.649  1.5533 -0.5575 -0.2379
  233MPD1    H2 3594   3.512   0.049   0.314 -1.2598 -0.1876 -0.6859
  233MPD1    H3 3595   3.499   0.009   0.548 -3.4987 -1.0750  0.0961
  233MPD1     N 3596   3.575   4.291   0.514 -0.8377  0.3233  0.4519
  233MPD1    H5 3597   3.583   4.286   0.615 -1.5605  1.9562  0.5884
  233MPD1    N1 3598   3.513   4.593   0.130  0.2802  0.0639 -0.3224
  233MPD1    H6 3599   3.474   4.511   0.085 -3.3322  1.8186 -0.3840
  233MPD1    H7 3600   3.450   4.671   0.111 -1.2126 -1.0859 -0.0988
  234MPD1     C 3601   0.886   2.476   9.461 -0.0475  0.0617  0.0306
  234MPD1    C1 3602   0.831   2.551   9.559 -0.4505  0.8396 -0.3961
  234MPD1    C2 3603   0.784   2.678   9.531  0.3101 -0.2653  0.5562
  234MPD1    C3 3604   0.794   2.735   9.409 -0.4627 -0.0412  0.9702
  234MPD1    C4 3605   0.856   2.656   9.312 -1.0955  0.1880  0.0651
  234MPD1    C5 3606   0.896   2.525   9.338  0.1962 -0.4938  0.3610
  234MPD1     H 3607   0.738   2.732   9.613  1.1044  2.8345 -1.0651
  234MPD1    H1 3608   0.869   2.702   9.215 -0.2250 -0.0285  0.0769
  234MPD1    H2 3609   0.920   2.378   9.492  0.4793 -0.0536 -0.9224
  234MPD1    H3 3610   0.947   2.471   9.259 -0.1304  0.3230 -0.4133
  234MPD1     N 3611   0.750   2.867   9.390  0.3719 -0.1304 -0.0601
  234MPD1    H5 3612   0.714   2.915   9.472  0.3668 -1.0607  0.4792
  234MPD1    N1 3613   0.842   2.511   9.692  0.4718  0.1144 -0.5016
  234MPD1    H6 3614   0.811   2.414   9.690 -0.6195  0.4309  1.6008
  234MPD1    H7 3615   0.774   2.568   9.741  2.2773  2.1446 -0.3214
  235MPD1     C 3616   1.972   0.718  10.237 -0.3323  0.4686  0.1895
  235MPD1    C1 3617   2.011   0.691  10.108  0.0566  0.1325  0.3385
  235MPD1    C2 3618   2.140   0.648  10.081  0.1694  0.0896 -0.2080
  235MPD1    C3 3619   2.237   0.663  10.179  0.2868 -0.1698 -0.3753
  235MPD1    C4 3620   2.192   0.696  10.300  0.5404  0.2309 -0.1615
  235MPD1    C5 3621   2.061   0.711  10.335  0.3741 -0.2059 -0.2995
  235MPD1     H 3622   2.169   0.626   9.979 -1.8870 -0.7394 -0.6265
  235MPD1    H1 3623   2.261   0.720  10.379 -0.6416  0.7992  0.7047
  235MPD1    H2 3624   1.868   0.722  10.269 -0.2347 -2.0901  0.8132
  235MPD1    H3 3625   2.026   0.737  10.434  0.1102 -0.2967 -0.3693
  235MPD1     N 3626   2.374   0.631  10.156 -0.2780 -0.1877  0.2911
  235MPD1    H5 3627   2.402   0.587  10.069  0.9030 -0.3106  0.7311
  235MPD1    N1 3628   1.916   0.661  10.015  0.1073 -0.9840  0.2269
  235MPD1    H6 3629   1.960   0.682   9.925  0.8603 -1.5728  0.4600
  235MPD1    H7 3630   1.841   0.728  10.024  0.9031  0.2085 -1.9372
  236MPD1     C 3631   1.604   1.496   9.876 -0.2174  0.0944  0.0267
  236MPD1    C1 3632   1.581   1.423   9.991  0.0528  0.3679  0.7516
  236MPD1    C2 3633   1.690   1.361  10.056  0.0749 -0.0308 -0.4235
  236MPD1    C3 3634   1.822   1.388  10.012  0.1049 -0.1295  0.5108
  236MPD1    C4 3635   1.837   1.470   9.906 -0.3745 -0.2562 -1.2534
  236MPD1    C5 3636   1.727   1.512   9.839 -0.2656  0.4573 -1.4232
  236MPD1     H 3637   1.681   1.299  10.144  2.9685 -1.6134 -1.2721
  236MPD1    H1 3638   1.937   1.492   9.870 -0.3543 -0.5519 -1.3748
  236MPD1    H2 3639   1.519   1.534   9.821  0.5224 -1.2933 -2.0478
  236MPD1    H3 3640   1.745   1.563   9.745  0.4488  1.1729 -0.8952
  236MPD1     N 3641   1.936   1.334  10.077  0.3672  0.4716 -0.2378
  236MPD1    H5 3642   2.024   1.371  10.043 -0.0678  0.8175 -0.9970
  236MPD1    N1 3643   1.451   1.373  10.009 -0.7573 -0.1015  0.2320
  236MPD1    H6 3644   1.425   1.360  10.107  1.3464 -0.0223  0.8043
  236MPD1    H7 3645   1.377   1.424   9.962 -0.6556  0.9745  1.2443
  237MPD1     C 3646   2.445   0.007  15.163 -0.0124  0.0897 -0.3888
  237MPD1    C1 3647   2.460   4.633  15.239  0.6020  0.5970 -0.0779
  237MPD1    C2 3648   2.343   4.549  15.253 -0.3167  0.0569 -0.0764
  237MPD1    C3 3649   2.219   4.588  15.195 -0.1222  0.4321 -0.0969
  237MPD1    C4 3650   2.212   4.707  15.129  0.1807 -0.3258 -0.0697
  237MPD1    C5 3651   2.323   0.043  15.112 -0.8780  0.6189 -0.1874
  237MPD1     H 3652   2.356   4.453  15.302  2.8924  0.9704  0.8985
  237MPD1    H1 3653   2.126   0.018  15.084 -0.5931 -1.8715 -0.2329
  237MPD1    H2 3654   2.526   0.070  15.128 -0.1082  1.5816  2.0503
  237MPD1    H3 3655   2.319   0.138  15.061 -3.8001  0.7884  0.3137
  237MPD1     N 3656   2.100   4.519  15.214  0.7287  0.0160  0.0555
  237MPD1    H5 3657   2.019   4.550  15.161 -0.4868 -1.4767  1.0497
  237MPD1    N1 3658   2.582   4.571  15.246  0.3542 -0.5459  0.1201
  237MPD1    H6 3659   2.652   4.643  15.263 -1.4219  1.4952 -1.2031
  237MPD1    H7 3660   2.573   4.517  15.331  1.4134  1.1810  1.3151
  238MPD1     C 3661   3.894   2.665  14.947  0.3653  0.1103 -0.5631
  238MPD1    C1 3662   3.826   2.745  15.029 -0.8010 -0.3414  0.0428
  238MPD1    C2 3663   3.692   2.779  15.004 -0.5929  0.2643 -0.3062
  238MPD1    C3 3664   3.633   2.744  14.885 -0.0289  0.1496  0.1640
  238MPD1    C4 3665   3.705   2.667  14.804  0.7171 -0.2243 -0.8916
  238MPD1    C5 3666   3.829   2.623  14.834 -0.2447 -0.2855  0.5649
  238MPD1     H 3667   3.642   2.848  15.070 -0.3474  1.5601 -1.4725
  238MPD1    H1 3668   3.658   2.624  14.715 -2.0409  0.6705  0.1414
  238MPD1    H2 3669   3.990   2.618  14.965  0.4271  0.5587  0.2539
  238MPD1    H3 3670   3.872   2.551  14.767 -1.7425 -1.1640  0.5380
  238MPD1     N 3671   3.511   2.785  14.841 -0.3049  0.2162  0.2439
  238MPD1    H5 3672   3.472   2.748  14.755  1.5271 -0.8476 -0.1165
  238MPD1    N1 3673   3.879   2.774  15.154 -0.0558 -0.6965  0.0818
  238MPD1    H6 3674   3.855   2.865  15.193 -3.5898 -0.4720 -2.6189
  238MPD1    H7 3675   3.980   2.788  15.149 -0.1503 -0.3089 -0.7136
  239MPD1     C 3676   3.718   3.772  15.228  0.1090  0.0791  0.0961
  239MPD1    C1 3677   3.818   3.851  15.181  0.0111  0.3225 -0.3013
  239MPD1    C2 3678   3.781   3.944  15.093  0.4655 -0.1460  0.1953
  239MPD1    C3 3679   3.666   3.931  15.021 -0.3574 -0.4337  0.6194
  239MPD1    C4 3680   3.564   3.859  15.070 -0.0150 -0.0399 -0.3411
  239MPD1    C5 3681   3.589   3.778  15.175  0.3917  0.6053  0.0995
  239MPD1     H 3682   3.862   4.005  15.056 -0.0271 -0.5385 -1.5113
  239MPD1    H1 3683   3.468   3.851  15.019 -0.5561  1.4784  0.4348
  239MPD1    H2 3684   3.735   3.707  15.313  0.6132  1.8557  1.3379
  239MPD1    H3 3685   3.509   3.711  15.205  0.8253 -0.0487 -0.1874
  239MPD1     N 3686   3.636   4.009  14.911 -0.7051  0.5962 -0.1960
  239MPD1    H5 3687   3.549   4.002  14.858 -1.2664  0.1807  0.7748
  239MPD1    N1 3688   3.946   3.842  15.231 -0.5177 -0.2129  0.0026
  239MPD1    H6 3689   3.968   3.747  15.258  0.8987  0.3170  0.7147
  239MPD1    H7 3690   4.013   3.887  15.168  0.2077 -1.5896 -0.2116
  240MPD1     C 3691   2.989   4.342  13.863  0.6036 -0.0671  0.2002
  240MPD1    C1 3692   3.015   4.230  13.790 -0.2439 -0.5187 -0.1616
  240MPD1    C2 3693   2.989   4.109  13.854 -0.6252  0.7084 -0.1836
  240MPD1    C3 3694   2.914   4.109  13.974  0.3107  0.0041 -0.0488
  240MPD1    C4 3695   2.863   4.226  14.021 -0.8153  0.5201  0.2393
  240MPD1    C5 3696   2.904   4.344  13.963 -0.3851 -0.8276 -0.0088
  240MPD1     H 3697   3.015   4.011  13.816  0.7330  1.4466 -1.1405
  240MPD1    H1 3698   2.783   4.223  14.094 -1.0970 -0.3873 -0.1034
  240MPD1    H2 3699   3.026   4.440  13.835 -0.6099 -0.5169 -2.9605
  240MPD1    H3 3700   2.901   4.440  14.013  0.5970 -1.8428  1.9948
  240MPD1     N 3701   2.894   3.975  14.022 -0.4747  0.4646  0.5784
  240MPD1    H5 3702   2.947   3.898  13.983 -1.0860  0.8015 -0.9071
  240MPD1    N1 3703   3.105   4.237  13.684 -0.1899  0.4390 -0.2321
  240MPD1    H6 3704   3.082   4.328  13.646 -0.5297  0.9107  1.0979
  240MPD1    H7 3705   3.082   4.161  13.620  0.0535  1.7133 -1.8264
  241MPD1     C 3706   3.426   3.482  14.681 -0.3897  0.2266 -0.5853
  241MPD1    C1 3707   3.432   3.453  14.548  0.3583 -0.3930 -0.0258
  241MPD1    C2 3708   3.330   3.497  14.463  0.1752 -0.2024 -0.2575
  241MPD1    C3 3709   3.222   3.570  14.516 -0.3913 -0.7539 -0.1126
  241MPD1    C4 3710   3.213   3.591  14.650  0.3333 -0.8726 -0.1513
  241MPD1    C5 3711   3.321   3.552  14.730  0.2163  0.4673 -0.1011
  241MPD1     H 3712   3.337   3.488  14.355 -0.7660 -1.6569 -0.1900
  241MPD1    H1 3713   3.134   3.647  14.698  1.5263 -0.5617  1.4497
  241MPD1    H2 3714   3.495   3.451  14.759 -0.2331  0.8848 -0.4639
  241MPD1    H3 3715   3.314   3.582  14.834  2.2614 -2.6835  0.9292
  241MPD1     N 3716   3.111   3.619  14.432  0.6358 -0.4060  0.4407
  241MPD1    H5 3717   3.032   3.667  14.473 -0.8359 -1.9323 -0.6223
  241MPD1    N1 3718   3.554   3.407  14.496  0.8292 -0.3767 -0.8644
  241MPD1    H6 3719   3.540   3.353  14.411 -0.7515  1.4131 -1.7274
  241MPD1    H7 3720   3.572   3.336  14.567 -1.6869  0.9763  1.0874
  242MPD1     C 3721   2.302   1.461  15.822  0.1737  0.8384 -0.4205
  242MPD1    C1 3722   2.327   1.576  15.889  0.2605  0.2076 -1.1330
  242MPD1    C2 3723   2.396   1.681  15.829 -0.0269 -0.4139 -0.0476
  242MPD1    C3 3724   2.449   1.662  15.702 -1.2639 -0.0338  0.2615
  242MPD1    C4 3725   2.417   1.543  15.634 -0.8381  0.3479  0.0383
  242MPD1    C5 3726   2.350   1.442  15.694 -0.1742  0.4010 -0.0126
  242MPD1     H 3727   2.424   1.769  15.885  0.6374 -1.1550  0.7895
  242MPD1    H1 3728   2.460   1.517  15.538 -3.0449 -0.9615 -0.5959
  242MPD1    H2 3729   2.239   1.379  15.857  1.0118  0.5122  0.3205
  242MPD1    H3 3730   2.326   1.352  15.639 -2.1020  1.0862 -0.2949
  242MPD1     N 3731   2.514   1.769  15.638 -0.2539 -1.0511  0.3845
  242MPD1    H5 3732   2.518   1.854  15.693  1.4120  0.1670 -1.5922
  242MPD1    N1 3733   2.250   1.608  16.003 -0.4234 -0.2747  0.0226
  242MPD1    H6 3734   2.286   1.684  16.062  0.1729  0.1915 -0.9432
  242MPD1    H7 3735   2.258   1.531  16.068 -0.5748  0.3005  0.7253
  243MPD1     C 3736   3.641   0.544  17.437 -0.2334  0.4815 -0.1011
  243MPD1    C1 3737   3.758   0.486  17.467 -0.5367  0.1533 -0.0887
  243MPD1    C2 3738   3.836   0.427  17.368 -0.0983  0.4585 -0.1298
  243MPD1    C3 3739   3.789   0.413  17.243  0.1398  0.5773 -0.1342
  243MPD1    C4 3740   3.664   0.470  17.210  0.2266 -0.8853  0.1061
  243MPD1    C5 3741   3.586   0.529  17.310  0.5902 -0.4663  0.2377
  243MPD1     H 3742   3.933   0.381  17.380 -0.1051  0.7764  1.2515
  243MPD1    H1 3743   3.627   0.465  17.108  1.2847 -2.0257 -0.2319
  243MPD1    H2 3744   3.602   0.611  17.512 -0.3927  0.5185 -0.2172
  243MPD1    H3 3745   3.496   0.584  17.286  0.5666 -0.3550  0.5784
  243MPD1     N 3746   3.876   0.347  17.150  0.0850  0.3548 -0.6211
  243MPD1    H5 3747   3.960   0.316  17.197 -1.1921 -2.0284  0.0702
  243MPD1    N1 3748   3.812   0.511  17.596 -0.6089  0.2246 -1.0366
  243MPD1    H6 3749   3.885   0.444  17.621 -0.5602  0.9220  0.7104
  243MPD1    H7 3750   3.735   0.514  17.662 -0.5803  0.0983 -0.9977
  244MPD1     C 3751   4.698   4.563  17.028 -0.0507  0.1971 -0.2351
  244MPD1    C1 3752   4.673   4.587  16.896  0.4515  0.1737  0.0847
  244MPD1    C2 3753   4.564   4.665  16.864  0.2410  0.4740  0.2908
  244MPD1    C3 3754   4.485   4.721  16.966 -0.4268 -0.6496 -0.4521
  244MPD1    C4 3755   4.513   4.689  17.092  0.2137 -0.5694 -0.5345
  244MPD1    C5 3756   4.616   4.613  17.121  1.3160  0.8255  0.2443
  244MPD1     H 3757   4.527   4.671  16.762  0.7873 -0.0894  0.0625
  244MPD1    H1 3758   4.457   4.724  17.178  1.0148 -1.9112  0.5335
  244MPD1    H2 3759   0.049   4.505  17.047 -0.3843 -0.1885  0.1317
  244MPD1    H3 3760   4.648   4.587  17.221  1.1349 -1.1582 -0.2109
  244MPD1     N 3761   4.377   0.065  16.932 -0.6805 -0.7529  0.2577
  244MPD1    H5 3762   4.355   0.069  16.833  2.1707 -2.4473 -0.4686
  244MPD1    N1 3763   0.008   4.525  16.794 -0.0947 -0.6333  0.3403
  244MPD1    H6 3764   0.022   4.579  16.709  0.1152 -1.0662  0.1013
  244MPD1    H7 3765   0.099   4.494  16.828 -0.1871  0.4206  1.5574
  245MPD1     C 3766   1.972   0.523  13.547  0.1247  0.0148 -0.0308
  245MPD1    C1 3767   2.016   0.595  13.654 -0.2175  0.5224  0.2584
  245MPD1    C2 3768   2.014   0.738  13.629  0.6340 -0.2949 -0.1357
  245MPD1    C3 3769   1.975   0.795  13.508  0.0031  0.4446  0.1269
  245MPD1    C4 3770   1.931   0.716  13.407 -0.0543 -0.1037  0.7130
  245MPD1    C5 3771   1.923   0.581  13.434  0.5480 -0.1163  0.3707
  245MPD1     H 3772   2.043   0.810  13.705  0.3045 -1.1027  0.7577
  245MPD1    H1 3773   1.910   0.756  13.309 -2.3501  0.7868  1.5736
  245MPD1    H2 3774   1.958   0.417  13.562 -1.0785 -0.0942 -1.9832
  245MPD1    H3 3775   1.877   0.516  13.361 -0.1696 -0.2186  0.9074
  245MPD1     N 3776   1.983   0.931  13.488 -0.0223 -0.0778 -0.1733
  245MPD1    H5 3777   2.030   0.991  13.555 -0.5532  0.0508  0.0846
  245MPD1    N1 3778   2.023   0.543  13.784  0.7059 -0.8627  0.9517
  245MPD1    H6 3779   2.047   0.445  13.793 -1.0053 -1.3559  0.2555
  245MPD1    H7 3780   2.072   0.596  13.855  0.4783  0.2655  0.2603
  246MPD1     C 3781   3.860   3.190  10.078 -0.4330  0.6141  0.5925
  246MPD1    C1 3782   3.723   3.188  10.109  0.0425 -1.0443 -0.8653
  246MPD1    C2 3783   3.654   3.095  10.034  0.4383 -0.1405  0.4191
  246MPD1    C3 3784   3.718   3.001   9.953  0.5405  0.4631  0.4571
  246MPD1    C4 3785   3.852   3.002   9.924 -0.2215  0.0033 -0.8529
  246MPD1    C5 3786   3.920   3.104   9.984 -0.6640  0.6420  0.0412
  246MPD1     H 3787   3.546   3.102  10.043  0.6277  2.2862  0.7482
  246MPD1    H1 3788   3.913   2.932   9.868 -0.3225  1.5552 -2.9283
  246MPD1    H2 3789   3.929   3.258  10.125 -0.8174  1.8052 -0.5699
  246MPD1    H3 3790   4.027   3.094   9.996 -0.5659  1.5216 -0.1085
  246MPD1     N 3791   3.632   2.903   9.894  0.4692  0.2972  0.4981
  246MPD1    H5 3792   3.532   2.917   9.899  0.1308 -1.8445 -0.2462
  246MPD1    N1 3793   3.669   3.293  10.187  0.1222  0.2951 -0.1774
  246MPD1    H6 3794   3.586   3.275  10.244  0.5547  1.0175  0.6766
  246MPD1    H7 3795   3.741   3.338  10.242 -1.1536  2.2104 -0.0366
  247MPD1     C 3796   1.055   1.145  16.820 -0.1820 -0.2625  0.8170
  247MPD1    C1 3797   1.146   1.187  16.727  0.3559 -0.0481  0.3275
  247MPD1    C2 3798   1.125   1.151  16.594  0.0078  0.8143  0.8042
  247MPD1    C3 3799   1.030   1.057  16.566  0.0945  0.0172  0.0442
  247MPD1    C4 3800   0.957   0.990  16.665  0.3363  0.4606  0.1545
  247MPD1    C5 3801   0.961   1.044  16.789  0.6529  0.3447  0.5145
  247MPD1     H 3802   1.199   1.188  16.524 -1.7040 -1.7697 -2.3691
  247MPD1    H1 3803   0.893   0.906  16.642  1.2261 -0.4103  0.8737
  247MPD1    H2 3804   1.060   1.184  16.921  0.3381  1.8982 -0.0358
  247MPD1    H3 3805   0.893   1.008  16.866 -1.3453  1.1098 -0.8990
  247MPD1     N 3806   1.008   1.016  16.433 -0.1679  0.0560 -0.6354
  247MPD1    H5 3807   0.941   0.940  16.428  1.5755 -1.6817  2.8709
  247MPD1    N1 3808   1.247   1.289  16.752 -0.5980  0.6223  0.3048
  247MPD1    H6 3809   1.289   1.299  16.844  0.5866 -1.4089 -0.0283
  247MPD1    H7 3810   1.322   1.288  16.683 -0.1873  0.7137  0.7539
  248MPD1     C 3811   2.096   1.974   0.591  0.5609 -0.6768 -0.1900
  248MPD1    C1 3812   1.969   1.948   0.640 -0.4745  0.5245  0.7931
  248MPD1    C2 3813   1.881   1.868   0.573  0.3373 -0.1459  0.5462
  248MPD1    C3 3814   1.912   1.801   0.456  0.6089 -0.0254 -0.1486
  248MPD1    C4 3815   2.037   1.812   0.416  0.5818 -0.1569  0.0417
  248MPD1    C5 3816   2.133   1.898   0.475  0.5134  0.3917  0.0667
  248MPD1     H 3817   1.782   1.855   0.616 -0.0572  0.2527 -0.2360
  248MPD1    H1 3818   2.073   1.751   0.334 -0.4405  1.2822 -1.4865
  248MPD1    H2 3819   2.169   2.047   0.625  1.6127 -2.0329  0.4736
  248MPD1    H3 3820   2.224   1.919   0.421  0.4743 -1.3049 -0.6598
  248MPD1     N 3821   1.810   1.726   0.383  0.0041  0.4180 -0.3178
  248MPD1    H5 3822   1.721   1.713   0.430  0.2024  0.6995  0.1299
  248MPD1    N1 3823   1.925   2.021   0.752  0.3448 -0.0238  0.1478
  248MPD1    H6 3824   1.843   1.985   0.799  0.0634  0.4499  0.0217
  248MPD1    H7 3825   1.986   2.074   0.814  1.0229  0.8478 -1.2584
  249MPD1     C 3826   2.218   3.747  10.350 -0.6182  0.0190  0.5682
  249MPD1    C1 3827   2.334   3.694  10.400 -0.5812 -0.4377  0.0967
  249MPD1    C2 3828   2.430   3.782  10.441  0.1309 -0.2516 -0.5638
  249MPD1    C3 3829   2.415   3.918  10.406  0.0697  0.5830 -0.5675
  249MPD1    C4 3830   2.308   3.966  10.337 -0.6784  0.4219  0.4242
  249MPD1    C5 3831   2.209   3.870  10.308  0.4163 -0.4673  0.2806
  249MPD1     H 3832   2.526   3.748  10.478  0.4334  0.4474 -0.6999
  249MPD1    H1 3833   2.295   4.071  10.316 -0.2039  0.5585  0.8031
  249MPD1    H2 3834   2.135   3.688  10.314 -1.7161 -0.1482  3.3833
  249MPD1    H3 3835   2.113   3.891  10.262  1.7473  2.5297 -1.1264
  249MPD1     N 3836   2.516   4.003  10.461 -0.2708 -0.1472 -0.2248
  249MPD1    H5 3837   2.579   3.947  10.517  0.0336  0.3467 -0.0764
  249MPD1    N1 3838   2.348   3.558  10.426 -0.1077  0.0752 -0.0917
  249MPD1    H6 3839   2.446   3.529  10.420  0.1058  0.7397  0.1869
  249MPD1    H7 3840   2.307   3.505  10.349  0.6323 -3.2150  1.7922
  250MPD2     C 3841   0.060   4.470  13.541  0.7667 -0.0846  0.7210
  250MPD2    C1 3842   4.707   4.571  13.523 -0.2265  0.1323 -0.3207
  250MPD2    C2 3843   4.576   4.548  13.560  0.4058  0.3329  0.3527
  250MPD2    C3 3844   4.533   4.417  13.597 -0.6106 -0.1262  0.0700
  250MPD2    C4 3845   4.629   4.319  13.614  0.6257  0.0827 -0.0973
  250MPD2    C5 3846   0.020   4.345  13.586 -0.0059  0.8815 -0.3586
  250MPD2     H 3847   4.501   4.627  13.565  1.7283  1.6405 -0.5386
  250MPD2    H1 3848   4.608   4.219  13.648 -0.2524  0.6238  0.9610
  250MPD2    H2 3849   0.166   4.482  13.522  1.0664 -2.6207  0.8941
  250MPD2    H3 3850   0.087   4.260  13.598  0.2410  1.1362  0.0432
  250MPD2     N 3851   4.405   4.374  13.631  0.6054 -0.2861  0.2315
  250MPD2    H5 3852   4.397   4.274  13.646  1.9198 -0.5621 -0.9413
  250MPD2    N1 3853   0.032   4.693  13.480  0.2597 -0.6690  0.3794
  250MPD2    H7 3854   0.132   4.695  13.462  0.1773  1.1593  0.1327
  251TMC3    C1 3855   0.061   0.178  13.425  0.0270  0.3309 -0.5123
  251TMC3    C2 3856   0.019   0.305  13.412 -0.2514 -0.6087 -0.0764
  251TMC3    C3 3857   0.105   0.410  13.418 -0.0750  0.2594 -0.3049
  251TMC3    C4 3858   0.197   0.149  13.422  0.0868 -0.2024  0.0543
  251TMC3    C5 3859   0.284   0.260  13.426 -0.1436  0.2610  0.2027
  251TMC3    C6 3860   0.241   0.392  13.426 -0.2140 -0.0247 -0.3279
  251TMC3     C 3861   4.705   0.069  13.451  0.3678 -0.5038 -0.1943
  251TMC3     O 3862   4.583   0.090  13.455 -0.2243  0.0127  0.2228
  251TMC3     H 3863   4.654   0.328  13.384  0.5257 -0.2119 -2.6402
  251TMC3    H1 3864   0.236   0.049  13.412  1.5549  0.2965  0.8390
  251TMC3    H2 3865   0.306   0.477  13.442 -1.2570  0.6888  0.1673
  251TMC3    C7 3866   0.427   0.224  13.427  0.0622 -0.1838 -0.6478
  251TMC3    C8 3867   0.048   0.524  13.356  0.0885 -0.2562 -0.1337
  251TMC3    O1 3868   0.453   0.111  13.459  0.5128  0.0652  0.2225
  251TMC3    O2 3869   4.666   0.541  13.374  0.0002  0.0732  0.3167
  252TMC3    C1 3870   0.288   1.756   9.532 -0.0582 -0.2212 -0.1230
  252TMC3    C2 3871   0.413   1.714   9.575 -0.6698 -0.4191  0.2238
  252TMC3    C3 3872   0.429   1.580   9.601  0.0111  0.1544 -0.6156
  252TMC3    C4 3873   0.180   1.670   9.523 -0.4374  0.0471 -0.3473
  252TMC3    C5 3874   0.204   1.539   9.548 -0.1072 -0.6777  0.4852
  252TMC3    C6 3875   0.327   1.493   9.578  0.0364 -0.5366  0.2955
  252TMC3     C 3876   0.264   1.893   9.514 -0.2410  0.0131 -0.0906
  252TMC3     O 3877   0.337   1.974   9.577 -0.8976  0.1274 -0.3071
  252TMC3     H 3878   0.493   1.787   9.572  1.0662 -2.2999  1.4085
  252TMC3    H1 3879   0.078   1.702   9.511 -0.9729 -1.3841  0.4025
  252TMC3    H2 3880   0.352   1.388   9.585  1.7387  0.0571  3.0517
  252TMC3    C7 3881   0.095   1.447   9.546 -0.0907  1.0727  0.8286
  252TMC3    C8 3882   0.545   1.531   9.673  0.4594  0.2619 -0.0268
  252TMC3    O1 3883   0.001   1.472   9.473  0.3643  0.1360 -0.0260
  252TMC3    O2 3884   0.544   1.418   9.718 -0.3169  0.2241 -0.4312
  253MPD2     C 3885   1.151   4.433  15.314  0.1037 -0.1522 -0.2019
  253MPD2    C1 3886   1.012   4.405  15.323 -0.3592  0.5674 -0.2058
  253MPD2    C2 3887   0.948   4.446  15.436  0.2910 -0.1274  0.3269
  253MPD2    C3 3888   1.014   4.506  15.541 -0.2109  0.2430  0.3531
  253MPD2    C4 3889   1.155   4.526  15.535 -0.4637 -0.6705  0.3006
  253MPD2    C5 3890   1.224   4.483  15.415 -0.0812 -0.2485 -0.3981
  253MPD2     H 3891   0.845   4.414  15.452  0.2112  0.3338  0.7644
  253MPD2    H1 3892   1.208   4.581  15.612 -1.3439  0.1535  0.3273
  253MPD2    H2 3893   1.204   4.405  15.225 -0.1520  3.2514 -1.4380
  253MPD2    H3 3894   1.332   4.496  15.412 -0.0567 -0.5095 -0.6746
  253MPD2     N 3895   0.943   4.546  15.663  0.3665  0.5211  0.6652
  253MPD2    H5 3896   1.004   4.589  15.731 -0.4728  1.1794  0.9943
  253MPD2    N1 3897   0.942   4.342  15.219  0.3714 -0.0200  0.2136
  253MPD2    H7 3898   0.844   4.324  15.234  0.3247  0.5123  0.5512
  254TMC3    C1 3899   0.771   4.567  15.820 -0.3107  0.2980 -0.5218
  254TMC3    C2 3900   0.644   4.606  15.858 -0.2654  0.1269 -1.0828
  254TMC3    C3 3901   0.606   4.589  15.994  0.3394  0.5171  0.0374
  254TMC3    C4 3902   0.857   4.535  15.918  0.2063 -0.2793 -0.4218
  254TMC3    C5 3903   0.821   4.531  16.051 -0.2474  0.4187 -0.1238
  254TMC3    C6 3904   0.697   4.561  16.093 -0.6219 -0.0865 -0.6325
  254TMC3     C 3905   0.809   4.554  15.679  0.1562 -0.1770 -0.1441
  254TMC3     O 3906   0.726   4.559  15.589  0.0373 -0.3982 -0.4050
  254TMC3     H 3907   0.572   4.619  15.778  1.9740  1.7944 -2.8225
  254TMC3    H1 3908   0.940   4.473  15.887 -0.0590 -1.6386  1.6086
  254TMC3    H2 3909   0.666   4.537  16.194 -0.1790 -0.2287 -0.5298
  254TMC3    C7 3910   0.923   4.491  16.140 -0.3345  0.0668 -0.4658
  254TMC3    C8 3911   0.521   4.704  16.038  0.0012  0.4142 -0.4320
  254TMC3    O1 3912   0.885   4.452  16.246  0.5168 -0.1106 -0.3398
  254TMC3    O2 3913   0.502   4.717  16.163  0.4294  0.1983  0.0556
  255MPD2     C 3914   4.040   2.243  11.237 -0.1968 -0.3330  0.4064
  255MPD2    C1 3915   4.122   2.351  11.237 -0.1356  0.0545 -0.3914
  255MPD2    C2 3916   4.258   2.327  11.196  0.1950  0.5599 -0.1047
  255MPD2    C3 3917   4.306   2.203  11.167 -0.9530  0.3930 -0.0923
  255MPD2    C4 3918   4.222   2.092  11.184  0.2273  0.4664 -0.5062
  255MPD2    C5 3919   4.093   2.117  11.206  0.1482 -0.1780  0.8500
  255MPD2     H 3920   4.323   2.414  11.188 -0.6318  1.1676 -0.3595
  255MPD2    H1 3921   4.256   1.992  11.158 -1.1561 -0.0389 -0.3433
  255MPD2    H2 3922   3.939   2.254  11.275 -0.3621  0.8551 -0.4006
  255MPD2    H3 3923   4.030   2.029  11.204  1.2209 -0.9168 -0.6731
  255MPD2     N 3924   4.442   2.185  11.121 -0.4910 -0.3950  0.0440
  255MPD2    H5 3925   4.491   2.272  11.103  0.8151 -0.7760  1.7829
  255MPD2    N1 3926   4.074   2.486  11.277 -0.4032 -0.0713  0.2621
  255MPD2    H7 3927   4.142   2.561  11.277 -2.2742  1.6244 -4.5073
  256TMC3    C1 3928   3.921   2.664  11.310  0.1314 -1.1539 -0.0065
  256TMC3    C2 3929   4.036   2.740  11.325 -0.1412 -0.2744  0.6273
  256TMC3    C3 3930   4.045   2.864  11.268  0.6689  0.0634 -0.3225
  256TMC3    C4 3931   3.811   2.711  11.240 -0.1769  0.2297 -0.9895
  256TMC3    C5 3932   3.826   2.842  11.198  0.0410 -0.5643  0.0568
  256TMC3    C6 3933   3.939   2.922  11.208 -0.0396 -0.0978  0.6009
  256TMC3     C 3934   3.941   2.522  11.298 -0.3446  0.2032 -0.3418
  256TMC3     O 3935   3.844   2.448  11.293  0.6354 -0.6268 -0.0301
  256TMC3     H 3936   4.129   2.704  11.366 -0.0513 -1.4789 -0.6234
  256TMC3    H1 3937   3.720   2.654  11.233  1.1256 -1.5271 -3.4625
  256TMC3    H2 3938   3.949   3.023  11.170  0.6628 -0.2273  0.4412
  256TMC3    C7 3939   3.737   2.866  11.081 -0.6025 -0.3302 -0.0255
  256TMC3    C8 3940   4.163   2.881  11.200 -0.7627 -0.0851  0.1090
  256TMC3    O1 3941   3.661   2.776  11.050  0.2700  1.0940 -0.0655
  256TMC3    O2 3942   4.237   2.785  11.191  0.0740 -0.2535 -0.0541
  257MPD2     C 3943   3.495   4.718  13.580 -0.4685 -0.0395 -0.0112
  257MPD2    C1 3944   3.402   4.626  13.527  0.0470  0.8141 -0.1600
  257MPD2    C2 3945   3.358   4.525  13.609  0.1564  0.4276 -0.7812
  257MPD2    C3 3946   3.416   4.496  13.730  0.2809 -0.2870 -0.2031
  257MPD2    C4 3947   3.519   4.572  13.778 -0.3942  0.2986  0.0504
  257MPD2    C5 3948   3.551   4.686  13.700  0.0222  0.0199 -0.2245
  257MPD2     H 3949   3.285   4.452  13.574 -1.0014  0.7016  1.0550
  257MPD2    H1 3950   3.559   4.559  13.878  0.3513  0.1899 -0.2590
  257MPD2    H2 3951   3.523   0.068  13.523 -0.3114  0.1136  0.2970
  257MPD2    H3 3952   3.637   0.007  13.728 -0.8478  1.3240 -0.2915
  257MPD2     N 3953   3.362   4.379  13.794  0.0821 -0.2307  0.2797
  257MPD2    H5 3954   3.296   4.322  13.742  0.5678 -0.8606  0.3533
  257MPD2    N1 3955   3.354   4.648  13.394  0.1551  0.5084 -0.2253
  257MPD2    H7 3956   3.378   4.732  13.343 -1.4960  0.5849 -0.8636
  258TMC3    C1 3957   3.323   4.222  13.977  0.4281  0.2029 -0.4478
  258TMC3    C2 3958   3.325   4.122  13.883  0.4498 -0.8017 -1.3245
  258TMC3    C3 3959   3.310   3.989  13.923  0.8574 -0.3579 -0.6781
  258TMC3    C4 3960   3.305   4.188  14.109 -0.0365 -1.0323  0.1918
  258TMC3    C5 3961   3.283   4.054  14.141 -0.4838 -0.3466 -1.2370
  258TMC3    C6 3962   3.288   3.955  14.052  0.6850 -0.1476  0.2280
  258TMC3     C 3963   3.382   4.351  13.934 -0.3558  0.3356  0.0092
  258TMC3     O 3964   3.432   4.430  14.017 -0.3455  0.7759  0.3094
  258TMC3     H 3965   3.324   4.150  13.778 -2.2386 -3.3060 -1.9739
  258TMC3    H1 3966   3.283   4.262  14.185 -0.6655 -1.5806  0.5527
  258TMC3    H2 3967   3.256   3.855  14.082 -2.7740  0.4666 -1.3168
  258TMC3    C7 3968   3.316   4.026  14.281 -0.8540  0.7105 -0.8788
  258TMC3    C8 3969   3.302   3.890  13.810 -0.2158  1.0244 -0.5145
  258TMC3    O1 3970   3.265   4.104  14.358  0.1206 -0.7329 -0.5140
  258TMC3    O2 3971   3.301   3.932  13.695  0.6663 -0.2809  0.0935
  259MPD2     C 3972   1.771   1.915   1.602 -0.2582 -0.4211  0.2348
  259MPD2    C1 3973   1.719   1.823   1.524 -0.4543 -0.3000 -0.6845
  259MPD2    C2 3974   1.792   1.723   1.468 -0.4478 -0.4414 -0.9851
  259MPD2    C3 3975   1.932   1.724   1.480 -0.1635  0.2572 -0.3736
  259MPD2    C4 3976   1.985   1.827   1.551  0.1561  0.0323 -0.6171
  259MPD2    C5 3977   1.908   1.922   1.608 -0.1911  0.6812 -0.2903
  259MPD2     H 3978   1.743   1.641   1.418  0.8737 -2.2326  0.6953
  259MPD2    H1 3979   2.091   1.851   1.559  0.1093 -0.0689  0.3371
  259MPD2    H2 3980   1.716   1.995   1.649  0.9551  0.4126  0.2351
  259MPD2    H3 3981   1.951   2.001   1.668 -1.1587  1.9615 -1.2751
  259MPD2     N 3982   2.005   1.636   1.401 -0.2535  0.2030 -0.0202
  259MPD2    H5 3983   1.953   1.569   1.345 -2.7177  1.5795  0.6065
  259MPD2    N1 3984   1.577   1.828   1.516 -0.5122 -0.4845  0.1998
  259MPD2    H7 3985   1.528   1.904   1.562  2.2330  1.5995 -0.3531
  260TMC3    C1 3986   2.208   1.531   1.327  0.1060 -0.8503  0.3944
  260TMC3    C2 3987   2.340   1.492   1.349  0.1342 -0.1061  0.1893
  260TMC3    C3 3988   2.410   1.430   1.253  0.0269  0.0701  0.2090
  260TMC3    C4 3989   2.149   1.511   1.204 -0.3388 -0.9693  0.3688
  260TMC3    C5 3990   2.225   1.442   1.111 -0.5080  0.6884  0.1919
  260TMC3    C6 3991   2.359   1.409   1.134 -0.1924 -0.2279 -0.0060
  260TMC3     C 3992   2.145   1.625   1.414 -0.2087 -0.0097  0.7254
  260TMC3     O 3993   2.209   1.679   1.499  0.2409 -0.1736  0.8000
  260TMC3     H 3994   2.371   1.511   1.451  2.0948 -0.4857 -0.3291
  260TMC3    H1 3995   2.059   1.555   1.162  0.7833  1.7632  0.8688
  260TMC3    H2 3996   2.406   1.346   1.060 -0.7993 -1.3957  0.6067
  260TMC3    C7 3997   2.160   1.358   1.001  0.5569 -0.5547 -1.0790
  260TMC3    C8 3998   2.541   1.381   1.296 -0.0974 -0.5866  0.7022
  260TMC3    O1 3999   2.228   1.288   0.929  0.1926 -0.2029 -0.3251
  260TMC3    O2 4000   2.579   1.406   1.408 -0.2209  0.1333  0.4267
  261MPD2     C 4001   3.828   4.091  13.232  0.4016  0.0587 -0.5544
  261MPD2    C1 4002   3.914   4.196  13.250  0.1373  0.0459  0.7250
  261MPD2    C2 4003   3.948   4.280  13.140 -0.4272 -0.0403  0.4151
  261MPD2    C3 4004   3.889   4.267  13.016  0.4897 -0.0402 -0.4004
  261MPD2    C4 4005   3.800   4.160  13.003 -0.0878 -0.0250 -0.0129
  261MPD2    C5 4006   3.773   4.070  13.103 -0.0174 -0.1117  0.0631
  261MPD2     H 4007   4.019   4.360  13.159 -1.0958  0.5575  0.3948
  261MPD2    H1 4008   3.757   4.153  12.904 -2.5315 -0.7057  1.1027
  261MPD2    H2 4009   3.799   4.018  13.307  2.4589  0.2900  0.4726
  261MPD2    H3 4010   3.704   3.987  13.091 -0.4414  0.2972 -0.3003
  261MPD2     N 4011   3.930   4.352  12.914  0.4823  0.2029 -0.6212
  261MPD2    H5 4012   4.019   4.398  12.932  0.8861 -1.7349  2.3831
  261MPD2    N1 4013   3.967   4.234  13.376 -0.0840 -0.0893 -0.4805
  261MPD2    H7 4014   4.017   4.322  13.380 -0.0635 -0.1385  0.2106
  262TMC3    C1 4015   3.966   4.442  12.706 -0.0367  1.1400 -0.2351
  262TMC3    C2 4016   3.922   4.533  12.610 -0.5427 -0.4777  0.3818
  262TMC3    C3 4017   4.016   4.621  12.561  0.0317  0.1085 -0.0795
  262TMC3    C4 4018   4.098   4.441  12.747 -0.1029  0.6928  0.1258
  262TMC3    C5 4019   4.184   4.523  12.687  0.4250  0.0970 -0.5112
  262TMC3    C6 4020   4.140   4.623  12.604 -0.1384  0.0446  1.2376
  262TMC3     C 4021   3.876   4.364  12.785  0.1425 -0.6400 -0.6957
  262TMC3     O 4022   3.766   4.341  12.740 -0.0651  0.2379 -0.2737
  262TMC3     H 4023   3.817   4.531  12.582 -0.4406 -0.0629 -0.0245
  262TMC3    H1 4024   4.141   4.362  12.808  3.3662  2.8813  0.4849
  262TMC3    H2 4025   4.211   4.692  12.559  0.8376 -1.5953  0.2620
  262TMC3    C7 4026   4.322   4.508  12.719  0.6284 -0.5982 -0.2730
  262TMC3    C8 4027   3.984   4.705  12.448 -0.3072 -0.3025 -0.2499
  262TMC3    O1 4028   4.355   4.420  12.797 -0.1067 -0.1649 -0.2458
  262TMC3    O2 4029   4.078   0.021  12.394 -0.3214  0.5175 -0.1200
  263MPD2     C 4030   0.397   3.570  11.973 -0.4404 -0.1386  0.3135
  263MPD2    C1 4031   0.513   3.572  11.903 -0.3512  0.2592  0.6171
  263MPD2    C2 4032   0.541   3.680  11.814 -0.0718 -0.1009  0.0574
  263MPD2    C3 4033   0.461   3.796  11.817  0.0624 -0.3426  0.5688
  263MPD2    C4 4034   0.356   3.796  11.902  0.0485  0.1211 -0.1872
  263MPD2    C5 4035   0.325   3.681  11.970 -0.1981 -0.2447 -0.0630
  263MPD2     H 4036   0.634   3.678  11.758 -0.7206  0.8119 -1.0334
  263MPD2    H1 4037   0.285   3.877  11.904 -0.9320 -0.7754  1.1225
  263MPD2    H2 4038   0.363   3.491  12.039  0.5530 -0.7599  0.0822
  263MPD2    H3 4039   0.234   3.678  12.030  0.0071 -0.2925  0.2461
  263MPD2     N 4040   0.492   3.905  11.724  0.3961  0.0206 -0.3880
  263MPD2    H5 4041   0.560   3.882  11.653  0.3495  0.3211 -0.5281
  263MPD2    N1 4042   0.591   3.452  11.913 -0.1802 -0.1600 -0.2251
  263MPD2    H7 4043   0.564   3.387  11.985 -0.1324  0.5131  0.4006
  264TMC3    C1 4044   0.467   4.107  11.610  0.1600  0.3143 -0.2361
  264TMC3    C2 4045   0.484   4.237  11.649  0.7597  0.1263 -0.0311
  264TMC3    C3 4046   0.553   4.315  11.558 -0.6130 -0.8808 -0.2270
  264TMC3    C4 4047   0.511   4.042  11.500 -0.0192 -0.0734 -0.2301
  264TMC3    C5 4048   0.584   4.122  11.418  0.2479 -0.2558 -0.2921
  264TMC3    C6 4049   0.600   4.259  11.444  0.5996  0.2721 -0.4467
  264TMC3     C 4050   0.422   4.020  11.722  0.6280  0.9157  0.1841
  264TMC3     O 4051   0.362   4.072  11.815 -0.0409 -0.3135 -0.0985
  264TMC3     H 4052   0.451   4.271  11.746  2.1287 -0.1295  0.5337
  264TMC3    H1 4053   0.490   3.936  11.487  2.4260 -0.6305  0.4342
  264TMC3    H2 4054   0.648   4.319  11.368  3.1797 -1.5371 -0.2160
  264TMC3    C7 4055   0.622   4.082  11.286 -0.3678  0.4316  0.0761
  264TMC3    C8 4056   0.593   4.448  11.579 -0.5778 -1.1124  0.2498
  264TMC3    O1 4057   0.686   4.157  11.214  0.0478  0.2146 -0.1086
  264TMC3    O2 4058   0.631   4.517  11.482  0.4700  0.0116 -0.5220
  265MPD2     C 4059   2.380   4.219  15.802 -0.6412  0.0572  0.0210
  265MPD2    C1 4060   2.369   4.298  15.686 -0.2970  0.0552 -0.8612
  265MPD2    C2 4061   2.408   4.243  15.561 -0.7732  0.2713  0.0737
  265MPD2    C3 4062   2.471   4.118  15.561 -0.3348 -0.5108 -0.7841
  265MPD2    C4 4063   2.482   4.051  15.683  0.0521 -0.2211  0.2154
  265MPD2    C5 4064   2.437   4.106  15.804 -0.7512  0.2784  0.2329
  265MPD2     H 4065   2.404   4.312  15.477  2.7027 -0.1794 -0.4369
  265MPD2    H1 4066   2.530   3.955  15.677 -0.4003 -0.3307 -1.9278
  265MPD2    H2 4067   2.333   4.240  15.897 -0.6667 -0.5014  0.1346
  265MPD2    H3 4068   2.443   4.054  15.899 -1.1452  0.3194  0.2774
  265MPD2     N 4069   2.529   4.064  15.443 -0.0820  0.1521 -0.5590
  265MPD2    H5 4070   2.565   3.969  15.444 -0.0463  0.1796  2.5462
  265MPD2    N1 4071   2.285   4.418  15.681  0.3645 -0.2147  0.7064
  265MPD2    H7 4072   2.241   4.438  15.592  1.7143  1.5185  0.4402
  266TMC3    C1 4073   2.150   4.592  15.776 -0.5452 -0.6084 -0.0963
  266TMC3    C2 4074   2.136   4.662  15.890  0.0340 -0.1385  0.0853
  266TMC3    C3 4075   2.023   0.003  15.894  0.4802  0.5552  0.7431
  266TMC3    C4 4076   2.058   4.575  15.684 -0.1682 -0.7279  0.3031
  266TMC3    C5 4077   1.943   4.655  15.700 -0.1693  0.5997  0.5171
  266TMC3    C6 4078   1.923   0.002  15.805 -0.3868 -0.2488 -0.0173
  266TMC3     C 4079   2.249   4.494  15.796 -0.1500 -0.1449 -0.2411
  266TMC3     O 4080   2.297   4.479  15.910  0.0447  0.1788  0.3059
  266TMC3     H 4081   2.218   4.678  15.960  0.3303  0.0264 -0.3003
  266TMC3    H1 4082   2.077   4.522  15.591 -1.1432  0.9693 -0.8557
  266TMC3    H2 4083   1.825   0.033  15.839 -0.7823  1.5449 -2.8142
  266TMC3    C7 4084   1.857   4.684  15.583  0.2083  0.5513  0.7354
  266TMC3    C8 4085   2.008   0.087  16.021 -0.6228  0.2090  0.2499
  266TMC3    O1 4086   1.895   4.638  15.478  0.2150 -0.6049  0.2226
  266TMC3    O2 4087   1.901   0.073  16.078  0.2369 -0.0253 -0.1234
  267MPD2     C 4088   3.508   1.457   0.392 -0.2474 -0.4374 -0.3951
  267MPD2    C1 4089   3.597   1.426   0.292  0.3192  0.1912  0.0931
  267MPD2    C2 4090   3.555   1.419   0.161 -0.1406  0.3151 -0.6561
  267MPD2    C3 4091   3.422   1.447   0.138 -0.4632 -0.4423 -0.2223
  267MPD2    C4 4092   3.331   1.468   0.237  0.4304 -0.0462  0.7697
  267MPD2    C5 4093   3.375   1.457   0.365 -0.1586  0.1266  0.4271
  267MPD2     H 4094   3.624   1.401   0.080 -0.3263 -2.8613 -0.1311
  267MPD2    H1 4095   3.229   1.496   0.212  0.2230  0.1549  1.8192
  267MPD2    H2 4096   3.539   1.449   0.496 -1.8657  1.2442  0.2109
  267MPD2    H3 4097   3.311   1.462   0.453 -0.3074 -0.1976  0.3383
  267MPD2     N 4098   3.376   1.459   0.003  0.0334  0.0677  0.2908
  267MPD2    H5 4099   3.276   1.477  17.747 -0.5850 -2.8576  2.2627
  267MPD2    N1 4100   3.732   1.405   0.329 -0.5919 -0.0184 -0.6248
  267MPD2    H7 4101   3.754   1.404   0.428 -2.0276 -2.8306 -0.3382
  268TMC3    C1 4102   3.963   1.389   0.307 -1.1843 -0.2318 -0.1130
  268TMC3    C2 4103   4.074   1.437   0.237  0.5624  0.1846  0.4233
  268TMC3    C3 4104   4.195   1.396   0.287 -0.0823  0.0386 -0.9198
  268TMC3    C4 4105   3.968   1.305   0.416  0.1195  0.4343 -0.4797
  268TMC3    C5 4106   4.090   1.275   0.466  0.6478  0.0246 -0.2361
  268TMC3    C6 4107   4.203   1.321   0.399 -0.3256 -0.2186  0.4932
  268TMC3     C 4108   3.836   1.396   0.238 -0.7097 -0.1001 -0.9625
  268TMC3     O 4109   3.844   1.398   0.116 -0.4691 -0.2305 -0.3039
  268TMC3     H 4110   4.075   1.496   0.146 -1.1920  0.5788  0.6579
  268TMC3    H1 4111   3.881   1.246   0.443 -0.0852  1.0961  0.3308
  268TMC3    H2 4112   4.300   1.280   0.424 -0.0133  0.8704  1.0375
  268TMC3    C7 4113   4.099   1.188   0.581  0.1502 -0.3799  0.8246
  268TMC3    C8 4114   4.302   1.358   0.190  0.3763 -0.7231  0.3213
  268TMC3    O1 4115   4.211   1.141   0.604  0.2238 -0.1961  0.1656
  268TMC3    O2 4116   4.366   1.255   0.207 -0.0719  0.2093  0.0905
  269MPD2     C 4117   0.275   0.269  15.502 -0.0706 -0.0295 -0.6241
  269MPD2    C1 4118   0.199   0.304  15.609  0.4431  0.2791 -0.2935
  269MPD2    C2 4119   0.173   0.436  15.623  0.3822  0.0691 -0.2745
  269MPD2    C3 4120   0.211   0.529  15.528  0.5776 -0.3670  0.1637
  269MPD2    C4 4121   0.284   0.492  15.422  0.6039  0.1243 -0.1320
  269MPD2    C5 4122   0.324   0.364  15.417  0.0713  0.7772 -0.2463
  269MPD2     H 4123   0.112   0.476  15.703 -0.3308 -2.1125  0.2615
  269MPD2    H1 4124   0.313   0.552  15.336  1.9949  0.5832  0.6450
  269MPD2    H2 4125   0.315   0.168  15.495  0.7451  0.2255  0.2246
  269MPD2    H3 4126   0.387   0.333  15.333 -0.8265  0.7753 -0.9167
  269MPD2     N 4127   0.164   0.660  15.541 -0.3111  0.5389 -0.1242
  269MPD2    H5 4128   0.114   0.679  15.628  1.1073 -0.8084  0.9804
  269MPD2    N1 4129   0.141   0.208  15.699  0.0358 -0.6088 -0.1984
  269MPD2    H7 4130   0.161   0.110  15.679  0.7775 -0.9376  2.2654
  270TMC3    C1 4131   0.021   0.105  15.867  0.2499 -0.1715 -0.9615
  270TMC3    C2 4132   4.620   0.067  15.885  0.1310 -0.9200 -0.8130
  270TMC3    C3 4133   4.593   4.673  15.912 -0.4891 -0.9594  0.1462
  270TMC3    C4 4134   0.120   0.017  15.891 -0.4981  0.2247  0.9774
  270TMC3    C5 4135   0.089   4.623  15.931  0.5928 -0.0789  0.1381
  270TMC3    C6 4136   4.697   4.589  15.941 -0.2390  0.4629 -0.3171
  270TMC3     C 4137   0.054   0.231  15.806  0.2026 -0.1405  0.1294
  270TMC3     O 4138   4.713   0.326  15.830 -0.1171  0.0921  0.5881
  270TMC3     H 4139   4.549   0.142  15.851 -0.0268 -0.8877 -0.4105
  270TMC3    H1 4140   0.219   0.046  15.858 -0.8312 -1.3428 -1.4566
  270TMC3    H2 4141   4.664   4.495  15.984 -2.1774  1.3863  0.2396
  270TMC3    C7 4142   0.179   4.512  15.906 -0.0195  0.4286  0.2429
  270TMC3    C8 4143   4.503   4.599  15.817 -0.2215 -0.1773 -0.6763
  270TMC3    O1 4144   0.288   4.510  15.963  0.2349 -0.6762 -0.6588
  270TMC3    O2 4145   4.548   4.489  15.782  0.0270 -0.5266 -0.2080
  271MPD2     C 4146   3.983   4.509  14.014 -0.6335 -0.5497  0.0021
  271MPD2    C1 4147   3.922   4.525  14.129 -0.0988  0.4659  0.4296
  271MPD2    C2 4148   3.825   4.616  14.149  0.1031  0.4455 -0.2385
  271MPD2    C3 4149   3.787   4.696  14.044 -0.1480 -0.1578 -0.6666
  271MPD2    C4 4150   3.855   4.683  13.932 -1.1128 -0.4834  0.2870
  271MPD2    C5 4151   3.946   4.583  13.909  0.8270 -0.0045 -0.7323
  271MPD2     H 4152   3.774   4.630  14.244  1.0599  2.1148  0.0212
  271MPD2    H1 4153   3.827   0.003  13.844  0.5509 -0.7159 -0.3923
  271MPD2    H2 4154   4.068   4.445  13.994 -0.5374 -0.7683  1.1505
  271MPD2    H3 4155   3.999   4.562  13.817  0.8607  0.4314 -0.8122
  271MPD2     N 4156   3.685   0.063  14.042 -0.4583  0.1411  0.5532
  271MPD2    H5 4157   3.680   0.126  13.962  0.8244  0.3837  0.6792
  271MPD2    N1 4158   3.954   4.450  14.250  0.0824  0.0492 -0.5219
  271MPD2    H7 4159   3.903   4.467  14.336  1.9903 -0.2525  0.6634
  272TMC3    C1 4160   4.091   4.300  14.378 -0.7968 -0.2562 -0.0467
  272TMC3    C2 4161   4.183   4.203  14.389 -0.1385 -0.5726 -0.1317
  272TMC3    C3 4162   4.249   4.168  14.506  0.8046 -0.0514  0.1058
  272TMC3    C4 4163   4.033   4.353  14.492  0.2608  0.0305 -0.3542
  272TMC3    C5 4164   4.097   4.323  14.609 -1.2111  0.0752  0.0677
  272TMC3    C6 4165   4.202   4.236  14.616 -0.1288  0.1596 -0.0117
  272TMC3     C 4166   4.069   4.363  14.252 -0.5916  0.8256 -0.1260
  272TMC3     O 4167   4.150   4.332  14.165  0.3168 -0.8366  0.2619
  272TMC3     H 4168   4.224   4.159  14.299 -2.5686  1.4239 -2.2242
  272TMC3    H1 4169   3.948   4.420  14.491  0.2994  0.0649 -1.2684
  272TMC3    H2 4170   4.257   4.225  14.709 -1.7091 -1.8854  0.6773
  272TMC3    C7 4171   4.056   4.396  14.721 -0.0537  0.0522 -0.6315
  272TMC3    C8 4172   4.393   4.134  14.498  0.3651  0.1152  0.0631
  272TMC3    O1 4173   3.938   4.424  14.706  0.1554  0.2810  0.0364
  272TMC3    O2 4174   4.439   4.138  14.384  0.3806 -0.3253 -0.2250
  273MPD2     C 4175   1.077   2.720  11.810 -0.6909  0.7624  0.0621
  273MPD2    C1 4176   1.203   2.704  11.746 -0.7476  0.6981  0.3328
  273MPD2    C2 4177   1.209   2.651  11.617  0.4756  0.7442 -0.1354
  273MPD2    C3 4178   1.090   2.643  11.544 -0.6287  0.0961 -0.4211
  273MPD2    C4 4179   0.966   2.658  11.599 -0.8010 -0.3394  0.1532
  273MPD2    C5 4180   0.961   2.692  11.731 -0.8292 -0.0997  0.0416
  273MPD2     H 4181   1.306   2.640  11.570 -1.1790 -0.1252 -3.3739
  273MPD2    H1 4182   0.876   2.658  11.539 -1.6426 -2.1070  1.4050
  273MPD2    H2 4183   1.066   2.757  11.911 -0.4263 -2.4155  1.2661
  273MPD2    H3 4184   0.865   2.698  11.781  0.3479  0.3709  2.2641
  273MPD2     N 4185   1.103   2.618  11.406 -0.3369  0.1295  0.3054
  273MPD2    H5 4186   1.023   2.655  11.355  0.2634  0.3205 -0.5076
  273MPD2    N1 4187   1.311   2.747  11.823 -0.1901  0.2630  0.1396
  273MPD2    H7 4188   1.292   2.799  11.908 -1.8184 -1.0647  0.5778
  274TMC3    C1 4189   1.199   2.602  11.187  0.1989  0.4155  0.0761
  274TMC3    C2 4190   1.075   2.603  11.130 -0.7764  0.3615 -0.5665
  274TMC3    C3 4191   1.031   2.711  11.058 -0.7392  0.3592  0.4830
  274TMC3    C4 4192   1.274   2.717  11.181  0.7026 -1.0575  0.2789
  274TMC3    C5 4193   1.218   2.830  11.124 -0.4180 -0.7469 -0.2668
  274TMC3    C6 4194   1.101   2.828  11.047 -0.0213  0.3329 -0.4051
  274TMC3     C 4195   1.204   2.562  11.329 -0.3447 -0.1819 -0.3593
  274TMC3     O 4196   1.309   2.512  11.370  0.0022  0.0492  0.0487
  274TMC3     H 4197   1.020   2.510  11.141 -0.0257  0.0346  0.3483
  274TMC3    H1 4198   1.353   2.728  11.254 -0.0845  0.6229  0.8812
  274TMC3    H2 4199   1.046   2.921  11.030  0.2443  0.7976  1.3039
  274TMC3    C7 4200   1.192   2.920  11.227 -0.0589 -0.8947 -1.0411
  274TMC3    C8 4201   0.897   2.701  11.013  0.4067 -0.2463 -0.1110
  274TMC3    O1 4202   1.077   2.938  11.252  0.7177 -0.7051  0.1283
  274TMC3    O2 4203   0.823   2.618  11.061  0.0059  0.1555  0.2661
  275MPD2     C 4204   0.796   0.768  14.407 -0.3202  0.2826  0.2367
  275MPD2    C1 4205   0.811   0.635  14.434  0.3179  0.3941 -0.7368
  275MPD2    C2 4206   0.702   0.551  14.453  0.1874 -0.5104 -0.5238
  275MPD2    C3 4207   0.576   0.609  14.463 -0.0158  0.6906  0.3159
  275MPD2    C4 4208   0.565   0.747  14.447 -0.3424  0.5280  0.9011
  275MPD2    C5 4209   0.671   0.823  14.405 -0.0514  0.3365 -0.0148
  275MPD2     H 4210   0.719   0.445  14.469  0.1368 -0.2600  1.2176
  275MPD2    H1 4211   0.468   0.795  14.456  0.3380  2.4345 -2.1105
  275MPD2    H2 4212   0.882   0.830  14.387 -0.3710  0.5479  0.8204
  275MPD2    H3 4213   0.658   0.930  14.393 -0.8337 -0.0303 -2.5054
  275MPD2     N 4214   0.459   0.529  14.492  0.0215 -0.0384 -0.0964
  275MPD2    H5 4215   0.371   0.579  14.489  0.3736  0.7283  2.2740
  275MPD2    N1 4216   0.940   0.574  14.438 -0.7163  0.2064 -0.2136
  275MPD2    H7 4217   0.941   0.480  14.478  1.2925 -0.1523 -1.1171
  276TMC3    C1 4218   1.161   0.570  14.512  0.2048  0.8054 -0.5314
  276TMC3    C2 4219   1.125   0.478  14.610 -0.1542  0.1719  0.0918
  276TMC3    C3 4220   1.219   0.447  14.710  0.8723 -0.1376 -0.2630
  276TMC3    C4 4221   1.290   0.610  14.503 -0.1005 -0.1129  0.1564
  276TMC3    C5 4222   1.379   0.575  14.599  0.5378  1.0205 -1.1311
  276TMC3    C6 4223   1.346   0.495  14.706  0.1659 -0.2338  0.1453
  276TMC3     C 4224   1.065   0.635  14.426 -0.5789 -0.2637  0.8083
  276TMC3     O 4225   1.098   0.731  14.357 -0.1358 -0.3356 -0.1332
  276TMC3     H 4226   1.025   0.441  14.625 -0.2324  0.3407 -0.0126
  276TMC3    H1 4227   1.318   0.670  14.417  0.3852 -0.2989  0.1811
  276TMC3    H2 4228   1.421   0.462  14.778 -1.7855 -0.1317  2.2374
  276TMC3    C7 4229   1.507   0.635  14.593  0.0359  0.1335 -0.3447
  276TMC3    C8 4230   1.166   0.398  14.841  0.5431 -0.0956  0.0527
  276TMC3    O1 4231   1.554   0.662  14.483  0.3828 -0.0991 -0.2017
  276TMC3    O2 4232   1.223   0.443  14.944  0.3171 -0.4388 -0.4340
  277MPD2     C 4233   2.683   4.644  13.730  0.4267  0.3940  0.3995
  277MPD2    C1 4234   2.567   4.624  13.665  0.1072  0.4696 -0.0216
  277MPD2    C2 4235   2.452   4.628  13.745 -0.6709  0.2563  0.1573
  277MPD2    C3 4236   2.450   4.639  13.881 -0.4088  0.2343  0.3925
  277MPD2    C4 4237   2.569   4.638  13.944  0.7351 -0.1595  0.0816
  277MPD2    C5 4238   2.682   4.649  13.869 -0.5558  0.1792  0.0229
  277MPD2     H 4239   2.355   4.621  13.697 -0.4807 -1.1236 -0.0369
  277MPD2    H1 4240   2.581   4.648  14.051  2.0823  1.4096 -0.2231
  277MPD2    H2 4241   2.780   4.624  13.686 -0.0764  1.0645 -1.0164
  277MPD2    H3 4242   2.773   4.651  13.928  0.6984  0.0738 -1.9170
  277MPD2     N 4243   2.327   4.635  13.954 -0.1310  0.0139  0.0806
  277MPD2    H5 4244   2.245   4.652  13.896 -0.5108 -4.2122 -0.6364
  277MPD2    N1 4245   2.559   4.602  13.523  0.9082 -0.0304  0.4219
  277MPD2    H7 4246   2.648   4.592  13.477 -0.1154 -1.1626 -1.3299
  278TMC3    C1 4247   2.184   4.556  14.120 -0.1522 -0.3738 -0.2414
  278TMC3    C2 4248   2.189   4.436  14.185  0.6434 -0.1098 -0.7820
  278TMC3    C3 4249   2.101   4.340  14.140  0.2739  0.0850  0.1745
  278TMC3    C4 4250   2.090   4.588  14.025  0.8000 -0.0209 -0.2894
  278TMC3    C5 4251   1.996   4.495  14.005  0.3498 -0.0211 -0.0149
  278TMC3    C6 4252   1.998   4.369  14.057 -0.6188 -0.3387 -0.3167
  278TMC3     C 4253   2.315   4.607  14.088  0.2998 -0.1694  0.2054
  278TMC3     O 4254   2.399   4.584  14.174  0.2828 -0.7194  0.6583
  278TMC3     H 4255   2.267   4.410  14.256  1.5400  0.6927 -1.4693
  278TMC3    H1 4256   2.079   4.689  13.988 -0.4938 -0.3201 -0.7315
  278TMC3    H2 4257   1.930   4.293  14.021 -0.7449 -0.6937  0.6588
  278TMC3    C7 4258   1.886   4.520  13.919 -0.3222  0.5012  0.3208
  278TMC3    C8 4259   2.142   4.198  14.156  0.5866  0.8200  0.4968
  278TMC3    O1 4260   1.909   4.594  13.827 -0.1563 -0.1295  0.5322
  278TMC3    O2 4261   2.247   4.180  14.208  0.5208  0.3353 -0.4332
  279MPD2     C 4262   1.483   0.295   0.569  0.5160 -0.0282  0.4869
  279MPD2    C1 4263   1.426   0.201   0.492 -0.2788  0.1753 -0.1599
  279MPD2    C2 4264   1.449   0.202   0.357  0.0290  0.3404  0.1251
  279MPD2    C3 4265   1.520   0.303   0.293  0.2159  0.3304 -0.2011
  279MPD2    C4 4266   1.578   0.397   0.377 -0.0898  0.1110  0.4263
  279MPD2    C5 4267   1.566   0.384   0.513 -0.5292  0.0824  0.5071
  279MPD2     H 4268   1.388   0.135   0.298  0.2250  0.4697 -0.2269
  279MPD2    H1 4269   1.636   0.478   0.334  1.1962 -0.7602  0.4914
  279MPD2    H2 4270   1.451   0.317   0.670 -3.6406 -2.0544 -0.3910
  279MPD2    H3 4271   1.601   0.456   0.586  0.3678 -0.4020  0.5702
  279MPD2     N 4272   1.532   0.327   0.150 -0.3997 -0.4350 -0.2043
  279MPD2    H5 4273   1.580   0.413   0.127 -2.0416  0.5545  0.1262
  279MPD2    N1 4274   1.339   0.104   0.557 -0.2758 -0.2735 -0.2555
  279MPD2    H7 4275   1.344   0.105   0.659  0.8346  0.7062 -0.3115
  280TMC3    C1 4276   1.186   4.667   0.570 -0.0233  0.2916 -0.1532
  280TMC3    C2 4277   1.145   4.540   0.520  0.5859  0.0815  0.3181
  280TMC3    C3 4278   1.018   4.517   0.479 -0.2167 -0.3892  0.6169
  280TMC3    C4 4279   1.091   0.021   0.610 -0.4353  0.7828  0.0822
  280TMC3    C5 4280   0.966   4.733   0.563 -0.0878  0.3013  0.3193
  280TMC3    C6 4281   0.926   4.617   0.498  0.6666  0.5872 -0.6737
  280TMC3     C 4282   1.282   0.002   0.490  0.0642  0.3187 -0.3999
  280TMC3     O 4283   1.303   4.680   0.383  0.3195 -0.4350  0.0197
  280TMC3     H 4284   1.224   4.468   0.499  0.5057  0.2063 -0.4284
  280TMC3    H1 4285   1.110   0.120   0.649  1.8836  0.3986 -0.1153
  280TMC3    H2 4286   0.824   4.598   0.467  1.0810 -0.5133 -1.3582
  280TMC3    C7 4287   0.866   0.089   0.610  0.0989  0.4874 -0.4118
  280TMC3    C8 4288   0.975   4.409   0.397 -0.5769  1.3844 -0.1407
  280TMC3    O1 4289   0.884   0.172   0.697 -0.6553 -0.2065  0.4452
  280TMC3    O2 4290   0.860   4.379   0.390  0.4830 -0.2951  0.2849
  281TMC3    C1 4291   0.711   4.631  13.720  1.1216  0.7064  0.7161
  281TMC3    C2 4292   0.766   4.710  13.623 -0.6235 -0.7472 -0.0718
  281TMC3    C3 4293   0.787   4.666  13.498  0.4499 -0.3672 -0.0208
  281TMC3    C4 4294   0.686   4.497  13.695  0.3091  0.0164  0.5726
  281TMC3    C5 4295   0.708   4.452  13.566  0.7683 -0.4710 -0.3148
  281TMC3    C6 4296   0.750   4.540  13.465 -0.5020 -0.1541 -0.7926
  281TMC3     C 4297   0.589   4.679  13.783  0.0860  0.7961 -1.0639
  281TMC3     O 4298   0.496   4.600  13.770 -0.4296 -0.3156  0.2494
  281TMC3     H 4299   0.812   0.066  13.653 -0.1850 -0.9735 -0.0376
  281TMC3    H1 4300   0.660   4.429  13.775 -2.6404 -1.0815 -1.2843
  281TMC3    H2 4301   0.773   4.503  13.366  2.6290  1.9978 -0.8841
  281TMC3    C7 4302   0.664   4.329  13.526 -1.0112 -0.3512  0.2944
  281TMC3    C8 4303   0.908   4.710  13.437 -0.3853 -0.4340  0.5245
  281TMC3    O1 4304   0.718   4.274  13.428 -0.0881  0.0287  0.1203
  281TMC3    O2 4305   0.978   4.619  13.397 -0.4519  0.0091  0.3711
  282MPD2     C 4306   2.592   1.415  14.964  0.4060 -0.3368  0.9058
  282MPD2    C1 4307   2.465   1.470  14.961 -0.4784 -0.7575 -0.6388
  282MPD2    C2 4308   2.417   1.504  14.834  0.5416 -0.1799 -0.0447
  282MPD2    C3 4309   2.488   1.474  14.716  0.3080 -0.1529  0.1158
  282MPD2    C4 4310   2.611   1.414  14.724  0.7375 -0.5640 -0.4005
  282MPD2    C5 4311   2.662   1.385  14.847 -0.2916  0.9187 -0.4405
  282MPD2     H 4312   2.326   1.563  14.829  0.5831 -0.3143 -2.2032
  282MPD2    H1 4313   2.669   1.389  14.636  0.6425 -0.0808 -0.6022
  282MPD2    H2 4314   2.646   1.394  15.056  0.4028 -1.0041  0.7580
  282MPD2    H3 4315   2.763   1.349  14.858 -1.2992 -1.9618 -0.5204
  282MPD2     N 4316   2.431   1.520  14.596  0.6609  0.1710  0.5928
  282MPD2    H5 4317   2.350   1.582  14.592 -0.8488 -1.8029  0.4671
  282MPD2    N1 4318   2.387   1.478  15.078 -0.1176 -0.0733 -0.5795
  282MPD2    H7 4319   2.317   1.551  15.082  0.4386  0.4249  0.1026
  283TMC3    C1 4320   2.313   1.439  15.289  0.4333 -0.1079  0.2204
  283TMC3    C2 4321   2.280   1.574  15.300  0.6471  0.0571 -0.5513
  283TMC3    C3 4322   2.192   1.600  15.401  0.5561  0.8260  0.1711
  283TMC3    C4 4323   2.248   1.330  15.342 -1.0588  0.0975 -0.0030
  283TMC3    C5 4324   2.145   1.366  15.432 -0.3356  0.0877 -0.1990
  283TMC3    C6 4325   2.130   1.498  15.466 -0.3499 -0.1252 -0.6556
  283TMC3     C 4326   2.416   1.410  15.191 -0.1420  0.1627 -0.6275
  283TMC3     O 4327   2.493   1.310  15.209 -0.2535 -0.4002  0.0305
  283TMC3     H 4328   2.350   1.650  15.267 -0.0393  1.5760  1.4710
  283TMC3    H1 4329   2.287   1.232  15.317 -2.5311 -0.3045 -0.7545
  283TMC3    H2 4330   2.065   1.530  15.546  0.7287  0.0155  0.1733
  283TMC3    C7 4331   2.078   1.263  15.510 -0.1764  0.3196 -0.3878
  283TMC3    C8 4332   2.186   1.733  15.459  0.6281 -0.3530  0.2452
  283TMC3    O1 4333   2.017   1.305  15.608  0.0422 -0.0908 -0.1009
  283TMC3    O2 4334   2.128   1.743  15.568 -0.0826 -0.0631 -0.1457
  284MPD2     C 4335   0.351   0.532  12.263  0.2170 -0.8165 -0.0647
  284MPD2    C1 4336   0.490   0.539  12.243  0.0183  1.0816  0.3472
  284MPD2    C2 4337   0.574   0.466  12.321  0.4195 -0.4923  0.4228
  284MPD2    C3 4338   0.525   0.400  12.434 -0.2344 -0.2949  0.3155
  284MPD2    C4 4339   0.386   0.387  12.450 -1.0006  0.4049 -0.1356
  284MPD2    C5 4340   0.303   0.457  12.369 -0.1203  0.5292  0.1119
  284MPD2     H 4341   0.676   0.501  12.316  0.2312 -0.0199 -0.1412
  284MPD2    H1 4342   0.354   0.334  12.539 -1.1107  0.7254  0.0168
  284MPD2    H2 4343   0.288   0.586  12.194 -0.4339 -0.0306  1.1382
  284MPD2    H3 4344   0.196   0.439  12.376  0.1118 -2.1721 -3.2405
  284MPD2     N 4345   0.604   0.329  12.534 -0.5259  0.5076  0.0484
  284MPD2    H5 4346   0.551   0.290  12.610 -0.0988  3.3759  1.8098
  284MPD2    N1 4347   0.554   0.623  12.147 -0.5339 -0.4516  0.2411
  284MPD2    H7 4348   0.654   0.615  12.134 -0.5325 -1.5221  0.9175
  285TMC3    C1 4349   0.566   0.806  11.991 -0.1123 -0.0675 -0.1083
  285TMC3    C2 4350   0.687   0.753  11.958  0.1056  0.1754  0.7882
  285TMC3    C3 4351   0.775   0.828  11.891 -0.9580  0.4603  0.4328
  285TMC3    C4 4352   0.540   0.938  11.971  0.1815  0.6467  0.9484
  285TMC3    C5 4353   0.637   1.020  11.919 -0.3342 -0.0128 -0.2934
  285TMC3    C6 4354   0.761   0.966  11.887 -0.3956 -0.0045  0.1919
  285TMC3     C 4355   0.490   0.738  12.097  0.5491 -0.0052  0.0610
  285TMC3     O 4356   0.379   0.792  12.111 -0.4144  0.0020  0.2687
  285TMC3     H 4357   0.698   0.646  11.957 -0.2610  0.1224  2.1660
  285TMC3    H1 4358   0.442   0.971  12.003  0.1642  1.0100  0.5256
  285TMC3    H2 4359   0.843   1.027  11.851 -1.1068  0.8449  0.0289
  285TMC3    C7 4360   0.620   1.155  11.870 -0.0492  0.2361 -0.1425
  285TMC3    C8 4361   0.881   0.757  11.814  0.0475  0.0648 -0.3643
  285TMC3    O1 4362   0.724   1.207  11.831 -0.0002  0.7730 -0.0363
  285TMC3    O2 4363   0.914   0.648  11.863 -0.2373  0.3992 -0.2986
  286MPD2     C 4364   0.715   4.038   1.735  0.4960 -0.3140 -0.1677
  286MPD2    C1 4365   0.665   4.065   1.609  0.2063  0.0759 -0.0500
  286MPD2    C2 4366   0.707   3.996   1.498  0.4626 -0.5383  0.3721
  286MPD2    C3 4367   0.825   3.918   1.509 -0.2986 -0.0007  0.5082
  286MPD2    C4 4368   0.884   3.907   1.634 -0.2213 -0.0665  0.3103
  286MPD2    C5 4369   0.832   3.967   1.740  0.8188  0.1867  0.2338
  286MPD2     H 4370   0.661   4.002   1.400  1.5347  1.0751 -0.0183
  286MPD2    H1 4371   0.969   3.841   1.648 -0.2276  0.8233  4.4903
  286MPD2    H2 4372   0.678   4.082   1.827  1.5029  0.4296 -0.1232
  286MPD2    H3 4373   0.870   3.956   1.841 -0.9088 -0.1449  0.8425
  286MPD2     N 4374   0.881   3.844   1.407  0.4640 -0.8200 -0.0361
  286MPD2    H5 4375   0.958   3.782   1.429 -0.0254 -1.3200  0.2386
  286MPD2    N1 4376   0.547   4.140   1.593 -0.2296 -0.1486 -0.0002
  286MPD2    H7 4377   0.502   4.124   1.503 -0.5560 -0.4937  0.2209
  287TMC3    C1 4378   0.914   3.746   1.198  0.1249  0.2376 -0.1746
  287TMC3    C2 4379   0.859   3.737   1.075  0.0874  0.3137 -0.4089
  287TMC3    C3 4380   0.934   3.668   0.981  0.7097 -0.3299  0.2778
  287TMC3    C4 4381   1.047   3.725   1.230 -0.4708 -0.5357 -0.3719
  287TMC3    C5 4382   1.113   3.656   1.136  0.6737  0.0543 -0.5246
  287TMC3    C6 4383   1.062   3.617   1.016  0.9517  0.5879  0.1574
  287TMC3     C 4384   0.828   3.831   1.283  0.4635 -0.1833  0.4892
  287TMC3     O 4385   0.737   3.894   1.230  0.1661  1.0976 -0.6465
  287TMC3     H 4386   0.751   3.736   1.064 -0.0903 -0.5121  1.5115
  287TMC3    H1 4387   1.095   3.757   1.321  1.6228 -2.9736 -0.6153
  287TMC3    H2 4388   1.118   3.547   0.955  0.3820  0.3965 -0.1413
  287TMC3    C7 4389   1.249   3.607   1.167 -0.2741 -0.1810 -0.0316
  287TMC3    C8 4390   0.870   3.585   0.888  0.1315  0.3600 -0.1904
  287TMC3    O1 4391   1.290   3.620   1.282  0.2993 -0.1377  0.3224
  287TMC3    O2 4392   0.916   3.473   0.865 -0.1691  0.1419  0.1372
  288TMC3    C1 4393   2.684   3.964  14.598  0.0274  0.1802 -0.4944
  288TMC3    C2 4394   2.578   3.982  14.685  0.5235  0.6495 -0.6694
  288TMC3    C3 4395   2.509   4.099  14.683  0.3865 -0.2101  0.2939
  288TMC3    C4 4396   2.705   4.057  14.496  0.2826 -0.2755 -0.6331
  288TMC3    C5 4397   2.636   4.170  14.495 -0.4056  0.0968  0.4960
  288TMC3    C6 4398   2.537   4.192  14.585 -0.0887 -0.2882 -0.6383
  288TMC3     C 4399   2.748   3.834  14.580 -0.1090 -0.2608  0.0941
  288TMC3     O 4400   2.864   3.823  14.544 -1.0308 -0.4076  1.4417
  288TMC3     H 4401   2.577   3.914  14.770  0.6704  0.4783 -0.8056
  288TMC3    H1 4402   2.765   4.019  14.414  0.3722  0.4071 -0.8840
  288TMC3    H2 4403   2.468   4.273  14.569  1.8639  0.7385 -3.9746
  288TMC3    C7 4404   2.660   4.272  14.392 -0.1152  1.1211  0.1457
  288TMC3    C8 4405   2.423   4.153  14.782  0.4969  0.2329  0.1860
  288TMC3    O1 4406   2.563   4.347  14.369  0.1877 -0.0467 -0.1333
  288TMC3    O2 4407   2.422   4.275  14.798 -0.1036  0.1577  0.0876
  289MPD2     C 4408   2.610   3.187  14.370  0.6828 -0.2238 -0.5938
  289MPD2    C1 4409   2.560   3.317  14.346 -0.2755 -0.2839  0.5427
  289MPD2    C2 4410   2.423   3.336  14.323  0.6407 -0.1310  0.7356
  289MPD2    C3 4411   2.331   3.227  14.314 -0.2497  0.4534  0.5411
  289MPD2    C4 4412   2.386   3.107  14.340  0.2527 -0.1104 -0.2880
  289MPD2    C5 4413   2.526   3.080  14.363  0.6202 -0.7552  0.7958
  289MPD2     H 4414   2.387   3.432  14.290  0.6281 -0.0175  1.0725
  289MPD2    H1 4415   2.325   3.017  14.349  0.6679 -0.2281  1.3277
  289MPD2    H2 4416   2.717   3.175  14.382  0.5413 -0.4805  0.4123
  289MPD2    H3 4417   2.574   2.984  14.374 -0.3179 -1.5264 -1.9223
  289MPD2     N 4418   2.190   3.232  14.287  0.6302 -0.2045 -0.4910
  289MPD2    H5 4419   2.142   3.145  14.267  1.2678 -0.1138 -2.4465
  289MPD2    N1 4420   2.661   3.422  14.346 -0.3013 -0.3603  0.1926
  289MPD2    H7 4421   2.755   3.384  14.346  0.3684  1.2950  0.0949
  290TMC3    C1 4422   2.002   3.340  14.201  0.4080  0.6062  0.5705
  290TMC3    C2 4423   1.922   3.447  14.206  0.2028 -0.1865  0.1912
  290TMC3    C3 4424   1.810   3.454  14.129  0.2224 -0.0847  0.2153
  290TMC3    C4 4425   1.981   3.233  14.113  0.4728 -0.4959  0.3226
  290TMC3    C5 4426   1.863   3.237  14.050  0.3816  0.3825 -0.4907
  290TMC3    C6 4427   1.780   3.346  14.053  0.2387 -0.0786  0.4158
  290TMC3     C 4428   2.122   3.353  14.274 -0.2984 -0.1343 -0.0418
  290TMC3     O 4429   2.164   3.462  14.311  0.5241  0.5024  0.8779
  290TMC3     H 4430   1.944   3.532  14.270  0.2831 -1.5960  2.0445
  290TMC3    H1 4431   2.052   3.152  14.100  2.2528  1.0732  0.2240
  290TMC3    H2 4432   1.694   3.351  13.988 -0.1728  0.7792  1.0410
  290TMC3    C7 4433   1.822   3.113  13.984 -0.2294 -0.4692 -0.0921
  290TMC3    C8 4434   1.725   3.570  14.114 -0.1558  1.1159  0.1918
  290TMC3    O1 4435   1.706   3.123  13.940 -0.3763 -0.2174 -0.3373
  290TMC3    O2 4436   1.642   3.559  14.024 -0.3627 -0.6864  0.1244
  291MPD2     C 4437   1.299   3.395   0.177  0.0367  0.0803 -0.1109
  291MPD2    C1 4438   1.360   3.273   0.204  0.2908 -0.1644 -0.2548
  291MPD2    C2 4439   1.493   3.265   0.253 -0.9102  0.3126  0.5845
  291MPD2    C3 4440   1.562   3.382   0.278 -0.0581 -0.3850 -0.8713
  291MPD2    C4 4441   1.495   3.504   0.265 -0.2888 -0.5452  0.3282
  291MPD2    C5 4442   1.365   3.508   0.211 -0.5543  0.5888 -0.0915
  291MPD2     H 4443   1.549   3.173   0.264 -1.3421 -0.2838 -2.4541
  291MPD2    H1 4444   1.546   3.595   0.294 -1.0440 -0.8331  2.5980
  291MPD2    H2 4445   1.196   3.393   0.141 -0.4342  0.3944  1.1933
  291MPD2    H3 4446   1.322   3.607   0.206 -2.6699 -0.1798  3.3539
  291MPD2     N 4447   1.694   3.382   0.329 -0.6175  0.8871  0.1872
  291MPD2    H5 4448   1.726   3.290   0.358  0.0493  1.1522  0.3058
  291MPD2    N1 4449   1.298   3.157   0.161  0.1942 -0.4355  0.0529
  291MPD2    H7 4450   1.338   3.067   0.188 -1.1479 -1.5757 -1.7191
  292TMC3    C1 4451   1.178   2.999   0.044 -0.3220 -0.7121 -0.3794
  292TMC3    C2 4452   1.240   2.904   0.119  0.7265  0.7901 -0.0510
  292TMC3    C3 4453   1.227   2.774   0.078  0.0791 -0.8617 -0.1800
  292TMC3    C4 4454   1.107   2.963  17.684  0.1115 -0.8730 -0.9690
  292TMC3    C5 4455   1.112   2.832  17.638  0.0762  0.3928  0.0085
  292TMC3    C6 4456   1.160   2.733  17.718  0.3844  0.4371  0.1985
  292TMC3     C 4457   1.183   3.134   0.087  0.1939  0.4044 -0.1789
  292TMC3     O 4458   1.103   3.209   0.029  0.3181 -0.1055  0.9245
  292TMC3     H 4459   1.310   2.926   0.199  1.7216 -1.3804 -0.3249
  292TMC3    H1 4460   1.049   3.042  17.637 -0.6815 -0.4866  0.6311
  292TMC3    H2 4461   1.153   2.628  17.692 -3.6448  0.0944  2.6989
  292TMC3    C7 4462   1.036   2.794  17.527  0.5865 -0.1192 -0.2471
  292TMC3    C8 4463   1.281   2.661   0.156 -0.2920 -0.1646 -0.3298
  292TMC3    O1 4464   0.951   2.866  17.481 -0.6389  0.3056 -0.4794
  292TMC3    O2 4465   1.295   2.556   0.090  0.0671  0.7088  0.2072
  293MPD2     C 4466   3.295   4.097  12.833  0.5010 -0.8588 -0.0661
  293MPD2    C1 4467   3.220   4.107  12.944  0.0689  0.7361  0.2093
  293MPD2    C2 4468   3.276   4.154  13.057 -0.1256  0.4358 -0.5541
  293MPD2    C3 4469   3.405   4.207  13.055 -0.0241 -0.2504 -0.2528
  293MPD2    C4 4470   3.472   4.221  12.938  0.0239 -0.5802 -0.2068
  293MPD2    C5 4471   3.419   4.151  12.830 -0.9297 -0.0214 -0.4702
  293MPD2     H 4472   3.212   4.164  13.144 -0.6405  1.1082 -1.0086
  293MPD2    H1 4473   3.573   4.262  12.930 -0.1768  0.2005  1.2565
  293MPD2    H2 4474   3.255   4.034  12.754  1.6220  1.1057 -2.1963
  293MPD2    H3 4475   3.475   4.143  12.738 -1.6468 -0.6110 -0.8520
  293MPD2     N 4476   3.455   4.256  13.178  0.1004 -0.5687 -0.0339
  293MPD2    H5 4477   3.408   4.236  13.265 -0.8080  1.2753 -0.1091
  293MPD2    N1 4478   3.084   4.068  12.951  0.6921  0.2111  0.2636
  293MPD2    H7 4479   3.052   4.064  13.047  0.1414  1.8128  0.1410
  294TMC3    C1 4480   2.996   4.069  12.724  0.0515 -0.2400 -0.2475
  294TMC3    C2 4481   2.946   3.987  12.628 -0.4541 -0.3459 -0.5176
  294TMC3    C3 4482   2.979   4.014  12.497 -0.0265 -0.6563 -0.9500
  294TMC3    C4 4483   3.052   4.188  12.692  0.1530 -0.2744  0.0442
  294TMC3    C5 4484   3.074   4.219  12.560 -0.2747  0.3776 -0.7652
  294TMC3    C6 4485   3.042   4.132  12.459  0.0844  0.6729 -0.5077
  294TMC3     C 4486   2.994   4.017  12.856  0.5667 -0.6192 -0.7817
  294TMC3     O 4487   2.893   3.949  12.881 -0.5662  0.5439  0.3592
  294TMC3     H 4488   2.890   3.898  12.657 -0.0558 -0.9811 -1.6768
  294TMC3    H1 4489   3.075   4.255  12.774  0.0389 -0.2888  0.0879
  294TMC3    H2 4490   3.059   4.148  12.353  1.3293 -0.9418 -0.5571
  294TMC3    C7 4491   3.131   4.349  12.516  0.2074  0.1708 -0.1820
  294TMC3    C8 4492   2.944   3.922  12.384  0.0377 -0.2669  0.6396
  294TMC3    O1 4493   3.127   4.440  12.599  0.3201 -0.2281 -0.4884
  294TMC3    O2 4494   3.013   3.920  12.283  0.4323  0.4096 -0.8485
  295MPD2     C 4495   3.487   4.204   1.675 -0.4827 -0.5230  0.0575
  295MPD2    C1 4496   3.419   4.113   1.595 -0.5836 -0.5487  0.4815
  295MPD2    C2 4497   3.324   4.033   1.657  0.2800 -0.2400  0.1047
  295MPD2    C3 4498   3.308   4.028   1.796  0.8431 -0.4544  0.1270
  295MPD2    C4 4499   3.392   4.106   1.877 -0.2442 -0.2343 -0.6729
  295MPD2    C5 4500   3.481   4.191   1.810  0.3664  0.1198  0.7735
  295MPD2     H 4501   3.270   3.957   1.601  1.1669 -0.7825 -0.0140
  295MPD2    H1 4502   3.389   4.100   1.986  0.9257 -0.1383 -0.6344
  295MPD2    H2 4503   3.553   4.283   1.640 -0.0632 -1.0188 -0.2850
  295MPD2    H3 4504   3.553   4.237   1.877  0.4775 -0.3757  0.9924
  295MPD2     N 4505   3.213   3.940   1.860 -0.1277  0.4676  0.1348
  295MPD2    H5 4506   3.203   3.942   1.961 -0.0861 -1.3386  0.1803
  295MPD2    N1 4507   3.431   4.097   1.455 -0.0187 -0.3245  0.1060
  295MPD2    H7 4508   3.384   4.023   1.405 -0.3142  0.1471 -0.3149
  296TMC3    C1 4509   3.035   3.798   1.892  0.1166 -0.7912 -0.0037
  296TMC3    C2 4510   2.978   3.890   1.977  0.2735 -0.5853 -0.5702
  296TMC3    C3 4511   2.863   3.854   2.039 -0.0212 -0.0556  0.4090
  296TMC3    C4 4512   2.985   3.673   1.862  0.7787 -0.0718  0.0863
  296TMC3    C5 4513   2.867   3.645   1.924 -0.2308 -0.2413  0.1902
  296TMC3    C6 4514   2.809   3.728   2.017 -0.5049 -0.0697  0.6266
  296TMC3     C 4515   3.142   3.837   1.806 -0.4717  0.4724 -0.2378
  296TMC3     O 4516   3.154   3.767   1.701 -0.3772 -0.7218  0.3510
  296TMC3     H 4517   3.012   3.993   1.979 -3.3479  0.5721  0.7766
  296TMC3    H1 4518   3.030   3.609   1.787 -4.4958 -1.3403 -2.0431
  296TMC3    H2 4519   2.725   3.694   2.076 -0.5995 -0.1711  0.4340
  296TMC3    C7 4520   2.797   3.533   1.870  0.0281  0.3069 -0.3520
  296TMC3    C8 4521   2.793   3.939   2.118  0.0258  0.0749 -0.1892
  296TMC3    O1 4522   2.867   3.449   1.819 -0.3189  0.5583 -0.6466
  296TMC3    O2 4523   2.680   3.904   2.149 -0.0542  0.5201  0.3095
  297MPD2     C 4524   1.204   0.239  16.643  0.2107 -0.5916  0.3260
  297MPD2    C1 4525   1.195   0.257  16.507 -0.7351  0.1991 -0.6378
  297MPD2    C2 4526   1.298   0.322  16.442 -0.1881 -0.2347  0.3168
  297MPD2    C3 4527   1.398   0.378  16.511  0.1554  0.3688 -0.3676
  297MPD2    C4 4528   1.404   0.370  16.650 -0.4627 -0.1054 -0.0916
  297MPD2    C5 4529   1.311   0.290  16.717 -0.3213 -0.4869 -0.4428
  297MPD2     H 4530   1.296   0.324  16.334 -3.5591  1.1613  0.3829
  297MPD2    H1 4531   1.494   0.406  16.698 -0.9256  3.0113 -1.5917
  297MPD2    H2 4532   1.132   0.172  16.687  0.7071  0.1466  2.2679
  297MPD2    H3 4533   1.314   0.270  16.824  3.9736 -0.8704 -0.6334
  297MPD2     N 4534   1.489   0.449  16.430  0.6457 -0.0431 -0.0739
  297MPD2    H5 4535   1.465   0.456  16.331  1.2244  0.9210 -0.1485
  297MPD2    N1 4536   1.090   0.210  16.429 -0.4904 -0.4197 -0.1291
  297MPD2    H7 4537   1.087   0.239  16.332  1.8622  0.5751  0.0977
  298TMC3    C1 4538   0.864   0.218  16.380  0.1126  0.3161 -0.1864
  298TMC3    C2 4539   0.896   0.188  16.251 -0.2318 -0.0567  0.1398
  298TMC3    C3 4540   0.835   0.259  16.152  0.2359  0.4169 -0.5210
  298TMC3    C4 4541   0.761   0.298  16.421 -0.0635  0.9890 -0.3722
  298TMC3    C5 4542   0.687   0.345  16.314 -0.3020  0.3050 -0.1624
  298TMC3    C6 4543   0.724   0.331  16.190 -0.1647  0.7375 -0.8276
  298TMC3     C 4544   0.964   0.190  16.483  0.5767 -1.1590 -0.4187
  298TMC3     O 4545   0.925   0.196  16.598 -0.4728  0.5511 -0.2989
  298TMC3     H 4546   0.988   0.136  16.226  0.2202  0.2318  1.2107
  298TMC3    H1 4547   0.742   0.327  16.524 -1.2424  0.4235 -0.4287
  298TMC3    H2 4548   0.649   0.358  16.117 -1.6348  1.2212  0.8520
  298TMC3    C7 4549   0.600   0.452  16.362  0.2836 -0.3743 -0.0999
  298TMC3    C8 4550   0.840   0.214  16.014  0.5725  0.6990  0.0653
  298TMC3    O1 4551   0.549   0.441  16.471 -0.0018 -0.0059 -0.7285
  298TMC3    O2 4552   0.888   0.103  15.987 -0.1893  0.1801  0.9047
  299MPD2     C 4553   2.007   0.317  10.480 -0.0191  0.1154 -0.2081
  299MPD2    C1 4554   1.929   0.245  10.564 -0.0605  0.1904 -0.0494
  299MPD2    C2 4555   1.810   0.188  10.525  0.1816 -0.0973 -0.3965
  299MPD2    C3 4556   1.768   0.223  10.395 -0.2994  0.1635  0.9489
  299MPD2    C4 4557   1.840   0.308  10.316  0.2940 -0.3642  0.0813
  299MPD2    C5 4558   1.964   0.349  10.354 -0.0417 -0.9719 -0.3176
  299MPD2     H 4559   1.751   0.128  10.592 -3.1261  1.5347 -1.8430
  299MPD2    H1 4560   1.809   0.340  10.217  0.5793  1.3585  0.5444
  299MPD2    H2 4561   2.100   0.356  10.521 -1.7227 -0.0297  3.7164
  299MPD2    H3 4562   2.024   0.414  10.291 -1.9177  2.2897  1.2621
  299MPD2     N 4563   1.639   0.192  10.337  0.0399  0.1263  0.1765
  299MPD2    H5 4564   1.610   0.245  10.256 -0.1850  1.4186  1.1042
  299MPD2    N1 4565   1.988   0.230  10.691  0.0629  0.0307 -0.2250
  299MPD2    H7 4566   2.076   0.272  10.718 -1.0495  1.3144  1.3995
  300TMC3    C1 4567   1.415   0.110  10.364  0.0009  0.0724 -0.7899
  300TMC3    C2 4568   1.366   0.238  10.341  0.1394  0.5072  0.2360
  300TMC3    C3 4569   1.241   0.277  10.395 -0.0070 -0.2135 -0.3984
  300TMC3    C4 4570   1.328   0.012  10.425  0.1343 -0.0755 -0.3966
  300TMC3    C5 4571   1.199   0.045  10.441 -0.2732 -0.4919 -0.5064
  300TMC3    C6 4572   1.160   0.178  10.452  0.0656 -0.5163  0.2913
  300TMC3     C 4573   1.553   0.094  10.398  0.5792 -0.2744  0.4083
  300TMC3     O 4574   1.577   0.013  10.484 -0.3528  0.4019  0.3096
  300TMC3     H 4575   1.429   0.306  10.285 -0.6028  2.9950  2.4276
  300TMC3    H1 4576   1.361   4.654  10.464 -0.1631 -1.2916 -3.1641
  300TMC3    H2 4577   1.062   0.195  10.496  0.0768  1.8824 -0.6130
  300TMC3    C7 4578   1.125   4.688  10.521  0.6569 -0.0273  0.1911
  300TMC3    C8 4579   1.239   0.405  10.463 -0.0214 -0.1526  0.2886
  300TMC3    O1 4580   1.074   4.589  10.472 -0.3346  0.6550  0.2082
  300TMC3    O2 4581   1.339   0.479  10.462 -0.4616  0.1156  0.3414
  301MPD2     C 4582   3.293   1.677   1.929  0.4843  0.1863  0.1924
  301MPD2    C1 4583   3.242   1.641   1.805 -0.3772  0.1712  0.2744
  301MPD2    C2 4584   3.296   1.533   1.749 -0.4949 -0.6285 -0.2892
  301MPD2    C3 4585   3.400   1.460   1.806 -0.1791 -0.4276  0.2701
  301MPD2    C4 4586   3.446   1.483   1.934 -1.0464  0.0566 -0.4939
  301MPD2    C5 4587   3.393   1.597   1.988 -0.0993 -0.0552  0.5171
  301MPD2     H 4588   3.256   1.498   1.655 -1.0322  1.2261 -0.7439
  301MPD2    H1 4589   3.519   1.427   1.992 -2.4146 -2.7390 -1.4705
  301MPD2    H2 4590   3.253   1.762   1.983  0.5692  0.1995  0.2337
  301MPD2    H3 4591   3.442   1.638   2.076  2.8619 -0.2221 -1.0579
  301MPD2     N 4592   3.448   1.349   1.731 -0.5697 -0.2146  0.7643
  301MPD2    H5 4593   3.497   1.290   1.798  1.8087 -0.4162 -1.1305
  301MPD2    N1 4594   3.141   1.714   1.732  0.2234 -0.0717  0.4460
  301MPD2    H7 4595   3.123   1.687   1.636 -1.3084 -2.8734  1.5343
  302TMC3    C1 4596   3.470   1.195   1.555 -0.3364  0.1423 -1.0266
  302TMC3    C2 4597   3.486   1.089   1.641 -0.2505 -0.1615  0.6273
  302TMC3    C3 4598   3.535   0.980   1.580 -0.5152  0.0541 -0.5574
  302TMC3    C4 4599   3.494   1.184   1.423  0.3134  0.1397  0.1713
  302TMC3    C5 4600   3.546   1.075   1.374  0.3778 -0.0990 -0.3417
  302TMC3    C6 4601   3.579   0.971   1.449  0.4123 -0.1955 -0.7698
  302TMC3     C 4602   3.426   1.326   1.601  0.4599 -0.6492 -0.4985
  302TMC3     O 4603   3.385   1.404   1.517  0.2159 -0.5231  0.1348
  302TMC3     H 4604   3.461   1.094   1.746 -1.9918  0.3752  0.1869
  302TMC3    H1 4605   3.471   1.266   1.357  2.2452 -0.0462 -0.7410
  302TMC3    H2 4606   3.607   0.873   1.412 -0.3532 -0.4970 -0.5597
  302TMC3    C7 4607   3.531   1.043   1.228 -0.1151  0.0026  0.8223
  302TMC3    C8 4608   3.532   0.852   1.657  0.4086  0.1466  0.5009
  302TMC3    O1 4609   3.596   0.945   1.194 -0.2676  0.1555  0.5503
  302TMC3    O2 4610   3.617   0.768   1.627 -0.7981 -0.2213  0.0049
  303MPD2     C 4611   4.439   4.227  11.340  0.6784 -0.3530 -0.2401
  303MPD2    C1 4612   4.320   4.253  11.274 -0.2472 -0.2401  0.1274
  303MPD2    C2 4613   4.317   4.317  11.149  0.3593 -0.0767 -0.9236
  303MPD2    C3 4614   4.440   4.350  11.090 -0.2365 -0.0092  0.0830
  303MPD2    C4 4615   4.558   4.306  11.145 -0.2702  0.3856 -0.4083
  303MPD2    C5 4616   4.556   4.254  11.268  0.0637  0.2026 -0.7740
  303MPD2     H 4617   4.224   4.354  11.108  0.1414  0.8357  0.4111
  303MPD2    H1 4618   4.653   4.300  11.095 -0.8481 -1.5456 -1.2535
  303MPD2    H2 4619   4.435   4.177  11.436 -1.5358 -1.1094 -0.7346
  303MPD2    H3 4620   4.647   4.215  11.313 -0.5123  0.4962  0.6389
  303MPD2     N 4621   4.459   4.409  10.971  0.5185  0.8834 -0.2989
  303MPD2    H5 4622   4.552   4.423  10.930  0.6377  0.6054 -0.1236
  303MPD2    N1 4623   4.198   4.195  11.334 -0.2872  0.5637  0.1744
  303MPD2    H7 4624   4.210   4.148  11.423 -0.5894 -2.3279 -1.3243
  304TMC3    C1 4625   3.987   4.106  11.333  0.5253  0.4490  0.1192
  304TMC3    C2 4626   3.888   4.049  11.253  0.2758  0.8289  0.3742
  304TMC3    C3 4627   3.812   3.940  11.284  0.0274  0.0127 -0.0232
  304TMC3    C4 4628   4.021   4.034  11.445  0.8113  0.5081 -0.3921
  304TMC3    C5 4629   3.961   3.912  11.463  0.4940  0.1327  0.6529
  304TMC3    C6 4630   3.845   3.869  11.391 -0.2122 -0.1523 -0.3672
  304TMC3     C 4631   4.074   4.202  11.274  0.2136  0.5573  0.2732
  304TMC3     O 4632   4.042   4.259  11.172  0.2099 -0.0667  0.2262
  304TMC3     H 4633   3.873   4.099  11.157  2.0208 -2.1379 -1.4175
  304TMC3    H1 4634   4.102   4.069  11.508  0.7845 -1.2925  0.6502
  304TMC3    H2 4635   3.808   3.769  11.410  1.1294 -1.2716 -3.6086
  304TMC3    C7 4636   4.006   3.859  11.591 -0.7142 -1.0186 -0.2149
  304TMC3    C8 4637   3.761   3.875  11.173 -0.1614  0.0346  0.1820
  304TMC3    O1 4638   4.006   3.938  11.682  0.2019 -0.7710  0.0855
  304TMC3    O2 4639   3.789   3.908  11.057  0.4251  0.2338 -0.3732
  305MPD2     C 4640   2.716   2.065  13.918 -0.3900  0.0342 -0.0629
  305MPD2    C1 4641   2.714   1.925  13.921  0.4082  1.3824  0.4102
  305MPD2    C2 4642   2.693   1.848  13.806 -0.7757 -0.4512  0.3543
  305MPD2    C3 4643   2.681   1.917  13.685 -0.4205  0.1272 -0.1575
  305MPD2    C4 4644   2.680   2.053  13.687  0.6674 -0.2964 -0.6155
  305MPD2    C5 4645   2.707   2.129  13.798  0.1540  0.2224  0.3297
  305MPD2     H 4646   2.704   1.740  13.808  0.4224 -0.3438 -0.2301
  305MPD2    H1 4647   2.671   2.107  13.593  1.8577 -2.3528 -1.9070
  305MPD2    H2 4648   2.726   2.122  14.010  0.7877 -1.5603  0.7883
  305MPD2    H3 4649   2.724   2.236  13.794  2.1877 -0.2093 -2.4432
  305MPD2     N 4650   2.668   1.849  13.556  0.6415  0.3714  0.6873
  305MPD2    H5 4651   2.660   1.913  13.477  0.1663 -0.1082  0.3421
  305MPD2    N1 4652   2.726   1.876  14.049  0.2862  0.1331 -0.1623
  305MPD2    H7 4653   2.739   1.949  14.118  0.4034 -0.6908  0.6900
  306TMC3    C1 4654   2.761   1.749  14.240  0.2621  0.2816 -0.3630
  306TMC3    C2 4655   2.816   1.630  14.290  0.1063  0.5618 -0.6292
  306TMC3    C3 4656   2.846   1.624  14.425  0.3058  0.0044 -0.0636
  306TMC3    C4 4657   2.747   1.859  14.321 -0.1106  0.0846 -0.2562
  306TMC3    C5 4658   2.779   1.849  14.449  0.6691  0.1970  0.4199
  306TMC3    C6 4659   2.832   1.735  14.505  0.3566  0.1307  0.5762
  306TMC3     C 4660   2.732   1.746  14.095  0.4233  0.1548 -0.2456
  306TMC3     O 4661   2.723   1.641  14.038 -0.3936  0.3299 -0.1978
  306TMC3     H 4662   2.829   1.541  14.230 -0.8770 -0.7235  1.0515
  306TMC3    H1 4663   2.703   1.949  14.281 -0.8782 -0.3368 -0.3583
  306TMC3    H2 4664   2.866   1.744  14.608 -0.2397 -0.1954  0.8023
  306TMC3    C7 4665   2.793   1.980  14.517  0.7835  0.0284  0.3164
  306TMC3    C8 4666   2.920   1.511  14.472  0.4008 -0.0446  0.3387
  306TMC3    O1 4667   2.824   2.076  14.442 -0.9371 -0.2151  0.5265
  306TMC3    O2 4668   2.929   1.418  14.395  0.3494 -0.3407  0.0159
  307MPD2     C 4669   4.619   0.070  17.746  0.3673  0.4380 -0.3448
  307MPD2    C1 4670   4.562   0.194  17.721  0.1849  0.1191  0.0071
  307MPD2    C2 4671   4.514   0.266   0.082  0.5539 -0.1394 -0.2125
  307MPD2    C3 4672   4.525   0.209   0.210  0.0006 -0.5214 -0.3798
  307MPD2    C4 4673   4.579   0.083   0.230 -0.1105  0.2595 -0.4486
  307MPD2    C5 4674   4.621   0.012   0.121 -0.3082  0.2974 -0.0491
  307MPD2     H 4675   4.469   0.363   0.061  2.3872  0.4761 -1.2580
  307MPD2    H1 4676   4.587   0.038   0.329 -1.6464 -0.8733 -0.8374
  307MPD2    H2 4677   4.663   0.005  17.672 -1.0676  0.0276 -0.8376
  307MPD2    H3 4678   4.675   4.656   0.128  0.1482  0.6096  0.6068
  307MPD2     N 4679   4.489   0.290   0.317 -0.0330  0.2547 -0.4780
  307MPD2    H5 4680   4.479   0.387   0.290 -0.1728  0.2356 -0.4962
  307MPD2    N1 4681   4.556   0.268  17.596 -0.0757 -0.3097  0.0040
  307MPD2    H7 4682   4.520   0.362  17.606  0.8023 -0.4035  3.7825
  308TMC3    C1 4683   4.438   0.459   0.767 -0.0729  0.4446 -0.7822
  308TMC3    C2 4684   4.384   0.572   0.718  0.1182 -0.8309  0.4322
  308TMC3    C3 4685   4.354   0.578   0.581 -0.1639  0.0949  0.6035
  308TMC3    C4 4686   4.475   0.358   0.677  0.3958  0.1213 -0.3658
  308TMC3    C5 4687   4.464   0.370   0.537  0.0176 -0.2029 -0.0839
  308TMC3    C6 4688   4.399   0.482   0.491 -0.2916  0.4130 -0.1820
  308TMC3     C 4689   4.359   0.394   0.871 -0.4564 -0.0012  0.4387
  308TMC3     O 4690   4.408   0.303   0.940 -0.1375  0.0727  0.5218
  308TMC3     H 4691   4.339   0.644   0.786  1.9825  0.0419  0.7737
  308TMC3    H1 4692   4.518   0.265   0.712 -0.8423  0.1105  1.1010
  308TMC3    H2 4693   4.358   0.489   0.391  0.4082  0.8918 -0.4393
  308TMC3    C7 4694   4.486   0.254   0.455  0.2237 -0.4397  0.3836
  308TMC3    C8 4695   4.225   0.635   0.573 -0.0300  0.2860 -0.0059
  308TMC3    O1 4696   4.488   0.147   0.508 -0.1390 -0.0825  0.2490
  308TMC3    O2 4697   4.135   0.595   0.640  0.1186 -0.3833 -0.1273
  309MPD2     C 4698   3.227   0.619  17.157 -0.8198  0.0584 -0.0882
  309MPD2    C1 4699   3.211   0.489  17.199  0.6689 -0.6056  0.0466
  309MPD2    C2 4700   3.141   0.472  17.321 -0.4396 -0.6313  0.0205
  309MPD2    C3 4701   3.073   0.577  17.381 -0.7639  0.0458  0.0525
  309MPD2    C4 4702   3.075   0.701  17.318  0.3026  0.1298  0.7044
  309MPD2    C5 4703   3.153   0.723  17.209 -0.3681 -0.3432 -1.0611
  309MPD2     H 4704   3.137   0.375  17.368  1.4453  0.0982  1.6766
  309MPD2    H1 4705   3.008   0.781  17.346 -2.3341 -1.7879 -0.0957
  309MPD2    H2 4706   3.283   0.644  17.067 -1.1501 -0.2230 -0.3743
  309MPD2    H3 4707   3.163   0.824  17.170 -1.3649 -0.1908 -0.9171
  309MPD2     N 4708   2.999   0.564  17.503  0.6771 -0.0772 -0.7683
  309MPD2    H5 4709   2.968   0.649  17.550 -1.4272 -1.1087 -0.2784
  309MPD2    N1 4710   3.274   0.374  17.145  0.0790 -0.6174  0.3725
  309MPD2    H7 4711   3.255   0.283  17.185  1.6869 -1.5408 -0.9860
  310TMC3    C1 4712   3.432   0.252  17.021  0.2397 -0.3310  0.2401
  310TMC3    C2 4713   3.446   0.230  16.887  0.1607 -0.1022  0.4763
  310TMC3    C3 4714   3.532   0.135  16.849 -0.1004  0.2098  0.5975
  310TMC3    C4 4715   3.510   0.189  17.115  0.2074  0.3885  0.1922
  310TMC3    C5 4716   3.594   0.092  17.075 -0.7823  0.0798  0.0528
  310TMC3    C6 4717   3.605   0.065  16.939 -0.5501  1.0201  0.6204
  310TMC3     C 4718   3.374   0.386  17.052  0.4282  0.7045  0.1086
  310TMC3     O 4719   3.420   0.484  16.992 -0.6210 -0.4809  0.2388
  310TMC3     H 4720   3.407   0.292  16.807  0.5395  1.4288  1.4658
  310TMC3    H1 4721   3.515   0.207  17.222  1.6533  0.4468  0.1019
  310TMC3    H2 4722   3.659   4.719  16.899  0.1861  2.7513 -2.0203
  310TMC3    C7 4723   3.654   4.733  17.161 -0.7670  1.1589  0.0854
  310TMC3    C8 4724   3.569   0.141  16.708  0.0307  0.0582 -0.1705
  310TMC3    O1 4725   3.680   4.618  17.135  0.9195  0.1791 -0.0786
  310TMC3    O2 4726   3.500   0.205  16.629  0.1522 -1.0191 -0.7722
  311MPD2     C 4727   1.567   0.995  12.943  0.8960  0.3745 -0.3835
  311MPD2    C1 4728   1.511   1.126  12.925 -0.0601 -0.6328 -0.5696
  311MPD2    C2 4729   1.380   1.152  12.952 -0.0873  0.8495 -0.1282
  311MPD2    C3 4730   1.301   1.054  12.999  0.0562  0.0716  0.2571
  311MPD2    C4 4731   1.352   0.930  13.024  0.7800 -0.0498 -0.3637
  311MPD2    C5 4732   1.483   0.895  12.991  0.0407  0.1230  0.5016
  311MPD2     H 4733   1.336   1.248  12.927  1.0923  1.4944  0.2693
  311MPD2    H1 4734   1.299   0.839  13.049  0.4844  0.2363  0.0584
  311MPD2    H2 4735   1.669   0.971  12.916  0.6952  0.2871 -1.0706
  311MPD2    H3 4736   1.522   0.797  13.016  2.1270  0.4389 -1.5222
  311MPD2     N 4737   1.167   1.095  13.029 -0.0597  0.2813  0.0163
  311MPD2    H5 4738   1.142   1.187  12.993  0.6588  0.4318 -0.0875
  311MPD2    N1 4739   1.592   1.233  12.867  0.3891 -0.1740  0.6181
  311MPD2    H7 4740   1.550   1.325  12.864 -0.8856 -0.8566 -2.5806
  312TMC3    C1 4741   0.933   1.091  13.066  0.2908 -0.6154 -0.3630
  312TMC3    C2 4742   0.819   1.031  13.020 -0.1531 -0.5912  0.4569
  312TMC3    C3 4743   0.710   1.114  13.004 -0.0649 -0.1698  0.5479
  312TMC3    C4 4744   0.936   1.226  13.094 -0.0777 -0.6298 -0.0717
  312TMC3    C5 4745   0.822   1.302  13.085  0.1960  0.4848 -0.0645
  312TMC3    C6 4746   0.712   1.248  13.028 -0.1942 -0.5281  0.6987
  312TMC3     C 4747   1.057   1.018  13.051  0.3866  0.1890 -0.0248
  312TMC3     O 4748   1.055   0.895  13.056 -0.6633 -0.0609  0.3745
  312TMC3     H 4749   0.826   0.931  12.980 -1.9281 -0.2681 -0.6655
  312TMC3    H1 4750   1.023   1.280  13.129 -0.1765 -1.1139  0.9420
  312TMC3    H2 4751   0.626   1.311  13.009 -0.0738 -0.3664  0.6924
  312TMC3    C7 4752   0.823   1.436  13.130  0.2418  0.1444 -0.6700
  312TMC3    C8 4753   0.594   1.059  12.944  0.4208 -0.9190 -0.3585
  312TMC3    O1 4754   0.756   1.520  13.068  0.4598  0.0223  0.0115
  312TMC3    O2 4755   0.578   0.935  12.954  0.7263  0.1800 -0.5410
  313MPD2     C 4756   0.338   0.938  11.724  0.4966  0.0985  0.0130
  313MPD2    C1 4757   0.440   0.928  11.632 -0.3229  0.8320 -0.3554
  313MPD2    C2 4758   0.502   0.807  11.608 -0.5695 -0.2985  0.0804
  313MPD2    C3 4759   0.473   0.694  11.683 -0.3286 -0.5108 -0.1286
  313MPD2    C4 4760   0.372   0.703  11.777  0.1944 -0.4698 -0.2456
  313MPD2    C5 4761   0.305   0.824  11.792 -0.2028 -0.2202  0.8340
  313MPD2     H 4762   0.582   0.795  11.536 -1.9560  0.0155 -1.5057
  313MPD2    H1 4763   0.336   0.621  11.838 -1.6890 -0.6264 -1.5782
  313MPD2    H2 4764   0.294   1.029  11.763  0.3561  0.5654 -1.2349
  313MPD2    H3 4765   0.230   0.830  11.870  0.5248 -3.1193  1.7713
  313MPD2     N 4766   0.551   0.577  11.660  0.3442  0.6423 -0.4428
  313MPD2    H5 4767   0.615   0.586  11.582 -0.3541  3.0239 -0.7193
  313MPD2    N1 4768   0.480   1.047  11.561  0.9100 -0.4403 -0.5389
  313MPD2    H7 4769   0.401   1.110  11.549  0.9089 -0.1519  0.8867
  314TMC3    C1 4770   0.618   1.181  11.415 -0.3835  0.0736  0.7034
  314TMC3    C2 4771   0.747   1.215  11.385  0.3353  0.1312 -0.6488
  314TMC3    C3 4772   0.757   1.326  11.306  0.2288  0.0158 -0.5416
  314TMC3    C4 4773   0.505   1.226  11.349 -0.0424 -0.0121 -0.3943
  314TMC3    C5 4774   0.534   1.311  11.242 -0.7093 -0.7507  0.3907
  314TMC3    C6 4775   0.652   1.377  11.234 -0.0209 -0.2817  0.4087
  314TMC3     C 4776   0.605   1.061  11.499 -0.1431  0.0268  0.3801
  314TMC3     O 4777   0.708   0.997  11.522  0.0369  0.1298 -0.6236
  314TMC3     H 4778   0.830   1.172  11.439  0.2448  0.2941 -0.3804
  314TMC3    H1 4779   0.405   1.185  11.359 -0.9048  1.8987 -1.2531
  314TMC3    H2 4780   0.671   1.464  11.174  0.1108  0.2809  1.2618
  314TMC3    C7 4781   0.463   1.282  11.122  0.3794  0.4562  0.5569
  314TMC3    C8 4782   0.889   1.394  11.288  0.7301  0.6323 -0.0817
  314TMC3    O1 4783   0.350   1.225  11.122  0.5474 -0.4337 -0.4649
  314TMC3    O2 4784   0.895   1.498  11.221  0.6098 -0.5657  0.0589
  315MPD2     C 4785   0.125   4.402  17.663  0.2268  0.3891  0.0302
  315MPD2    C1 4786   0.207   4.453   0.013 -0.1943 -0.0008  0.0374
  315MPD2    C2 4787   0.240   4.587   0.012  0.0249  0.3110  0.1040
  315MPD2    C3 4788   0.195   4.673  17.666  0.0663 -0.0180 -1.0447
  315MPD2    C4 4789   0.112   4.620  17.567 -0.5467 -0.3110  0.0282
  315MPD2    C5 4790   0.081   4.480  17.561 -0.8838 -0.4979 -1.0601
  315MPD2     H 4791   0.292   4.633   0.095  0.5836 -0.8090  0.3715
  315MPD2    H1 4792   0.075   4.693  17.496 -0.9699 -0.2875  0.2698
  315MPD2    H2 4793   0.096   4.298  17.655 -1.5749  0.8810  0.1674
  315MPD2    H3 4794   0.020   4.432  17.484 -1.3328 -2.3109  0.4394
  315MPD2     N 4795   0.222   0.072  17.684  0.2422 -0.1179  0.0723
  315MPD2    H5 4796   0.258   0.099   0.026  0.7984  2.3720 -0.8785
  315MPD2    N1 4797   0.253   4.380   0.123 -0.0906 -0.2536  0.2225
  315MPD2    H7 4798   0.308   4.428   0.194  0.4872 -2.0656  1.0111
  316TMC3    C1 4799   0.251   0.299  17.642 -0.2068 -0.6565  0.0049
  316TMC3    C2 4800   0.309   0.306   0.019  0.1809 -0.1641  0.2823
  316TMC3    C3 4801   0.337   0.420   0.072 -0.9897  0.2099  0.0619
  316TMC3    C4 4802   0.207   0.409  17.579  0.1953 -0.3795  0.1699
  316TMC3    C5 4803   0.236   0.524  17.642  0.4139  0.2855 -0.1337
  316TMC3    C6 4804   0.295   0.532   0.015  0.5636  0.2416 -0.4016
  316TMC3     C 4805   0.213   0.165  17.589 -0.5955 -0.0070 -0.2012
  316TMC3     O 4806   0.196   0.156  17.468  0.5512 -0.0789 -0.3785
  316TMC3     H 4807   0.326   0.217   0.079 -2.6494 -0.5388  0.5493
  316TMC3    H1 4808   0.151   0.399  17.486 -0.6330 -2.5053  0.8978
  316TMC3    H2 4809   0.308   0.630   0.059  1.4128  1.0950 -2.5484
  316TMC3    C7 4810   0.159   0.640  17.589 -0.7072  0.4122 -0.7486
  316TMC3    C8 4811   0.357   0.422   0.212 -0.3386  0.9138 -0.3083
  316TMC3    O1 4812   0.128   0.717  17.678 -0.0379 -0.7255 -0.1657
  316TMC3    O2 4813   0.306   0.516   0.271 -0.1419  0.7606 -0.2904
  317MPD2     C 4814   2.677   3.199  12.434 -0.7090 -0.5791 -0.3806
  317MPD2    C1 4815   2.736   3.075  12.424 -0.2975  0.1895 -0.1566
  317MPD2    C2 4816   2.771   3.010  12.543  0.4851 -0.5442  0.1465
  317MPD2    C3 4817   2.752   3.065  12.668  0.5023 -0.6109 -0.5519
  317MPD2    C4 4818   2.677   3.184  12.674 -0.5005  0.3069  0.0034
  317MPD2    C5 4819   2.647   3.244  12.558 -0.4302 -0.4937 -0.6103
  317MPD2     H 4820   2.822   2.915  12.533 -0.0996 -0.8998  0.5669
  317MPD2    H1 4821   2.660   3.232  12.770 -0.8818  0.2019 -0.0124
  317MPD2    H2 4822   2.667   3.268  12.351  0.0653 -1.4673 -1.2119
  317MPD2    H3 4823   2.597   3.341  12.566  1.9120  0.4050  3.2688
  317MPD2     N 4824   2.790   2.990  12.785 -0.3596  0.0632 -1.1256
  317MPD2    H5 4825   2.850   2.911  12.767 -2.0833 -1.2617 -0.9727
  317MPD2    N1 4826   2.774   3.017  12.306 -0.2966 -0.0446 -0.4475
  317MPD2    H7 4827   2.782   2.917  12.313  0.3130  0.0356 -0.0273
  318TMC3    C1 4828   2.821   2.918  12.996  0.0704 -0.8141  0.2692
  318TMC3    C2 4829   2.833   2.793  12.940 -0.1099 -0.1191 -0.2771
  318TMC3    C3 4830   2.892   2.683  13.003  0.8495  0.3269 -0.4616
  318TMC3    C4 4831   2.857   2.943  13.127  0.3961  0.3248 -0.4395
  318TMC3    C5 4832   2.901   2.833  13.189 -0.0723  0.1127  0.0802
  318TMC3    C6 4833   2.919   2.705  13.135  0.6749 -0.4476  1.0065
  318TMC3     C 4834   2.768   3.023  12.915  0.0471  1.4934 -0.6435
  318TMC3     O 4835   2.709   3.115  12.969  0.1829  0.1155  0.2867
  318TMC3     H 4836   2.782   2.770  12.847 -0.2262 -1.9571  0.2399
  318TMC3    H1 4837   2.844   3.040  13.173 -0.3188  0.3247 -0.6427
  318TMC3    H2 4838   2.925   2.618  13.200 -1.1317 -1.1954  0.1670
  318TMC3    C7 4839   2.972   2.863  13.310 -0.3724  0.4020  0.0176
  318TMC3    C8 4840   2.820   2.567  12.958 -0.2694  0.4512  0.4681
  318TMC3    O1 4841   2.931   2.963  13.370  0.1959 -0.8624 -0.4863
  318TMC3    O2 4842   2.850   2.517  12.849 -0.3241  0.5585  0.0268
  319MPD2     C 4843   3.449   4.562  16.650  0.1331 -0.2761 -0.3166
  319MPD2    C1 4844   3.335   4.529  16.719 -0.0920  0.5372 -0.0697
  319MPD2    C2 4845   3.213   4.500  16.660  0.5803 -0.1430 -0.1433
  319MPD2    C3 4846   3.211   4.501  16.523  0.6047 -0.9960 -0.3066
  319MPD2    C4 4847   3.319   4.545  16.449  0.0747  0.0962  0.1920
  319MPD2    C5 4848   3.442   4.569  16.512 -0.2546  0.1448 -0.0985
  319MPD2     H 4849   3.121   4.494  16.718 -0.5426 -0.3745 -1.9562
  319MPD2    H1 4850   3.314   4.554  16.341  0.7547  0.1934  0.1699
  319MPD2    H2 4851   3.545   4.580  16.698 -0.5941  1.2623  0.5481
  319MPD2    H3 4852   3.532   4.589  16.456 -0.3565  0.0151 -0.3073
  319MPD2     N 4853   3.095   4.466  16.449 -0.6117  0.3578  0.3035
  319MPD2    H5 4854   3.107   4.471  16.348 -0.6523  0.4486  0.3039
  319MPD2    N1 4855   3.334   4.521  16.859  0.5472  0.0508  0.0448
  319MPD2    H7 4856   3.242   4.514  16.901  0.2585  0.7913 -0.4495
  320TMC3    C1 4857   2.897   4.349  16.393  0.7483  0.1634  0.1227
  320TMC3    C2 4858   2.890   4.398  16.266 -0.1189  0.0031  0.3193
  320TMC3    C3 4859   2.823   4.320  16.168 -0.5854  0.6324  0.3166
  320TMC3    C4 4860   2.849   4.222  16.416 -0.0419 -0.2162 -0.0845
  320TMC3    C5 4861   2.796   4.146  16.308  0.3977  0.6968  0.3552
  320TMC3    C6 4862   2.775   4.189  16.186  0.4592 -0.2411  0.7956
  320TMC3     C 4863   2.979   4.407  16.503 -0.7000 -0.0396  0.4093
  320TMC3     O 4864   2.958   4.369  16.618  0.2481  0.5769 -0.3740
  320TMC3     H 4865   2.911   4.500  16.239 -1.3400  0.4643  1.0711
  320TMC3    H1 4866   2.867   4.181  16.515 -1.5356  0.7463  0.5843
  320TMC3    H2 4867   2.727   4.130  16.110  0.9962  0.1701  0.1421
  320TMC3    C7 4868   2.778   4.000  16.321  0.6244  0.1298  0.1664
  320TMC3    C8 4869   2.767   4.392  16.059  0.4531  0.6782 -0.2480
  320TMC3    O1 4870   2.724   3.950  16.225  0.0196 -0.3787  0.3393
  320TMC3    O2 4871   2.748   4.509  16.079  0.3907 -0.3566  0.0755
  321TMC3    C1 4872   3.404   4.497  17.084  0.9483  0.1879  0.5376
  321TMC3    C2 4873   3.450   4.402  17.169 -0.4349  0.2242 -0.4467
  321TMC3    C3 4874   3.396   4.397  17.296  0.4641 -0.0087 -0.3986
  321TMC3    C4 4875   3.302   4.582  17.116 -0.4371 -0.1422 -0.2422
  321TMC3    C5 4876   3.251   4.582  17.241  0.1362 -0.5801 -0.3593
  321TMC3    C6 4877   3.283   4.474  17.325  0.6945  0.2931  0.2035
  321TMC3     C 4878   3.439   4.499  16.938  0.0871 -1.0907  0.2588
  321TMC3     O 4879   3.548   4.456  16.902 -0.3448  0.6747  0.2686
  321TMC3     H 4880   3.534   4.340  17.138 -0.7378  0.9359 -2.7038
  321TMC3    H1 4881   3.280   4.667  17.053 -1.6636 -0.0807  0.2772
  321TMC3    H2 4882   3.229   4.477  17.419  2.7133 -0.8194  1.4098
  321TMC3    C7 4883   3.269   4.710  17.316 -0.0123  0.7643 -0.2710
  321TMC3    C8 4884   3.482   4.384  17.417 -0.0600  0.1115  0.1121
  321TMC3    O1 4885   3.249   0.076  17.256 -0.2742  0.2445 -0.5842
  321TMC3    O2 4886   3.437   4.436  17.520 -0.3610 -0.1971 -0.2017
  322MPD2     C 4887   2.446   1.095  13.482 -0.7309  0.1082 -0.5461
  322MPD2    C1 4888   2.451   1.038  13.608 -0.2513 -0.3079  0.1544
  322MPD2    C2 4889   2.417   0.904  13.623 -0.0613  0.1264  0.1323
  322MPD2    C3 4890   2.390   0.820  13.515 -0.2419  0.5058 -0.4159
  322MPD2    C4 4891   2.381   0.882  13.390 -0.5683 -0.0721  0.3480
  322MPD2    C5 4892   2.409   1.016  13.376 -0.2395 -0.7343  0.0023
  322MPD2     H 4893   2.449   0.860  13.717  0.5029  0.4396  0.0849
  322MPD2    H1 4894   2.348   0.833  13.299 -0.8981  1.0346 -0.1329
  322MPD2    H2 4895   2.463   1.201  13.469  0.1129  0.0539  0.0989
  322MPD2    H3 4896   2.394   1.060  13.278 -1.6955 -0.6873  0.2574
  322MPD2     N 4897   2.376   0.680  13.540  0.0812 -0.3220  0.3386
  322MPD2    H5 4898   2.402   0.655  13.634 -0.6342  1.6816  1.0746
  322MPD2    N1 4899   2.488   1.119  13.719  0.2484  0.2391  0.4520
  322MPD2    H7 4900   2.513   1.215  13.701 -1.3993  0.1602 -2.3542
  323TMC3    C1 4901   2.531   1.172  13.950 -0.3053 -0.0153 -0.3929
  323TMC3    C2 4902   2.619   1.265  13.913 -0.2051  0.0334 -0.7394
  323TMC3    C3 4903   2.703   1.315  14.008  0.1455  0.0097 -0.3847
  323TMC3    C4 4904   2.515   1.129  14.075 -0.1511 -0.1664 -0.1215
  323TMC3    C5 4905   2.588   1.186  14.178  0.1364 -0.3073 -0.0564
  323TMC3    C6 4906   2.696   1.258  14.134  1.4102 -0.5584  0.5115
  323TMC3     C 4907   2.458   1.091  13.852 -0.1574  0.4567  0.0534
  323TMC3     O 4908   2.381   1.004  13.899  0.5010 -0.2418  0.4231
  323TMC3     H 4909   2.619   1.304  13.811 -1.2351 -1.3136 -1.2528
  323TMC3    H1 4910   2.433   1.065  14.107 -0.2233  0.0216  0.0646
  323TMC3    H2 4911   2.765   1.302  14.205  0.0625  0.6782  1.0743
  323TMC3    C7 4912   2.647   1.077  14.252 -0.3841  0.2272 -0.6744
  323TMC3    C8 4913   2.837   1.350  13.967  0.2955  0.1329 -0.0349
  323TMC3    O1 4914   2.656   0.971  14.195 -0.0037  0.4326  0.1248
  323TMC3    O2 4915   2.923   1.330  14.049  0.3732 -0.7029 -0.2319
  324MPD2     C 4916   4.109   1.702  14.363  0.3919  0.5319 -0.1510
  324MPD2    C1 4917   4.109   1.840  14.364 -0.4620  0.0750 -0.4894
  324MPD2    C2 4918   3.996   1.912  14.339 -0.4711 -0.1306  0.2020
  324MPD2    C3 4919   3.878   1.847  14.306 -0.8671 -0.2850 -0.5096
  324MPD2    C4 4920   3.879   1.710  14.295  0.3651 -0.5389 -0.1368
  324MPD2    C5 4921   3.991   1.636  14.326  0.5222  0.0309 -0.3397
  324MPD2     H 4922   3.992   2.014  14.374  4.2875 -0.9118  2.9520
  324MPD2    H1 4923   3.795   1.655  14.255 -0.2368  2.6667 -3.3200
  324MPD2    H2 4924   4.202   1.653  14.390 -0.7339 -1.1432  0.6549
  324MPD2    H3 4925   3.999   1.528  14.314 -1.0083 -0.0051 -1.0554
  324MPD2     N 4926   3.752   1.912  14.275  0.5819 -0.2334 -0.5617
  324MPD2    H5 4927   3.676   1.861  14.232  0.2384 -1.8560  1.9477
  324MPD2    N1 4928   4.235   1.894  14.374 -0.1910 -0.5585  0.1797
  324MPD2    H7 4929   4.313   1.843  14.414 -0.2197 -1.6685 -1.1596
  325TMC3    C1 4930   3.605   2.098  14.253 -0.6143 -0.0940  0.7196
  325TMC3    C2 4931   3.553   2.057  14.131 -0.5086  0.9650  0.0223
  325TMC3    C3 4932   3.447   2.129  14.080 -0.3415  0.6671 -0.1903
  325TMC3    C4 4933   3.562   2.216  14.304  0.2589  0.2006 -0.4101
  325TMC3    C5 4934   3.459   2.289  14.248 -1.0389  0.6768 -0.4805
  325TMC3    C6 4935   3.403   2.241  14.135 -0.1672  0.0845  0.5326
  325TMC3     C 4936   3.725   2.041  14.308 -0.6253  0.3891 -0.4307
  325TMC3     O 4937   3.792   2.111  14.384  0.4185  0.5158 -0.3786
  325TMC3     H 4938   3.585   1.963  14.089 -0.5286  0.3242  1.4520
  325TMC3    H1 4939   3.609   2.266  14.388 -0.0018 -0.7970  0.3265
  325TMC3    H2 4940   3.304   2.273  14.104  0.1302  2.2974  1.8780
  325TMC3    C7 4941   3.411   2.411  14.311  0.5175 -0.7835 -0.7788
  325TMC3    C8 4942   3.384   2.079  13.958  0.0231 -0.7492 -0.9150
  325TMC3    O1 4943   3.426   2.424  14.432 -0.1441  0.4104  0.1665
  325TMC3    O2 4944   3.437   1.979  13.917  1.1189 -0.6226 -0.1997
  326MPD2     C 4945   0.442   2.886  11.477  0.1865  0.0200  0.1738
  326MPD2    C1 4946   0.455   2.930  11.347  0.1253  0.3650 -0.0909
  326MPD2    C2 4947   0.559   3.007  11.308 -0.1964 -1.0331 -0.1736
  326MPD2    C3 4948   0.662   3.035  11.396  0.1904 -0.0699 -0.7378
  326MPD2    C4 4949   0.651   2.987  11.525  0.0184  0.3047  0.2221
  326MPD2    C5 4950   0.547   2.916  11.569 -0.8584  0.5617  0.4424
  326MPD2     H 4951   0.569   3.030  11.203  1.0227  0.7631  0.3377
  326MPD2    H1 4952   0.724   3.016  11.601 -1.7397 -1.2412  2.4950
  326MPD2    H2 4953   0.355   2.833  11.515  1.1955 -1.3766  0.5159
  326MPD2    H3 4954   0.539   2.873  11.668  0.9985  0.4471  0.5469
  326MPD2     N 4955   0.776   3.116  11.372  0.0528 -0.2132  0.4226
  326MPD2    H5 4956   0.841   3.138  11.447 -0.2900  0.3035  0.5667
  326MPD2    N1 4957   0.359   2.915  11.255  1.1663  0.1708 -0.4001
  326MPD2    H7 4958   0.372   2.974  11.173 -0.5699  0.5788 -0.3770
  327TMC3    C1 4959   0.155   2.876  11.156 -0.1861  0.2883  0.2018
  327TMC3    C2 4960   0.108   2.999  11.148 -0.4516  0.0699  0.8579
  327TMC3    C3 4961   0.060   3.042  11.029 -0.0571 -0.5985  0.5693
  327TMC3    C4 4962   0.186   2.814  11.041 -0.4389 -0.1928 -0.1560
  327TMC3    C5 4963   0.162   2.865  10.918  0.2091  0.3701 -0.3685
  327TMC3    C6 4964   0.087   2.975  10.910  0.1451 -0.2532 -1.0461
  327TMC3     C 4965   0.240   2.848  11.266  0.6552 -0.4986 -0.1140
  327TMC3     O 4966   0.197   2.765  11.343  0.3239 -0.1381 -0.0600
  327TMC3     H 4967   0.108   3.065  11.234  0.5573  2.9158 -1.3229
  327TMC3    H1 4968   0.235   2.718  11.050  0.2526 -0.0101 -1.9748
  327TMC3    H2 4969   0.058   3.021  10.816  0.8620 -1.4558 -1.8525
  327TMC3    C7 4970   0.274   2.877  10.816 -0.0579  0.7256 -0.7893
  327TMC3    C8 4971   0.056   3.190  11.016  0.3815 -1.0256  0.2231
  327TMC3    O1 4972   0.246   2.945  10.722  0.4156 -0.2463  0.2200
  327TMC3    O2 4973   0.104   3.238  10.911 -0.2392  0.1973  0.0808
  328MPD2     C 4974   2.586   3.242  17.485  0.9411  0.6552 -1.0637
  328MPD2    C1 4975   2.515   3.146  17.417 -0.0202  0.1006  0.6019
  328MPD2    C2 4976   2.477   3.177  17.287 -0.4009  0.5281 -0.3366
  328MPD2    C3 4977   2.505   3.297  17.226  0.0801  0.0559  0.0390
  328MPD2    C4 4978   2.571   3.397  17.296  0.1076 -0.5041 -0.2724
  328MPD2    C5 4979   2.607   3.364  17.421  1.0195  0.5359 -0.7513
  328MPD2     H 4980   2.418   3.103  17.234 -0.3264  1.1916 -1.3618
  328MPD2    H1 4981   2.588   3.496  17.255 -1.4027 -0.5853 -1.0886
  328MPD2    H2 4982   2.629   3.223  17.583 -1.5879 -0.6365 -0.2010
  328MPD2    H3 4983   2.666   3.437  17.475 -1.1756  1.5558  0.2816
  328MPD2     N 4984   2.456   3.322  17.095  0.1469 -0.7416  0.2143
  328MPD2    H5 4985   2.485   3.410  17.053 -0.4977 -0.3719  0.5397
  328MPD2    N1 4986   2.508   3.016  17.467 -0.3337  0.0763  0.0257
  328MPD2    H7 4987   2.529   3.002  17.565 -0.3000  4.0547  0.5979
  329TMC3    C1 4988   2.475   2.781  17.473  0.0932 -0.6088  0.1383
  329TMC3    C2 4989   2.442   2.791  17.612 -0.5328  0.2175 -0.0057
  329TMC3    C3 4990   2.422   2.670  17.677  0.0499  0.2468  0.0527
  329TMC3    C4 4991   2.493   2.667  17.412  0.5161 -1.1878  0.3615
  329TMC3    C5 4992   2.471   2.551  17.483 -0.2566  0.6900  0.3127
  329TMC3    C6 4993   2.440   2.548  17.618 -0.3057  0.1275 -0.2287
  329TMC3     C 4994   2.487   2.903  17.394  0.2294 -0.1255  0.3356
  329TMC3     O 4995   2.492   2.894  17.271 -0.3233  0.2390 -0.7846
  329TMC3     H 4996   2.411   2.885  17.656 -1.7553 -0.6487  0.9710
  329TMC3    H1 4997   2.536   2.661  17.313 -2.0064 -1.5626 -0.7056
  329TMC3    H2 4998   2.433   2.452  17.669 -1.8064  0.9585  1.1378
  329TMC3    C7 4999   2.481   2.429  17.410 -0.5500  0.4390  0.4427
  329TMC3    C8 5000   2.383   2.660   0.072  0.9658 -0.4108 -0.5071
  329TMC3    O1 5001   2.504   2.324  17.466 -0.0088 -0.1250 -0.9637
  329TMC3    O2 5002   2.374   2.545   0.116  0.3605  0.6245 -0.4635
  330TMC3    C1 5003   0.515   2.393   9.339  0.1426  0.2340  0.3368
  330TMC3    C2 5004   0.531   2.371   9.472  1.1114  0.5987 -0.1283
  330TMC3    C3 5005   0.536   2.244   9.521  0.0353 -0.1462 -0.0137
  330TMC3    C4 5006   0.518   2.289   9.249 -0.0462 -0.2992 -0.0843
  330TMC3    C5 5007   0.530   2.160   9.295  0.3500 -0.0509 -0.2499
  330TMC3    C6 5008   0.540   2.138   9.428  0.3107  0.2494 -0.3330
  330TMC3     C 5009   0.495   2.525   9.274  0.2434  0.4167 -0.4636
  330TMC3     O 5010   0.505   2.540   9.153  0.1615 -0.0076 -0.0264
  330TMC3     H 5011   0.525   2.449   9.546  0.2777 -1.7644  2.3086
  330TMC3    H1 5012   0.492   2.308   9.146 -1.7209  0.7629  0.5355
  330TMC3    H2 5013   0.570   2.040   9.461 -0.4064 -0.0555 -0.5901
  330TMC3    C7 5014   0.470   2.056   9.215  0.0629  0.3350  0.2535
  330TMC3    C8 5015   0.586   2.209   9.652  0.2590 -0.1210 -0.4251
  330TMC3    O1 5016   0.398   2.089   9.121 -0.4337 -0.1068  0.0194
  330TMC3    O2 5017   0.673   2.288   9.696 -0.0861  0.1561  0.2719
  331MPD2     C 5018   3.183   1.053  12.576  0.0860 -0.1810 -0.4820
  331MPD2    C1 5019   3.312   1.066  12.533  0.1831 -0.5500  0.4955
  331MPD2    C2 5020   3.380   0.951  12.504  0.3928  0.0334 -0.1700
  331MPD2    C3 5021   3.327   0.829  12.522 -0.6243 -0.1321 -0.4150
  331MPD2    C4 5022   3.205   0.821  12.582 -0.0231  0.3614 -0.0782
  331MPD2    C5 5023   3.131   0.930  12.602  0.0175 -0.0600  0.5274
  331MPD2     H 5024   3.479   0.963  12.461  1.5744 -0.5581  2.3517
  331MPD2    H1 5025   3.150   0.728  12.594  0.3210  0.0167 -1.1208
  331MPD2    H2 5026   3.120   1.140  12.584 -0.8182 -0.7083 -1.7388
  331MPD2    H3 5027   3.029   0.913  12.635 -0.0814  1.2897  0.9118
  331MPD2     N 5028   3.420   0.722  12.486  0.5852 -0.3125  0.4632
  331MPD2    H5 5029   3.503   0.752  12.435 -1.4683  2.3676 -1.2871
  331MPD2    N1 5030   3.371   1.198  12.521  0.4615 -0.0661 -0.5223
  331MPD2    H7 5031   3.310   1.278  12.537  1.7991  0.5308  1.5342
  332TMC3    C1 5032   3.520   0.511  12.488 -0.2349 -1.4280  0.5732
  332TMC3    C2 5033   3.604   0.557  12.391 -0.3820 -0.5475 -1.2993
  332TMC3    C3 5034   3.739   0.576  12.407 -0.1862 -0.0487  0.0679
  332TMC3    C4 5035   3.573   0.457  12.597  0.1910  0.1938  0.2046
  332TMC3    C5 5036   3.707   0.474  12.613 -0.1288 -0.0794  0.5091
  332TMC3    C6 5037   3.792   0.529  12.524  0.2446  0.8325 -0.8254
  332TMC3     C 5038   3.400   0.589  12.525  0.2107 -0.3814  0.6379
  332TMC3     O 5039   3.313   0.547  12.597  0.0216  0.1493  0.2515
  332TMC3     H 5040   3.557   0.606  12.306 -0.9427 -0.1351 -0.7505
  332TMC3    H1 5041   3.505   0.424  12.675  2.3676 -0.2444  1.9105
  332TMC3    H2 5042   3.891   0.566  12.548 -0.4522  1.8319  0.5150
  332TMC3    C7 5043   3.754   0.467  12.749 -0.3928  0.2348 -0.3895
  332TMC3    C8 5044   3.832   0.601  12.295  1.1355 -0.4742 -0.0975
  332TMC3    O1 5045   3.665   0.449  12.833 -0.7372  0.3595  0.4500
  332TMC3    O2 5046   3.950   0.594  12.321  0.5754  0.3703 -0.3347
  333MPD2     C 5047   3.680   1.234  11.288 -0.4921  0.3394  0.1212
  333MPD2    C1 5048   3.779   1.149  11.242  0.6227  0.2151  0.5587
  333MPD2    C2 5049   3.734   1.027  11.210  0.3876  0.9118  0.0090
  333MPD2    C3 5050   3.602   0.984  11.231 -0.9655 -1.2663 -0.0961
  333MPD2    C4 5051   3.503   1.075  11.269 -0.1573 -0.1323 -0.3074
  333MPD2    C5 5052   3.547   1.202  11.294 -0.0936  0.1166 -0.0170
  333MPD2     H 5053   3.809   0.957  11.174 -0.1676  0.3522 -0.0645
  333MPD2    H1 5054   3.395   1.068  11.277 -0.1876 -0.1071 -0.7259
  333MPD2    H2 5055   3.710   1.335  11.314  0.5695  0.6416 -2.3152
  333MPD2    H3 5056   3.476   1.278  11.325  0.3889 -0.1290  1.7137
  333MPD2     N 5057   3.566   0.849  11.201  0.4237 -0.0429  1.0088
  333MPD2    H5 5058   3.645   0.790  11.179 -0.6757 -1.0660 -0.1337
  333MPD2    N1 5059   3.913   1.197  11.217 -0.1408 -1.3822 -0.0057
  333MPD2    H7 5060   3.935   1.295  11.232 -0.2222 -1.7594  2.5801
  334TMC3    C1 5061   4.131   1.222  11.111  0.1763 -0.7001  0.0992
  334TMC3    C2 5062   4.201   1.199  10.993 -0.3299  0.1116  0.5467
  334TMC3    C3 5063   4.314   1.273  10.978  0.4767  0.1020  0.4060
  334TMC3    C4 5064   4.172   1.309  11.206  0.2953  0.1514  0.4636
  334TMC3    C5 5065   4.275   1.391  11.171  0.0520  0.7531  0.2246
  334TMC3    C6 5066   4.342   1.384  11.052 -0.8523 -0.1820 -0.2674
  334TMC3     C 5067   4.008   1.137  11.133  0.5398 -0.5895  0.1950
  334TMC3     O 5068   4.011   1.028  11.076  0.0433  0.0487  0.0058
  334TMC3     H 5069   4.160   1.138  10.914  2.1433  1.3750 -1.7367
  334TMC3    H1 5070   4.113   1.314  11.297 -0.7902  3.6274 -0.4002
  334TMC3    H2 5071   4.411   1.462  11.021 -1.0840  1.1324  2.5860
  334TMC3    C7 5072   4.317   1.490  11.267 -0.6535  0.4997  0.1292
  334TMC3    C8 5073   4.375   1.257  10.846 -0.6675  1.1231  0.1714
  334TMC3    O1 5074   4.396   1.576  11.236 -0.0960 -0.4562  0.4039
  334TMC3    O2 5075   4.341   1.159  10.780  0.1628  1.0554  0.1349
  335TMC3    C1 5076   3.565   3.436  17.285 -0.1758  0.7178  0.6135
  335TMC3    C2 5077   3.505   3.399  17.169  0.4412 -0.1865 -1.2413
  335TMC3    C3 5078   3.594   3.377  17.062 -0.8074 -0.1152 -0.0160
  335TMC3    C4 5079   3.697   3.459  17.303 -0.0797  0.6550  0.0282
  335TMC3    C5 5080   3.776   3.446  17.195  1.3922  0.3348 -0.3145
  335TMC3    C6 5081   3.731   3.396  17.075  0.0174  0.5656  0.0079
  335TMC3     C 5082   3.471   3.482  17.383 -0.0634  0.5730 -0.9033
  335TMC3     O 5083   3.375   3.551  17.351 -1.0266  1.2242 -0.2222
  335TMC3     H 5084   3.398   3.383  17.159  0.5746 -1.2553 -0.8462
  335TMC3    H1 5085   3.736   3.496  17.398 -1.5197  0.7992  0.5675
  335TMC3    H2 5086   3.803   3.366  17.000 -1.1191 -1.3624 -0.3225
  335TMC3    C7 5087   3.913   3.407  17.214  0.0236  0.0778  0.4033
  335TMC3    C8 5088   3.554   3.296  16.948  0.0285 -0.2184  0.4661
  335TMC3    O1 5089   3.985   3.402  17.117 -0.1250  0.6817  0.2668
  335TMC3    O2 5090   3.622   3.306  16.846  0.3256  0.6031  0.1152
  336MPD2     C 5091   2.818   1.126  16.193  0.2388  0.2170  0.6639
  336MPD2    C1 5092   2.902   1.081  16.095 -0.5583 -0.4094 -0.4970
  336MPD2    C2 5093   2.933   0.951  16.096 -0.1160 -0.4630  0.2442
  336MPD2    C3 5094   2.878   0.860  16.191 -0.5622  0.4970 -0.7278
  336MPD2    C4 5095   2.795   0.912  16.283 -0.8047  0.1795 -0.1382
  336MPD2    C5 5096   2.770   1.049  16.291  0.0834 -0.2694  0.5461
  336MPD2     H 5097   2.999   0.921  16.016 -0.2624 -1.7048  0.5890
  336MPD2    H1 5098   2.756   0.853  16.365  0.6183 -0.2169  0.2490
  336MPD2    H2 5099   2.777   1.226  16.200  0.7154  0.5896 -2.1584
  336MPD2    H3 5100   2.703   1.078  16.371  0.9066 -0.1923  1.2167
  336MPD2     N 5101   2.887   0.718  16.178  0.5459 -0.5642 -0.4572
  336MPD2    H5 5102   2.838   0.660  16.246 -0.2014 -0.6601 -1.0882
  336MPD2    N1 5103   2.957   1.156  15.986 -0.1367 -0.6589 -0.4186
  336MPD2    H7 5104   2.996   1.101  15.911  0.5228 -1.9740  0.8776
  337TMC3    C1 5105   2.966   1.352  15.864 -0.1559 -1.1142  0.4377
  337TMC3    C2 5106   2.883   1.299  15.767 -0.6015  0.3520  0.0420
  337TMC3    C3 5107   2.778   1.372  15.724 -0.2985 -0.5921 -0.5142
  337TMC3    C4 5108   2.968   1.485  15.893 -0.0725 -0.9905  0.1103
  337TMC3    C5 5109   2.859   1.560  15.853 -0.3247 -0.2112  0.2607
  337TMC3    C6 5110   2.769   1.502  15.769 -0.1534  0.2932  0.1212
  337TMC3     C 5111   2.976   1.286  15.992  0.8761 -0.0213  0.1648
  337TMC3     O 5112   2.971   1.352  16.095  0.2475  0.1320  0.1155
  337TMC3     H 5113   2.882   1.194  15.739  0.1104  1.0194 -2.4725
  337TMC3    H1 5114   3.041   1.520  15.964  0.4898 -1.9940  0.0166
  337TMC3    H2 5115   2.672   1.551  15.775  0.4181  1.6134 -1.4511
  337TMC3    C7 5116   2.808   1.657  15.944  0.3646 -0.0575  0.3326
  337TMC3    C8 5117   2.653   1.295  15.728 -0.0155 -0.2875  0.9214
  337TMC3    O1 5118   2.716   1.738  15.921  0.3985  0.3861 -0.3029
  337TMC3    O2 5119   2.601   1.272  15.836  0.4167  0.0902 -0.4293
  338MPD2     C 5120   3.159   0.891   1.398  1.1255  0.2358  1.0355
  338MPD2    C1 5121   3.225   0.774   1.402 -0.9807  0.3641  0.6060
  338MPD2    C2 5122   3.226   0.692   1.511 -0.2930  0.3991 -0.1894
  338MPD2    C3 5123   3.149   0.721   1.612  0.2047  0.7917 -0.6916
  338MPD2    C4 5124   3.069   0.831   1.603  0.3081  0.2377 -0.1440
  338MPD2    C5 5125   3.074   0.917   1.497  0.0848  0.4045 -0.4868
  338MPD2     H 5126   3.287   0.602   1.507 -0.2169  0.4473 -0.1016
  338MPD2    H1 5127   2.990   0.851   1.675 -0.7440  0.4250 -1.3543
  338MPD2    H2 5128   3.163   0.954   1.309 -1.9773 -0.9338  0.0542
  338MPD2    H3 5129   3.005   1.000   1.493 -0.1262  0.1322 -2.5199
  338MPD2     N 5130   3.125   0.625   1.721  0.5339  0.2242 -0.2260
  338MPD2    H5 5131   3.155   0.531   1.697  1.5713  0.9363 -1.7456
  338MPD2    N1 5132   3.299   0.728   1.288 -0.5487  0.3468  0.6928
  338MPD2    H7 5133   3.362   0.652   1.314 -2.2504 -1.1544  0.4471
  339TMC3    C1 5134   2.973   0.509   1.825 -0.7356 -0.6183  0.3288
  339TMC3    C2 5135   3.046   0.401   1.856  0.4783 -0.3084  0.6243
  339TMC3    C3 5136   3.030   0.286   1.794 -0.5576  0.7367  0.0932
  339TMC3    C4 5137   2.895   0.498   1.714  0.3483  0.4217  0.8439
  339TMC3    C5 5138   2.898   0.389   1.636  0.5800  0.0044 -0.1070
  339TMC3    C6 5139   2.948   0.275   1.687  0.3766 -0.2822  0.1738
  339TMC3     C 5140   3.032   0.635   1.821  0.4298  0.4187 -0.4476
  339TMC3     O 5141   2.958   0.724   1.854  0.4032 -0.3837 -0.3657
  339TMC3     H 5142   3.119   0.405   1.936  1.1441 -1.2737  0.0636
  339TMC3    H1 5143   2.846   0.586   1.674 -2.0128 -2.0262 -1.5484
  339TMC3    H2 5144   2.939   0.184   1.629  3.0864 -1.1369  1.0871
  339TMC3    C7 5145   2.905   0.415   1.498 -0.8369  0.1304  0.3759
  339TMC3    C8 5146   3.087   0.165   1.851  1.6920 -0.2181 -0.4551
  339TMC3    O1 5147   2.831   0.506   1.457 -0.2628 -0.7906 -0.1023
  339TMC3    O2 5148   3.199   0.159   1.898  0.7538 -0.2097  0.5916
  340MPD2     C 5149   3.712   3.030  10.610 -0.1286  0.2182 -0.2649
  340MPD2    C1 5150   3.699   2.906  10.665  0.8171 -0.0030 -0.2009
  340MPD2    C2 5151   3.702   2.895  10.799 -0.6157  0.1511  0.5601
  340MPD2    C3 5152   3.722   3.003  10.883  0.0632  0.1334 -0.1456
  340MPD2    C4 5153   3.740   3.131  10.830 -0.1016 -0.7727 -0.2613
  340MPD2    C5 5154   3.720   3.142  10.689  0.4000 -0.1662  0.1699
  340MPD2     H 5155   3.703   2.796  10.843  0.1398 -0.2802 -0.4318
  340MPD2    H1 5156   3.774   3.214  10.891 -0.9476 -1.4570  1.1442
  340MPD2    H2 5157   3.717   3.052  10.504 -1.6086 -1.0060 -0.5775
  340MPD2    H3 5158   3.733   3.236  10.637  0.0333  0.3084  0.9474
  340MPD2     N 5159   3.753   2.985  11.019  0.1759  0.6636  0.0229
  340MPD2    H5 5160   3.788   3.065  11.071 -0.7838  1.7981 -1.0871
  340MPD2    N1 5161   3.701   2.794  10.575 -0.4633  0.6454 -0.5370
  340MPD2    H7 5162   3.738   2.809  10.482  0.2114 -0.0402 -0.3798
  341TMC3    C1 5163   3.734   2.576  10.519  0.3863 -0.3034 -0.3337
  341TMC3    C2 5164   3.667   2.455  10.497 -0.4717 -0.5749 -0.1786
  341TMC3    C3 5165   3.724   2.376  10.397  0.4924  0.4354  0.4158
  341TMC3    C4 5166   3.846   2.618  10.456 -0.2643 -0.8817 -0.4067
  341TMC3    C5 5167   3.900   2.533  10.360 -0.0034 -0.9382 -0.0169
  341TMC3    C6 5168   3.839   2.413  10.335 -0.3304  0.5861 -0.1070
  341TMC3     C 5169   3.668   2.661  10.609  0.3930  0.1496  0.2669
  341TMC3     O 5170   3.589   2.631  10.695 -1.0152 -0.3232  0.0470
  341TMC3     H 5171   3.575   2.421  10.541  0.3382 -1.5725  0.7572
  341TMC3    H1 5172   3.899   2.709  10.481 -1.9284 -0.7960  2.8575
  341TMC3    H2 5173   3.882   2.350  10.258 -1.9412 -1.8416  0.9897
  341TMC3    C7 5174   4.029   2.545  10.301 -0.1535 -0.1723  0.2525
  341TMC3    C8 5175   3.663   2.247  10.368  0.2445  0.0815 -0.4046
  341TMC3    O1 5176   4.078   2.439  10.274 -0.1570 -0.3854 -0.3933
  341TMC3    O2 5177   3.560   2.221  10.429  0.3075 -0.2787  0.0237
  342MPD2     C 5178   1.146   1.540  17.649  0.0595 -1.0793 -0.7102
  342MPD2    C1 5179   1.255   1.514  17.567  0.4907  0.4867  0.0963
  342MPD2    C2 5180   1.303   1.611  17.478  0.0532 -0.0318  0.1123
  342MPD2    C3 5181   1.256   1.740  17.481  0.7147 -0.7805  0.5199
  342MPD2    C4 5182   1.156   1.763  17.572  0.2219  0.7723 -0.3690
  342MPD2    C5 5183   1.101   1.668  17.658  1.3045 -0.6177  0.3247
  342MPD2     H 5184   1.376   1.578  17.405  0.0491 -1.9085  0.9518
  342MPD2    H1 5185   1.123   1.864  17.595  0.3500  0.5634  0.7260
  342MPD2    H2 5186   1.119   1.478  17.734 -3.2706 -0.7476 -1.5325
  342MPD2    H3 5187   1.036   1.700  17.739 -1.4481 -1.7595 -1.4032
  342MPD2     N 5188   1.302   1.853  17.402 -0.4947 -0.2660 -0.9073
  342MPD2    H5 5189   1.242   1.934  17.404 -0.2252 -0.0978  0.5780
  342MPD2    N1 5190   1.309   1.382  17.558  0.4142 -0.0998  0.3093
  342MPD2    H7 5191   1.374   1.352  17.486 -1.5726  0.8554 -1.8899
  343TMC3    C1 5192   1.356   1.165  17.617 -0.2546  0.1423 -0.2939
  343TMC3    C2 5193   1.470   1.180  17.543 -0.1014 -0.4102 -0.2310
  343TMC3    C3 5194   1.519   1.074  17.475  0.3762 -0.5440  0.0238
  343TMC3    C4 5195   1.315   1.039  17.644  0.2144 -0.0009 -0.0785
  343TMC3    C5 5196   1.371   0.937  17.575 -0.6699  0.5662  0.4470
  343TMC3    C6 5197   1.473   0.948  17.495 -0.5102 -0.0906 -0.5064
  343TMC3     C 5198   1.279   1.282  17.648  0.5671  0.1046 -0.2024
  343TMC3     O 5199   1.204   1.276  17.748  0.3426  0.2845  0.4152
  343TMC3     H 5200   1.516   1.278  17.533 -0.2030 -0.2611  0.7179
  343TMC3    H1 5201   1.231   1.013  17.708  0.3111  2.5606  1.1211
  343TMC3    H2 5202   1.523   0.866  17.443  1.2549 -0.4714  1.8037
  343TMC3    C7 5203   1.319   0.799  17.580 -0.1389  0.3423 -0.2677
  343TMC3    C8 5204   1.626   1.100  17.377  0.2876  0.1542 -0.2830
  343TMC3    O1 5205   1.320   0.741  17.472  0.0266 -0.2373 -0.1647
  343TMC3    O2 5206   1.687   1.206  17.395  0.0759  0.3543  0.0198
  344MPD2     C 5207   2.549   0.417  11.135  0.2065 -0.2006  0.5615
  344MPD2    C1 5208   2.470   0.445  11.022  0.4487 -0.0160  0.0266
  344MPD2    C2 5209   2.506   0.542  10.943  0.1371  0.3565  0.5817
  344MPD2    C3 5210   2.621   0.608  10.965  0.4140 -0.2696 -0.4162
  344MPD2    C4 5211   2.711   0.581  11.069 -0.0122  0.2797  0.5745
  344MPD2    C5 5212   2.669   0.483  11.155  0.2852  0.4999  0.6529
  344MPD2     H 5213   2.444   0.565  10.857  0.3883  0.9169  0.5486
  344MPD2    H1 5214   2.803   0.637  11.078 -0.8434  1.8325 -0.5592
  344MPD2    H2 5215   2.522   0.336  11.202  1.1239 -0.1870  0.9480
  344MPD2    H3 5216   2.738   0.438  11.225  2.8450  2.7645 -0.4155
  344MPD2     N 5217   2.664   0.708  10.881  0.5459 -0.2736  0.0636
  344MPD2    H5 5218   2.740   0.764  10.919 -0.3090  0.7072  0.3364
  344MPD2    N1 5219   2.339   0.394  10.999 -0.2417  0.2818 -0.5583
  344MPD2    H7 5220   2.290   0.437  10.921  1.4763 -1.5487 -2.6135
  345TMC3    C1 5221   2.675   0.851  10.702 -0.7612  0.5616  0.8997
  345TMC3    C2 5222   2.790   0.911  10.754 -0.4969  0.6440  0.0572
  345TMC3    C3 5223   2.883   0.971  10.668  0.0553 -0.1537 -0.5413
  345TMC3    C4 5224   2.651   0.854  10.565 -0.0518 -0.1489 -0.5881
  345TMC3    C5 5225   2.740   0.919  10.483 -0.4956  0.3058 -0.3616
  345TMC3    C6 5226   2.852   0.973  10.529  0.1424 -0.2212  0.6849
  345TMC3     C 5227   2.602   0.743  10.758 -0.5238 -0.1171  0.0031
  345TMC3     O 5228   2.523   0.679  10.690  0.9180 -0.4600 -0.2222
  345TMC3     H 5229   2.798   0.926  10.861 -0.2956 -2.1598  0.4385
  345TMC3    H1 5230   2.548   0.845  10.531  0.1009  0.4701 -1.2091
  345TMC3    H2 5231   2.918   1.012  10.453 -1.1487 -0.0223 -0.3496
  345TMC3    C7 5232   2.705   0.956  10.348 -0.2118  0.5894 -0.8612
  345TMC3    C8 5233   2.964   1.086  10.704 -0.3684 -0.2004 -0.2737
  345TMC3    O1 5234   2.792   1.001  10.275 -0.5824 -0.1673 -0.4394
  345TMC3    O2 5235   3.004   1.152  10.611  0.2029  0.0998  0.3802
  346MPD2     C 5236   2.291   2.684  14.068  0.0164 -0.3508  0.9249
  346MPD2    C1 5237   2.423   2.641  14.062 -0.2298 -0.3512  0.0222
  346MPD2    C2 5238   2.510   2.646  14.168  0.5859 -1.0546 -0.1361
  346MPD2    C3 5239   2.458   2.687  14.286  0.6712  0.3160 -0.4698
  346MPD2    C4 5240   2.321   2.714  14.302  0.0907  0.5174  0.6288
  346MPD2    C5 5241   2.239   2.721  14.190 -0.5636 -0.2841  0.5884
  346MPD2     H 5242   2.612   2.611  14.159 -0.6651 -4.9314  0.7709
  346MPD2    H1 5243   2.282   2.737  14.401  0.1946  0.9417  0.5709
  346MPD2    H2 5244   2.225   2.690  13.983  0.3697 -1.1803  0.5905
  346MPD2    H3 5245   2.136   2.745  14.213 -0.6070 -0.8299  0.9684
  346MPD2     N 5246   2.552   2.684  14.392 -0.1107 -0.0322 -0.4137
  346MPD2    H5 5247   2.643   2.650  14.362 -0.3160  0.8976 -2.0843
  346MPD2    N1 5248   2.473   2.582  13.946 -0.5436 -0.3926  0.0009
  346MPD2    H7 5249   2.574   2.571  13.948 -0.4803  0.3413  0.8132
  347TMC3    C1 5250   2.640   2.704  14.616  0.2411  0.2450  0.7872
  347TMC3    C2 5251   2.762   2.700  14.554 -0.3674 -0.9828 -0.4474
  347TMC3    C3 5252   2.874   2.681  14.635  0.1605  0.5632 -0.0298
  347TMC3    C4 5253   2.619   2.675  14.748 -0.6663 -0.0755 -0.4601
  347TMC3    C5 5254   2.732   2.638  14.813 -0.8347  1.5421 -0.1254
  347TMC3    C6 5255   2.856   2.637  14.759  0.2065  0.1466 -0.3517
  347TMC3     C 5256   2.524   2.718  14.526 -0.2452 -0.3515  0.1386
  347TMC3     O 5257   2.421   2.758  14.577  0.0670 -0.0145  0.0242
  347TMC3     H 5258   2.780   2.727  14.451 -2.8431 -0.7357 -0.8135
  347TMC3    H1 5259   2.522   2.657  14.792 -1.1715  1.0320 -1.1060
  347TMC3    H2 5260   2.946   2.627  14.819 -0.3376 -0.5725  0.3443
  347TMC3    C7 5261   2.706   2.569  14.938 -0.3464 -0.3502 -0.6017
  347TMC3    C8 5262   2.994   2.648  14.569 -0.3734  0.5119  0.1481
  347TMC3    O1 5263   2.595   2.518  14.956 -0.1315 -0.5757  0.3300
  347TMC3    O2 5264   3.039   2.543  14.604 -0.1900 -0.1345  0.1687
  348MPD2     C 5265   1.958   1.898  12.097  0.3629  0.4717  0.4459
  348MPD2    C1 5266   1.877   1.842  12.001  0.4376 -0.0174  0.1458
  348MPD2    C2 5267   1.894   1.883  11.862  0.2539 -0.0660  0.5771
  348MPD2    C3 5268   1.979   1.983  11.832 -0.0539 -0.6373 -0.1307
  348MPD2    C4 5269   2.049   2.051  11.932 -0.2954 -0.1254  0.1367
  348MPD2    C5 5270   2.036   2.002  12.057  0.6021 -1.0433  0.6824
  348MPD2     H 5271   1.842   1.827  11.785 -0.1962  0.1277  0.7463
  348MPD2    H1 5272   2.114   2.137  11.919 -1.5211  0.8704  0.6133
  348MPD2    H2 5273   1.962   1.866  12.201 -0.4906  2.0282  0.9654
  348MPD2    H3 5274   2.104   2.061  12.118 -0.4275  2.4473 -1.5581
  348MPD2     N 5275   1.975   2.019  11.696 -0.1185 -0.2403  0.0604
  348MPD2    H5 5276   1.906   1.964  11.645 -0.9925  0.5524  0.4068
  348MPD2    N1 5277   1.816   1.719  12.029 -0.7201 -0.1014  0.1401
  348MPD2    H7 5278   1.783   1.666  11.949  0.8698 -0.2351 -0.4335
  349TMC3    C1 5279   1.701   1.555  12.147  0.3802  0.0032 -0.2472
  349TMC3    C2 5280   1.669   1.484  12.264 -1.1735  0.4883 -0.2400
  349TMC3    C3 5281   1.591   1.370  12.256 -0.0097  0.2583 -0.1093
  349TMC3    C4 5282   1.635   1.530  12.033 -0.4072  0.1782 -0.1125
  349TMC3    C5 5283   1.551   1.420  12.017 -0.0836  0.2337  0.5682
  349TMC3    C6 5284   1.519   1.347  12.132 -0.2844  0.1816  0.4877
  349TMC3     C 5285   1.776   1.679  12.157 -0.0485 -0.2378 -0.4670
  349TMC3     O 5286   1.781   1.730  12.268 -0.2298 -0.8287 -0.0618
  349TMC3     H 5287   1.723   1.505  12.355  0.1851 -0.9532 -0.7204
  349TMC3    H1 5288   1.638   1.599  11.949 -0.4033 -0.1389 -0.3724
  349TMC3    H2 5289   1.458   1.260  12.112 -1.0139  0.5852  0.9415
  349TMC3    C7 5290   1.445   1.421  11.913  0.1519  0.2935 -0.0436
  349TMC3    C8 5291   1.602   1.264  12.358 -0.0902 -0.6932 -0.5588
  349TMC3    O1 5292   1.329   1.387  11.940  0.8693  0.1450 -0.3333
  349TMC3    O2 5293   1.636   1.313  12.465 -0.0409 -0.2896  0.2552
  350MPD2     C 5294   0.929   0.235  10.878  0.2056  0.2170  0.8769
  350MPD2    C1 5295   0.819   0.156  10.904 -0.6592  0.3362  0.4891
  350MPD2    C2 5296   0.774   0.141  11.027  0.3063 -0.0084  0.2609
  350MPD2    C3 5297   0.831   0.212  11.135 -0.0179 -0.4127  0.0662
  350MPD2    C4 5298   0.934   0.306  11.108  0.2379 -0.0884  1.0062
  350MPD2    C5 5299   0.974   0.315  10.980 -0.4793  0.0713  0.3225
  350MPD2     H 5300   0.692   0.071  11.045 -0.5901  0.9612 -0.0596
  350MPD2    H1 5301   0.986   0.368  11.180 -2.5612  0.9945  2.0783
  350MPD2    H2 5302   0.971   0.242  10.778  0.1104  0.6918  0.8710
  350MPD2    H3 5303   1.051   0.387  10.956  0.4322 -1.7056 -2.0480
  350MPD2     N 5304   0.772   0.187  11.259 -0.4924  0.5351 -0.5819
  350MPD2    H5 5305   0.696   0.119  11.266  0.0401  0.0289  0.2267
  350MPD2    N1 5306   0.771   0.066  10.808  0.1030 -0.7789 -0.1021
  350MPD2    H7 5307   0.702   4.736  10.842 -1.0977  0.2264 -0.5391
  351TMC3    C1 5308   0.710   4.711  10.597  0.1706 -0.0024  0.4790
  351TMC3    C2 5309   0.769   4.644  10.491 -0.2002 -0.3799  0.0840
  351TMC3    C3 5310   0.697   4.543  10.437  0.2261 -0.1566 -0.4449
  351TMC3    C4 5311   0.591   4.675  10.645 -0.6936  0.3563 -0.2275
  351TMC3    C5 5312   0.515   4.580  10.577  0.6140  0.0444  0.9246
  351TMC3    C6 5313   0.571   4.512  10.471  0.3303 -0.5532 -0.4505
  351TMC3     C 5314   0.795   0.070  10.674  1.0865 -0.0860  0.2267
  351TMC3     O 5315   0.864   0.144  10.601 -0.3564 -0.3662 -0.1204
  351TMC3     H 5316   0.864   4.677  10.450 -0.0337 -1.8609 -0.7437
  351TMC3    H1 5317   0.543   0.002  10.717  1.4161  1.6016  0.0541
  351TMC3    H2 5318   0.512   4.432  10.426  0.8836  0.9059 -3.7365
  351TMC3    C7 5319   0.372   4.599  10.573 -0.1859  0.6079 -0.0707
  351TMC3    C8 5320   0.748   4.467  10.323 -0.1504  0.4084 -0.0166
  351TMC3    O1 5321   0.305   4.497  10.566 -0.5750 -0.2943  0.1511
  351TMC3    O2 5322   0.672   4.384  10.271  0.4046  0.3234  0.5175
  352MPD2     C 5323   3.076   2.495   1.282  0.4637  0.4880  0.0991
  352MPD2    C1 5324   2.947   2.490   1.322  0.0587 -0.1050 -0.0204
  352MPD2    C2 5325   2.907   2.411   1.429  0.3005  0.3417 -0.1343
  352MPD2    C3 5326   2.996   2.316   1.478 -0.5384 -0.2386  0.7518
  352MPD2    C4 5327   3.124   2.318   1.426 -0.1562  0.4933  0.3905
  352MPD2    C5 5328   3.171   2.408   1.337 -0.0299  0.4633 -0.0852
  352MPD2     H 5329   2.807   2.417   1.471  0.9968  1.6227  1.3201
  352MPD2    H1 5330   3.196   2.248   1.466  0.0884  1.8066  2.2456
  352MPD2    H2 5331   3.122   2.555   1.204 -0.7763  1.1087 -0.1652
  352MPD2    H3 5332   3.271   2.413   1.296 -0.5142  2.0922 -1.0444
  352MPD2     N 5333   2.959   2.214   1.569 -0.0251 -0.2948  0.0185
  352MPD2    H5 5334   3.032   2.159   1.612  2.4870  1.6272 -1.8173
  352MPD2    N1 5335   2.850   2.576   1.270 -0.0266 -1.0328 -0.2245
  352MPD2    H7 5336   2.756   2.564   1.308  0.2785  0.0065  0.8546
  353TMC3    C1 5337   2.824   2.026   1.622 -0.0480 -0.3433  0.7989
  353TMC3    C2 5338   2.928   1.989   1.703  0.4687  0.6762  0.4687
  353TMC3    C3 5339   2.972   1.860   1.708 -0.1524 -0.6573  0.0131
  353TMC3    C4 5340   2.758   1.930   1.537 -0.1948  0.2523  0.5896
  353TMC3    C5 5341   2.815   1.810   1.541 -0.3039 -0.0884 -0.1982
  353TMC3    C6 5342   2.916   1.769   1.623  0.9018  0.4963 -0.2824
  353TMC3     C 5343   2.830   2.160   1.565  0.1782  0.0026  0.1945
  353TMC3     O 5344   2.729   2.192   1.507  0.8666  0.4028 -0.2071
  353TMC3     H 5345   2.977   2.055   1.773 -0.5079 -0.8976  2.6337
  353TMC3    H1 5346   2.687   1.971   1.466  2.7087  1.5011 -1.6114
  353TMC3    H2 5347   2.934   1.662   1.624 -1.0412  0.1886  2.1117
  353TMC3    C7 5348   2.795   1.730   1.426  0.4311 -0.3726  0.2376
  353TMC3    C8 5349   3.067   1.811   1.792 -0.1326  0.0637 -0.0691
  353TMC3    O1 5350   2.865   1.633   1.396  0.2601  0.1765 -0.7969
  353TMC3    O2 5351   3.088   1.872   1.898 -0.2455 -0.1533  0.5982
  354TMC3    C1 5352   0.604   2.667  13.595 -0.1153  0.7217 -0.5672
  354TMC3    C2 5353   0.560   2.752  13.509  0.1424 -0.0032  0.2211
  354TMC3    C3 5354   0.606   2.759  13.383  0.1255 -0.7296 -0.3977
  354TMC3    C4 5355   0.702   2.578  13.558  0.2646 -0.3896  0.1106
  354TMC3    C5 5356   0.748   2.582  13.431  0.1112  0.1835 -0.1021
  354TMC3    C6 5357   0.695   2.666  13.334  0.2652 -0.0430  0.1368
  354TMC3     C 5358   0.557   2.665  13.730 -0.7600  0.4207  0.0957
  354TMC3     O 5359   0.446   2.707  13.758 -0.4060  0.0168  0.8083
  354TMC3     H 5360   0.485   2.824  13.541  0.5143  1.2259 -1.6524
  354TMC3    H1 5361   0.753   2.528  13.639  0.8315 -1.5732 -0.9785
  354TMC3    H2 5362   0.740   2.684  13.238 -1.1747 -0.0700 -0.5440
  354TMC3    C7 5363   0.875   2.518  13.396 -0.1018  0.2633 -0.2547
  354TMC3    C8 5364   0.664   2.893  13.346 -0.0653  0.3391  0.1868
  354TMC3    O1 5365   0.906   2.424  13.471 -0.3384  0.3498 -0.2131
  354TMC3    O2 5366   0.697   2.902  13.224 -0.1881  0.5412 -0.1406
  355MPD2     C 5367   0.641   3.852  12.252  0.5047  0.4550 -0.1239
  355MPD2    C1 5368   0.717   3.837  12.139  0.4213  0.2484  0.1316
  355MPD2    C2 5369   0.818   3.742  12.133 -0.1474  0.7672 -0.1670
  355MPD2    C3 5370   0.844   3.664  12.251  0.0480 -0.3347  0.9814
  355MPD2    C4 5371   0.767   3.686  12.365  0.2471  0.1100  0.6082
  355MPD2    C5 5372   0.660   3.772  12.364  0.2541  0.2255 -0.1375
  355MPD2     H 5373   0.896   3.747  12.058 -0.5661 -1.5314 -0.7642
  355MPD2    H1 5374   0.789   3.626  12.452 -0.4951 -0.6571  0.2735
  355MPD2    H2 5375   0.563   3.927  12.251  0.1155  0.0014 -4.5725
  355MPD2    H3 5376   0.593   3.776  12.449  0.1362 -0.1645 -0.2107
  355MPD2     N 5377   0.953   3.575  12.266  0.4277 -0.5811 -0.3578
  355MPD2    H5 5378   0.971   3.534  12.357  1.4197 -0.0836 -0.3259
  355MPD2    N1 5379   0.699   3.924  12.026 -0.0567 -0.1171  0.1760
  355MPD2    H7 5380   0.631   3.998  12.039  0.4702  0.1309  1.4912
  356TMC3    C1 5381   1.156   3.674  12.190 -0.0980  0.1594  0.7166
  356TMC3    C2 5382   1.173   3.764  12.087 -0.1406  0.2780 -0.7469
  356TMC3    C3 5383   1.189   3.903  12.110 -0.5503  0.4640  0.3414
  356TMC3    C4 5384   1.167   3.724  12.320 -0.2206  0.8204  0.2952
  356TMC3    C5 5385   1.189   3.864  12.341 -0.3337 -0.9407 -0.4107
  356TMC3    C6 5386   1.208   3.953  12.236  0.3837 -0.5107 -0.1064
  356TMC3     C 5387   1.049   3.573  12.171 -0.1787 -0.5249  1.0345
  356TMC3     O 5388   1.036   3.540  12.053  0.3668  0.3327  0.6748
  356TMC3     H 5389   1.171   3.732  11.984 -1.5131 -0.5624 -0.4676
  356TMC3    H1 5390   1.146   3.656  12.402 -0.1116 -1.2602 -1.4101
  356TMC3    H2 5391   1.215   4.061  12.245  3.3194 -0.5040 -2.5462
  356TMC3    C7 5392   1.222   3.899  12.478 -0.5000 -0.1514  0.1969
  356TMC3    C8 5393   1.195   3.987  11.992  0.4246  0.0344  0.6967
  356TMC3    O1 5394   1.175   3.836  12.571 -0.2130 -0.0730  0.4115
  356TMC3    O2 5395   1.161   3.932  11.889  0.2660 -0.0273  0.1120
  357MPD2     C 5396   4.084   4.397   1.153  0.4851  0.4024  0.5407
  357MPD2    C1 5397   4.000   4.295   1.195 -0.3012  0.3054  0.8111
  357MPD2    C2 5398   3.933   4.218   1.095  0.4161  0.2619 -0.4161
  357MPD2    C3 5399   3.956   4.244   0.960  0.0333 -0.1822 -0.1853
  357MPD2    C4 5400   4.052   4.332   0.918 -0.5686  0.1475  0.7459
  357MPD2    C5 5401   4.121   4.398   1.020 -0.1036 -0.2502  0.0601
  357MPD2     H 5402   3.862   4.141   1.121 -0.3218  0.9975 -0.2316
  357MPD2    H1 5403   4.094   4.337   0.818  1.1981 -0.9924  1.4352
  357MPD2    H2 5404   4.132   4.461   1.227  2.5559  0.5865 -0.9549
  357MPD2    H3 5405   4.189   4.477   0.988  0.3895  0.1077  1.9762
  357MPD2     N 5406   3.900   4.170   0.855  0.0341  0.1140 -0.3082
  357MPD2    H5 5407   3.925   4.205   0.762  1.4864 -1.0908 -0.3746
  357MPD2    N1 5408   3.967   4.292   1.333 -0.1439 -0.6144  0.2629
  357MPD2    H7 5409   4.012   4.362   1.391  1.3411  0.1423 -1.7881
  358TMC3    C1 5410   3.890   4.231   1.541 -0.8299 -0.5656  0.5974
  358TMC3    C2 5411   3.896   4.364   1.568  0.1570 -0.5471 -0.2046
  358TMC3    C3 5412   3.954   4.396   1.685  0.4901 -0.4005  0.5322
  358TMC3    C4 5413   3.915   4.132   1.621  1.1142  0.2791 -0.0651
  358TMC3    C5 5414   3.949   4.174   1.747 -0.7033  0.3461 -0.2968
  358TMC3    C6 5415   3.969   4.302   1.785  0.2817 -0.1845  0.0697
  358TMC3     C 5416   3.884   4.204   1.400 -0.7529 -0.3322  0.3232
  358TMC3     O 5417   3.843   4.093   1.366  0.4798 -0.3899 -0.6122
  358TMC3     H 5418   3.861   4.439   1.499  0.8637  0.0869  0.1282
  358TMC3    H1 5419   3.899   4.029   1.591  1.3710 -0.2833  1.7514
  358TMC3    H2 5420   4.017   4.313   1.881 -2.4048 -3.3428  1.7930
  358TMC3    C7 5421   4.009   4.070   1.833 -0.3489 -0.7159  0.0845
  358TMC3    C8 5422   4.089   4.437   1.640 -0.2927 -0.1681 -0.1828
  358TMC3    O1 5423   4.117   4.095   1.886 -0.0417 -0.6150 -0.4704
  358TMC3    O2 5424   4.107   4.475   1.525  0.1189 -0.2280 -0.1087
  359MPD2     C 5425   1.362   2.912  12.478 -1.0806 -1.0718  0.3694
  359MPD2    C1 5426   1.394   2.799  12.407 -0.4972 -0.0496  0.1810
  359MPD2    C2 5427   1.368   2.674  12.452  0.2215  0.1728 -0.0565
  359MPD2    C3 5428   1.312   2.660  12.579 -0.4686  0.3169  0.7028
  359MPD2    C4 5429   1.288   2.771  12.656  0.6640  0.1314 -0.1681
  359MPD2    C5 5430   1.307   2.898  12.603  0.3520 -0.0978 -0.2229
  359MPD2     H 5431   1.385   2.585  12.393  0.3276  0.4660 -0.4650
  359MPD2    H1 5432   1.254   2.759  12.758 -1.1316 -0.5954 -0.8541
  359MPD2    H2 5433   1.378   3.013  12.442 -1.8667 -1.8699 -2.2433
  359MPD2    H3 5434   1.303   2.978  12.677 -2.3084 -2.4767  2.1881
  359MPD2     N 5435   1.277   2.538  12.641  0.6276  0.5335  0.1122
  359MPD2    H5 5436   1.251   2.542  12.739  0.2284 -0.5114  0.0495
  359MPD2    N1 5437   1.455   2.811  12.278 -0.6121  0.6033  0.1399
  359MPD2    H7 5438   1.463   2.724  12.225  0.9491  1.3894 -0.9396
  360TMC3    C1 5439   1.556   2.903  12.090  0.0779 -0.4831 -0.3914
  360TMC3    C2 5440   1.645   2.987  12.029 -0.1862 -0.3583  0.2757
  360TMC3    C3 5441   1.707   2.958  11.907 -0.1337 -0.1333 -0.3821
  360TMC3    C4 5442   1.491   2.818  12.005  0.1425 -0.0946  0.3525
  360TMC3    C5 5443   1.532   2.804  11.875 -0.1152 -0.0882 -0.3337
  360TMC3    C6 5444   1.644   2.865  11.831 -0.1712  0.2316  0.1234
  360TMC3     C 5445   1.506   2.924  12.220 -0.7092 -0.0568 -0.5328
  360TMC3     O 5446   1.528   3.032  12.270  0.2732  0.2240  0.1050
  360TMC3     H 5447   1.703   3.060  12.085 -1.1424 -1.0240  2.1592
  360TMC3    H1 5448   1.417   2.751  12.048 -0.7809  0.5159 -0.2840
  360TMC3    H2 5449   1.683   2.855  11.730 -1.1330 -0.1072 -0.2219
  360TMC3    C7 5450   1.440   2.753  11.778 -0.1812  0.3670 -0.4268
  360TMC3    C8 5451   1.769   3.068  11.837  0.8827 -0.0346  0.1752
  360TMC3    O1 5452   1.486   2.731  11.667 -0.1442  0.1168 -0.2733
  360TMC3    O2 5453   1.725   3.183  11.845  0.3006  0.0767 -0.3397
  361MPD2     C 5454   2.523   1.797  16.840 -0.6721 -0.2574 -0.0901
  361MPD2    C1 5455   2.448   1.843  16.940 -0.2124  0.4036  0.1078
  361MPD2    C2 5456   2.494   1.809  17.071 -0.1441  0.7472 -0.5843
  361MPD2    C3 5457   2.621   1.757  17.094 -0.1735  0.9048  0.2259
  361MPD2    C4 5458   2.703   1.732  16.988 -0.3462  0.7315 -0.5243
  361MPD2    C5 5459   2.654   1.756  16.858  0.4080 -0.7459  0.5081
  361MPD2     H 5460   2.429   1.846  17.150 -0.8776  1.0756 -1.3323
  361MPD2    H1 5461   2.804   1.700  17.011 -0.3130  0.4679 -1.0393
  361MPD2    H2 5462   2.495   1.804  16.735 -0.8878  0.0781 -0.0067
  361MPD2    H3 5463   2.705   1.717  16.770  1.1207 -2.0389  1.4865
  361MPD2     N 5464   2.674   1.738  17.222 -0.3536 -0.6402 -0.4482
  361MPD2    H5 5465   2.773   1.715  17.226 -0.8247 -2.8037 -1.7591
  361MPD2    N1 5466   2.328   1.915  16.931  0.3998  0.0651 -0.0315
  361MPD2    H7 5467   2.274   1.940  17.014  1.2963 -1.9730  1.1814
  362TMC3    C1 5468   2.154   2.038  16.819  0.6383  0.2935  0.7971
  362TMC3    C2 5469   2.081   2.019  16.928  0.7739 -0.2916 -0.2213
  362TMC3    C3 5470   1.961   2.089  16.946  0.1995 -0.4573  0.0702
  362TMC3    C4 5471   2.115   2.119  16.714 -0.8335 -0.0182 -0.1109
  362TMC3    C5 5472   1.993   2.181  16.730  0.2476  0.0910 -0.8975
  362TMC3    C6 5473   1.918   2.170  16.841 -1.0753  0.5508  0.4644
  362TMC3     C 5474   2.284   1.965  16.811  0.2382 -0.7333  0.5835
  362TMC3     O 5475   2.331   1.975  16.695 -0.4322 -0.6680 -0.1400
  362TMC3     H 5476   2.106   1.953  17.011 -0.7729  0.6600  0.9870
  362TMC3    H1 5477   2.182   2.147  16.633  0.2191  2.3552  1.5840
  362TMC3    H2 5478   1.819   2.214  16.836 -1.6151 -0.6205  0.9331
  362TMC3    C7 5479   1.930   2.220  16.603 -0.0025 -0.3463 -0.7673
  362TMC3    C8 5480   1.903   2.086  17.074 -0.4008 -0.4603 -0.1000
  362TMC3    O1 5481   1.827   2.292  16.603  0.1357 -0.5933 -0.2832
  362TMC3    O2 5482   1.949   2.009  17.157  0.1733  0.7180  0.3679
  363TMC3    C1 5483   1.233   4.379   9.578  0.2685  0.8366  0.1502
  363TMC3    C2 5484   1.342   4.331   9.660  0.0143  0.1783  0.0877
  363TMC3    C3 5485   1.365   4.409   9.776 -0.1960 -0.8108  0.1205
  363TMC3    C4 5486   1.141   4.468   9.621 -0.9076 -0.2430  0.1557
  363TMC3    C5 5487   1.164   4.538   9.737 -0.4270  0.1789 -0.0193
  363TMC3    C6 5488   1.275   4.507   9.815  1.0052  0.3660 -1.0354
  363TMC3     C 5489   1.203   4.301   9.461  0.2142 -0.0790 -0.4597
  363TMC3     O 5490   1.189   4.356   9.352  0.2576 -0.0113  0.7314
  363TMC3     H 5491   1.417   4.258   9.630  0.2026  0.3216  0.2142
  363TMC3    H1 5492   1.054   4.484   9.558 -0.7923 -0.7096 -0.1187
  363TMC3    H2 5493   1.286   4.544   9.916  1.6921 -2.0046 -0.2217
  363TMC3    C7 5494   1.051   4.609   9.794 -0.1672 -0.2316  0.2314
  363TMC3    C8 5495   1.443   4.353   9.880 -0.4371  0.2064 -0.5409
  363TMC3    O1 5496   0.942   4.594   9.735 -0.2145 -0.4996 -0.3096
  363TMC3    O2 5497   1.419   4.366   9.998 -0.0520  0.2179  0.6329
  364MPD2     C 5498   0.054   3.649  11.253  0.9614  0.3642 -0.4430
  364MPD2    C1 5499   0.090   3.620  11.128  0.4855 -0.2589  0.1844
  364MPD2    C2 5500   0.081   3.485  11.078  0.5623  0.1931 -0.3954
  364MPD2    C3 5501   0.037   3.388  11.169  0.1793 -0.4458 -0.0014
  364MPD2    C4 5502   4.737   3.418  11.296 -0.4825  0.4261  0.0560
  364MPD2    C5 5503   0.004   3.550  11.330 -0.7896 -0.3976 -0.2628
  364MPD2     H 5504   0.106   3.461  10.976 -0.8897 -2.2178 -0.1821
  364MPD2    H1 5505   4.685   3.348  11.361  1.2724  0.0277  1.0185
  364MPD2    H2 5506   0.061   3.750  11.292 -1.8637 -0.2952  1.7801
  364MPD2    H3 5507   4.702   3.585  11.425  1.2399 -2.8262  1.4945
  364MPD2     N 5508   0.024   3.250  11.133  0.0280 -0.1363 -0.3871
  364MPD2    H5 5509   4.711   3.196  11.202  1.5531 -2.2339 -0.8856
  364MPD2    N1 5510   0.125   3.736  11.046  0.3118  0.1881 -0.3573
  364MPD2    H7 5511   0.125   3.826  11.093 -1.9237 -0.2860  0.5561
  365TMC3    C1 5512   0.226   3.841  10.847  0.0296  0.4414  0.2399
  365TMC3    C2 5513   0.249   3.850  10.713 -0.1681  0.9168  0.0565
  365TMC3    C3 5514   0.323   3.958  10.669  0.6592  0.6478  0.2845
  365TMC3    C4 5515   0.278   3.934  10.936 -0.0523 -0.0497  0.4820
  365TMC3    C5 5516   0.347   4.042  10.887  0.2527 -0.0919 -0.1777
  365TMC3    C6 5517   0.376   4.055  10.754  0.1640 -0.4671  0.5366
  365TMC3     C 5518   0.163   3.728  10.911  0.0745 -0.6767  0.1100
  365TMC3     O 5519   0.146   3.634  10.830  0.4371  0.5574  0.0441
  365TMC3     H 5520   0.193   3.776  10.657  0.4101  0.7287 -0.2731
  365TMC3    H1 5521   0.282   3.906  11.040 -1.4216 -0.7694  0.3514
  365TMC3    H2 5522   0.443   4.134  10.722  1.3518 -2.0449 -0.8157
  365TMC3    C7 5523   0.372   4.162  10.966  0.0131 -1.3515 -0.2502
  365TMC3    C8 5524   0.404   3.943  10.547  0.2908  0.1080  0.3500
  365TMC3    O1 5525   0.417   4.260  10.912 -0.1360 -0.1798 -0.6824
  365TMC3    O2 5526   0.496   4.018  10.524  0.4298  0.1403 -0.1704
  366MPD2     C 5527   3.251   4.208  15.209  0.2926  0.6503  0.3586
  366MPD2    C1 5528   3.262   4.335  15.148 -0.1651 -0.1505  0.6811
  366MPD2    C2 5529   3.384   4.385  15.114  0.2276  0.0268  0.2834
  366MPD2    C3 5530   3.502   4.321  15.145  0.3763  0.3618  0.0956
  366MPD2    C4 5531   3.490   4.197  15.210  0.1569 -0.6643 -0.2857
  366MPD2    C5 5532   3.369   4.144  15.238 -0.4208  0.0539  0.0910
  366MPD2     H 5533   3.390   4.486  15.075  2.8334 -0.0011  0.6509
  366MPD2    H1 5534   3.580   4.141  15.233  0.9687  0.4662 -0.7006
  366MPD2    H2 5535   3.156   4.168  15.242  0.2879 -0.4145 -0.9539
  366MPD2    H3 5536   3.360   4.043  15.276 -0.6048 -0.1051 -0.3703
  366MPD2     N 5537   3.628   4.384  15.124  0.1299  0.4580 -0.3196
  366MPD2    H5 5538   3.699   4.350  15.188  0.7407  0.0202 -1.2376
  366MPD2    N1 5539   3.158   4.424  15.126 -0.5073 -0.8123  0.7465
  366MPD2    H7 5540   3.178   4.512  15.079  0.6217 -1.1715  0.5519
  367TMC3    C1 5541   2.956   4.527  15.170  0.1390 -0.9633  0.0809
  367TMC3    C2 5542   3.001   4.607  15.271  0.2468 -0.1533 -0.0501
  367TMC3    C3 5543   3.009   0.003  15.253  0.3966  0.9026  1.0698
  367TMC3    C4 5544   2.929   4.593  15.053 -0.1426  0.1436 -0.6559
  367TMC3    C5 5545   2.951   4.724  15.032 -0.7905  0.2297 -0.0138
  367TMC3    C6 5546   2.992   0.059  15.137  0.6554  0.2300 -0.1651
  367TMC3     C 5547   3.029   4.404  15.170 -0.3575 -0.1975 -0.6478
  367TMC3     O 5548   2.989   4.308  15.236  0.1978  0.0921 -0.0038
  367TMC3     H 5549   3.050   4.564  15.358  1.5408  2.3801  0.4608
  367TMC3    H1 5550   2.898   4.535  14.967  2.2112 -1.3757 -0.5020
  367TMC3    H2 5551   3.002   0.166  15.127 -1.4896  0.6372  2.0507
  367TMC3    C7 5552   2.869   0.058  14.946 -0.3942 -0.2561  0.2638
  367TMC3    C8 5553   3.079   0.086  15.347  0.7405  0.1736  0.1287
  367TMC3    O1 5554   2.906   0.174  14.927 -0.2775 -0.0723  0.2207
  367TMC3    O2 5555   3.156   0.023  15.415 -0.2629  0.3846 -0.2053
  368MPD2     C 5556   4.378   1.688  12.219 -0.1144 -0.0753  0.0484
  368MPD2    C1 5557   4.419   1.776  12.320 -0.0516  0.4319  0.2569
  368MPD2    C2 5558   4.547   1.821  12.317 -0.0286 -0.1315  0.4323
  368MPD2    C3 5559   4.634   1.789  12.214 -0.1973 -0.1722  0.1259
  368MPD2    C4 5560   4.590   1.707  12.115  0.4652 -0.0115  0.1982
  368MPD2    C5 5561   4.465   1.654  12.117  0.0912 -1.1304 -0.1128
  368MPD2     H 5562   4.585   1.881  12.399  0.0823  0.8651 -0.3357
  368MPD2    H1 5563   4.655   1.669  12.038  0.4093  0.9546 -0.3330
  368MPD2    H2 5564   4.276   1.652  12.223  0.4286 -1.4276  1.8948
  368MPD2    H3 5565   4.441   1.574  12.049 -2.4219 -0.0057 -0.5386
  368MPD2     N 5566   0.028   1.839  12.209  0.6672 -0.6867  0.2277
  368MPD2    H5 5567   0.098   1.782  12.163  0.8281 -0.5698  0.3256
  368MPD2    N1 5568   4.334   1.817  12.425 -0.0496 -0.3658 -0.0472
  368MPD2    H7 5569   4.377   1.871  12.499  0.3574 -1.0321  0.2019
  369TMC3    C1 5570   4.141   1.838  12.571  0.5219  0.3052  0.7866
  369TMC3    C2 5571   4.221   1.920  12.644  0.3002 -0.1541  0.8569
  369TMC3    C3 5572   4.177   1.971  12.765 -1.0867 -0.4460 -0.5323
  369TMC3    C4 5573   4.017   1.801  12.614 -0.8569  0.0208  0.5456
  369TMC3    C5 5574   3.974   1.852  12.737  0.2711  0.5112  0.1834
  369TMC3    C6 5575   4.058   1.932  12.817  0.7302  1.1102 -0.0165
  369TMC3     C 5576   4.198   1.794  12.444 -0.1221  0.4228  0.1751
  369TMC3     O 5577   4.115   1.750  12.369 -0.5153 -0.1453  0.8585
  369TMC3     H 5578   4.313   1.955  12.598 -1.1590  0.4044 -1.6620
  369TMC3    H1 5579   3.954   1.737  12.553 -0.0722 -0.8100  0.5963
  369TMC3    H2 5580   4.029   1.960  12.917 -2.5656  1.1622 -0.9814
  369TMC3    C7 5581   3.852   1.796  12.791  0.2590 -0.7310 -0.0966
  369TMC3    C8 5582   4.279   2.051  12.829 -0.2330 -0.7498  0.2976
  369TMC3    O1 5583   3.851   1.792  12.911 -0.1667  0.0901 -0.1290
  369TMC3    O2 5584   4.395   2.025  12.814  0.4360 -0.1144 -0.1454
  370TMC3    C1 5585   3.569   2.690  16.260  0.3082  1.0028 -0.0458
  370TMC3    C2 5586   3.487   2.613  16.344 -0.1595  0.7592 -0.1194
  370TMC3    C3 5587   3.442   2.488  16.301 -0.1435  1.0664 -0.0170
  370TMC3    C4 5588   3.621   2.631  16.152 -0.0512 -0.1611 -0.3392
  370TMC3    C5 5589   3.580   2.505  16.112  0.1542 -0.3661 -0.5589
  370TMC3    C6 5590   3.484   2.434  16.184 -0.4117 -0.5329 -0.5484
  370TMC3     C 5591   3.638   2.799  16.329  1.1300 -0.5005  0.6512
  370TMC3     O 5592   3.617   2.804  16.450 -0.3499  0.5296  0.5964
  370TMC3     H 5593   3.463   2.649  16.444  0.8947  0.6032  0.1879
  370TMC3    H1 5594   3.691   2.684  16.089 -1.1872 -0.2191 -1.6407
  370TMC3    H2 5595   3.448   2.335  16.158 -1.8062  0.3050 -1.7817
  370TMC3    C7 5596   3.641   2.453  15.994  0.1109  0.3891 -0.3020
  370TMC3    C8 5597   3.401   2.390  16.395  0.0925 -0.2424 -0.2106
  370TMC3    O1 5598   3.670   2.538  15.915 -0.4150 -1.1795 -0.1025
  370TMC3    O2 5599   3.372   2.272  16.357  0.5452 -0.0388 -0.3547
  371TMC3    C1 5600   0.093   0.887  15.493 -0.0035  0.0998 -0.3139
  371TMC3    C2 5601   4.714   0.872  15.564  0.3420 -0.3056  0.3257
  371TMC3    C3 5602   4.634   0.985  15.589 -0.2967 -0.1588 -0.4193
  371TMC3    C4 5603   0.130   1.009  15.436 -0.1543  0.3177 -0.0456
  371TMC3    C5 5604   0.052   1.118  15.470  0.2155  0.1871  0.3456
  371TMC3    C6 5605   4.673   1.110  15.546 -0.2840 -0.0288  0.1559
  371TMC3     C 5606   0.173   0.770  15.451 -0.0385  0.5593  0.5276
  371TMC3     O 5607   0.242   0.785  15.348 -0.4501  0.5734  0.5446
  371TMC3     H 5608   4.683   0.772  15.590  1.5121 -0.7225  0.0895
  371TMC3    H1 5609   0.228   1.022  15.391  0.3790 -1.4731  0.6020
  371TMC3    H2 5610   4.619   1.197  15.581 -0.1607 -0.8959  2.4417
  371TMC3    C7 5611   0.085   1.248  15.414 -0.5163  0.0637 -0.4850
  371TMC3    C8 5612   4.511   0.958  15.667 -0.6409  0.5906 -0.6195
  371TMC3    O1 5613   0.014   1.343  15.455  0.4298  0.1454 -0.3258
  371TMC3    O2 5614   4.469   0.845  15.680 -0.3593 -0.0490  0.1877
  372MPD2     C 5615   4.329   1.630  12.822  0.5365  0.0384  0.8005
  372MPD2    C1 5616   4.447   1.627  12.900  0.6000 -0.0951 -0.4143
  372MPD2    C2 5617   4.436   1.580  13.026  0.3278 -0.4878 -0.1976
  372MPD2    C3 5618   4.316   1.522  13.068  0.2492 -0.0872 -0.3356
  372MPD2    C4 5619   4.211   1.515  12.987  0.3724  0.7336 -0.5566
  372MPD2    C5 5620   4.210   1.579  12.863 -0.3081  0.1938 -0.3194
  372MPD2     H 5621   4.520   1.587  13.094  1.4619  2.2843 -1.8792
  372MPD2    H1 5622   4.124   1.461  13.024  2.0448 -0.8568  1.1132
  372MPD2    H2 5623   4.334   1.676  12.724 -0.2758 -1.7214 -0.0621
  372MPD2    H3 5624   4.126   1.585  12.795 -1.1955 -2.4068  0.5759
  372MPD2     N 5625   4.307   1.466  13.201  0.3254  0.5167  0.1289
  372MPD2    H5 5626   4.217   1.437  13.238  0.7685 -0.9631  0.0597
  372MPD2    N1 5627   4.575   1.667  12.858  0.1791  0.2171  0.0179
  372MPD2    H7 5628   4.645   1.649  12.929 -2.2555 -1.0285  2.0969
  373TMC3    C1 5629   4.396   1.376  13.401 -0.6358  0.2449  0.1507
  373TMC3    C2 5630   4.293   1.420  13.483 -0.2651  0.7106 -0.0875
  373TMC3    C3 5631   4.267   1.353  13.603  0.3350  0.0785 -0.3271
  373TMC3    C4 5632   4.465   1.264  13.423 -0.1176  0.6071  0.9171
  373TMC3    C5 5633   4.437   1.200  13.539 -0.1247 -0.3910  0.6118
  373TMC3    C6 5634   4.330   1.235  13.619  0.4977  0.5111 -0.2686
  373TMC3     C 5635   4.425   1.434  13.274  0.2628  1.1350 -0.0419
  373TMC3     O 5636   4.538   1.408  13.240 -0.1488  0.0792  0.2080
  373TMC3     H 5637   4.238   1.512  13.466 -0.3887  0.6842  0.1734
  373TMC3    H1 5638   4.549   1.234  13.362 -0.2742  0.6715  0.6695
  373TMC3    H2 5639   4.314   1.176  13.709  0.3876  0.3876 -0.3708
  373TMC3    C7 5640   4.542   1.126  13.601  0.0463  0.0887  0.3226
  373TMC3    C8 5641   4.208   1.426  13.716 -0.0264 -0.0843 -0.6703
  373TMC3    O1 5642   4.604   1.051  13.526  0.0384 -0.2507  0.3968
  373TMC3    O2 5643   4.144   1.363  13.800  0.0029 -0.0179  0.1252
  374TMC3    C1 5644   0.317   1.969  10.196 -0.5055 -0.7289  0.7187
  374TMC3    C2 5645   0.405   2.072  10.200  0.1443 -0.4552 -0.2526
  374TMC3    C3 5646   0.415   2.154  10.093 -0.0123  0.0237 -0.5832
  374TMC3    C4 5647   0.248   1.944  10.080 -1.1926 -0.3432 -0.0263
  374TMC3    C5 5648   0.270   2.019   9.968  0.1104 -0.4795 -0.0608
  374TMC3    C6 5649   0.340   2.132   9.980 -0.2656  0.2052 -0.3740
  374TMC3     C 5650   0.270   1.910  10.320  0.0941  0.1564  0.3625
  374TMC3     O 5651   0.203   1.807  10.313 -0.1784 -0.1107 -0.2011
  374TMC3     H 5652   0.448   2.112  10.291  0.1487 -2.1033  0.4788
  374TMC3    H1 5653   0.174   1.866  10.073 -0.8441 -0.5654 -1.3044
  374TMC3    H2 5654   0.351   2.193   9.891  0.5094  1.7681  0.8108
  374TMC3    C7 5655   0.166   2.023   9.870  0.3800  0.7488 -0.6621
  374TMC3    C8 5656   0.522   2.252  10.081 -0.2646 -0.6774 -0.1647
  374TMC3    O1 5657   0.124   2.133   9.838  0.0334  0.1840 -0.1357
  374TMC3    O2 5658   0.489   2.349  10.012 -0.2971  0.1221 -0.0019
  375MPD2     C 5659   4.688   2.479  17.094 -0.1781  0.3113 -0.0620
  375MPD2    C1 5660   4.715   2.569  16.990 -0.3865  0.4711 -0.4617
  375MPD2    C2 5661   0.017   2.528  16.867  0.6616  0.2864  0.0866
  375MPD2    C3 5662   0.053   2.397  16.842  0.2578 -0.8141  0.2455
  375MPD2    C4 5663   0.024   2.305  16.937 -0.1696  0.2832  0.2549
  375MPD2    C5 5664   4.715   2.350  17.059 -0.3661  0.0843  0.6360
  375MPD2     H 5665   0.029   2.600  16.787  1.2367  0.7432  0.5818
  375MPD2    H1 5666   0.031   2.200  16.912 -0.3718 -0.0386  1.5343
  375MPD2    H2 5667   4.660   2.508  17.195  3.5014  2.3298  0.3932
  375MPD2    H3 5668   4.694   2.279  17.138 -0.7899  0.5208  0.9133
  375MPD2     N 5669   0.108   2.345  16.723  0.0301  0.3672  0.1285
  375MPD2    H5 5670   0.109   2.244  16.718  1.6208  0.4144 -0.6155
  375MPD2    N1 5671   4.679   2.702  17.008 -0.7584  0.3196  0.5004
  375MPD2    H7 5672   4.621   2.730  17.087 -0.3826 -0.4046  1.0367
  376TMC3    C1 5673   0.174   2.354  16.502  0.1416  0.3345 -0.5041
  376TMC3    C2 5674   0.291   2.291  16.526  0.2373  0.6570 -0.4266
  376TMC3    C3 5675   0.361   2.239  16.426  0.1818  0.2574 -0.4697
  376TMC3    C4 5676   0.121   2.357  16.372 -0.1389 -0.5967 -0.1459
  376TMC3    C5 5677   0.201   2.306  16.277  0.0860  0.0909 -0.6746
  376TMC3    C6 5678   0.320   2.240  16.295  0.7261 -0.5056  1.1005
  376TMC3     C 5679   0.112   2.424  16.609 -0.0437 -0.4129  0.3625
  376TMC3     O 5680   0.071   2.534  16.588 -0.0700  0.1905  0.0633
  376TMC3     H 5681   0.347   2.298  16.619 -0.1965  4.0839 -0.4299
  376TMC3    H1 5682   0.027   2.407  16.352 -0.4001 -1.1928 -0.4099
  376TMC3    H2 5683   0.391   2.216  16.216 -0.0481  0.4045  0.1336
  376TMC3    C7 5684   0.170   2.354  16.146 -0.9364 -0.3082 -0.3851
  376TMC3    C8 5685   0.507   2.230  16.433 -0.1515  0.8920  0.2023
  376TMC3    O1 5686   0.091   2.449  16.138  0.1005  1.2578 -0.1520
  376TMC3    O2 5687   0.574   2.268  16.336  0.1918 -0.0183 -0.5219
  377MPD2     C 5688   4.156   2.417  12.687  0.7755 -0.3206  0.5380
  377MPD2    C1 5689   4.071   2.313  12.653 -0.3575 -0.0866 -0.1259
  377MPD2    C2 5690   3.977   2.272  12.739  0.1071  0.3049  0.2594
  377MPD2    C3 5691   3.956   2.330  12.858  0.6365 -0.4157  0.3709
  377MPD2    C4 5692   4.044   2.432  12.896 -0.4486  0.2070 -0.3653
  377MPD2    C5 5693   4.143   2.476  12.809 -0.4088  0.0222  0.3820
  377MPD2     H 5694   3.916   2.189  12.704 -0.8808  1.6868 -1.3017
  377MPD2    H1 5695   4.043   2.488  12.989  1.5392  1.0454 -0.8538
  377MPD2    H2 5696   4.241   2.433  12.622  0.6215  0.8106  0.6263
  377MPD2    H3 5697   4.209   2.551  12.851  1.5705 -1.0484 -0.8278
  377MPD2     N 5698   3.854   2.288  12.944 -0.3318 -0.1030 -0.1927
  377MPD2    H5 5699   3.852   2.350  13.025 -0.1670  0.6262 -0.7420
  377MPD2    N1 5700   4.092   2.256  12.525 -0.2135  0.0822 -0.3843
  377MPD2    H7 5701   4.156   2.296  12.457 -1.5900  1.4022 -0.9080
  378TMC3    C1 5702   4.066   1.991  12.146 -0.0278  0.3318  0.1632
  378TMC3    C2 5703   4.005   2.038  12.255 -0.8756 -0.2858 -1.0050
  378TMC3    C3 5704   4.081   2.117  12.338 -0.5437 -0.2223 -0.6485
  378TMC3    C4 5705   4.183   2.044  12.101 -0.4329 -0.1963  0.1192
  378TMC3    C5 5706   4.256   2.129  12.184 -0.0543 -0.8106 -0.6495
  378TMC3    C6 5707   4.211   2.158  12.307 -1.0302  0.0408  0.1706
  378TMC3     C 5708   3.983   1.950  12.035 -0.5911  0.2546  0.0660
  378TMC3     O 5709   4.035   1.896  11.942  0.3992 -0.1727 -0.1173
  378TMC3     H 5710   3.907   2.005  12.287  0.0272 -1.8013  0.2628
  378TMC3    H1 5711   4.212   2.023  11.999 -1.9064 -0.5081 -0.2376
  378TMC3    H2 5712   4.278   2.210  12.374  3.1945 -1.7662 -2.6423
  378TMC3    C7 5713   4.391   2.170  12.146 -0.6044  0.1730 -0.0265
  378TMC3    C8 5714   4.027   2.154  12.463  0.5072 -0.6913  0.1666
  378TMC3    O1 5715   4.442   2.271  12.193 -0.2518  0.0633 -0.4228
  378TMC3    O2 5716   3.931   2.090  12.502 -0.0585  0.2967  0.2345
  379MPD2     C 5717   3.858   4.729  16.306  0.2754 -0.0319  0.0930
  379MPD2    C1 5718   3.746   0.068  16.305  0.7409  0.4649 -0.8710
  379MPD2    C2 5719   3.705   0.112  16.429  0.0349  0.0343 -0.0564
  379MPD2    C3 5720   3.747   0.064  16.552  0.3279 -0.2791 -0.5492
  379MPD2    C4 5721   3.854   4.713  16.549  0.7886  0.4034 -0.4580
  379MPD2    C5 5722   3.910   4.685  16.426 -1.1136  0.8726  0.6752
  379MPD2     H 5723   3.629   0.190  16.427 -1.5043 -1.4915 -1.6623
  379MPD2    H1 5724   3.903   4.670  16.635 -0.6681  1.3359  0.8493
  379MPD2    H2 5725   3.907   4.706  16.212  0.5554  0.7725  0.0444
  379MPD2    H3 5726   4.000   4.624  16.427 -0.3418  1.9899 -0.8727
  379MPD2     N 5727   3.688   0.086  16.676 -0.0063  0.9989  0.0012
  379MPD2    H5 5728   3.746   0.062  16.755  0.0725 -0.4204 -0.4798
  379MPD2    N1 5729   3.702   0.123  16.180  0.4810  0.2797 -0.1570
  379MPD2    H7 5730   3.756   0.085  16.103  0.9902 -0.1708  0.4269
  380TMC3    C1 5731   3.621   0.255  16.020  0.3185  0.3858 -0.3960
  380TMC3    C2 5732   3.716   0.210  15.930  0.5735 -0.1570  0.2976
  380TMC3    C3 5733   3.714   0.251  15.800 -0.2841 -0.1087  1.5322
  380TMC3    C4 5734   3.518   0.330  15.982 -0.1441  0.1481 -0.1626
  380TMC3    C5 5735   3.507   0.355  15.850  0.0050 -0.0532  0.0017
  380TMC3    C6 5736   3.600   0.317  15.752  0.5388  0.3695 -0.1951
  380TMC3     C 5737   3.617   0.224  16.155 -0.0796  0.2064  0.0517
  380TMC3     O 5738   3.524   0.252  16.230 -0.5552 -0.4081  0.0825
  380TMC3     H 5739   3.810   0.179  15.973  0.0244 -0.1109  1.5403
  380TMC3    H1 5740   3.443   0.369  16.050  0.1298  1.5620 -0.6779
  380TMC3    H2 5741   3.572   0.344  15.651  3.5992  0.5486 -0.9963
  380TMC3    C7 5742   3.384   0.416  15.800 -0.0137  0.3066  0.4578
  380TMC3    C8 5743   3.834   0.276  15.716 -0.8150  0.1270  0.5268
  380TMC3    O1 5744   3.328   0.492  15.880  0.2832  0.0396 -0.0851
  380TMC3    O2 5745   3.802   0.297  15.601 -0.5867  0.1992 -1.1264
  381TMC3    C1 5746   3.347   1.685  16.224 -0.0510 -0.3855  0.2225
  381TMC3    C2 5747   3.459   1.764  16.224 -0.2083 -0.5827 -0.1330
  381TMC3    C3 5748   3.467   1.879  16.298 -0.1921 -0.3484 -0.8181
  381TMC3    C4 5749   3.243   1.719  16.308 -0.2813 -0.0006 -0.9903
  381TMC3    C5 5750   3.252   1.842  16.370 -0.2628  0.3466  0.2431
  381TMC3    C6 5751   3.361   1.926  16.365 -0.0016 -0.2654 -0.6992
  381TMC3     C 5752   3.320   1.574  16.133  1.3518 -0.0416 -0.1630
  381TMC3     O 5753   3.246   1.489  16.184  0.3670  0.7938 -0.2599
  381TMC3     H 5754   3.534   1.741  16.149  1.2575  0.0910  1.1162
  381TMC3    H1 5755   3.161   1.652  16.331  0.5496  0.3904  3.0179
  381TMC3    H2 5756   3.358   2.021  16.417  2.5495 -0.1332 -0.8145
  381TMC3    C7 5757   3.171   1.846  16.488  0.0633 -0.1773 -0.0860
  381TMC3    C8 5758   3.600   1.943  16.290 -0.4029  0.2785 -0.1151
  381TMC3    O1 5759   3.169   1.737  16.545 -0.6158 -0.5468 -0.0519
  381TMC3    O2 5760   3.685   1.900  16.211  0.1760  0.1434 -0.0635
  382MPD2     C 5761   2.747   4.358  17.277 -0.6003  0.2512 -0.2508
  382MPD2    C1 5762   2.668   4.331  17.389 -0.7358 -0.7509  0.0662
  382MPD2    C2 5763   2.627   4.194  17.409  0.2614 -0.5755 -0.5222
  382MPD2    C3 5764   2.659   4.097  17.311 -0.5693  0.0036 -0.1387
  382MPD2    C4 5765   2.738   4.137  17.207 -0.3516 -0.4536  0.4528
  382MPD2    C5 5766   2.789   4.262  17.193 -0.0581 -0.1065 -0.3622
  382MPD2     H 5767   2.559   4.170  17.491  1.3982  1.1966  0.9446
  382MPD2    H1 5768   2.774   4.065  17.134 -0.3532  0.3005 -0.2897
  382MPD2    H2 5769   2.772   4.462  17.254 -3.5810  1.0607  0.1783
  382MPD2    H3 5770   2.853   4.281  17.106  0.4190 -0.2000 -0.0336
  382MPD2     N 5771   2.606   3.965  17.323  0.2840  0.2886  0.0855
  382MPD2    H5 5772   2.557   3.942  17.409 -0.3129  1.3209  0.0365
  382MPD2    N1 5773   2.624   4.431  17.480 -0.8019  0.5410  0.2245
  382MPD2    H7 5774   2.598   4.396  17.572  0.3079 -0.0878  0.3001
  383TMC3    C1 5775   2.506   3.766  17.261  0.0144  0.6971  0.6063
  383TMC3    C2 5776   2.423   3.709  17.168  0.1825  0.1951 -0.4163
  383TMC3    C3 5777   2.316   3.641  17.207  0.6280  0.0253 -0.0300
  383TMC3    C4 5778   2.492   3.732  17.399 -0.0403 -0.6228  0.6633
  383TMC3    C5 5779   2.382   3.661  17.435  0.0510 -0.1495 -0.6266
  383TMC3    C6 5780   2.290   3.614  17.340 -0.3096  0.3418 -0.4369
  383TMC3     C 5781   2.593   3.871  17.221 -0.3404 -0.3655 -1.0191
  383TMC3     O 5782   2.628   3.878  17.105  0.3071 -0.2197 -0.1165
  383TMC3     H 5783   2.442   3.731  17.063 -1.0331  1.8469 -0.2782
  383TMC3    H1 5784   2.563   3.772  17.470  0.5690  0.5593 -0.6098
  383TMC3    H2 5785   2.210   3.555  17.382 -1.5719  0.4445 -2.7156
  383TMC3    C7 5786   2.373   3.581  17.550  0.6043 -0.3367  0.4273
  383TMC3    C8 5787   2.212   3.612  17.110 -0.7745  0.0265 -0.1872
  383TMC3    O1 5788   2.321   3.469  17.538 -0.2394  0.7322 -0.2273
  383TMC3    O2 5789   2.184   3.693  17.019  0.4310  0.2230 -0.6147
  384MPD2     C 5790   4.705   0.227  12.667  0.4468  0.0311  0.9006
  384MPD2    C1 5791   4.707   0.142  12.778  0.1341 -0.3332 -0.4424
  384MPD2    C2 5792   0.078   0.057  12.802  0.0151 -0.5013 -0.5347
  384MPD2    C3 5793   0.188   0.050  12.717 -0.1763  0.4860  0.3694
  384MPD2    C4 5794   0.184   0.135  12.609  0.3680 -0.8066  0.7029
  384MPD2    C5 5795   0.074   0.221  12.588  0.5152  0.1243 -0.3432
  384MPD2     H 5796   0.079   4.726  12.886  2.0899  1.3950  0.9852
  384MPD2    H1 5797   0.274   0.137  12.548 -0.6590 -1.7151 -0.8437
  384MPD2    H2 5798   4.625   0.294  12.638 -0.4753 -1.0122  1.0277
  384MPD2    H3 5799   0.070   0.284  12.501 -0.7296  0.2994 -0.1579
  384MPD2     N 5800   0.293   4.696  12.749 -0.0245 -0.7082  0.2680
  384MPD2    H5 5801   0.278   4.638  12.830  0.9386 -0.9248  0.2926
  384MPD2    N1 5802   4.603   0.140  12.875 -0.6053 -0.2741  0.1422
  384MPD2    H7 5803   4.615   0.075  12.952  0.6390 -1.9512 -1.4999
  385TMC3    C1 5804   0.447   4.534  12.724  0.5851  0.6256  0.1521
  385TMC3    C2 5805   0.436   4.428  12.638  0.1357  0.4797 -0.5464
  385TMC3    C3 5806   0.385   4.318  12.692 -0.0815 -0.5997 -0.1409
  385TMC3    C4 5807   0.423   4.528  12.859 -0.3294  0.4361 -0.1994
  385TMC3    C5 5808   0.392   4.403  12.912  0.9894 -1.0075 -0.2574
  385TMC3    C6 5809   0.376   4.294  12.824  0.0958  0.7550  0.1100
  385TMC3     C 5810   0.395   4.655  12.664 -0.1410 -0.1784  0.5357
  385TMC3     O 5811   0.424   4.679  12.549 -0.1187  0.1957  0.2584
  385TMC3     H 5812   0.438   4.441  12.531 -0.3091  1.7945 -0.3886
  385TMC3    H1 5813   0.445   4.614  12.921 -2.7798  0.3257  0.8294
  385TMC3    H2 5814   0.351   4.196  12.863  1.0282  0.3579 -0.2847
  385TMC3    C7 5815   0.273   4.421  12.998  1.0943  0.4056  0.5524
  385TMC3    C8 5816   0.393   4.195  12.618  0.1093  0.3841  0.0678
  385TMC3    O1 5817   0.257   4.544  13.007 -0.6977 -0.3602 -0.4685
  385TMC3    O2 5818   0.417   4.093  12.683 -0.2017  0.1197  0.4734
  386TMC3    C1 5819   0.749   2.433  11.849 -0.3822  0.0729 -0.0936
  386TMC3    C2 5820   0.647   2.432  11.757 -0.3886 -0.2445 -0.5310
  386TMC3    C3 5821   0.545   2.520  11.792 -0.3435  0.2209  0.0932
  386TMC3    C4 5822   0.754   2.502  11.966  0.4560 -0.7445 -0.6945
  386TMC3    C5 5823   0.642   2.574  12.002 -0.6200  0.2585 -0.1163
  386TMC3    C6 5824   0.534   2.586  11.911 -0.0295 -1.1734 -0.0933
  386TMC3     C 5825   0.840   2.316  11.849 -0.0550 -0.0453 -0.7043
  386TMC3     O 5826   0.951   2.348  11.886  0.5269  0.4426 -0.4225
  386TMC3     H 5827   0.652   2.374  11.666  0.6876 -0.0784 -0.5716
  386TMC3    H1 5828   0.837   2.478  12.032  1.1865  2.9841 -0.2348
  386TMC3    H2 5829   0.446   2.647  11.930 -0.1322 -1.4307  0.2604
  386TMC3    C7 5830   0.615   2.602  12.142 -0.1448  0.5034 -0.0525
  386TMC3    C8 5831   0.432   2.523  11.704 -0.0839 -0.6710 -0.2452
  386TMC3    O1 5832   0.499   2.625  12.160  0.2833  0.0543  0.1552
  386TMC3    O2 5833   0.328   2.562  11.754 -0.4062 -0.1842  0.7485
  387MPD2     C 5834   2.516   2.352   9.845 -0.2565 -1.2683 -0.5949
  387MPD2    C1 5835   2.652   2.329   9.853  0.1057  0.7193 -0.7926
  387MPD2    C2 5836   2.695   2.199   9.831  0.0616  0.6651 -0.1590
  387MPD2    C3 5837   2.599   2.094   9.803  0.2188 -0.2936  0.3358
  387MPD2    C4 5838   2.462   2.125   9.814  0.2124 -0.4683 -0.3384
  387MPD2    C5 5839   2.425   2.250   9.819  0.0242  0.8189 -0.6019
  387MPD2     H 5840   2.799   2.172   9.821 -0.2022 -0.1946 -0.4984
  387MPD2    H1 5841   2.386   2.049   9.800  0.2822 -0.2037 -2.1683
  387MPD2    H2 5842   2.471   2.449   9.858  2.1235 -0.2213 -0.1998
  387MPD2    H3 5843   2.321   2.277   9.805 -0.4273 -0.1760  0.8624
  387MPD2     N 5844   2.653   1.963   9.794  0.3568 -0.0569 -0.4753
  387MPD2    H5 5845   2.755   1.955   9.794  0.3422 -0.1221  1.6725
  387MPD2    N1 5846   2.748   2.426   9.882 -0.2002  0.0746 -0.0210
  387MPD2    H7 5847   2.847   2.403   9.874  0.0678  0.8665  0.9616
  388TMC3    C1 5848   2.830   2.598  10.006  0.0746  0.5468  0.0427
  388TMC3    C2 5849   2.896   2.719   9.999 -0.2735  0.1693  0.0757
  388TMC3    C3 5850   3.011   2.728  10.071  0.1652 -0.4039 -0.0947
  388TMC3    C4 5851   2.871   2.497  10.092  0.2784  0.3720 -0.0319
  388TMC3    C5 5852   2.998   2.512  10.158 -0.6807  0.1188 -0.8492
  388TMC3    C6 5853   3.067   2.625  10.141 -0.0080 -0.1187  0.2015
  388TMC3     C 5854   2.727   2.560   9.915  0.2049 -0.0445  0.0273
  388TMC3     O 5855   2.634   2.630   9.889  0.3767  0.0558  0.9198
  388TMC3     H 5856   2.861   2.793   9.927  0.2280 -1.5420 -1.9336
  388TMC3    H1 5857   2.807   2.410  10.105 -0.3293  1.0219  1.3812
  388TMC3    H2 5858   3.161   2.626  10.194 -0.0203  0.0921  0.2190
  388TMC3    C7 5859   3.069   2.392  10.194 -0.3817  0.5284  0.1701
  388TMC3    C8 5860   3.053   2.865  10.088  0.3442  0.5358  0.1636
  388TMC3    O1 5861   3.163   2.397  10.271 -0.2410 -0.5857 -0.1128
  388TMC3    O2 5862   3.171   2.874  10.110 -0.5585 -0.4255  0.2243
  389MPD2     C 5863   1.886   0.804  11.482  0.0838 -0.6274 -0.5729
  389MPD2    C1 5864   1.760   0.756  11.464  0.1181  0.2304  0.0674
  389MPD2    C2 5865   1.698   0.670  11.550  0.4156 -0.4790  0.2500
  389MPD2    C3 5866   1.773   0.614  11.657  0.2524  0.6063 -0.0719
  389MPD2    C4 5867   1.895   0.678  11.691  0.7210  0.6971  0.5025
  389MPD2    C5 5868   1.949   0.764  11.599  0.0271  0.0109 -0.7230
  389MPD2     H 5869   1.593   0.651  11.538  0.4927  0.2439 -1.5866
  389MPD2    H1 5870   1.957   0.659  11.777  2.2464 -1.0616 -0.9659
  389MPD2    H2 5871   1.927   0.878  11.416 -0.1236  0.1051  0.1178
  389MPD2    H3 5872   2.045   0.808  11.623  0.5428  0.1075 -2.9520
  389MPD2     N 5873   1.717   0.525  11.745 -0.6500  0.2247 -0.2752
  389MPD2    H5 5874   1.772   0.504  11.827 -1.6665  0.2028  0.4077
  389MPD2    N1 5875   1.704   0.804  11.346  0.9805 -0.0040  0.2218
  389MPD2    H7 5876   1.767   0.860  11.290 -1.7311  2.3511 -0.4263
  390TMC3    C1 5877   1.571   0.388  11.852  0.2729 -0.2309  0.2276
  390TMC3    C2 5878   1.497   0.279  11.827 -0.1908 -0.1263 -0.0241
  390TMC3    C3 5879   1.433   0.236  11.938  0.1943  0.1698 -0.1699
  390TMC3    C4 5880   1.593   0.439  11.973  0.1289  0.2528 -0.2292
  390TMC3    C5 5881   1.540   0.381  12.076  0.0645 -0.3820 -0.0995
  390TMC3    C6 5882   1.457   0.274  12.068  0.1341  0.5105  0.7361
  390TMC3     C 5883   1.596   0.469  11.740  0.6166  0.1159 -0.0780
  390TMC3     O 5884   1.519   0.462  11.648 -0.0363 -0.3226 -0.9379
  390TMC3     H 5885   1.493   0.243  11.725 -1.0608  0.4615 -0.2041
  390TMC3    H1 5886   1.653   0.529  11.986  0.1019 -0.0763  2.1120
  390TMC3    H2 5887   1.409   0.218  12.147 -0.2722  1.5741  1.2305
  390TMC3    C7 5888   1.556   0.442  12.205  0.1406  0.3763 -0.1182
  390TMC3    C8 5889   1.335   0.136  11.922  0.8600  0.0750  0.6086
  390TMC3    O1 5890   1.663   0.493  12.236 -0.2004  0.3620 -0.3066
  390TMC3    O2 5891   1.344   0.059  11.828 -0.2493 -0.0197 -0.6565
  391MPD2     C 5892   1.486   1.952  11.272  0.5512 -0.2752  1.6658
  391MPD2    C1 5893   1.593   1.990  11.199 -0.2210  0.4591  0.5898
  391MPD2    C2 5894   1.574   2.009  11.067 -0.1800  0.1940 -0.6873
  391MPD2    C3 5895   1.449   2.002  11.001 -0.8326  0.8193  0.5883
  391MPD2    C4 5896   1.347   1.956  11.079 -0.1764  0.4384  0.1423
  391MPD2    C5 5897   1.361   1.933  11.209  0.5740 -0.1937 -0.6723
  391MPD2     H 5898   1.655   2.050  11.007  0.4348  1.7741  1.1980
  391MPD2    H1 5899   1.255   1.923  11.033 -0.4163  1.9606 -0.4517
  391MPD2    H2 5900   1.495   1.925  11.377  0.0845 -0.4810  1.6522
  391MPD2    H3 5901   1.283   1.888  11.270  0.0341 -0.4587 -1.5554
  391MPD2     N 5902   1.442   2.035  10.872  0.3379  0.3150 -1.1935
  391MPD2    H5 5903   1.520   2.085  10.831  1.1200 -0.7026 -0.9524
  391MPD2    N1 5904   1.716   2.015  11.259  0.2260 -0.0904  0.5146
  391MPD2    H7 5905   1.711   2.020  11.361  1.8235 -1.9218  0.6732
  392TMC3    C1 5906   1.339   2.093  10.667  0.0831  0.4341 -0.8587
  392TMC3    C2 5907   1.220   2.111  10.598  0.6217  0.5883 -0.1652
  392TMC3    C3 5908   1.204   2.216  10.511  0.3750 -0.1828 -0.2562
  392TMC3    C4 5909   1.441   2.176  10.645 -0.0964 -0.3622  0.2316
  392TMC3    C5 5910   1.423   2.272  10.554  0.1782 -0.5695 -0.1986
  392TMC3    C6 5911   1.310   2.295  10.481 -0.0314  0.7129  0.0634
  392TMC3     C 5912   1.331   2.023  10.790  0.6551 -0.2931 -0.0964
  392TMC3     O 5913   1.235   1.946  10.789  0.0905 -0.3451 -0.2048
  392TMC3     H 5914   1.140   2.044  10.625  1.5157 -0.7700 -0.9251
  392TMC3    H1 5915   1.530   2.174  10.707 -0.4197 -0.1315  0.7029
  392TMC3    H2 5916   1.297   2.386  10.423  0.3176  1.4248  1.0835
  392TMC3    C7 5917   1.540   2.363  10.531  1.0421  0.7086 -0.2427
  392TMC3    C8 5918   1.077   2.232  10.442 -0.0790  0.0327  0.1254
  392TMC3    O1 5919   1.617   2.390  10.625 -0.2728  0.0810  0.6462
  392TMC3    O2 5920   0.976   2.177  10.486 -0.3364 -0.3133  0.0953
  393TMC3    C1 5921   4.445   4.704  11.186  0.0358  0.0216 -0.1578
  393TMC3    C2 5922   4.312   4.697  11.194 -0.0568 -0.0561  0.6159
  393TMC3    C3 5923   4.257   4.638  11.297  0.1788  0.7200 -0.3732
  393TMC3    C4 5924   4.528   4.662  11.280 -0.7481  0.5279 -1.1638
  393TMC3    C5 5925   4.469   4.593  11.382 -0.2785 -0.5629  0.3392
  393TMC3    C6 5926   4.334   4.585  11.394  0.3064  0.3721 -0.4872
  393TMC3     C 5927   4.493   0.056  11.078  0.0367 -0.3382 -0.1738
  393TMC3     O 5928   4.424   0.071  10.975 -0.1188  0.0066 -0.5011
  393TMC3     H 5929   4.247   4.735  11.115 -0.1881 -0.1948  0.6572
  393TMC3    H1 5930   4.634   4.660  11.259 -0.5261  0.4485 -0.0306
  393TMC3    H2 5931   4.286   4.525  11.471 -0.7939  1.5552 -0.2516
  393TMC3    C7 5932   4.557   4.552  11.495 -0.0749  0.0057 -0.2858
  393TMC3    C8 5933   4.113   4.645  11.318  0.3556  0.9761  0.2671
  393TMC3    O1 5934   4.503   4.493  11.585 -0.2004 -0.6097 -0.2404
  393TMC3    O2 5935   4.087   4.618  11.435  0.6567 -0.0519 -0.4025
  394TMC3    C1 5936   1.565   0.836  11.162  0.0106  0.3454 -0.2856
  394TMC3    C2 5937   1.438   0.866  11.119  0.2467  0.0772  0.1742
  394TMC3    C3 5938   1.410   0.864  10.984 -0.0434 -0.0783 -0.0012
  394TMC3    C4 5939   1.663   0.820  11.072  0.3010 -0.4929 -0.2171
  394TMC3    C5 5940   1.635   0.844  10.942  0.0195  0.3238  0.0968
  394TMC3    C6 5941   1.508   0.864  10.894 -0.3427  0.4501  0.3086
  394TMC3     C 5942   1.580   0.784  11.299  0.1335  0.3688 -0.3851
  394TMC3     O 5943   1.484   0.726  11.348  0.3565 -0.2951  1.0341
  394TMC3     H 5944   1.354   0.862  11.187  0.2422  1.5848  0.2582
  394TMC3    H1 5945   1.765   0.801  11.106  0.6948  0.7997 -0.6820
  394TMC3    H2 5946   1.491   0.887  10.789  2.5335 -0.7544 -0.4324
  394TMC3    C7 5947   1.743   0.863  10.853 -0.1386  0.3452  0.0335
  394TMC3    C8 5948   1.267   0.829  10.949  0.1740 -0.7566 -0.8754
  394TMC3    O1 5949   1.715   0.933  10.754 -0.0980 -0.5015  0.0918
  394TMC3    O2 5950   1.195   0.828  11.050 -0.0236  0.4597 -0.4222
  395TMC3    C1 5951   1.398   2.575  15.143 -0.3961 -0.4669  0.8689
  395TMC3    C2 5952   1.265   2.604  15.121 -0.4287 -0.3816  0.7596
  395TMC3    C3 5953   1.235   2.717  15.054 -0.2905  1.1264  0.3717
  395TMC3    C4 5954   1.494   2.668  15.118  0.1804  0.4279  0.5498
  395TMC3    C5 5955   1.465   2.780  15.054 -0.1326  0.0508 -0.6022
  395TMC3    C6 5956   1.332   2.807  15.019  0.2785  0.6161  0.0827
  395TMC3     C 5957   1.449   2.435  15.168 -0.0733 -0.4671  0.1759
  395TMC3     O 5958   1.564   2.417  15.136  0.0512  0.3333 -0.1600
  395TMC3     H 5959   1.187   2.537  15.155 -0.9662 -1.0254 -1.7076
  395TMC3    H1 5960   1.601   2.652  15.128 -0.0700 -1.8919 -0.5609
  395TMC3    H2 5961   1.304   2.904  14.980  1.4657  0.1162 -1.9659
  395TMC3    C7 5962   1.564   2.887  15.070 -0.0108 -0.4827  0.2120
  395TMC3    C8 5963   1.100   2.760  15.037 -0.2785  0.1960  0.6867
  395TMC3    O1 5964   1.634   2.889  15.170  0.8597 -0.1527 -0.1616
  395TMC3    O2 5965   1.075   2.881  15.041  0.1504  0.4603  0.5575
  396MPD2     C 5966   0.717   3.801  17.222  0.1136 -0.2804  0.0707
  396MPD2    C1 5967   0.829   3.850  17.283  0.5658  0.4307  0.5621
  396MPD2    C2 5968   0.902   3.955  17.225  0.6044 -0.3013  0.4210
  396MPD2    C3 5969   0.874   3.999  17.095  0.8296  0.8277 -0.1506
  396MPD2    C4 5970   0.765   3.947  17.034 -0.1538  0.1975  0.0118
  396MPD2    C5 5971   0.686   3.852  17.097 -0.6517 -0.2759  0.1884
  396MPD2     H 5972   0.996   3.983  17.272  1.7948 -1.1759 -1.4310
  396MPD2    H1 5973   0.718   3.982  16.942 -0.4415 -0.9639 -0.2740
  396MPD2    H2 5974   0.654   3.732  17.277 -0.2693  0.1492  0.1738
  396MPD2    H3 5975   0.597   3.813  17.049 -0.4841 -0.4884  0.0448
  396MPD2     N 5976   0.954   4.102  17.049  0.1463  0.0034 -0.6667
  396MPD2    H5 5977   1.021   4.146  17.111 -0.2911 -1.2912  0.7361
  396MPD2    N1 5978   0.870   3.794  17.408  0.5235  1.1173 -0.1418
  396MPD2    H7 5979   0.819   3.711  17.437  0.5909  0.8805 -0.7196
  397TMC3    C1 5980   1.049   3.730  17.551  0.4472 -0.3150 -0.3648
  397TMC3    C2 5981   1.175   3.740  17.508  0.0770 -0.1677  0.5237
  397TMC3    C3 5982   1.231   3.639  17.425  0.0630  0.0553  0.0919
  397TMC3    C4 5983   0.983   3.610  17.537  0.6924  0.6386  0.0160
  397TMC3    C5 5984   1.048   3.505  17.489 -0.7391  0.5036  0.5331
  397TMC3    C6 5985   1.168   3.527  17.425 -0.1023 -0.1453  0.0512
  397TMC3     C 5986   0.978   3.837  17.476 -0.1116 -0.3408  0.6343
  397TMC3     O 5987   1.021   3.949  17.479  0.1409 -0.3212  0.1613
  397TMC3     H 5988   1.219   3.839  17.503  0.7298 -0.4412  0.8630
  397TMC3    H1 5989   0.881   3.599  17.571  0.3429  1.6511 -0.7052
  397TMC3    H2 5990   1.209   3.446  17.365  0.0675  1.3948 -1.9191
  397TMC3    C7 5991   0.976   3.377  17.471 -0.0067  0.5772 -1.4532
  397TMC3    C8 5992   1.284   3.688  17.298  0.6299 -0.7832 -0.5604
  397TMC3    O1 5993   1.009   3.293  17.385  0.6638 -0.0636  0.0377
  397TMC3    O2 5994   1.254   3.621  17.202  0.1166 -0.4438 -0.8457
  398MPD2     C 5995   3.308   0.835  17.576 -0.4536  0.1545 -0.6099
  398MPD2    C1 5996   3.408   0.786  17.654 -0.3305 -0.3008 -0.4949
  398MPD2    C2 5997   3.530   0.861  17.661 -0.6901 -0.7437 -0.4158
  398MPD2    C3 5998   3.543   0.978  17.594  0.2155 -0.1885 -0.3256
  398MPD2    C4 5999   3.441   1.022  17.513 -0.3894 -0.5435  0.7363
  398MPD2    C5 6000   3.332   0.942  17.502 -0.3397 -0.4597 -0.5968
  398MPD2     H 6001   3.618   0.826  17.714  0.6314  0.4914 -1.8044
  398MPD2    H1 6002   3.455   1.107  17.448 -1.4519 -0.8614  0.0873
  398MPD2    H2 6003   3.224   0.771  17.550  0.1069 -0.6263 -0.4901
  398MPD2    H3 6004   3.256   0.975  17.432  0.8346  0.3033 -1.5089
  398MPD2     N 6005   3.661   1.058  17.605 -0.0528 -0.1275 -0.2034
  398MPD2    H5 6006   3.729   1.021  17.671 -0.7083 -0.5827  0.2137
  398MPD2    N1 6007   3.396   0.663  17.722  0.2830  0.5013  0.6046
  398MPD2    H7 6008   3.483   0.621   0.006 -0.4852 -0.7695  0.9959
  399TMC3    C1 6009   3.294   0.493   0.093  0.1917 -0.3466  0.1752
  399TMC3    C2 6010   3.361   0.498   0.210  0.3186 -0.1407  0.0459
  399TMC3    C3 6011   3.399   0.383   0.269  0.0973  1.0251  0.1628
  399TMC3    C4 6012   3.253   0.373   0.043  0.3052 -0.5719 -0.6406
  399TMC3    C5 6013   3.301   0.260   0.099 -0.3923  0.2485  0.2702
  399TMC3    C6 6014   3.366   0.263   0.219  0.0407  0.5020  0.1665
  399TMC3     C 6015   3.280   0.604   0.004  0.0235 -0.3682 -0.8655
  399TMC3     O 6016   3.168   0.648  17.728  0.6625  0.5372 -0.3634
  399TMC3     H 6017   3.397   0.594   0.246  1.0696 -0.1228 -0.7335
  399TMC3    H1 6018   3.206   0.367  17.695 -0.1995 -1.1175 -0.3623
  399TMC3    H2 6019   3.370   0.174   0.280  1.4908  0.0184 -0.6440
  399TMC3    C7 6020   3.246   0.126   0.067  0.1992  0.1499  0.2066
  399TMC3    C8 6021   3.498   0.385   0.369  0.2444 -1.1980 -0.4592
  399TMC3    O1 6022   3.292   0.035   0.136 -0.0729 -0.3888 -0.1782
  399TMC3    O2 6023   3.558   0.282   0.383 -0.3990  0.1264 -0.2181
  400TMC3    C1 6024   2.336   3.310  16.897  0.8935 -0.3787 -0.5718
  400TMC3    C2 6025   2.210   3.283  16.844  0.6756  0.8990 -0.5615
  400TMC3    C3 6026   2.153   3.381  16.762 -0.1605 -0.3689  0.0732
  400TMC3    C4 6027   2.414   3.416  16.850  0.4444 -0.1739 -0.1412
  400TMC3    C5 6028   2.348   3.510  16.770  0.3072  0.0532 -0.0366
  400TMC3    C6 6029   2.222   3.494  16.720  0.5356 -0.8360 -0.0544
  400TMC3     C 6030   2.376   3.238  17.018 -0.6277 -0.1501 -0.3669
  400TMC3     O 6031   2.313   3.131  17.040  0.1380  0.7340 -0.0338
  400TMC3     H 6032   2.162   3.192  16.880 -2.9369  2.6410 -0.9592
  400TMC3    H1 6033   2.520   3.422  16.870 -0.2906  0.2760  3.5868
  400TMC3    H2 6034   2.173   3.573  16.665  0.1451 -0.1164  1.3196
  400TMC3    C7 6035   2.414   3.641  16.765 -0.3911  0.3145 -0.6166
  400TMC3    C8 6036   2.022   3.366  16.705 -0.6978 -0.3047  0.0062
  400TMC3    O1 6037   2.493   3.655  16.857 -0.0275  0.5021 -0.5961
  400TMC3    O2 6038   1.971   3.472  16.666 -0.8408 -0.5999 -0.4912
  401MPD2     C 6039   0.567   2.403   1.076  0.2558  0.1567  0.3018
  401MPD2    C1 6040   0.662   2.398   0.974 -0.0289 -0.3724 -0.1354
  401MPD2    C2 6041   0.644   2.313   0.872  0.9036 -0.3022  0.3584
  401MPD2    C3 6042   0.543   2.219   0.865  0.1219 -0.2448 -0.1241
  401MPD2    C4 6043   0.441   2.220   0.961 -0.4172  0.1277  0.4084
  401MPD2    C5 6044   0.459   2.314   1.066 -0.1049  0.4662 -0.9864
  401MPD2     H 6045   0.722   2.300   0.797  1.9500  0.0447  1.3927
  401MPD2    H1 6046   0.357   2.151   0.961 -1.4484  1.3590 -2.4508
  401MPD2    H2 6047   0.568   2.475   1.157  0.6197 -1.1257  1.4335
  401MPD2    H3 6048   0.392   2.303   1.151  1.2631 -3.4010 -0.3823
  401MPD2     N 6049   0.559   2.127   0.753  0.7021  0.3995 -0.1464
  401MPD2    H5 6050   0.644   2.141   0.700 -0.0850  0.7783 -1.3151
  401MPD2    N1 6051   0.779   2.480   0.973 -0.0407 -0.4848  0.7923
  401MPD2    H7 6052   0.844   2.474   0.895 -1.5973  0.5609 -0.5809
  402TMC3    C1 6053   0.534   1.933   0.618  0.1635 -0.8349  0.4226
  402TMC3    C2 6054   0.532   1.798   0.645 -0.2475  0.5843  0.5694
  402TMC3    C3 6055   0.622   1.711   0.583  0.4502  0.0179  0.1145
  402TMC3    C4 6056   0.620   1.990   0.529  0.3563 -0.3129 -0.0387
  402TMC3    C5 6057   0.712   1.898   0.476 -0.1848  0.5351  0.3276
  402TMC3    C6 6058   0.724   1.764   0.508  0.7027  0.4685 -0.2967
  402TMC3     C 6059   0.480   2.017   0.729 -0.2182  0.1643 -0.0738
  402TMC3     O 6060   0.375   1.989   0.782  0.1656  0.1665 -0.2948
  402TMC3     H 6061   0.464   1.763   0.722 -0.5347  0.4852  0.2709
  402TMC3    H1 6062   0.614   2.094   0.499 -1.3226 -0.6301 -0.8054
  402TMC3    H2 6063   0.794   1.702   0.453  0.8949  0.8756 -0.5176
  402TMC3    C7 6064   0.802   1.955   0.378 -0.8640  0.1862 -0.2250
  402TMC3    C8 6065   0.636   1.573   0.635  0.5142  0.0442 -0.1531
  402TMC3    O1 6066   0.766   2.058   0.319  0.4380  0.2812  0.4154
  402TMC3    O2 6067   0.593   1.553   0.745  0.9725 -0.7693  0.1490
  403MPD2     C 6068   3.987   0.061  13.233 -0.6601  0.3588  0.0857
  403MPD2    C1 6069   3.991   4.728  13.353 -0.3702  0.3101  0.0309
  403MPD2    C2 6070   4.087   0.011  13.451  0.3090 -0.5088  0.4147
  403MPD2    C3 6071   4.182   0.107  13.430  0.5626 -0.1734 -0.6364
  403MPD2    C4 6072   4.177   0.180  13.314  0.1467  0.2388 -0.1343
  403MPD2    C5 6073   4.083   0.149  13.219  0.6490 -0.2660  0.1314
  403MPD2     H 6074   4.074   4.686  13.538  0.7184 -0.5307  0.4591
  403MPD2    H1 6075   4.243   0.264  13.294  1.0062 -0.6320 -0.9478
  403MPD2    H2 6076   3.920   0.035  13.152 -1.4410 -1.9899  1.4742
  403MPD2    H3 6077   4.081   0.210  13.130 -3.3548 -2.7908 -1.5181
  403MPD2     N 6078   4.281   0.129  13.532 -0.5294 -0.1538 -0.4991
  403MPD2    H5 6079   4.298   0.052  13.596 -4.4439 -0.2727  0.3697
  403MPD2    N1 6080   3.885   4.634  13.365 -0.1754 -0.3661 -0.1036
  403MPD2    H7 6081   3.825   4.619  13.284  1.0063 -3.6234 -0.3996
  404TMC3    C1 6082   3.722   4.499  13.473 -0.2401  0.1766 -0.3549
  404TMC3    C2 6083   3.710   4.403  13.569  0.2664  0.4304  0.7312
  404TMC3    C3 6084   3.623   4.297  13.547 -0.2901  0.4575  1.2849
  404TMC3    C4 6085   3.662   4.485  13.356  1.0389 -0.7705  0.9434
  404TMC3    C5 6086   3.589   4.373  13.332  0.5121 -0.2425  0.7474
  404TMC3    C6 6087   3.563   4.277  13.426  0.3870  0.5023 -0.4505
  404TMC3     C 6088   3.840   4.581  13.485  0.3271 -0.5625 -0.2477
  404TMC3     O 6089   3.872   4.609  13.602 -0.1049 -0.2469  0.5212
  404TMC3     H 6090   3.764   4.417  13.662  1.8229  1.2274 -0.2969
  404TMC3    H1 6091   3.685   4.557  13.278  2.4874 -1.6670  0.5367
  404TMC3    H2 6092   3.506   4.187  13.411  0.0933  0.9109 -1.7888
  404TMC3    C7 6093   3.560   4.339  13.197  0.2201  0.3883  0.0928
  404TMC3    C8 6094   3.641   4.190  13.649 -0.2958 -0.0988 -0.6185
  404TMC3    O1 6095   3.615   4.415  13.110  0.7531 -0.6156  0.0604
  404TMC3    O2 6096   3.635   4.076  13.612  0.8284  0.0228  0.5341
  405MPD2     C 6097   4.435   0.689  14.756 -0.3139  0.0341  0.1757
  405MPD2    C1 6098   4.415   0.576  14.678 -0.3852 -0.5970 -0.4068
  405MPD2    C2 6099   4.375   0.586  14.551 -0.2504 -0.1053 -1.0647
  405MPD2    C3 6100   4.346   0.705  14.494  0.1810 -0.4960  0.7889
  405MPD2    C4 6101   4.369   0.818  14.572  0.6150  1.1105  0.0039
  405MPD2    C5 6102   4.411   0.812  14.704  0.0791 -0.6863 -0.8485
  405MPD2     H 6103   4.362   0.505  14.480 -1.4467  0.0880 -1.0692
  405MPD2    H1 6104   4.354   0.917  14.530 -1.2864  1.0545  0.5476
  405MPD2    H2 6105   4.472   0.691  14.858 -1.5780  1.3758  0.6201
  405MPD2    H3 6106   4.424   0.900  14.766 -0.7452 -1.6818  0.7232
  405MPD2     N 6107   4.305   0.706  14.355 -0.3860 -0.2511  0.9780
  405MPD2    H5 6108   4.296   0.620  14.302  1.5564 -0.1984  0.5626
  405MPD2    N1 6109   4.442   0.450  14.735  0.2109  0.2858 -0.0187
  405MPD2    H7 6110   4.454   0.447  14.836 -0.8422 -1.9803  0.0421
  406TMC3    C1 6111   4.011   0.728  14.017  0.0106 -0.4179 -0.1035
  406TMC3    C2 6112   4.063   0.624  13.949  0.3053 -0.3510  0.7319
  406TMC3    C3 6113   4.191   0.582  13.990 -0.1107  0.0227 -0.9573
  406TMC3    C4 6114   4.072   0.793  14.119 -0.3468 -0.4661  0.1214
  406TMC3    C5 6115   4.185   0.740  14.164 -0.4153  1.1470 -0.3477
  406TMC3    C6 6116   4.250   0.643  14.099 -0.2627  0.0091  0.1367
  406TMC3     C 6117   3.880   0.765  13.972  0.2471  0.9217 -0.2206
  406TMC3     O 6118   3.847   0.740  13.856  0.0678 -0.5164  0.3024
  406TMC3     H 6119   4.002   0.559  13.888 -0.2143 -0.8457  1.7776
  406TMC3    H1 6120   4.038   0.884  14.168 -0.5485 -1.0483  1.0486
  406TMC3    H2 6121   4.353   0.627  14.130  0.2623  1.4279 -0.8826
  406TMC3    C7 6122   4.243   0.806  14.285 -0.1354  0.0210 -0.3564
  406TMC3    C8 6123   4.226   0.438  13.966 -0.4061 -0.2614 -0.8089
  406TMC3    O1 6124   4.212   0.922  14.308 -0.0379 -0.2646 -0.1179
  406TMC3    O2 6125   4.171   0.381  13.873 -0.3962 -0.0802  0.1573
  407MPD2     C 6126   2.115   2.752   9.920  0.0781 -0.3684 -0.2771
  407MPD2    C1 6127   2.251   2.730   9.917  0.3866 -0.2979 -0.1124
  407MPD2    C2 6128   2.330   2.777  10.020 -0.3536 -1.0243  0.2189
  407MPD2    C3 6129   2.271   2.832  10.131  0.1134 -0.4769 -0.7201
  407MPD2    C4 6130   2.135   2.844  10.135  0.2629  1.1966  0.0734
  407MPD2    C5 6131   2.062   2.807  10.032 -0.1869 -0.0956  0.2762
  407MPD2     H 6132   2.437   2.782  10.009 -0.4506  0.1447 -0.2609
  407MPD2    H1 6133   2.084   2.892  10.218 -0.9732 -1.2299  0.7283
  407MPD2    H2 6134   2.051   2.715   9.841 -1.4772  1.8089 -0.0623
  407MPD2    H3 6135   1.955   2.826  10.034 -0.1564 -0.1757  2.4142
  407MPD2     N 6136   2.360   2.891  10.223 -0.3306 -0.5602 -0.2551
  407MPD2    H5 6137   2.458   2.872  10.208 -0.6367 -2.5114  0.1995
  407MPD2    N1 6138   2.328   2.668   9.814  0.6684  0.6864 -0.3575
  407MPD2    H7 6139   2.428   2.661   9.827  0.4236 -2.3090 -0.0455
  408TMC3    C1 6140   2.369   2.555   9.613 -0.6410  0.4372  0.2515
  408TMC3    C2 6141   2.368   2.437   9.541 -0.0984 -0.0148  0.1813
  408TMC3    C3 6142   2.471   2.405   9.452 -0.6132  0.1465 -0.0903
  408TMC3    C4 6143   2.482   2.639   9.598  0.1515 -0.1781 -0.2127
  408TMC3    C5 6144   2.580   2.603   9.510 -0.2091 -0.2725  0.0117
  408TMC3    C6 6145   2.577   2.486   9.439  0.1021  0.3281  0.1624
  408TMC3     C 6146   2.275   2.597   9.712 -0.7397  0.6659  0.3698
  408TMC3     O 6147   2.159   2.565   9.697  0.1855  0.4114 -0.3249
  408TMC3     H 6148   2.281   2.373   9.549  1.2383 -1.8225  0.3636
  408TMC3    H1 6149   2.505   2.720   9.666  2.4736 -1.0328  0.0302
  408TMC3    H2 6150   2.650   2.467   9.361 -0.0236 -2.9001  0.8186
  408TMC3    C7 6151   2.710   2.660   9.536 -0.5575  0.4326 -0.6094
  408TMC3    C8 6152   2.499   2.261   9.428 -0.9230  0.3292 -1.0808
  408TMC3    O1 6153   2.796   2.589   9.486 -0.0113  0.5183 -0.0103
  408TMC3    O2 6154   2.407   2.180   9.439 -0.5945 -0.3212  0.2841
  409MPD2     C 6155   1.042   3.093  16.808 -0.0354  0.0037 -0.3436
  409MPD2    C1 6156   1.165   3.114  16.868  0.1719 -0.1635 -0.3209
  409MPD2    C2 6157   1.232   3.227  16.839 -0.1158  0.1507  0.5805
  409MPD2    C3 6158   1.160   3.336  16.790  0.0386  0.5072 -0.1599
  409MPD2    C4 6159   1.030   3.323  16.745 -0.6980 -0.0481  0.7736
  409MPD2    C5 6160   0.980   3.200  16.747  0.1840 -0.3801  0.6187
  409MPD2     H 6161   1.336   3.234  16.866  0.6006  0.3249 -2.2677
  409MPD2    H1 6162   0.969   3.396  16.694 -1.2045 -0.1022  1.2987
  409MPD2    H2 6163   0.991   2.998  16.809  1.9488 -1.0594 -0.6620
  409MPD2    H3 6164   0.882   3.184  16.704  0.9209 -0.2507 -1.1321
  409MPD2     N 6165   1.218   3.463  16.776  0.8286  0.0708 -0.2234
  409MPD2    H5 6166   1.164   3.528  16.719 -1.0147 -0.9171  0.4073
  409MPD2    N1 6167   1.238   3.023  16.954 -0.5469 -0.3099  0.2851
  409MPD2    H7 6168   1.334   3.050  16.975 -0.3388 -1.5877  0.9649
  410TMC3    C1 6169   1.398   3.630  16.789 -0.0727 -0.1798 -0.2799
  410TMC3    C2 6170   1.487   3.676  16.882  0.2415 -0.3574 -0.4903
  410TMC3    C3 6171   1.593   3.753  16.836  0.3295  0.4403  0.0473
  410TMC3    C4 6172   1.406   3.643  16.655  0.3852  0.5612 -0.2372
  410TMC3    C5 6173   1.511   3.718  16.606 -0.1248 -0.2467  0.6626
  410TMC3    C6 6174   1.600   3.768  16.700  0.1101 -0.3261 -0.3475
  410TMC3     C 6175   1.337   3.504  16.838  0.4168  0.2358 -0.3378
  410TMC3     O 6176   1.408   3.452  16.923  0.5404 -0.6943 -0.6525
  410TMC3     H 6177   1.476   3.660  16.989  0.4340  0.8874 -0.2889
  410TMC3    H1 6178   1.331   3.599  16.590  0.9361 -2.3437  1.1105
  410TMC3    H2 6179   1.684   3.819  16.654  0.2209 -1.7335 -1.7274
  410TMC3    C7 6180   1.508   3.745  16.461  0.8340  0.4476  0.0724
  410TMC3    C8 6181   1.718   3.710  16.891  0.2218  0.8712  0.3065
  410TMC3    O1 6182   1.401   3.741  16.400 -0.0476  0.2308 -0.2279
  410TMC3    O2 6183   1.819   3.770  16.865 -0.0784 -0.0316 -0.0064
  411MPD2     C 6184   1.764   3.595  14.542 -0.1845  0.2571 -0.0338
  411MPD2    C1 6185   1.750   3.663  14.656  0.3464 -0.4112  0.2723
  411MPD2    C2 6186   1.630   3.651  14.728  0.2176  0.3756 -0.2778
  411MPD2    C3 6187   1.520   3.583  14.672 -0.2544 -0.5905 -0.3124
  411MPD2    C4 6188   1.543   3.516  14.551 -0.4648  0.6984 -0.6003
  411MPD2    C5 6189   1.664   3.517  14.486  0.2919  0.3527  0.9266
  411MPD2     H 6190   1.629   3.695  14.827  2.6031  1.0926 -0.5708
  411MPD2    H1 6191   1.462   3.468  14.498  1.1639 -1.2481 -1.3242
  411MPD2    H2 6192   1.863   3.592  14.499 -1.1128 -1.0509 -2.0630
  411MPD2    H3 6193   1.680   3.458  14.396 -0.9889  0.4009  0.6620
  411MPD2     N 6194   1.390   3.574  14.727  0.0728  0.3749  0.5652
  411MPD2    H5 6195   1.316   3.540  14.666  0.2615  0.6923  0.1600
  411MPD2    N1 6196   1.863   3.738  14.700 -0.0420 -0.1706 -0.7358
  411MPD2    H7 6197   1.950   3.729  14.649  0.9192  0.4667  0.7989
  412TMC3    C1 6198   1.226   3.577  14.883 -0.7011 -0.3181  0.5517
  412TMC3    C2 6199   1.140   3.617  14.784  0.1479 -0.9612 -1.3183
  412TMC3    C3 6200   1.054   3.526  14.728  0.6556  0.0207 -0.1841
  412TMC3    C4 6201   1.225   3.454  14.930  0.6411  0.3248 -1.0311
  412TMC3    C5 6202   1.132   3.367  14.885  0.2612  0.1604  0.3929
  412TMC3    C6 6203   1.044   3.408  14.786  0.3584 -0.7595  0.5642
  412TMC3     C 6204   1.355   3.627  14.851 -0.1932 -0.0486 -0.7222
  412TMC3     O 6205   1.420   3.675  14.941  0.2815  0.3348 -0.5594
  412TMC3     H 6206   1.165   3.710  14.735  3.9760  0.5263  3.4479
  412TMC3    H1 6207   1.310   3.414  14.986  1.1982 -0.4471 -2.4345
  412TMC3    H2 6208   0.977   3.340  14.735 -1.1015  0.5607  0.6839
  412TMC3    C7 6209   1.182   3.236  14.869  0.4012 -0.1077  0.3638
  412TMC3    C8 6210   1.074   3.493  14.592 -0.2600 -0.1592 -1.0935
  412TMC3    O1 6211   1.188   3.165  14.965  0.0353 -0.0702 -0.2578
  412TMC3    O2 6212   1.191   3.477  14.553 -0.2313  0.1221  0.2595
  413MPD2     C 6213   3.001   1.963  15.933 -0.4220  0.4165 -0.3285
  413MPD2    C1 6214   3.027   1.996  15.802  0.6647 -0.6752 -0.1505
  413MPD2    C2 6215   3.153   1.983  15.752 -0.4693 -0.2247  0.1679
  413MPD2    C3 6216   3.252   1.939  15.825 -0.3166 -0.2764 -0.0558
  413MPD2    C4 6217   3.229   1.912  15.960 -0.4131  0.1440 -0.3154
  413MPD2    C5 6218   3.102   1.912  16.012  0.7939  0.6229  0.3941
  413MPD2     H 6219   3.166   1.996  15.645 -0.1653 -3.1486 -0.1380
  413MPD2    H1 6220   3.305   1.878  16.030 -1.9507  0.5548  1.5266
  413MPD2    H2 6221   2.899   1.958  15.970 -0.9229  2.0270 -1.4914
  413MPD2    H3 6222   3.082   1.870  16.110 -0.6140 -2.2320 -1.0966
  413MPD2     N 6223   3.379   1.928  15.764  0.2082  0.3295 -0.2577
  413MPD2    H5 6224   3.382   1.944  15.664 -2.3659  0.7818 -0.2631
  413MPD2    N1 6225   2.917   2.028  15.722  0.1552 -0.6004  0.1891
  413MPD2    H7 6226   2.822   2.035  15.758 -1.2589 -0.7879 -3.5245
  414TMC3    C1 6227   3.600   1.843  15.734 -0.5809 -0.1851  0.2861
  414TMC3    C2 6228   3.679   1.734  15.765  0.3540  0.4252  0.2272
  414TMC3    C3 6229   3.775   1.704  15.680 -0.0007 -0.1994  0.3915
  414TMC3    C4 6230   3.610   1.912  15.618 -0.8252  0.3153  0.0158
  414TMC3    C5 6231   3.714   1.878  15.545 -0.3876  0.4746 -0.1650
  414TMC3    C6 6232   3.802   1.780  15.568 -0.0487  0.5456  0.6385
  414TMC3     C 6233   3.483   1.855  15.813 -0.6249 -0.0069  1.1610
  414TMC3     O 6234   3.505   1.809  15.925 -0.3884  0.0907  0.2505
  414TMC3     H 6235   3.676   1.681  15.860 -2.1603 -0.3190 -0.2863
  414TMC3    H1 6236   3.544   1.993  15.588 -0.4605  0.6979  0.2509
  414TMC3    H2 6237   3.856   1.735  15.485  0.7191 -0.0944  1.4897
  414TMC3    C7 6238   3.700   1.915  15.408 -0.3677 -0.1622 -0.3898
  414TMC3    C8 6239   3.845   1.576  15.691 -0.8079  0.1615 -0.7312
  414TMC3    O1 6240   3.586   1.947  15.379 -0.5055  0.1873  0.3497
  414TMC3    O2 6241   3.792   1.475  15.733 -0.7987  0.3455 -0.3883
  415TMC3    C1 6242   4.404   4.495  10.765 -0.2222 -0.0414  0.3340
  415TMC3    C2 6243   4.332   4.589  10.700  0.2943 -0.0397  0.8286
  415TMC3    C3 6244   4.365   4.609  10.572 -0.2345 -0.0791 -0.9057
  415TMC3    C4 6245   4.499   4.414  10.703 -0.0708 -0.6085 -0.0119
  415TMC3    C5 6246   4.523   4.437  10.578  0.4119 -0.5448  1.2406
  415TMC3    C6 6247   4.465   4.543  10.513 -0.3559 -0.0756  0.2366
  415TMC3     C 6248   4.356   4.457  10.895  0.0831  0.6754  1.3052
  415TMC3     O 6249   4.245   4.494  10.925  0.2590 -0.6921  0.2424
  415TMC3     H 6250   4.254   4.646  10.749  0.1215 -1.1400  1.8452
  415TMC3    H1 6251   4.559   4.341  10.756  2.8361  1.5599 -0.3483
  415TMC3    H2 6252   4.471   4.551  10.405 -0.3550 -3.3502  0.0047
  415TMC3    C7 6253   4.509   4.321  10.500  0.2309 -0.0459  0.3265
  415TMC3    C8 6254   4.308   4.725  10.513  0.2460  0.4409 -0.4033
  415TMC3    O1 6255   4.538   4.318  10.382  0.0785 -0.9301  0.1329
  415TMC3    O2 6256   4.189   0.013  10.532 -0.7745  0.4845  0.7779
  416MPD2     C 6257   1.391   3.153  11.653 -0.1525  0.6972 -0.2990
  416MPD2    C1 6258   1.257   3.119  11.620  0.2464  0.2201  0.6552
  416MPD2    C2 6259   1.235   3.062  11.496 -0.4292  0.2994 -0.1191
  416MPD2    C3 6260   1.331   3.037  11.402 -0.2752  0.6167 -0.1049
  416MPD2    C4 6261   1.465   3.059  11.438  0.1304 -0.1725 -0.1721
  416MPD2    C5 6262   1.486   3.126  11.557 -0.1666 -0.5772 -0.4016
  416MPD2     H 6263   1.134   3.039  11.462  0.4439 -2.4127 -0.8724
  416MPD2    H1 6264   1.544   3.047  11.365  0.7320 -0.6627  0.5492
  416MPD2    H2 6265   1.429   3.210  11.737  0.2010  0.1598 -0.0956
  416MPD2    H3 6266   1.586   3.156  11.589 -0.4042  0.3031 -0.4980
  416MPD2     N 6267   1.311   2.971  11.278 -0.0297 -0.0228 -0.0338
  416MPD2    H5 6268   1.402   2.953  11.237  1.2828  2.9670  1.6491
  416MPD2    N1 6269   1.155   3.155  11.710  0.6852 -0.3500  0.4420
  416MPD2    H7 6270   1.175   3.199  11.800  0.0705  3.0026 -1.0572
  417TMC3    C1 6271   0.947   3.165  11.816 -0.4888  0.3722 -0.1003
  417TMC3    C2 6272   0.997   3.175  11.935  0.1389  0.1435  0.4910
  417TMC3    C3 6273   0.935   3.253  12.031 -0.3879  0.2270  0.1374
  417TMC3    C4 6274   0.831   3.229  11.793  0.4735  0.1220 -0.6409
  417TMC3    C5 6275   0.758   3.294  11.885  0.7155  0.1563 -0.0920
  417TMC3    C6 6276   0.815   3.316  12.009 -0.5923 -0.4123  0.3831
  417TMC3     C 6277   1.021   3.134  11.697 -0.1455  0.1443  0.0967
  417TMC3     O 6278   0.964   3.114  11.592 -0.0580 -0.1251 -0.7682
  417TMC3     H 6279   1.082   3.110  11.951  0.6197  1.6332  4.0102
  417TMC3    H1 6280   0.796   3.237  11.691  0.5365 -0.8289 -0.7408
  417TMC3    H2 6281   0.768   3.378  12.084  3.2168 -0.0489  2.4503
  417TMC3    C7 6282   0.694   3.411  11.834  0.5246 -0.1207 -0.0186
  417TMC3    C8 6283   0.973   3.248  12.171 -0.2824  0.2914  0.1192
  417TMC3    O1 6284   0.737   3.468  11.739  0.0891  0.6123 -0.0031
  417TMC3    O2 6285   0.878   3.247  12.252 -0.0944  0.4968 -0.1437
  418TMC3    C1 6286   4.056   1.189  17.486 -0.4370 -0.3857  0.3168
  418TMC3    C2 6287   3.922   1.223  17.462  0.0265  0.6543  0.4203
  418TMC3    C3 6288   3.836   1.211  17.564 -0.0709 -0.9011 -0.6914
  418TMC3    C4 6289   4.103   1.132  17.598  0.4607  0.7307  0.8105
  418TMC3    C5 6290   4.010   1.119  17.701  0.0675 -0.2652  0.6884
  418TMC3    C6 6291   3.876   1.165  17.684  0.0256 -1.1086 -0.5982
  418TMC3     C 6292   4.140   1.195  17.366  0.4233 -0.7677 -0.5019
  418TMC3     O 6293   4.097   1.270  17.273  0.6171  0.1957  0.3382
  418TMC3     H 6294   3.883   1.239  17.362  2.7399  1.4327 -0.5189
  418TMC3    H1 6295   4.204   1.093  17.610 -0.1539 -1.3474 -0.8164
  418TMC3    H2 6296   3.808   1.167   0.019  0.4758  1.1994 -0.2893
  418TMC3    C7 6297   4.053   1.036   0.069 -0.1170  0.2840  0.5464
  418TMC3    C8 6298   3.700   1.163  17.529  0.2769  0.0202  0.3749
  418TMC3    O1 6299   4.170   0.994   0.067 -0.1211 -0.8147 -0.0453
  418TMC3    O2 6300   3.646   1.204  17.428  0.4859  0.0927  0.5661
  419MPD2     C 6301   3.155   2.974  12.304 -1.0065 -0.5445 -0.5915
  419MPD2    C1 6302   3.147   3.108  12.285  0.0436  0.3909 -0.5429
  419MPD2    C2 6303   3.135   3.187  12.393 -0.2114 -0.4346  0.3088
  419MPD2    C3 6304   3.119   3.144  12.523  0.6751 -0.1500 -0.2239
  419MPD2    C4 6305   3.117   3.011  12.535 -0.1832 -0.4747 -0.0245
  419MPD2    C5 6306   3.135   2.924  12.431 -0.0408  0.5599  0.2304
  419MPD2     H 6307   3.136   3.295  12.382 -0.5729 -0.7086 -2.5164
  419MPD2    H1 6308   3.104   2.977  12.637  0.6638 -1.3473 -0.2124
  419MPD2    H2 6309   3.178   2.901  12.227 -0.1609  0.3743 -1.2205
  419MPD2    H3 6310   3.152   2.821  12.457  0.1787  0.7709  0.9293
  419MPD2     N 6311   3.081   3.240  12.623  0.6012 -0.3275 -0.7073
  419MPD2    H5 6312   3.060   3.336  12.596  0.5881 -0.2394 -0.3865
  419MPD2    N1 6313   3.129   3.165  12.160  0.3953  0.0310  0.2001
  419MPD2    H7 6314   3.118   3.266  12.161  0.3043  0.0206  0.2378
  420TMC3    C1 6315   3.011   3.314  12.835  0.1753  0.7260  0.1401
  420TMC3    C2 6316   2.918   3.389  12.769 -0.4448  0.0019 -0.1245
  420TMC3    C3 6317   2.837   3.467  12.846 -0.4466 -0.0682  0.2566
  420TMC3    C4 6318   3.008   3.305  12.971 -0.3990 -0.6090 -0.1285
  420TMC3    C5 6319   2.933   3.394  13.045 -0.4971  0.4530 -0.1394
  420TMC3    C6 6320   2.845   3.475  12.982  0.3692  0.0080  0.7620
  420TMC3     C 6321   3.081   3.212  12.758 -0.0605  0.7115  0.3182
  420TMC3     O 6322   3.117   3.115  12.825 -0.2967  0.4857  0.5945
  420TMC3     H 6323   2.909   3.377  12.662  2.2811  0.3564 -0.3869
  420TMC3    H1 6324   3.078   3.236  13.017 -2.5079 -2.1984  0.6856
  420TMC3    H2 6325   2.792   3.551  13.037  0.3778  0.4528  0.1544
  420TMC3    C7 6326   2.978   3.426  13.179  0.2336 -0.1714 -0.4313
  420TMC3    C8 6327   2.738   3.541  12.774  0.0192  0.3160 -0.1035
  420TMC3    O1 6328   2.973   3.340  13.266 -0.0195 -0.2139 -0.0203
  420TMC3    O2 6329   2.771   3.558  12.658  0.3507 -0.1692 -0.0896
  421TMC3    C1 6330   4.440   0.244  13.661 -0.0159  0.6865 -0.0984
  421TMC3    C2 6331   4.491   0.362  13.702 -0.3346 -0.1275 -0.5875
  421TMC3    C3 6332   4.576   0.366  13.820  0.6824 -0.4695 -0.0074
  421TMC3    C4 6333   4.461   0.132  13.737  0.4116 -0.3403  0.2720
  421TMC3    C5 6334   4.533   0.142  13.850  0.0650 -0.3384  0.6031
  421TMC3    C6 6335   4.600   0.254  13.895 -0.6954 -0.6595 -0.1990
  421TMC3     C 6336   4.352   0.246  13.545  0.2392  0.7090 -0.2540
  421TMC3     O 6337   4.353   0.352  13.482  0.1819  0.0155 -0.3728
  421TMC3     H 6338   4.454   0.453  13.657  1.4918 -0.5861 -3.0103
  421TMC3    H1 6339   4.420   0.037  13.704 -1.3704  0.1028  1.1871
  421TMC3    H2 6340   4.663   0.252  13.983 -1.0948  3.1878  0.1628
  421TMC3    C7 6341   4.590   0.020  13.896 -0.1081 -0.3235  0.5422
  421TMC3    C8 6342   4.590   0.490  13.894  0.0219  0.6373  0.2396
  421TMC3    O1 6343   4.708   0.016  13.933  0.2253 -0.1915 -0.1558
  421TMC3    O2 6344   4.641   0.476  14.007 -0.2609  0.3681 -0.6373
  422TMC3    C1 6345   1.947   1.447  12.653  0.3908  0.0703 -0.1523
  422TMC3    C2 6346   1.916   1.565  12.719 -0.5153  0.3381  0.5835
  422TMC3    C3 6347   1.803   1.567  12.807  0.3027  0.1335 -0.4684
  422TMC3    C4 6348   1.885   1.329  12.692  0.1348  0.2864 -0.4652
  422TMC3    C5 6349   1.778   1.342  12.783 -0.0981 -0.1896 -0.2846
  422TMC3    C6 6350   1.734   1.458  12.844  0.0300  0.7484 -0.5263
  422TMC3     C 6351   1.995   1.462  12.521  0.1415  0.5106  0.1912
  422TMC3     O 6352   2.027   1.576  12.491  0.0674 -0.9408 -0.1438
  422TMC3     H 6353   1.975   1.654  12.703  0.3659 -0.4969 -0.8486
  422TMC3    H1 6354   1.922   1.233  12.659 -0.4226  0.0097 -0.2939
  422TMC3    H2 6355   1.679   1.443  12.936  0.1998 -0.3663 -0.5978
  422TMC3    C7 6356   1.717   1.219  12.815 -0.4153 -0.1324 -0.1129
  422TMC3    C8 6357   1.777   1.698  12.867 -0.0613  0.3831  0.2662
  422TMC3    O1 6358   1.794   1.122  12.821 -0.4224  0.4477  0.3884
  422TMC3    O2 6359   1.862   1.783  12.851  0.3300 -0.2447  0.7509
  423MPD2     C 6360   2.816   3.065   0.606 -0.1113 -0.6412 -0.3893
  423MPD2    C1 6361   2.819   2.935   0.642  0.4769  0.0190 -0.5091
  423MPD2    C2 6362   2.883   2.848   0.560  0.0292  0.7111  0.3694
  423MPD2    C3 6363   2.947   2.879   0.441  0.7938 -0.4020  0.5878
  423MPD2    C4 6364   2.939   3.011   0.408 -0.3080 -0.2802  0.7098
  423MPD2    C5 6365   2.886   3.102   0.494 -0.5907 -0.6474  0.1119
  423MPD2     H 6366   2.883   2.742   0.585 -3.0764  0.8183  0.8059
  423MPD2    H1 6367   2.990   3.043   0.318 -3.4668  1.4126 -0.4772
  423MPD2    H2 6368   2.766   3.146   0.657  0.0619 -0.2408 -0.8531
  423MPD2    H3 6369   2.876   3.204   0.457  1.9999  0.6917  3.0965
  423MPD2     N 6370   3.008   2.790   0.351  0.2472  0.1199  0.2812
  423MPD2    H5 6371   3.044   2.827   0.264 -1.7931  1.2130 -0.0907
  423MPD2    N1 6372   2.763   2.881   0.754  0.2296  0.6173 -0.2779
  423MPD2    H7 6373   2.757   2.781   0.768 -2.0043  1.0099  1.5846
  424TMC3    C1 6374   2.665   2.859   0.956 -0.2693 -0.2710 -0.1928
  424TMC3    C2 6375   2.767   2.775   1.000  0.0210 -0.0185  0.4549
  424TMC3    C3 6376   2.755   2.728   1.127 -0.1490 -0.3598 -0.1754
  424TMC3    C4 6377   2.559   2.891   1.036 -0.5018 -0.2473 -0.5316
  424TMC3    C5 6378   2.556   2.835   1.163 -0.5014  0.1958  0.0164
  424TMC3    C6 6379   2.657   2.752   1.210 -0.8039 -0.2163  0.3889
  424TMC3     C 6380   2.699   2.954   0.854  0.2639  0.8778  0.7049
  424TMC3     O 6381   2.647   3.065   0.860  0.6502  0.2732 -0.3435
  424TMC3     H 6382   2.860   2.776   0.945 -1.2437  0.8392 -1.6741
  424TMC3    H1 6383   2.487   2.963   0.997 -0.6523 -0.0465  0.1218
  424TMC3    H2 6384   2.651   2.698   1.304  1.1422 -2.0218 -0.5472
  424TMC3    C7 6385   2.433   2.821   1.235 -0.1020  0.3653  0.1501
  424TMC3    C8 6386   2.867   2.662   1.173  0.0899  0.0485 -0.3885
  424TMC3    O1 6387   2.432   2.746   1.334 -0.4066 -0.1035 -0.2686
  424TMC3    O2 6388   2.974   2.699   1.122 -0.1531  0.1173  0.7435
  425MPD2     C 6389   1.894   1.796  16.598 -0.6141 -0.1218  0.4459
  425MPD2    C1 6390   1.912   1.752  16.728 -0.6679  0.4735 -0.7394
  425MPD2    C2 6391   1.828   1.796  16.831  0.6144 -0.1829  0.7826
  425MPD2    C3 6392   1.729   1.882  16.805  0.1216 -0.3277 -0.0964
  425MPD2    C4 6393   1.716   1.920  16.674 -0.0449  0.1447 -0.0776
  425MPD2    C5 6394   1.794   1.886  16.570  0.1756 -0.5162 -0.1638
  425MPD2     H 6395   1.844   1.758  16.931 -2.4018  0.5380  1.5246
  425MPD2    H1 6396   1.628   1.975  16.643 -0.8125 -1.8050 -1.3453
  425MPD2    H2 6397   1.945   1.740  16.520  0.8486  2.4751 -0.4867
  425MPD2    H3 6398   1.759   1.917  16.473 -1.8235 -0.5115  0.5571
  425MPD2     N 6399   1.637   1.912  16.903 -0.6952  0.4781  0.3820
  425MPD2    H5 6400   1.613   1.844  16.974 -0.8189 -0.3757 -0.4745
  425MPD2    N1 6401   2.022   1.671  16.750  0.0130 -0.3514  0.0299
  425MPD2    H7 6402   2.078   1.656  16.667  0.4268 -0.4727  0.3321
  426TMC3    C1 6403   2.190   1.543  16.862  0.0977 -0.1400  0.2130
  426TMC3    C2 6404   2.237   1.501  16.739 -0.2490 -0.8115 -0.2615
  426TMC3    C3 6405   2.320   1.393  16.724 -0.3375  0.0229  0.0659
  426TMC3    C4 6406   2.233   1.469  16.969  0.8502  0.6664  1.1100
  426TMC3    C5 6407   2.315   1.359  16.948 -1.1023  0.1426 -0.0838
  426TMC3    C6 6408   2.360   1.317  16.827 -0.3045 -0.1982 -0.3056
  426TMC3     C 6409   2.073   1.624  16.871 -0.1381  0.4627 -0.4436
  426TMC3     O 6410   2.033   1.651  16.984  0.0324  0.1343 -0.1868
  426TMC3     H 6411   2.204   1.547  16.647  0.4647  0.3861  0.0861
  426TMC3    H1 6412   2.182   1.486  17.063 -0.4590 -2.3892  0.9771
  426TMC3    H2 6413   2.424   1.231  16.812 -0.7025 -0.3676 -1.0135
  426TMC3    C7 6414   2.312   1.250  17.053  0.3972 -0.0409 -0.3057
  426TMC3    C8 6415   2.384   1.362  16.593  0.0614 -0.6726  0.0375
  426TMC3    O1 6416   2.323   1.137  17.002 -0.2253 -0.0989  0.0474
  426TMC3    O2 6417   2.421   1.244  16.577  0.3180  0.2112 -0.1404
  427MPD2     C 6418   0.251   3.126  15.273 -0.1297  0.0474 -0.3331
  427MPD2    C1 6419   0.372   3.177  15.235  0.2651  0.5738 -0.3616
  427MPD2    C2 6420   0.378   3.298  15.177  0.1154 -0.3911  0.1771
  427MPD2    C3 6421   0.266   3.370  15.153 -0.3654  0.4312 -0.2296
  427MPD2    C4 6422   0.145   3.322  15.198 -0.0824 -0.8520 -0.0555
  427MPD2    C5 6423   0.135   3.200  15.263  0.4648 -0.1704  0.4737
  427MPD2     H 6424   0.470   3.330  15.128 -1.0683  0.6194 -1.3994
  427MPD2    H1 6425   0.053   3.373  15.175  0.5463  0.0905 -0.4786
  427MPD2    H2 6426   0.234   3.028  15.317  1.7207  0.3214  1.0314
  427MPD2    H3 6427   0.042   3.152  15.293  0.2495 -1.0591 -1.6298
  427MPD2     N 6428   0.261   3.500  15.092  0.3883 -0.2456  0.2966
  427MPD2    H5 6429   0.175   3.553  15.079  0.5766 -0.0316 -0.0520
  427MPD2    N1 6430   0.495   3.113  15.255  0.1678 -0.1787 -0.1960
  427MPD2    H7 6431   0.578   3.162  15.223  0.2120  0.0994  0.3612
  428TMC3    C1 6432   0.643   2.928  15.299  0.0351  0.2744 -0.7581
  428TMC3    C2 6433   0.641   2.794  15.335  0.5464 -0.3869 -0.2691
  428TMC3    C3 6434   0.758   2.740  15.383 -0.2537  0.4990  0.2657
  428TMC3    C4 6435   0.747   3.011  15.315  0.5654  1.3042  0.3230
  428TMC3    C5 6436   0.867   2.948  15.344  0.3209 -0.1798  0.3259
  428TMC3    C6 6437   0.873   2.816  15.380  0.1374 -0.3999 -0.1520
  428TMC3     C 6438   0.506   2.981  15.307 -0.6939 -0.1350  0.0421
  428TMC3     O 6439   0.416   2.905  15.331 -0.2420 -0.4615 -0.4336
  428TMC3     H 6440   0.551   2.733  15.336  0.3917 -0.1197  1.6379
  428TMC3    H1 6441   0.731   3.117  15.301 -2.1275  0.4476 -3.1950
  428TMC3    H2 6442   0.970   2.772  15.399 -1.2085 -2.6732  1.3488
  428TMC3    C7 6443   0.984   3.032  15.368  0.2312  0.1332 -0.1442
  428TMC3    C8 6444   0.772   2.600  15.408  0.8202 -0.3555  0.2138
  428TMC3    O1 6445   1.063   2.990  15.458 -0.1224 -0.3027 -0.1405
  428TMC3    O2 6446   0.877   2.559  15.455  0.4636 -0.0478 -0.2018
  429MPD2     C 6447   2.134   3.961   0.016 -0.5520 -0.3241 -0.3666
  429MPD2    C1 6448   2.109   3.902  17.641 -0.0926 -0.4650  0.6087
  429MPD2    C2 6449   2.137   3.972  17.528 -0.5724  0.4223 -0.2765
  429MPD2    C3 6450   2.171   4.109  17.533  0.3341 -0.1814  0.7648
  429MPD2    C4 6451   2.182   4.168  17.658 -0.6524  0.1708 -0.5819
  429MPD2    C5 6452   2.163   4.091   0.024  0.3941 -0.3227 -0.3899
  429MPD2     H 6453   2.127   3.931  17.429 -0.2415 -2.1508  0.7710
  429MPD2    H1 6454   2.216   4.267  17.684  2.2854 -0.3728 -2.2791
  429MPD2    H2 6455   2.125   3.914   0.114 -0.1379  1.2523  0.4394
  429MPD2    H3 6456   2.172   4.149   0.115 -0.4432 -1.5585  0.4883
  429MPD2     N 6457   2.201   4.178  17.417  0.5662 -0.4371  0.5281
  429MPD2    H5 6458   2.194   4.119  17.335 -0.3945  0.5672 -0.1176
  429MPD2    N1 6459   2.076   3.761  17.630 -0.2302  0.4200  0.2825
  429MPD2    H7 6460   2.060   3.718  17.539 -1.4214  0.5360  0.4367
  430TMC3    C1 6461   2.332   4.322  17.279 -0.3572  0.0996 -0.3265
  430TMC3    C2 6462   2.349   4.451  17.233  0.0757 -0.1928 -0.0373
  430TMC3    C3 6463   2.418   4.465  17.119 -0.5893  0.2445  0.2314
  430TMC3    C4 6464   2.358   4.215  17.213 -0.1642  0.5227  0.8493
  430TMC3    C5 6465   2.423   4.231  17.092 -0.4743  0.1864  0.6423
  430TMC3    C6 6466   2.456   4.354  17.045  0.2580  0.1049  0.0975
  430TMC3     C 6467   2.262   4.302  17.406  0.1541  0.3086  0.2470
  430TMC3     O 6468   2.255   4.397  17.484  0.4704 -0.2662  0.2179
  430TMC3     H 6469   2.320   4.538  17.291 -0.7133 -0.0322 -0.6733
  430TMC3    H1 6470   2.354   4.116  17.258 -0.5830 -0.7712 -2.0663
  430TMC3    H2 6471   2.491   4.379  16.946 -0.0614 -1.4994 -0.4292
  430TMC3    C7 6472   2.418   4.122  16.999  0.3133 -0.5927 -0.0849
  430TMC3    C8 6473   2.374   4.561  17.027  0.2742 -0.5686 -0.0176
  430TMC3    O1 6474   2.327   4.042  17.021  0.1996  0.2217  0.2508
  430TMC3    O2 6475   2.452   4.595  16.935 -0.4185  0.1651 -0.2411
  431MPD2     C 6476   2.677   3.677  12.393  1.0680 -0.2623 -0.4894
  431MPD2    C1 6477   2.791   3.733  12.346  0.2682  0.3882  0.3780
  431MPD2    C2 6478   2.867   3.669  12.252 -0.2793  0.1550  0.0356
  431MPD2    C3 6479   2.818   3.550  12.195 -0.4640 -0.3675  0.1272
  431MPD2    C4 6480   2.696   3.491  12.233 -0.0562 -0.4430  0.0480
  431MPD2    C5 6481   2.625   3.561  12.339  0.1912  0.2505 -0.2766
  431MPD2     H 6482   2.965   3.709  12.226 -0.8742  0.4855 -1.7003
  431MPD2    H1 6483   2.656   3.402  12.186  1.2800 -0.3026 -1.3518
  431MPD2    H2 6484   2.614   3.726  12.467  1.2873 -1.8854  0.7800
  431MPD2    H3 6485   2.529   3.529  12.376 -0.0675  0.6668 -0.5857
  431MPD2     N 6486   2.885   3.479  12.094 -0.2966 -0.2571 -0.2567
  431MPD2    H5 6487   2.847   3.387  12.073 -1.7929  0.4394 -0.5399
  431MPD2    N1 6488   2.827   3.854  12.412  0.6232 -0.1208 -0.2578
  431MPD2    H7 6489   2.759   3.887  12.480 -0.5877 -0.4831 -1.2888
  432TMC3    C1 6490   3.039   3.426  11.930  1.0143  0.2197  0.1673
  432TMC3    C2 6491   3.149   3.462  11.858  0.1526  0.2643 -0.4682
  432TMC3    C3 6492   3.235   3.362  11.823 -0.0225 -0.8015 -0.9712
  432TMC3    C4 6493   3.011   3.295  11.962 -0.6516  0.2483  0.8611
  432TMC3    C5 6494   3.107   3.201  11.928 -0.4767  0.6225  0.0974
  432TMC3    C6 6495   3.215   3.228  11.852  1.3985  0.2018  0.3496
  432TMC3     C 6496   2.990   3.528  12.014  0.0818  0.1321  0.4994
  432TMC3     O 6497   3.036   3.639  12.009  0.4846  0.0268 -0.1246
  432TMC3     H 6498   3.172   3.566  11.835  2.2570  0.1594  1.1565
  432TMC3    H1 6499   2.936   3.259  12.032 -1.5916 -0.9551 -0.7756
  432TMC3    H2 6500   3.286   3.150  11.828  1.9545  1.2906 -1.5481
  432TMC3    C7 6501   3.142   3.105  12.035 -0.1390  0.5759 -0.3882
  432TMC3    C8 6502   3.372   3.401  11.815  0.5518 -0.6350 -0.6599
  432TMC3    O1 6503   3.180   2.993  12.011 -0.2864 -0.0068  0.1480
  432TMC3    O2 6504   3.444   3.325  11.750  0.1915  0.2829 -0.5836
  433MPD2     C 6505   2.202   2.658  10.453  0.2450 -0.2580 -0.3415
  433MPD2    C1 6506   2.295   2.575  10.508 -0.3206  0.4906  0.3125
  433MPD2    C2 6507   2.335   2.610  10.637 -0.0502  0.6162 -0.1352
  433MPD2    C3 6508   2.284   2.716  10.708  0.5827 -0.1683  0.1010
  433MPD2    C4 6509   2.184   2.791  10.648 -0.2491 -0.3467  0.0649
  433MPD2    C5 6510   2.151   2.764  10.518 -0.3555 -0.3649 -0.0657
  433MPD2     H 6511   2.401   2.540  10.688 -0.5990 -1.0929 -1.7485
  433MPD2    H1 6512   2.132   2.873  10.697 -1.3916 -1.3028  0.4525
  433MPD2    H2 6513   2.171   2.633  10.352  1.6035  0.9046 -1.0484
  433MPD2    H3 6514   2.073   2.829  10.480 -3.1313 -2.7620  1.5436
  433MPD2     N 6515   2.310   2.716  10.846  0.3419  0.3449  0.2557
  433MPD2    H5 6516   2.385   2.658  10.882 -0.1720  0.8030  2.0635
  433MPD2    N1 6517   2.327   2.454  10.445 -0.6527 -0.7538  0.1748
  433MPD2    H7 6518   2.264   2.419  10.373 -0.0908 -0.6604 -0.3560
  434TMC3    C1 6519   2.414   2.237  10.444 -0.3821  0.0004 -0.8258
  434TMC3    C2 6520   2.512   2.163  10.504 -0.0253  0.2499 -0.1406
  434TMC3    C3 6521   2.486   2.028  10.512  0.5338  0.5730  0.0410
  434TMC3    C4 6522   2.297   2.188  10.393  0.2861 -0.3988  0.3424
  434TMC3    C5 6523   2.286   2.054  10.396  0.6236 -0.3552  0.6286
  434TMC3    C6 6524   2.376   1.973  10.460  0.1592 -0.0939  0.6415
  434TMC3     C 6525   2.433   2.376  10.482 -0.1685 -0.7877  0.1071
  434TMC3     O 6526   2.535   2.419  10.528  0.1890 -0.0029 -0.5340
  434TMC3     H 6527   2.607   2.209  10.526 -0.1528  0.5930 -0.3049
  434TMC3    H1 6528   2.233   2.249  10.329  1.1694  0.2569  0.0847
  434TMC3    H2 6529   2.355   1.867  10.458 -1.5493  0.2487 -0.0781
  434TMC3    C7 6530   2.154   2.001  10.355 -0.4818 -0.4344 -0.4381
  434TMC3    C8 6531   2.553   1.961  10.619  0.3441 -0.1857  0.1401
  434TMC3    O1 6532   2.095   2.058  10.267  0.0293 -0.3105  0.0781
  434TMC3    O2 6533   2.616   2.026  10.703 -0.4079 -0.3838 -0.1444
  435MPD2     C 6534   3.947   2.724  15.533 -0.3545  1.0424  0.4556
  435MPD2    C1 6535   3.889   2.681  15.649  0.4973 -0.3165  0.8509
  435MPD2    C2 6536   3.967   2.613  15.746 -0.1426 -0.3942 -0.4121
  435MPD2    C3 6537   4.091   2.557  15.705 -0.0876 -0.1769  1.2993
  435MPD2    C4 6538   4.150   2.615  15.586  0.3370 -0.5821  0.0828
  435MPD2    C5 6539   4.080   2.697  15.501 -0.0217 -0.1164  0.3607
  435MPD2     H 6540   3.929   2.598  15.846 -0.7568 -0.2695 -0.6274
  435MPD2    H1 6541   4.245   2.578  15.548  0.5768  0.8776 -0.7394
  435MPD2    H2 6542   3.896   2.791  15.465  1.4180  1.0609 -0.8497
  435MPD2    H3 6543   4.117   2.730  15.404 -2.0682 -0.6816 -0.6090
  435MPD2     N 6544   4.160   2.465  15.783  0.1256  0.4757 -0.5775
  435MPD2    H5 6545   4.112   2.453  15.872  1.3855 -2.3917 -0.3029
  435MPD2    N1 6546   3.751   2.699  15.672 -0.4507  0.0153 -0.0780
  435MPD2    H7 6547   3.724   2.675  15.767 -0.4978 -0.1776 -0.1405
  436TMC3    C1 6548   3.408   2.828  15.857 -0.2424 -0.1822  0.2602
  436TMC3    C2 6549   3.523   2.777  15.797 -0.3562  0.8606  0.4365
  436TMC3    C3 6550   3.534   2.758  15.663 -0.3816 -0.7682 -0.3471
  436TMC3    C4 6551   3.292   2.848  15.786  0.4203  0.5007 -0.0728
  436TMC3    C5 6552   3.306   2.821  15.652  0.0656  0.4451  1.0708
  436TMC3    C6 6553   3.424   2.787  15.591 -0.2775 -1.2888  0.3705
  436TMC3     C 6554   3.411   2.870  15.994 -0.3449  0.0735 -0.4636
  436TMC3     O 6555   3.526   2.888  16.030  0.1843 -0.6256 -0.1521
  436TMC3     H 6556   3.612   2.788  15.858  0.2106 -0.4268 -0.1595
  436TMC3    H1 6557   3.197   2.886  15.822  2.1709  2.5295  2.3800
  436TMC3    H2 6558   3.423   2.772  15.483 -0.7197  0.8368  0.0719
  436TMC3    C7 6559   3.185   2.833  15.568 -0.6357 -0.4407  0.2325
  436TMC3    C8 6560   3.654   2.753  15.593  0.2625 -0.0800  0.3673
  436TMC3    O1 6561   3.199   2.777  15.457 -0.2136 -0.1334 -0.2000
  436TMC3    O2 6562   3.651   2.805  15.482  0.0251  0.1188  0.2136
  437TMC3    C1 6563   2.321   4.024  13.137 -0.0556 -0.5141  0.1046
  437TMC3    C2 6564   2.209   3.950  13.117 -0.6371 -0.0300 -0.5556
  437TMC3    C3 6565   2.175   3.936  12.988 -0.7147  0.3615 -0.6468
  437TMC3    C4 6566   2.391   4.092  13.044  0.6175  0.0378  0.2132
  437TMC3    C5 6567   2.350   4.078  12.915  0.0034 -0.5345 -0.0255
  437TMC3    C6 6568   2.242   3.997  12.884  0.2303 -0.3065 -0.4749
  437TMC3     C 6569   2.344   4.058  13.277  0.2797  0.3194  0.3514
  437TMC3     O 6570   2.253   4.045  13.355 -0.2453  0.5730 -0.1126
  437TMC3     H 6571   2.157   3.907  13.202  0.3513  1.4835  0.8122
  437TMC3    H1 6572   2.459   4.168  13.081 -0.2684 -0.4725  2.8680
  437TMC3    H2 6573   2.209   3.986  12.781 -0.4826 -1.1317 -0.1560
  437TMC3    C7 6574   2.417   4.164  12.819 -0.6983 -0.5262 -0.0267
  437TMC3    C8 6575   2.046   3.880  12.954 -0.5261  0.7035  0.3037
  437TMC3    O1 6576   2.369   4.175  12.708 -0.0786  0.3116 -0.2437
  437TMC3    O2 6577   1.988   3.925  12.855 -0.3099 -0.1088  0.2746
  438MPD2     C 6578   4.434   0.677  16.578  0.3796  0.0535  0.0205
  438MPD2    C1 6579   4.493   0.606  16.677  0.1549  0.0789 -0.5037
  438MPD2    C2 6580   4.409   0.565  16.777 -0.6255  0.3463 -0.2387
  438MPD2    C3 6581   4.280   0.619  16.793  0.8545  0.4813 -0.0147
  438MPD2    C4 6582   4.225   0.695  16.697 -0.1659 -0.0246 -0.0886
  438MPD2    C5 6583   4.305   0.716  16.587  0.1628  0.1017  0.3555
  438MPD2     H 6584   4.453   0.496  16.848  0.0274  0.0022 -0.9750
  438MPD2    H1 6585   4.126   0.739  16.701  0.5410  1.4128  1.2402
  438MPD2    H2 6586   4.494   0.698  16.490 -2.4689 -0.3805 -2.0216
  438MPD2    H3 6587   4.265   0.771  16.502  1.4558  0.1889 -0.2051
  438MPD2     N 6588   4.208   0.607  16.915  0.0595 -0.2198 -0.3508
  438MPD2    H5 6589   4.119   0.656  16.911  0.0230 -0.2703 -0.1049
  438MPD2    N1 6590   4.627   0.557  16.671 -0.2620  0.2886  0.4835
  438MPD2    H7 6591   4.661   0.502  16.749  1.5105 -3.2169 -2.7895
  439TMC3    C1 6592   0.099   0.504  16.581  0.6176 -0.8612  0.4454
  439TMC3    C2 6593   0.135   0.449  16.458  0.2276  0.5534  0.3561
  439TMC3    C3 6594   0.213   0.341  16.466  0.3747  0.6894 -0.4438
  439TMC3    C4 6595   0.146   0.453  16.698 -0.3851  0.2481  0.2011
  439TMC3    C5 6596   0.223   0.344  16.696  0.3518  0.2251 -0.6320
  439TMC3    C6 6597   0.261   0.282  16.583 -0.8166 -0.7801  0.1896
  439TMC3     C 6598   4.715   0.580  16.569  0.0156 -0.4836 -0.1266
  439TMC3     O 6599   4.696   0.632  16.464  0.2642 -0.4217 -0.1891
  439TMC3     H 6600   0.091   0.481  16.364 -2.2252 -1.3563  0.8359
  439TMC3    H1 6601   0.112   0.492  16.794 -3.0198 -0.9336 -0.2591
  439TMC3    H2 6602   0.319   0.190  16.588  0.7725  0.1356 -1.4805
  439TMC3    C7 6603   0.296   0.306  16.814  0.1707  0.2653 -0.5695
  439TMC3    C8 6604   0.250   0.277  16.341  0.3427 -0.2242  0.1036
  439TMC3    O1 6605   0.379   0.385  16.860  0.4822 -0.0577  0.2591
  439TMC3    O2 6606   0.304   0.172  16.349 -0.0995 -0.1955  0.4284
  440MPD2     C 6607   3.649   0.922  14.673  0.5165  0.2368  0.7042
  440MPD2    C1 6608   3.639   1.022  14.769 -0.5631  0.6045  0.2755
  440MPD2    C2 6609   3.700   1.002  14.887  0.2165 -0.5394 -0.2356
  440MPD2    C3 6610   3.776   0.888  14.911 -0.0516  0.1657  0.1575
  440MPD2    C4 6611   3.771   0.785  14.815  0.7679 -0.5970  0.7965
  440MPD2    C5 6612   3.704   0.803  14.699 -0.1628  1.2643 -0.8196
  440MPD2     H 6613   3.689   1.083  14.959  0.5529 -0.4146 -0.3253
  440MPD2    H1 6614   3.817   0.690  14.838  0.1467 -0.7435  1.4271
  440MPD2    H2 6615   3.611   0.930  14.572  0.5497 -1.7188  0.5342
  440MPD2    H3 6616   3.700   0.721  14.628  0.8098  0.0553  0.5395
  440MPD2     N 6617   3.849   0.874  15.030  0.1293  0.1699 -0.6120
  440MPD2    H5 6618   3.892   0.783  15.040 -2.8333 -1.2463 -0.7241
  440MPD2    N1 6619   3.567   1.145  14.751 -0.0912  0.3196 -0.4345
  440MPD2    H7 6620   3.557   1.202  14.834 -2.6676  1.0939 -1.2738
  441TMC3    C1 6621   3.977   0.932  15.225 -0.2419  0.4928 -0.1812
  441TMC3    C2 6622   4.051   1.030  15.290 -0.6682 -0.1409 -0.1322
  441TMC3    C3 6623   4.130   0.989  15.395  0.4963  0.3079 -0.3816
  441TMC3    C4 6624   3.980   0.802  15.267 -0.3935 -0.0385 -0.4713
  441TMC3    C5 6625   4.073   0.766  15.364  0.0312 -0.5997  0.2599
  441TMC3    C6 6626   4.151   0.861  15.424 -0.2251 -0.3316 -0.5811
  441TMC3     C 6627   3.892   0.974  15.112 -0.4898  0.1100  0.4684
  441TMC3     O 6628   3.882   1.096  15.092 -0.0561  0.8345 -0.2600
  441TMC3     H 6629   4.058   1.135  15.264  1.6790 -0.6997 -1.7996
  441TMC3    H1 6630   3.912   0.730  15.222  1.0021 -0.5557 -1.7544
  441TMC3    H2 6631   4.206   0.843  15.515 -0.6991 -1.2770 -0.4843
  441TMC3    C7 6632   4.061   0.632  15.420 -0.5774 -0.2989 -0.3771
  441TMC3    C8 6633   4.215   1.085  15.449 -0.0023  0.4445 -0.1644
  441TMC3    O1 6634   3.973   0.553  15.381 -0.6834 -0.1963  0.7442
  441TMC3    O2 6635   4.328   1.100  15.404 -0.3297  0.0493 -0.1205
  442MPD2     C 6636   1.959   1.323  16.059  0.3154 -0.0002 -0.0758
  442MPD2    C1 6637   1.889   1.284  16.166  0.4070 -0.4245  0.5703
  442MPD2    C2 6638   1.869   1.153  16.194  0.0700  0.8599  0.1910
  442MPD2    C3 6639   1.936   1.053  16.128  0.1393 -0.4012  0.2278
  442MPD2    C4 6640   2.014   1.089  16.023  0.4018  0.4609 -0.2031
  442MPD2    C5 6641   2.024   1.222  15.991 -0.6396 -0.2815  0.5944
  442MPD2     H 6642   1.793   1.123  16.265 -1.8083  0.1455 -2.1018
  442MPD2    H1 6643   2.065   1.017  15.961 -0.0867  2.1126 -2.5209
  442MPD2    H2 6644   1.984   1.422  16.023  0.1483  0.4088  0.9212
  442MPD2    H3 6645   2.088   1.241  15.907  1.1042  2.4993  2.5610
  442MPD2     N 6646   1.922   0.918  16.158  0.0762  0.5757  0.0566
  442MPD2    H5 6647   1.966   0.854  16.094 -1.1691  0.7506 -0.9720
  442MPD2    N1 6648   1.822   1.383  16.251  0.2691 -0.2398 -0.3375
  442MPD2    H7 6649   1.766   1.343  16.325 -0.1529 -0.5388 -0.8154
  443TMC3    C1 6650   1.762   1.603  16.325 -0.4721 -0.0569  0.0773
  443TMC3    C2 6651   1.675   1.694  16.261 -0.1390  0.0737 -0.4025
  443TMC3    C3 6652   1.554   1.723  16.321 -0.8277  0.6745  0.3842
  443TMC3    C4 6653   1.728   1.544  16.447  0.5057  0.6503  0.3333
  443TMC3    C5 6654   1.612   1.589  16.509  0.0838 -0.4013 -0.3731
  443TMC3    C6 6655   1.526   1.677  16.443  0.2966  0.0115  0.3206
  443TMC3     C 6656   1.839   1.525  16.234  0.2607  0.0688  0.3867
  443TMC3     O 6657   1.888   1.589  16.142  0.3715  0.4421  0.5714
  443TMC3     H 6658   1.704   1.732  16.164 -0.0297  0.5444 -0.1835
  443TMC3    H1 6659   1.793   1.476  16.501 -0.8309 -0.5518  0.4485
  443TMC3    H2 6660   1.431   1.700  16.489 -0.2755  1.8830 -1.7711
  443TMC3    C7 6661   1.582   1.545  16.646  0.0069  0.2182 -0.1978
  443TMC3    C8 6662   1.443   1.703  16.231  0.8654 -0.2439 -0.7535
  443TMC3    O1 6663   1.634   1.441  16.688 -0.2240  0.4351 -0.8003
  443TMC3    O2 6664   1.366   1.617  16.277  0.2738 -0.2385  0.6402
  444MPD2     C 6665   1.784   1.128  17.141 -0.8271  0.9199  0.2036
  444MPD2    C1 6666   1.720   1.016  17.178  0.5104 -0.2146  0.4373
  444MPD2    C2 6667   1.760   0.896  17.116 -0.0817 -0.3798  0.1411
  444MPD2    C3 6668   1.866   0.889  17.027 -0.1436 -0.4375 -0.4818
  444MPD2    C4 6669   1.929   1.012  16.987 -0.4509 -0.0814 -0.1309
  444MPD2    C5 6670   1.891   1.128  17.050 -0.1874  0.3823 -0.1099
  444MPD2     H 6671   1.699   0.810  17.143  0.9244 -1.0919  0.1873
  444MPD2    H1 6672   2.003   1.023  16.909  1.1589  0.3684  1.4643
  444MPD2    H2 6673   1.755   1.230  17.162 -1.0539  0.6808  1.0415
  444MPD2    H3 6674   1.937   1.215  17.003 -2.1109  0.9183 -0.9809
  444MPD2     N 6675   1.902   0.774  16.956 -0.1446  0.0564  0.0944
  444MPD2    H5 6676   1.842   0.693  16.962 -2.0221  1.5459  1.5081
  444MPD2    N1 6677   1.623   1.007  17.285  1.1186 -0.0101 -0.2298
  444MPD2    H7 6678   1.560   0.928  17.274 -0.5942  1.2666  0.3319
  445TMC3    C1 6679   2.021   0.642  16.797  0.2635 -0.0288  0.1939
  445TMC3    C2 6680   1.918   0.554  16.811  0.3648  0.3022  0.6255
  445TMC3    C3 6681   1.925   0.431  16.741 -0.2958  0.3088 -0.1340
  445TMC3    C4 6682   2.124   0.615  16.716  0.0228 -0.4209 -0.0802
  445TMC3    C5 6683   2.134   0.492  16.658  0.3784  0.3163  0.2222
  445TMC3    C6 6684   2.031   0.397  16.665  0.3357 -0.2875 -0.0914
  445TMC3     C 6685   2.014   0.761  16.875  0.6875  0.1743  0.4635
  445TMC3     O 6686   2.122   0.826  16.884  0.4746  0.1989 -0.1497
  445TMC3     H 6687   1.825   0.579  16.862  0.5260  0.6101  0.7681
  445TMC3    H1 6688   2.190   0.699  16.696  0.8352 -1.2504 -0.8637
  445TMC3    H2 6689   2.031   0.302  16.612 -1.5621 -0.9324  1.0551
  445TMC3    C7 6690   2.260   0.462  16.596 -0.2962  0.1121  0.1447
  445TMC3    C8 6691   1.813   0.331  16.739  0.2171 -0.2283  0.2366
  445TMC3    O1 6692   2.333   0.550  16.548 -0.5304  0.3205 -0.5414
  445TMC3    O2 6693   1.785   0.278  16.631 -0.2564  0.1366  0.3555
  446MPD2     C 6694   2.044   1.638  10.876 -0.0143  0.0514 -0.6067
  446MPD2    C1 6695   1.994   1.767  10.878  0.1848 -0.2470 -0.9750
  446MPD2    C2 6696   2.083   1.871  10.889  0.3200  0.3275  0.2037
  446MPD2    C3 6697   2.219   1.849  10.896  0.1188  0.3548 -0.3226
  446MPD2    C4 6698   2.269   1.718  10.897  0.1649  0.6940  0.3278
  446MPD2    C5 6699   2.182   1.615  10.880  0.0489 -0.2872 -0.2337
  446MPD2     H 6700   2.044   1.972  10.898 -0.1333  0.3423 -1.8272
  446MPD2    H1 6701   2.374   1.701  10.917  0.0924 -1.2527 -0.9181
  446MPD2    H2 6702   1.983   1.548  10.867  1.3928 -0.7809 -1.9145
  446MPD2    H3 6703   2.229   1.518  10.868 -1.9320 -1.1479 -1.0803
  446MPD2     N 6704   2.310   1.952  10.901  0.1241  0.1460 -0.0089
  446MPD2    H5 6705   2.408   1.928  10.911  0.0373  0.2352  1.0471
  446MPD2    N1 6706   1.853   1.795  10.872 -0.0392  0.0829  0.5602
  446MPD2    H7 6707   1.821   1.891  10.881  0.4842  0.4625 -1.7179
  447TMC3    C1 6708   2.430   2.145  10.923  0.5346 -0.3506  0.5519
  447TMC3    C2 6709   2.459   2.268  10.869 -0.3697  0.5699 -0.4510
  447TMC3    C3 6710   2.582   2.318  10.910 -0.3523 -0.3101 -0.3902
  447TMC3    C4 6711   2.516   2.071  11.003  0.3200  0.4297 -0.2615
  447TMC3    C5 6712   2.631   2.139  11.053 -0.7562 -0.9969  0.0222
  447TMC3    C6 6713   2.674   2.250  10.992 -0.2692  0.3503  0.1263
  447TMC3     C 6714   2.297   2.087  10.897  0.0143 -0.3349  0.3855
  447TMC3     O 6715   2.192   2.151  10.890 -0.3120 -0.2357 -0.3915
  447TMC3     H 6716   2.393   2.330  10.810 -0.8816  1.0406  0.6090
  447TMC3    H1 6717   2.489   1.975  11.047 -2.7948  0.7116 -1.5850
  447TMC3    H2 6718   2.776   2.284  11.010 -1.0667  2.3504  0.8008
  447TMC3    C7 6719   2.718   2.066  11.138  1.3336  0.2187 -0.0012
  447TMC3    C8 6720   2.624   2.445  10.848 -0.3218  0.3815  0.1206
  447TMC3    O1 6721   2.712   1.944  11.127  0.1101 -0.0159  0.3557
  447TMC3    O2 6722   2.557   2.543  10.866  0.2972  0.0772  0.4748
  448TMC3    C1 6723   4.093   1.778  17.025 -0.2608 -0.5324  0.2738
  448TMC3    C2 6724   4.101   1.689  16.921 -0.0040  0.6481 -0.8012
  448TMC3    C3 6725   4.147   1.567  16.956  0.0293  0.7786 -0.2210
  448TMC3    C4 6726   4.132   1.749  17.153  0.0262 -0.4171  0.2904
  448TMC3    C5 6727   4.177   1.625  17.182 -0.5559  0.4216 -0.1020
  448TMC3    C6 6728   4.180   1.527  17.086  0.0496 -1.0514  0.1664
  448TMC3     C 6729   4.074   1.915  16.987 -0.0595 -0.0616  0.6155
  448TMC3     O 6730   4.121   1.947  16.880  0.3654  0.3490 -0.1105
  448TMC3     H 6731   4.070   1.719  16.821 -0.1949 -2.1936 -1.5937
  448TMC3    H1 6732   4.157   1.827  17.224 -0.0273  1.0412 -1.2616
  448TMC3    H2 6733   4.212   1.428  17.115 -0.4968 -1.3270 -0.1973
  448TMC3    C7 6734   4.207   1.599  17.324 -0.5022 -0.4936 -0.1715
  448TMC3    C8 6735   4.185   1.475  16.856  0.3399  0.8148 -0.4924
  448TMC3    O1 6736   4.170   1.680  17.409  0.0398  0.0469  0.1488
  448TMC3    O2 6737   4.185   1.351  16.884 -0.1313  0.1658 -0.2483
  449MPD2     C 6738   1.748   0.132  13.970  0.0659 -0.0165  0.0839
  449MPD2    C1 6739   1.625   0.149  13.913 -0.3190 -0.0473 -0.4170
  449MPD2    C2 6740   1.516   0.091  13.974 -0.3742  0.2235  0.5515
  449MPD2    C3 6741   1.526   0.025  14.091 -0.3494 -0.2999  0.4823
  449MPD2    C4 6742   1.646   0.005  14.152 -0.3123 -0.0387  0.7487
  449MPD2    C5 6743   1.757   0.058  14.085  0.7215 -0.0099  0.1243
  449MPD2     H 6744   1.419   0.109  13.930 -0.6634  1.0792  1.5424
  449MPD2    H1 6745   1.659   4.691  14.247  2.1950 -0.4184  0.1915
  449MPD2    H2 6746   1.838   0.175  13.928 -0.4733 -1.1197 -2.1727
  449MPD2    H3 6747   1.852   0.028  14.127  0.5819 -0.5136  0.0785
  449MPD2     N 6748   1.400   4.729  14.151 -0.1252  0.2116  0.1889
  449MPD2    H5 6749   1.313   4.736  14.098  1.8202  0.8435 -2.9472
  449MPD2    N1 6750   1.601   0.231  13.796 -0.8560 -0.8772  0.3598
  449MPD2    H7 6751   1.504   0.235  13.764 -0.4907  0.1372 -0.6173
  450TMC3    C1 6752   1.636   0.316  13.583  0.3251  0.0092 -0.0263
  450TMC3    C2 6753   1.676   0.226  13.489  0.0883  0.4222 -0.4550
  450TMC3    C3 6754   1.580   0.167  13.412  0.5547 -0.0254 -0.2062
  450TMC3    C4 6755   1.506   0.346  13.590  0.0699 -0.6378 -0.5706
  450TMC3    C5 6756   1.414   0.305  13.504 -0.4860  0.1660  0.1096
  450TMC3    C6 6757   1.448   0.204  13.422  0.2370  0.0626 -0.8034
  450TMC3     C 6758   1.696   0.298  13.715 -0.6549 -0.8604  0.0058
  450TMC3     O 6759   1.816   0.296  13.722 -0.8305  0.2225 -0.8976
  450TMC3     H 6760   1.783   0.209  13.484 -0.1182 -1.0581 -0.0126
  450TMC3    H1 6761   1.475   0.416  13.667 -1.8197 -1.7050 -0.3602
  450TMC3    H2 6762   1.377   0.153  13.359 -2.7952 -0.0836  2.7268
  450TMC3    C7 6763   1.288   0.273  13.570  0.2684  0.3427  0.0644
  450TMC3    C8 6764   1.611   0.061  13.310  0.0365 -0.5752 -0.0900
  450TMC3    O1 6765   1.238   0.163  13.546 -0.1554 -0.7651  0.3484
  450TMC3    O2 6766   1.514   4.735  13.268 -0.0230 -0.0850  0.1779
  451MPD2     C 6767   2.552   4.579   1.598 -0.1029 -0.0609 -0.6547
  451MPD2    C1 6768   2.477   4.466   1.594  0.2154  0.3587 -0.3557
  451MPD2    C2 6769   2.541   4.347   1.558  0.2663 -0.2572 -1.0853
  451MPD2    C3 6770   2.680   4.351   1.541 -0.7471 -0.3528 -0.4510
  451MPD2    C4 6771   2.750   4.464   1.548 -0.1417  0.3138  0.5044
  451MPD2    C5 6772   2.686   4.578   1.589 -0.3251  0.3106  0.2713
  451MPD2     H 6773   2.485   4.254   1.558 -0.1791  0.0104  0.2429
  451MPD2    H1 6774   2.857   4.473   1.532 -0.4441  0.8407 -1.2038
  451MPD2    H2 6775   2.499   4.669   1.626 -1.7283 -1.7913  1.9118
  451MPD2    H3 6776   2.741   4.670   1.606  0.5450 -0.0856 -0.4107
  451MPD2     N 6777   2.756   4.243   1.493  0.2562  0.2287 -0.1225
  451MPD2    H5 6778   2.854   4.263   1.474  0.1881 -0.9550 -1.7380
  451MPD2    N1 6779   2.346   4.474   1.645  0.3831 -0.0719 -0.6947
  451MPD2    H7 6780   2.321   4.568   1.675 -2.1632 -1.5914  1.9876
  452TMC3    C1 6781   2.813   4.060   1.362  0.1907 -0.2652 -0.4800
  452TMC3    C2 6782   2.791   3.932   1.335  0.2316 -0.0959  0.1516
  452TMC3    C3 6783   2.843   3.878   1.221 -0.2728  0.3358  0.2625
  452TMC3    C4 6784   2.913   4.126   1.290  0.0047 -0.2462 -0.5858
  452TMC3    C5 6785   2.980   4.066   1.182  0.5157  0.5996  0.1359
  452TMC3    C6 6786   2.935   3.942   1.141 -0.6204 -0.1759 -0.4099
  452TMC3     C 6787   2.711   4.124   1.440 -0.5318  0.4558  0.1922
  452TMC3     O 6788   2.603   4.065   1.440  0.7687  0.4194 -0.5871
  452TMC3     H 6789   2.713   3.883   1.394  0.1955 -2.0038 -1.4931
  452TMC3    H1 6790   2.923   4.231   1.314  0.2450 -0.3889 -0.0675
  452TMC3    H2 6791   2.986   3.886   1.064  1.0575 -0.1751  0.7089
  452TMC3    C7 6792   3.069   4.144   1.100 -0.1922 -0.3939 -0.1058
  452TMC3    C8 6793   2.743   3.811   1.127 -0.0208 -0.2134  0.6393
  452TMC3    O1 6794   3.137   4.230   1.159  0.1931  0.1783 -0.7480
  452TMC3    O2 6795   2.745   3.833   1.008 -0.3867  0.2380 -0.1188
  453TMC3    C1 6796   4.280   0.497  11.949  0.3271 -0.1922 -0.0160
  453TMC3    C2 6797   4.161   0.439  11.986  0.4177  1.1515  0.0125
  453TMC3    C3 6798   4.068   0.433  11.882 -0.2824 -1.0309  0.0040
  453TMC3    C4 6799   4.319   0.524  11.817 -0.1447 -0.2584  0.3936
  453TMC3    C5 6800   4.219   0.512  11.721  0.4128 -0.6879 -0.7021
  453TMC3    C6 6801   4.094   0.464  11.753 -0.5437 -0.5233  0.7520
  453TMC3     C 6802   4.370   0.562  12.044 -0.7832  0.3054 -0.2638
  453TMC3     O 6803   4.449   0.648  12.009 -0.7669  0.3032  0.3604
  453TMC3     H 6804   4.132   0.434  12.091  0.8387 -2.0576 -0.0173
  453TMC3    H1 6805   4.410   0.580  11.799 -1.7616  1.6643 -1.8786
  453TMC3    H2 6806   4.020   0.441  11.678 -0.7959  0.0169  0.8416
  453TMC3    C7 6807   4.234   0.553  11.583 -0.3110 -0.1295 -0.5010
  453TMC3    C8 6808   3.946   0.347  11.908  0.3988 -0.8180  0.5960
  453TMC3    O1 6809   4.136   0.551  11.513  0.1695 -0.5138  0.2314
  453TMC3    O2 6810   3.867   0.324  11.816 -0.0992  0.3217 -0.6789
  454MPD2     C 6811   2.804   0.650  15.369  0.2446 -0.0179  0.2493
  454MPD2    C1 6812   2.694   0.589  15.432  0.3840  1.0493  0.1920
  454MPD2    C2 6813   2.655   0.635  15.558 -0.1268 -0.4893  0.0515
  454MPD2    C3 6814   2.716   0.740  15.619 -0.2209 -0.1613 -0.1404
  454MPD2    C4 6815   2.820   0.797  15.557  0.2026  0.5511 -0.1566
  454MPD2    C5 6816   2.863   0.752  15.434 -0.7179  0.7727  0.4605
  454MPD2     H 6817   2.582   0.580  15.615 -1.0539  0.4789 -0.2087
  454MPD2    H1 6818   2.878   0.880  15.596  1.6538 -0.7334  0.4144
  454MPD2    H2 6819   2.833   0.620  15.269 -2.7474  0.6277 -0.8075
  454MPD2    H3 6820   2.954   0.804  15.405  0.6196 -2.2030 -0.6813
  454MPD2     N 6821   2.669   0.780  15.748 -0.6264  0.3183 -0.4206
  454MPD2    H5 6822   2.590   0.729  15.786  0.7975 -0.5285  1.4047
  454MPD2    N1 6823   2.629   0.472  15.378 -0.3435  0.7624 -0.4434
  454MPD2    H7 6824   2.674   0.416  15.307  1.0849  2.1577 -0.6207
  455TMC3    C1 6825   2.641   0.874  15.944  0.9931  0.1619 -0.0224
  455TMC3    C2 6826   2.579   0.986  15.992  0.1682 -0.0800  0.1054
  455TMC3    C3 6827   2.462   0.985  16.056 -0.0209 -0.1141  0.6866
  455TMC3    C4 6828   2.590   0.751  15.982 -0.1402  0.0338 -0.0668
  455TMC3    C5 6829   2.473   0.752  16.054  0.0864  0.1300 -0.2459
  455TMC3    C6 6830   2.403   0.864  16.094 -0.2808  0.1569 -0.4930
  455TMC3     C 6831   2.702   0.891  15.818  0.1550 -0.1413 -0.1431
  455TMC3     O 6832   2.774   0.987  15.790 -0.2835 -0.0182  0.6144
  455TMC3     H 6833   2.629   1.078  15.963  0.0631  0.7249  2.4263
  455TMC3    H1 6834   2.644   0.664  15.945 -1.1906 -0.2208 -1.0171
  455TMC3    H2 6835   2.303   0.868  16.136  1.0177  2.4337  2.3895
  455TMC3    C7 6836   2.403   0.622  16.058 -1.0554 -0.3881 -0.2735
  455TMC3    C8 6837   2.425   1.108  16.121  0.0843  0.7252  0.4351
  455TMC3    O1 6838   2.419   0.550  15.965  0.0899  0.2238 -0.0775
  455TMC3    O2 6839   2.324   1.097  16.189  0.3542 -0.0511 -0.0443
  456MPD2     C 6840   0.548   0.774  16.180  0.1641  0.1217 -0.0649
  456MPD2    C1 6841   0.532   0.682  16.283  0.0597 -0.7164 -0.3818
  456MPD2    C2 6842   0.433   0.711  16.373  0.3409  0.2254  0.0351
  456MPD2    C3 6843   0.370   0.831  16.374  0.0416  0.0304 -0.2124
  456MPD2    C4 6844   0.387   0.923  16.276 -0.6384 -0.1357  0.0409
  456MPD2    C5 6845   0.478   0.894  16.183 -0.0578 -0.4294 -0.0722
  456MPD2     H 6846   0.405   0.639  16.449  1.1036 -0.1276 -0.0165
  456MPD2    H1 6847   0.344   1.022  16.292 -3.7405 -1.2111 -1.6420
  456MPD2    H2 6848   0.613   0.759  16.094 -1.2648  1.5287 -1.4001
  456MPD2    H3 6849   0.501   0.955  16.096 -0.3211  0.0483  0.1962
  456MPD2     N 6850   0.278   0.855  16.485  0.2489 -0.6896 -1.1994
  456MPD2    H5 6851   0.294   0.797  16.566  0.0423  2.4118  1.0448
  456MPD2    N1 6852   0.599   0.563  16.278  0.2153 -0.4693 -0.2570
  456MPD2    H7 6853   0.657   0.549  16.196  0.6224 -1.0259  0.1227
  457TMC3    C1 6854   0.093   0.936  16.604  0.1333  0.1121  0.2309
  457TMC3    C2 6855   4.713   1.005  16.585  0.1444  0.4500  0.2375
  457TMC3    C3 6856   4.623   1.003  16.691  0.2072 -0.0418  0.0773
  457TMC3    C4 6857   0.119   0.862  16.714 -0.2806  0.5648 -0.1602
  457TMC3    C5 6858   0.020   0.861  16.808  0.5058 -1.0078 -0.0266
  457TMC3    C6 6859   4.643   0.934  16.800 -0.3127  0.1678  0.8302
  457TMC3     C 6860   0.175   0.942  16.486 -0.5935 -0.1584 -0.0063
  457TMC3     O 6861   0.133   1.011  16.393 -0.3098 -0.2834  0.2898
  457TMC3     H 6862   4.691   1.071  16.502 -0.2699 -1.9722 -1.5655
  457TMC3    H1 6863   0.210   0.805  16.730  0.7780  2.3341  0.1585
  457TMC3    H2 6864   4.566   0.933  16.876  1.0233 -0.9651  2.1543
  457TMC3    C7 6865   0.057   0.800  16.941 -0.7406 -0.0373 -0.1606
  457TMC3    C8 6866   4.514   1.102  16.698  1.0619 -0.6546  1.0137
  457TMC3    O1 6867   0.118   0.696  16.951 -0.2224 -0.3935  0.0704
  457TMC3    O2 6868   4.468   1.131  16.805  0.4608  0.4353 -0.0728
  458MPD2     C 6869   2.799   4.498  12.700  0.4908  0.2953 -0.4804
  458MPD2    C1 6870   2.830   4.438  12.820  0.0263 -0.0387  0.1409
  458MPD2    C2 6871   2.740   4.353  12.877  0.0551 -0.2064  0.5128
  458MPD2    C3 6872   2.623   4.317  12.814 -0.0692 -0.1131  0.2556
  458MPD2    C4 6873   2.589   4.382  12.698  0.3898 -0.1172  0.5920
  458MPD2    C5 6874   2.680   4.473  12.643 -0.2728 -0.5061 -1.1951
  458MPD2     H 6875   2.761   4.293  12.965  1.9113 -0.5821 -0.2023
  458MPD2    H1 6876   2.502   4.358  12.638 -0.8983  1.7565  1.7095
  458MPD2    H2 6877   2.860   4.570  12.646 -0.3286  1.6225  0.3873
  458MPD2    H3 6878   2.658   4.530  12.553  2.7453  0.4048 -1.3604
  458MPD2     N 6879   2.534   4.215  12.864  0.0201 -0.1113 -0.3752
  458MPD2    H5 6880   2.574   4.170  12.946 -3.3867 -2.8203 -0.2175
  458MPD2    N1 6881   2.953   4.476  12.881 -0.3484  0.2030 -0.1045
  458MPD2    H7 6882   3.002   4.549  12.831  0.7009 -0.1779  0.3602
  459TMC3    C1 6883   3.130   4.479  13.024  0.6531 -0.4093 -0.1357
  459TMC3    C2 6884   3.221   4.499  12.922  0.3401  0.7299 -0.4852
  459TMC3    C3 6885   3.342   4.551  12.970 -0.5865 -0.3626  0.2447
  459TMC3    C4 6886   3.143   4.527  13.151  0.4714 -1.1334  0.1977
  459TMC3    C5 6887   3.256   4.587  13.188 -0.0725  0.5063 -0.3703
  459TMC3    C6 6888   3.355   4.605  13.097 -0.0100  0.7916 -0.1322
  459TMC3     C 6889   3.004   4.421  12.993 -0.2957 -0.4037 -0.6512
  459TMC3     O 6890   2.949   4.359  13.083  0.5924 -0.3698 -0.9092
  459TMC3     H 6891   3.210   4.450  12.825  1.2967 -0.2780 -0.0847
  459TMC3    H1 6892   3.066   4.494  13.220 -1.3796  2.4498 -0.1635
  459TMC3    H2 6893   3.454   4.643  13.121 -0.0391  0.5185  0.4287
  459TMC3    C7 6894   3.291   4.553  13.326 -0.0720 -0.3412  0.5829
  459TMC3    C8 6895   3.437   4.590  12.869 -0.2233 -0.3846  0.2717
  459TMC3    O1 6896   3.263   4.440  13.349 -0.5017 -0.1038  0.5599
  459TMC3    O2 6897   3.389   4.600  12.761 -0.2319 -0.3959 -0.3446
  460MPD2     C 6898   2.917   2.458  10.624 -0.5116 -0.2476 -0.2681
  460MPD2    C1 6899   2.804   2.507  10.690 -0.8129 -0.0825 -0.0418
  460MPD2    C2 6900   2.748   2.630  10.654 -0.5807  0.0154 -0.0011
  460MPD2    C3 6901   2.815   2.713  10.570 -0.1000  0.7234  0.2114
  460MPD2    C4 6902   2.930   2.665  10.504  0.1093 -0.3968 -0.4539
  460MPD2    C5 6903   2.978   2.536  10.529 -0.1113 -0.2399  0.3479
  460MPD2     H 6904   2.659   2.666  10.705 -0.5987  1.6991 -1.1999
  460MPD2    H1 6905   2.965   2.716  10.414  2.2008 -0.6023  0.2421
  460MPD2    H2 6906   2.955   2.359  10.646 -0.5813 -0.0095  0.9113
  460MPD2    H3 6907   3.066   2.500  10.477  1.2004  1.4153  1.3986
  460MPD2     N 6908   2.755   2.830  10.537 -0.2638  0.0799 -0.5235
  460MPD2    H5 6909   2.664   2.849  10.578  0.3896 -0.4451  1.1625
  460MPD2    N1 6910   2.746   2.430  10.790  0.3048  0.2555 -0.1237
  460MPD2    H7 6911   2.768   2.331  10.791  1.4167  0.4975 -1.4210
  461TMC3    C1 6912   2.669   2.999  10.411  0.2453  0.2005 -0.0597
  461TMC3    C2 6913   2.547   2.945  10.427  0.0182  0.1099  0.9437
  461TMC3    C3 6914   2.443   3.021  10.392 -0.1803 -0.4295  0.3859
  461TMC3    C4 6915   2.693   3.131  10.372  0.8463 -0.0243  0.3657
  461TMC3    C5 6916   2.583   3.202  10.343 -0.3895  0.1776 -0.1423
  461TMC3    C6 6917   2.455   3.153  10.348  0.3841 -0.2597  0.2935
  461TMC3     C 6918   2.788   2.930  10.450 -0.6053  0.7439  0.6598
  461TMC3     O 6919   2.902   2.965  10.418 -0.1555  0.7105 -0.0348
  461TMC3     H 6920   2.527   2.839  10.437 -1.0217  0.3122  1.0163
  461TMC3    H1 6921   2.792   3.172  10.360  0.7801  0.5213  1.7079
  461TMC3    H2 6922   2.370   3.212  10.317 -1.2820 -2.5305  0.6010
  461TMC3    C7 6923   2.597   3.344  10.299  0.3868 -0.0139 -0.3182
  461TMC3    C8 6924   2.322   2.970  10.331 -0.0331  0.6529  0.1897
  461TMC3    O1 6925   2.520   3.371  10.210  0.2875 -0.0826  0.2646
  461TMC3    O2 6926   2.213   3.025  10.343  0.4839 -0.0990  0.1357
  462TMC3    C1 6927   2.147   3.469   0.393  0.3971  0.1623 -0.1115
  462TMC3    C2 6928   2.152   3.348   0.462 -0.3122 -1.0059 -0.0643
  462TMC3    C3 6929   2.037   3.277   0.488  0.3783 -0.4022  0.6471
  462TMC3    C4 6930   2.022   3.527   0.366  0.1584 -0.2445 -0.4120
  462TMC3    C5 6931   1.903   3.447   0.383  0.4653  0.4261  0.3099
  462TMC3    C6 6932   1.916   3.332   0.468 -0.1831  0.1897  0.1259
  462TMC3     C 6933   2.255   3.558   0.427 -0.4158 -0.1469 -0.1742
  462TMC3     O 6934   2.299   3.544   0.536  0.0420 -0.0344 -0.4389
  462TMC3     H 6935   2.248   3.304   0.484  0.1271  0.2080  0.4500
  462TMC3    H1 6936   2.014   3.626   0.322  0.3534  0.5549  1.3867
  462TMC3    H2 6937   1.828   3.270   0.486 -0.0075 -0.0946  0.0024
  462TMC3    C7 6938   1.780   3.488   0.335  0.4673  0.0964  0.3317
  462TMC3    C8 6939   2.050   3.133   0.505  0.6822 -0.2266 -1.0319
  462TMC3    O1 6940   1.776   3.587   0.266 -0.1495  0.1771 -0.4516
  462TMC3    O2 6941   1.961   3.070   0.563  0.2917 -0.0642  0.7139
  463MPD2     C 6942   1.133   3.211   1.928  0.1042  0.0520  0.0522
  463MPD2    C1 6943   1.220   3.141   1.852 -0.1993  0.2462 -0.3214
  463MPD2    C2 6944   1.354   3.181   1.838  0.3007  0.6309 -0.2187
  463MPD2    C3 6945   1.398   3.294   1.908 -0.4276  0.0753 -0.0058
  463MPD2    C4 6946   1.309   3.364   1.990  0.5934 -0.2711 -0.2618
  463MPD2    C5 6947   1.181   3.324   1.993  0.4122 -0.1456 -0.0589
  463MPD2     H 6948   1.422   3.126   1.775 -0.3243 -0.1090 -0.2428
  463MPD2    H1 6949   1.347   3.450   2.043 -0.1237 -1.2899  1.9151
  463MPD2    H2 6950   1.031   3.177   1.941 -0.1066  0.8042  0.3448
  463MPD2    H3 6951   1.108   3.378   2.052  1.9171  1.5000  0.2966
  463MPD2     N 6952   1.530   3.345   1.889 -0.1747  0.3824 -0.4260
  463MPD2    H5 6953   1.554   3.435   1.930 -1.5339  0.5915 -0.0834
  463MPD2    N1 6954   1.187   3.034   1.774  0.3896  0.3579 -0.0068
  463MPD2    H7 6955   1.268   3.001   1.724  1.1810 -1.5458  2.5301
  464TMC3    C1 6956   1.056   2.890   1.633 -0.2434 -0.3814  0.3579
  464TMC3    C2 6957   1.160   2.904   1.543  0.4376  0.2819 -0.2270
  464TMC3    C3 6958   1.133   2.842   1.418 -0.0876  0.6273  0.1213
  464TMC3    C4 6959   0.937   2.825   1.606  0.3163  0.3380 -0.3958
  464TMC3    C5 6960   0.935   2.750   1.492  0.6158  0.0835  0.0982
  464TMC3    C6 6961   1.035   2.751   1.400  0.0919 -0.0878  0.1822
  464TMC3     C 6962   1.066   2.966   1.754  0.0445 -0.5000  0.7720
  464TMC3     O 6963   0.966   2.974   1.820 -0.2560  0.2184  0.0616
  464TMC3     H 6964   1.232   2.985   1.544 -0.2111  0.8668 -2.2641
  464TMC3    H1 6965   0.859   2.818   1.681 -1.0821  0.4676 -1.8472
  464TMC3    H2 6966   1.010   2.722   1.298  1.3845  1.4613 -0.5809
  464TMC3    C7 6967   0.847   2.644   1.502  0.2761 -0.2955  0.1634
  464TMC3    C8 6968   1.246   2.853   1.330 -0.4956  0.2601 -0.0590
  464TMC3    O1 6969   0.732   2.672   1.532 -0.5757 -0.4663 -0.0090
  464TMC3    O2 6970   1.364   2.863   1.374 -0.4512 -0.0208  0.1498
  465MPD2     C 6971   4.109   0.317  16.294 -0.2347 -0.0562  0.7409
  465MPD2    C1 6972   4.003   0.353  16.382 -0.1849 -0.0166 -0.2676
  465MPD2    C2 6973   3.893   0.429  16.341  0.2146 -0.0275  0.0264
  465MPD2    C3 6974   3.878   0.454  16.206 -0.4715  0.4110 -0.0381
  465MPD2    C4 6975   3.978   0.417  16.121  0.4004 -0.3926 -0.4345
  465MPD2    C5 6976   4.088   0.345  16.160  0.0996  0.2842  0.2447
  465MPD2     H 6977   3.812   0.446  16.411  0.0170 -1.0051  0.0312
  465MPD2    H1 6978   3.965   0.425  16.014 -1.1119 -0.9345 -0.2915
  465MPD2    H2 6979   4.203   0.274  16.327 -0.3809 -0.2800  0.8729
  465MPD2    H3 6980   4.158   0.304  16.089  1.3353  0.6418  1.2580
  465MPD2     N 6981   3.775   0.533  16.165  0.1828  0.5375 -0.5524
  465MPD2    H5 6982   3.703   0.552  16.234  0.8925  1.0810  0.0401
  465MPD2    N1 6983   4.014   0.346  16.525  0.8339  0.1750 -0.5699
  465MPD2    H7 6984   3.930   0.376  16.575  0.7180 -0.9980 -0.0731
  466TMC3    C1 6985   3.447   0.753  16.181  0.1989  0.5662  0.1061
  466TMC3    C2 6986   3.471   0.884  16.161 -0.6750 -0.8255 -0.6664
  466TMC3    C3 6987   3.581   0.915  16.080 -0.2677  0.7607 -0.3311
  466TMC3    C4 6988   3.542   0.657  16.145 -0.5192 -0.0669  0.4843
  466TMC3    C5 6989   3.649   0.695  16.062  0.9037 -0.2625  0.8224
  466TMC3    C6 6990   3.668   0.825  16.034  0.2980 -0.5973  0.0132
  466TMC3     C 6991   3.349   0.717  16.283 -0.8289 -0.2925  0.0447
  466TMC3     O 6992   3.321   0.807  16.361 -0.0065  0.1482  0.5325
  466TMC3     H 6993   3.390   0.950  16.188  1.4534  1.8238 -0.7304
  466TMC3    H1 6994   3.524   0.555  16.177 -0.9455 -0.5328 -1.1913
  466TMC3    H2 6995   3.763   0.855  15.991  0.6449  1.3558  2.1738
  466TMC3    C7 6996   3.757   0.602  16.045 -0.3155 -0.1652  0.9961
  466TMC3    C8 6997   3.630   1.047  16.082  0.4750  0.7794 -0.2347
  466TMC3    O1 6998   3.828   0.612  15.948  0.3778  0.1762 -0.1528
  466TMC3    O2 6999   3.711   1.080  16.003 -0.5374 -0.3348 -0.2145
  467TMC3    C1 7000   0.235   3.820  14.248 -0.4431 -0.1844 -0.1835
  467TMC3    C2 7001   0.246   3.918  14.156  0.2896 -0.2379  0.5594
  467TMC3    C3 7002   0.195   3.898  14.032 -0.2588 -0.6827  0.0405
  467TMC3    C4 7003   0.172   3.703  14.204 -0.5149  0.3413 -0.1981
  467TMC3    C5 7004   0.094   3.705  14.089  0.6911 -1.0084  0.0918
  467TMC3    C6 7005   0.118   3.797  13.991 -0.4163 -0.2019  0.2389
  467TMC3     C 7006   0.350   3.808  14.329 -0.3341 -0.0057 -0.2375
  467TMC3     O 7007   0.383   3.899  14.409  0.8292  0.0265  0.7608
  467TMC3     H 7008   0.300   4.006  14.189  0.4216  0.9051 -2.6333
  467TMC3    H1 7009   0.151   3.624  14.276  0.4111 -0.0270 -0.3315
  467TMC3    H2 7010   0.057   3.790  13.901  0.0788 -1.0950 -0.0224
  467TMC3    C7 7011   4.733   3.600  14.065 -0.7465 -0.1686 -0.0986
  467TMC3    C8 7012   0.262   3.980  13.929 -0.4790 -0.7278  0.7277
  467TMC3    O1 7013   4.719   3.569  13.946  0.1342 -0.0423  0.3209
  467TMC3    O2 7014   0.334   4.065  13.975  0.3158 -0.3611 -0.1287
  468MPD2     C 7015   4.129   1.818  11.622 -0.3145 -0.0557 -0.3582
  468MPD2    C1 7016   4.213   1.843  11.515  0.5910 -0.4965  0.6003
  468MPD2    C2 7017   4.252   1.738  11.429 -0.3184 -0.4466  0.0794
  468MPD2    C3 7018   4.204   1.608  11.457  0.0143 -0.1683  0.7509
  468MPD2    C4 7019   4.121   1.592  11.564  0.0061  0.2063 -0.5867
  468MPD2    C5 7020   4.088   1.694  11.650  0.3780  0.2686  0.7634
  468MPD2     H 7021   4.316   1.760  11.345  0.9777 -2.0014  0.6679
  468MPD2    H1 7022   4.077   1.500  11.601 -1.5875  1.3666  0.4033
  468MPD2    H2 7023   4.095   1.887  11.698 -1.4924  1.0286 -1.8851
  468MPD2    H3 7024   4.034   1.661  11.738 -0.7648  1.7094  0.5818
  468MPD2     N 7025   4.231   1.492  11.375 -1.0320  0.1907 -0.1370
  468MPD2    H5 7026   4.178   1.410  11.405  0.1656 -1.4414 -2.4854
  468MPD2    N1 7027   4.267   1.972  11.485  0.2672  0.0038 -0.3286
  468MPD2    H7 7028   4.335   1.980  11.410 -0.5363  1.2381 -0.9272
  469TMC3    C1 7029   4.304   2.197  11.543  0.3312  0.1265  0.5088
  469TMC3    C2 7030   4.422   2.190  11.473 -0.1225  0.1414 -0.4281
  469TMC3    C3 7031   4.505   2.304  11.471 -0.7643 -0.2381 -0.1524
  469TMC3    C4 7032   4.267   2.318  11.603  0.0091  0.2491  0.1292
  469TMC3    C5 7033   4.355   2.424  11.598  0.3762  0.2747  0.6729
  469TMC3    C6 7034   4.476   2.418  11.538  0.6131 -0.2388  0.3003
  469TMC3     C 7035   4.217   2.081  11.548  0.0689  0.4650  0.0188
  469TMC3     O 7036   4.116   2.099  11.620 -0.2303  0.4110 -0.3511
  469TMC3     H 7037   4.461   2.095  11.437 -0.5692 -0.1302 -0.1901
  469TMC3    H1 7038   4.179   2.328  11.665 -0.9977 -2.0100 -0.9378
  469TMC3    H2 7039   4.548   2.499  11.542 -0.6651  0.9010  0.0382
  469TMC3    C7 7040   4.340   2.522  11.703  0.6789  0.1694  0.2758
  469TMC3    C8 7041   4.640   2.283  11.411  0.1321 -0.1175  0.3120
  469TMC3    O1 7042   4.317   2.470  11.807  0.0420  0.0350 -0.6689
  469TMC3    O2 7043   4.656   2.173  11.358 -0.1035  0.3357  0.0518
  470TMC3    C1 7044   1.078   3.041   0.568  0.8560 -0.1113  0.3912
  470TMC3    C2 7045   1.131   3.166   0.561  0.5660  0.2415 -0.6253
  470TMC3    C3 7046   1.124   3.241   0.676  0.6984  0.5170 -0.6159
  470TMC3    C4 7047   1.020   2.996   0.685 -0.4786 -0.0373  0.0087
  470TMC3    C5 7048   1.016   3.077   0.794 -0.0323 -0.5913  0.0295
  470TMC3    C6 7049   1.072   3.198   0.794 -0.5070 -1.3189  0.6836
  470TMC3     C 7050   1.027   2.974   0.447 -0.0432 -0.4808  0.5141
  470TMC3     O 7051   0.998   3.052   0.361  0.0140 -0.8664  0.2989
  470TMC3     H 7052   1.168   3.205   0.467  0.5169  0.5806 -0.5037
  470TMC3    H1 7053   0.960   2.906   0.678  0.8869 -0.9630  0.1679
  470TMC3    H2 7054   1.051   3.273   0.870 -1.6124 -1.8004  0.8555
  470TMC3    C7 7055   0.881   3.079   0.849  0.0935 -0.4863  0.1006
  470TMC3    C8 7056   1.163   3.382   0.675 -0.5054 -0.6068  0.0173
  470TMC3    O1 7057   0.831   2.966   0.851  0.4816 -0.0058 -0.0413
  470TMC3    O2 7058   1.226   3.435   0.765 -0.1890 -0.6169  0.4916
  471MPD2     C 7059   2.003   4.660  16.717 -0.1363  0.3217  0.2999
  471MPD2    C1 7060   2.118   4.588  16.690  0.1512 -0.2796  0.3109
  471MPD2    C2 7061   2.198   4.569  16.797  0.1221  0.5160  0.3889
  471MPD2    C3 7062   2.162   4.605  16.924 -0.3281 -0.1451 -0.5689
  471MPD2    C4 7063   2.047   4.672  16.947  0.4255 -0.3943  0.2699
  471MPD2    C5 7064   1.966   4.696  16.844 -0.6093  0.5789 -0.4018
  471MPD2     H 7065   2.292   4.516  16.780 -0.8236 -0.2546 -2.4343
  471MPD2    H1 7066   2.042   4.714  17.047  2.7290  0.7656 -0.0807
  471MPD2    H2 7067   1.920   4.685  16.652 -1.4701  0.6733  2.1130
  471MPD2    H3 7068   1.876   0.017  16.860 -1.2692 -0.8500  1.1247
  471MPD2     N 7069   2.243   4.573  17.038 -0.5210 -0.2064 -0.1744
  471MPD2    H5 7070   2.197   4.557  17.127  0.3112  2.2591  0.6867
  471MPD2    N1 7071   2.145   4.536  16.565  0.0660  0.1419  0.0082
  471MPD2    H7 7072   2.085   4.564  16.489 -1.9453 -0.7329  1.2929
  472TMC3    C1 7073   2.211   4.365  16.407 -0.7647 -0.4608  0.1233
  472TMC3    C2 7074   2.157   4.456  16.316  0.4038  0.0053  0.1591
  472TMC3    C3 7075   2.120   4.411  16.195 -0.1020  0.1101  0.5178
  472TMC3    C4 7076   2.197   4.233  16.390  0.5447  0.6662  0.3306
  472TMC3    C5 7077   2.145   4.191  16.272 -0.3380 -0.1085 -0.6320
  472TMC3    C6 7078   2.112   4.278  16.167 -0.1414 -0.5644  0.1742
  472TMC3     C 7079   2.225   4.421  16.538 -0.1441 -0.0476  0.6930
  472TMC3     O 7080   2.278   4.347  16.619  0.6674  0.1815  0.2112
  472TMC3     H 7081   2.167   4.563  16.325  0.1190  0.0675 -0.2923
  472TMC3    H1 7082   2.221   4.170  16.475  0.3788  1.4774  0.9855
  472TMC3    H2 7083   2.073   4.238  16.074  0.5878 -1.4024  0.2241
  472TMC3    C7 7084   2.034   4.100  16.303  0.3664  0.0658 -0.0532
  472TMC3    C8 7085   1.998   4.458  16.144 -0.6742 -0.0121 -1.1069
  472TMC3    O1 7086   2.025   4.044  16.408 -0.0604  0.0375 -0.4043
  472TMC3    O2 7087   1.983   4.455  16.023 -0.5635  0.1769 -0.3263
  473MPD2     C 7088   2.351   1.514  13.760 -0.0178  0.0337  0.2381
  473MPD2    C1 7089   2.251   1.585  13.703 -0.2544  0.9543  0.0511
  473MPD2    C2 7090   2.231   1.719  13.735 -0.2599  0.1829  0.1751
  473MPD2    C3 7091   2.304   1.777  13.831 -0.3871  0.8422  0.7194
  473MPD2    C4 7092   2.403   1.705  13.888 -0.1765 -0.8734 -0.3653
  473MPD2    C5 7093   2.421   1.573  13.864 -0.6008 -0.0216  0.1605
  473MPD2     H 7094   2.141   1.765  13.694 -0.8319  0.4203  1.7055
  473MPD2    H1 7095   2.466   1.756  13.961 -2.1693  0.3833  0.4758
  473MPD2    H2 7096   2.371   1.408  13.749  0.7538  0.0308  1.7305
  473MPD2    H3 7097   2.505   1.527  13.913  1.0323  2.0855 -0.6728
  473MPD2     N 7098   2.283   1.905  13.874  0.4511 -0.4164  0.3908
  473MPD2    H5 7099   2.319   1.940  13.962  1.1645 -0.4396  0.1017
  473MPD2    N1 7100   2.163   1.522  13.610 -0.3119  0.1263 -0.2003
  473MPD2    H7 7101   2.087   1.582  13.579 -1.7982 -1.4188  0.4610
  474TMC3    C1 7102   2.202   2.125  13.871  0.1551 -0.6803  0.0062
  474TMC3    C2 7103   2.086   2.199  13.862  0.6384  0.0734 -0.5449
  474TMC3    C3 7104   2.068   2.307  13.950 -0.0961  0.4227  0.0979
  474TMC3    C4 7105   2.304   2.159  13.958  0.0993 -0.2103 -0.1055
  474TMC3    C5 7106   2.277   2.253  14.052  1.0914  0.5508 -0.7462
  474TMC3    C6 7107   2.170   2.337  14.038 -0.1918  0.1782 -0.4188
  474TMC3     C 7108   2.209   1.999  13.800 -0.2664  0.3117 -0.3172
  474TMC3     O 7109   2.161   1.996  13.688  0.1690 -0.2229 -0.2143
  474TMC3     H 7110   2.010   2.160  13.796 -1.6916  2.2324  0.8891
  474TMC3    H1 7111   2.387   2.094  13.981 -1.1617 -0.6170  3.3125
  474TMC3    H2 7112   2.145   2.411  14.113  1.9910 -0.2326  0.7338
  474TMC3    C7 7113   2.385   2.272  14.149 -0.2902 -0.0589 -0.1162
  474TMC3    C8 7114   1.963   2.397  13.919  0.4619 -0.4262 -0.2990
  474TMC3    O1 7115   2.496   2.248  14.110 -0.6750  0.7230 -0.4946
  474TMC3    O2 7116   1.876   2.354  13.843  0.3690 -0.0779  0.2299
  475MPD2     C 7117   0.229   4.589  11.795 -0.7231 -0.2935 -0.0366
  475MPD2    C1 7118   0.257   4.661  11.676  0.6842  0.3436  0.2029
  475MPD2    C2 7119   0.154   4.675  11.582 -0.2234 -0.0488 -0.0416
  475MPD2    C3 7120   0.034   4.604  11.601  0.4002 -0.4384 -0.4431
  475MPD2    C4 7121   0.019   4.519  11.710 -0.6375  0.4960 -0.5295
  475MPD2    C5 7122   0.114   4.518  11.808 -0.0915 -0.6989 -0.0599
  475MPD2     H 7123   0.159   0.011  11.502 -1.5648  1.8089  1.5881
  475MPD2    H1 7124   4.668   4.461  11.733  1.2571 -2.7871 -1.5523
  475MPD2    H2 7125   0.294   4.586  11.882  0.3098  1.9488 -0.7116
  475MPD2    H3 7126   0.096   4.448  11.888 -0.2274  1.4886  1.8423
  475MPD2     N 7127   4.679   4.610  11.493 -0.5137  0.3359 -0.2593
  475MPD2    H5 7128   4.698   4.676  11.419 -0.7727  1.9673  1.1212
  475MPD2    N1 7129   0.380   4.732  11.675  0.1286 -0.3210 -0.2988
  475MPD2    H7 7130   0.435   0.007  11.759 -0.2712  0.7092 -0.1875
  476TMC3    C1 7131   0.544   0.127  11.588  0.0620 -0.2698  0.2198
  476TMC3    C2 7132   0.632   0.132  11.487 -0.0212  0.0100 -0.5207
  476TMC3    C3 7133   0.707   0.244  11.482 -0.0236  0.4801  0.7322
  476TMC3    C4 7134   0.528   0.227  11.679 -0.3798 -0.5546  0.1029
  476TMC3    C5 7135   0.602   0.341  11.666  0.0540  0.3344  0.9823
  476TMC3    C6 7136   0.697   0.346  11.572 -0.6217 -0.4298  0.1724
  476TMC3     C 7137   0.423   0.057  11.562 -0.3668 -0.3213  0.1788
  476TMC3     O 7138   0.381   0.053  11.448  0.6644 -0.0492  0.2671
  476TMC3     H 7139   0.652   0.049  11.421  3.0650  1.8577 -1.9082
  476TMC3    H1 7140   0.456   0.222  11.760 -0.0862 -0.2890  0.3767
  476TMC3    H2 7141   0.756   0.437  11.572 -2.7969  0.9616 -2.5341
  476TMC3    C7 7142   0.539   0.459  11.728  0.6155  1.0560 -0.2772
  476TMC3    C8 7143   0.790   0.275  11.361  0.3179 -0.3355 -0.4750
  476TMC3    O1 7144   0.480   0.432  11.832  0.3619 -0.5082 -0.0026
  476TMC3    O2 7145   0.862   0.375  11.375  0.0901  0.2277 -0.2097
  477MPD2     C 7146   3.019   1.157  11.480  0.5610 -0.1293 -0.5449
  477MPD2    C1 7147   2.961   1.237  11.573  0.8138 -0.1728  0.1467
  477MPD2    C2 7148   2.967   1.194  11.707 -1.1201 -0.3159 -0.2082
  477MPD2    C3 7149   3.028   1.074  11.744  0.2919  0.4039  0.7212
  477MPD2    C4 7150   3.089   0.995  11.647  0.2180  0.0654 -0.0098
  477MPD2    C5 7151   3.085   1.038  11.514  0.0369  0.2744  0.0583
  477MPD2     H 7152   2.929   1.256  11.788 -1.0318  1.4455 -1.5084
  477MPD2    H1 7153   3.126   0.895  11.670  2.9245  0.5563 -2.2287
  477MPD2    H2 7154   3.016   1.198  11.380  0.6099 -1.5491 -1.1240
  477MPD2    H3 7155   3.137   0.979  11.439  0.4317  0.6909 -0.0001
  477MPD2     N 7156   3.045   1.042  11.883  0.2112 -0.1381 -0.8969
  477MPD2    H5 7157   2.983   1.098  11.940  0.1318 -0.0167 -1.1013
  477MPD2    N1 7158   2.909   1.352  11.517  0.5474 -0.3539 -0.1989
  477MPD2    H7 7159   2.923   1.355  11.416 -1.2513  0.3159 -0.4161
  478TMC3    C1 7160   2.797   1.559  11.488  0.0647  0.7150 -0.0307
  478TMC3    C2 7161   2.730   1.657  11.544  0.0529 -0.3163  0.7088
  478TMC3    C3 7162   2.671   1.751  11.462 -0.0921  0.5715 -0.4872
  478TMC3    C4 7163   2.813   1.547  11.356 -0.2391  0.0340  0.5858
  478TMC3    C5 7164   2.755   1.641  11.274 -0.1475  0.5115 -0.0113
  478TMC3    C6 7165   2.672   1.742  11.322 -0.1202  0.0902 -0.2866
  478TMC3     C 7166   2.841   1.454  11.579  0.3429 -0.3611 -0.4765
  478TMC3     O 7167   2.831   1.469  11.696  0.2280  0.0760  0.9052
  478TMC3     H 7168   2.710   1.660  11.651 -2.3836 -1.8192  0.2737
  478TMC3    H1 7169   2.871   1.464  11.314 -1.2117 -0.7243  0.7427
  478TMC3    H2 7170   2.599   1.794  11.261  1.3390  0.7421 -1.4713
  478TMC3    C7 7171   2.719   1.583  11.148  0.3136 -0.4644 -0.0532
  478TMC3    C8 7172   2.613   1.866  11.526  0.1431 -0.0432 -1.0951
  478TMC3    O1 7173   2.710   1.459  11.144  0.4461  0.7348  0.2076
  478TMC3    O2 7174   2.600   1.853  11.647  0.7581 -0.5786 -0.1352
  479MPD2     C 7175   1.041   3.368  15.233 -0.1760  0.0242 -0.6469
  479MPD2    C1 7176   1.076   3.257  15.313 -0.0701 -0.1357  0.8582
  479MPD2    C2 7177   1.171   3.269  15.415 -0.5978 -0.0908  0.7454
  479MPD2    C3 7178   1.240   3.389  15.420 -0.8171  0.7690 -0.4762
  479MPD2    C4 7179   1.217   3.487  15.330  0.4686 -0.4410 -0.1008
  479MPD2    C5 7180   1.119   3.476  15.239  0.5776  0.6588  0.5501
  479MPD2     H 7181   1.187   3.195  15.493 -1.2016 -1.4718 -0.4263
  479MPD2    H1 7182   1.270   3.581  15.339 -0.7102  0.2154 -0.0198
  479MPD2    H2 7183   0.946   3.357  15.182 -0.6529  0.0265  0.2266
  479MPD2    H3 7184   1.099   3.559  15.174  2.3317  1.3019  0.8332
  479MPD2     N 7185   1.339   3.421  15.522  0.3356 -0.0946 -0.0908
  479MPD2    H5 7186   1.391   3.507  15.506  0.1392 -0.1219 -0.8940
  479MPD2    N1 7187   0.983   3.151  15.294 -0.8690  0.2749 -0.2963
  479MPD2    H7 7188   0.914   3.152  15.220  0.9296  2.6645 -1.9420
  480TMC3    C1 7189   1.496   3.452  15.959  0.0991  0.1882 -0.4309
  480TMC3    C2 7190   1.531   3.585  15.941  0.3725  0.7657 -0.0418
  480TMC3    C3 7191   1.521   3.631  15.815  0.1452 -0.4814 -0.5584
  480TMC3    C4 7192   1.453   3.368  15.862  0.1061 -0.2240  0.6157
  480TMC3    C5 7193   1.441   3.421  15.733  0.1395  0.0184  0.2020
  480TMC3    C6 7194   1.478   3.552  15.711  0.4742 -0.5212 -0.2331
  480TMC3     C 7195   1.494   3.379  16.087 -0.9082  0.2088 -0.1005
  480TMC3     O 7196   1.527   3.261  16.081  0.4727  0.0528 -0.0705
  480TMC3     H 7197   1.563   3.646  16.025 -0.3985 -1.8905  2.1671
  480TMC3    H1 7198   1.424   3.264  15.873 -0.3608 -0.1710 -0.1818
  480TMC3    H2 7199   1.471   3.598  15.613 -1.2678  0.3893  0.3181
  480TMC3    C7 7200   1.372   3.343  15.633 -0.6233 -0.9928  0.0317
  480TMC3    C8 7201   1.595   3.756  15.791  0.3875  0.3298 -0.3392
  480TMC3    O1 7202   1.369   3.223  15.644  0.0455 -0.6811 -0.0307
  480TMC3    O2 7203   1.684   3.786  15.865  0.0890 -0.0725  0.3744
  481MPD2     C 7204   3.368   3.252  14.126 -0.1361 -0.1073 -0.0032
  481MPD2    C1 7205   3.242   3.247  14.181  0.1803 -0.2938  0.1429
  481MPD2    C2 7206   3.219   3.189  14.303  0.0410  0.2960 -0.2916
  481MPD2    C3 7207   3.321   3.135  14.380 -0.6334  0.8932  0.5744
  481MPD2    C4 7208   3.446   3.149  14.325 -0.1446 -0.3950  0.2420
  481MPD2    C5 7209   3.474   3.209  14.205  0.4877 -0.0152  0.4340
  481MPD2     H 7210   3.119   3.191  14.344  1.3288  1.2623  2.7806
  481MPD2    H1 7211   3.533   3.110  14.378  2.2667  3.0877 -1.1289
  481MPD2    H2 7212   3.397   3.310  14.040  0.0798  1.4449  1.1217
  481MPD2    H3 7213   3.577   3.220  14.174 -0.5672  2.9765 -1.9520
  481MPD2     N 7214   3.309   3.084  14.511  0.0474  0.6308 -0.4765
  481MPD2    H5 7215   3.401   3.058  14.547 -1.5524 -2.2830  1.4508
  481MPD2    N1 7216   3.135   3.298  14.105  0.5478  0.5516 -0.0577
  481MPD2    H7 7217   3.166   3.337  14.017  0.8402  2.3562  0.8541
  482TMC3    C1 7218   2.923   3.370  14.033 -0.6895 -0.1276 -0.0535
  482TMC3    C2 7219   2.798   3.325  14.012 -0.5490 -0.6467  0.8150
  482TMC3    C3 7220   2.712   3.385  13.917  0.5386  0.8806 -0.5024
  482TMC3    C4 7221   2.969   3.490  13.984  0.2407  0.1924 -0.7501
  482TMC3    C5 7222   2.882   3.553  13.899 -0.2684  0.9117  0.4082
  482TMC3    C6 7223   2.770   3.490  13.852  0.1413  0.0248 -0.0704
  482TMC3     C 7224   3.002   3.291  14.131 -0.2615  0.5106  1.0387
  482TMC3     O 7225   2.935   3.244  14.219 -0.1594  0.2324 -0.0001
  482TMC3     H 7226   2.778   3.231  14.062  0.2331 -1.1248  0.2238
  482TMC3    H1 7227   3.068   3.531  14.002  0.5673 -0.6065 -0.7316
  482TMC3    H2 7228   2.708   3.549  13.785  3.3309  2.4868 -0.8445
  482TMC3    C7 7229   2.934   3.654  13.803  0.0439 -0.2211  0.6314
  482TMC3    C8 7230   2.645   3.287  13.834 -0.6120  0.0460 -0.2611
  482TMC3    O1 7231   2.990   3.748  13.853 -0.5419 -0.1652 -0.2179
  482TMC3    O2 7232   2.607   3.187  13.898 -0.8471  0.1221 -1.3996
  483TMC3    C1 7233   0.961   2.581   1.072 -0.3386  0.2720  0.0250
  483TMC3    C2 7234   1.005   2.636   0.959  0.1663  0.2749  1.3027
  483TMC3    C3 7235   1.133   2.615   0.929  0.0557 -0.2781  0.2176
  483TMC3    C4 7236   1.037   2.500   1.153 -0.0395 -0.4089 -0.2800
  483TMC3    C5 7237   1.167   2.490   1.123 -0.0207  1.2586  0.2891
  483TMC3    C6 7238   1.221   2.551   1.012  0.0260  0.4699 -0.1077
  483TMC3     C 7239   0.816   2.558   1.080 -0.0598  0.0690  0.4988
  483TMC3     O 7240   0.775   2.565   1.196  0.1201 -0.1851  0.3425
  483TMC3     H 7241   0.937   2.688   0.892  1.2807 -1.0485 -0.8395
  483TMC3    H1 7242   0.993   2.450   1.238  2.2539  2.4651  2.5619
  483TMC3    H2 7243   1.329   2.547   1.000  0.3676  2.5069  2.2588
  483TMC3    C7 7244   1.245   2.379   1.176  0.3526 -0.1081 -0.1747
  483TMC3    C8 7245   1.170   2.634   0.788 -0.1299  0.4759  0.1452
  483TMC3    O1 7246   1.364   2.392   1.166  0.4846 -0.1256 -0.1552
  483TMC3    O2 7247   1.092   2.702   0.718  0.0854  0.0102 -0.1665
  484MPD2     C 7248   3.639   0.023  12.748  0.0787 -0.1506  0.3660
  484MPD2    C1 7249   3.666   4.677  12.853  0.5832 -0.4813  0.3749
  484MPD2    C2 7250   3.802   4.674  12.896 -0.5528 -0.1775  0.3603
  484MPD2    C3 7251   3.893   0.025  12.842 -0.3275  0.1075  0.5760
  484MPD2    C4 7252   3.853   0.114  12.740 -0.3615 -0.1815  0.0263
  484MPD2    C5 7253   3.730   0.100  12.689 -1.1957 -0.3513 -0.6329
  484MPD2     H 7254   3.831   4.590  12.959 -0.8864  0.3331  1.1988
  484MPD2    H1 7255   3.919   0.183  12.688 -0.9360 -0.5801 -1.2331
  484MPD2    H2 7256   3.536   0.025  12.714  0.5967 -1.1418 -1.2893
  484MPD2    H3 7257   3.710   0.174  12.613 -1.4370 -2.4876 -2.6422
  484MPD2     N 7258   4.030   0.030  12.883  0.4410  0.3114  0.2151
  484MPD2    H5 7259   4.088   0.100  12.839  0.4587  2.5555  3.7426
  484MPD2    N1 7260   3.567   4.599  12.920  0.8504  0.1108  0.1818
  484MPD2    H7 7261   3.592   4.542  12.999  1.6478 -3.3417 -2.5377
  485TMC3    C1 7262   4.244   4.724  12.979  0.1442  0.7076 -0.6640
  485TMC3    C2 7263   4.323   4.652  13.066  0.4566  0.2947 -0.7743
  485TMC3    C3 7264   4.431   4.707  13.128 -1.0775 -0.2899  0.1472
  485TMC3    C4 7265   4.281   0.110  12.942 -0.1343  0.3585  0.0059
  485TMC3    C5 7266   4.401   0.155  12.987 -0.2808  0.6582 -0.1529
  485TMC3    C6 7267   4.474   0.086  13.080 -0.1685 -0.4451  0.0423
  485TMC3     C 7268   4.106   4.686  12.963  0.0790 -0.1644  0.2111
  485TMC3     O 7269   4.074   4.578  13.014  0.1038  0.0117  0.0987
  485TMC3     H 7270   4.270   4.562  13.094  1.1966  0.1333  0.1328
  485TMC3    H1 7271   4.231   0.182  12.878  0.4321  0.2455 -0.5756
  485TMC3    H2 7272   4.559   0.142  13.117  0.0389  1.6404 -3.5231
  485TMC3    C7 7273   4.482   0.205  12.875  0.5196 -0.7239 -0.1381
  485TMC3    C8 7274   4.547   4.626  13.128  0.1627 -0.0512  0.1549
  485TMC3    O1 7275   4.433   0.269  12.787 -0.1993 -0.8875 -0.3628
  485TMC3    O2 7276   4.650   4.679  13.090  0.2391 -0.6885 -0.2813
  486MPD2     C 7277   1.371   3.582  13.263  0.4637  0.5066 -0.1652
  486MPD2    C1 7278   1.328   3.517  13.156 -0.3369  0.0315 -0.1275
  486MPD2    C2 7279   1.237   3.582  13.080  0.8455  1.0907 -0.2839
  486MPD2    C3 7280   1.196   3.711  13.107 -0.3004 -0.0909 -0.3725
  486MPD2    C4 7281   1.241   3.769  13.227  0.3075  0.4596 -0.3051
  486MPD2    C5 7282   1.339   3.707  13.298  0.0093  0.0910  0.2929
  486MPD2     H 7283   1.190   3.524  13.001 -1.2687 -0.6493  2.2422
  486MPD2    H1 7284   1.204   3.864  13.265  1.2157  0.2802  0.9777
  486MPD2    H2 7285   1.446   3.538  13.327  0.9729 -0.3392 -1.3655
  486MPD2    H3 7286   1.388   3.755  13.382  1.6289 -0.2295 -0.4726
  486MPD2     N 7287   1.106   3.786  13.024  0.3522 -0.1908  0.5742
  486MPD2    H5 7288   1.065   3.736  12.945  1.1555  1.4927 -0.8990
  486MPD2    N1 7289   1.380   3.386  13.141 -0.5441  0.4060  0.1335
  486MPD2    H7 7290   1.424   3.352  13.226 -0.5736 -0.6191 -0.2639
  487TMC3    C1 7291   1.409   3.167  13.074 -0.0242  0.6009  0.2743
  487TMC3    C2 7292   1.347   3.061  13.009  0.5089 -0.0542 -0.0274
  487TMC3    C3 7293   1.393   2.935  13.024  0.1178  0.5256 -0.2333
  487TMC3    C4 7294   1.487   3.142  13.185  0.1637  0.4629 -0.9079
  487TMC3    C5 7295   1.516   3.013  13.207  0.3101  0.0262 -0.3758
  487TMC3    C6 7296   1.486   2.915  13.122 -0.5803  0.7999  0.3206
  487TMC3     C 7297   1.354   3.295  13.045  0.3526  0.6469 -0.1445
  487TMC3     O 7298   1.307   3.320  12.934 -0.0563 -0.2214  0.1008
  487TMC3     H 7299   1.272   3.077  12.932  1.3264  1.0488 -0.6130
  487TMC3    H1 7300   1.522   3.219  13.252 -0.2738  1.2818 -1.6179
  487TMC3    H2 7301   1.526   2.815  13.134 -0.4471  0.3621 -3.8011
  487TMC3    C7 7302   1.515   2.971  13.338  0.3665 -0.5103 -0.5357
  487TMC3    C8 7303   1.294   2.832  13.016  0.3351 -0.0595  0.2341
  487TMC3    O1 7304   1.553   3.057  13.418  0.6698  0.1260  0.1102
  487TMC3    O2 7305   1.180   2.881  13.029 -0.5449 -0.3945  0.1151
  488MPD2     C 7306   1.208   0.656  16.415 -0.4091  0.4262  0.0548
  488MPD2    C1 7307   1.292   0.764  16.434 -0.5359 -0.3601 -0.2278
  488MPD2    C2 7308   1.293   0.823  16.554  0.7375  0.4644 -0.7522
  488MPD2    C3 7309   1.225   0.772  16.663 -0.7411 -0.0006 -0.1529
  488MPD2    C4 7310   1.134   0.671  16.644  0.9557  0.1294  0.3474
  488MPD2    C5 7311   1.130   0.614  16.525  0.5352 -0.1077 -0.0979
  488MPD2     H 7312   1.349   0.915  16.569  1.3811  0.3062 -2.2087
  488MPD2    H1 7313   1.085   0.621  16.727 -0.1155 -0.1547 -0.4496
  488MPD2    H2 7314   1.205   0.603  16.320 -1.2067  0.2976  0.1508
  488MPD2    H3 7315   1.064   0.528  16.517  0.8463 -0.3266 -0.3060
  488MPD2     N 7316   1.243   0.844  16.783 -0.6480  0.2159  0.5547
  488MPD2    H5 7317   1.311   0.919  16.777 -2.7873  2.0592 -0.8621
  488MPD2    N1 7318   1.361   0.829  16.330 -0.3970  0.4463  0.2809
  488MPD2    H7 7319   1.425   0.903  16.357 -1.5562  1.9395 -1.0825
  489TMC3    C1 7320   1.223   0.917  17.001  0.5360  0.9765 -0.4773
  489TMC3    C2 7321   1.318   1.006  16.981  0.1414  0.1818  0.3479
  489TMC3    C3 7322   1.334   1.106  17.071  0.0598 -0.1334 -0.0648
  489TMC3    C4 7323   1.144   0.918  17.109  0.1128 -0.1801  0.4566
  489TMC3    C5 7324   1.162   1.022  17.197 -0.5272  0.5398 -0.6952
  489TMC3    C6 7325   1.261   1.116  17.182 -0.1016 -0.7439 -0.2486
  489TMC3     C 7326   1.183   0.821  16.902 -0.6881 -0.1630 -0.4994
  489TMC3     O 7327   1.086   0.749  16.923  0.0174  0.1716  0.1181
  489TMC3     H 7328   1.377   1.012  16.890  0.1850 -1.2034  0.2858
  489TMC3    H1 7329   1.070   0.840  17.123 -0.4037  0.0964 -0.7324
  489TMC3    H2 7330   1.286   1.184  17.262 -0.2201 -0.4457 -0.4628
  489TMC3    C7 7331   1.105   1.020  17.333 -1.1871 -0.6267 -0.2653
  489TMC3    C8 7332   1.407   1.228  17.036 -0.1931 -0.0064 -0.7398
  489TMC3    O1 7333   1.128   1.122  17.394  0.4947  0.0668 -0.2089
  489TMC3    O2 7334   1.486   1.202  16.945  0.3994  0.0134 -0.3505
  490MPD2     C 7335   1.819   0.782  17.431  0.1809 -0.3232 -0.1190
  490MPD2    C1 7336   1.751   0.757  17.545 -0.0146 -0.1302  0.2043
  490MPD2    C2 7337   1.778   0.828  17.661 -0.3642  0.1498  0.1227
  490MPD2    C3 7338   1.883   0.921  17.670  0.9613  0.2217 -0.5146
  490MPD2    C4 7339   1.960   0.942  17.557  0.0304  0.4860  0.0986
  490MPD2    C5 7340   1.927   0.870  17.443 -0.2211  0.0869  0.0436
  490MPD2     H 7341   1.716   0.804  17.747  0.3553 -1.0249  0.3032
  490MPD2    H1 7342   2.043   1.011  17.557 -0.4691  1.0995  1.4814
  490MPD2    H2 7343   1.803   0.723  17.341  0.5052  0.5507 -0.7508
  490MPD2    H3 7344   1.976   0.888  17.348 -3.0694  0.7149 -1.2950
  490MPD2     N 7345   1.942   0.959   0.048 -0.0847  0.7496  0.6727
  490MPD2    H5 7346   2.030   1.008   0.042 -0.2710  0.9949 -0.0974
  490MPD2    N1 7347   1.661   0.649  17.562 -0.7894  0.5886 -0.2531
  490MPD2    H7 7348   1.622   0.642  17.655  2.3039 -0.5555  0.9637
  491TMC3    C1 7349   1.535   0.459  17.523  0.0267  0.2526 -0.2741
  491TMC3    C2 7350   1.554   0.402  17.642  0.3095 -0.8219 -0.3247
  491TMC3    C3 7351   1.482   0.292  17.672  0.0700  0.0436  0.9354
  491TMC3    C4 7352   1.449   0.413  17.421 -0.0582  0.4945  0.6721
  491TMC3    C5 7353   1.376   0.304  17.459  0.0392 -0.1783  0.0420
  491TMC3    C6 7354   1.392   0.240  17.579  0.3348  0.2524  0.4830
  491TMC3     C 7355   1.632   0.555  17.471  0.0606  0.2775  0.3443
  491TMC3     O 7356   1.663   0.555  17.353  0.1752 -0.1186 -0.2527
  491TMC3     H 7357   1.632   0.443  17.705  0.6590  1.2310 -2.1167
  491TMC3    H1 7358   1.435   0.463  17.326 -1.0608 -0.1025  0.5112
  491TMC3    H2 7359   1.332   0.152  17.600 -1.2263  1.0902 -0.5224
  491TMC3    C7 7360   1.305   0.224  17.362 -0.5174 -0.1709 -0.0549
  491TMC3    C8 7361   1.482   0.240   0.058  0.3747  0.0902  0.2694
  491TMC3    O1 7362   1.308   0.102  17.370 -0.0930 -0.2403  0.2151
  491TMC3    O2 7363   1.405   0.144   0.063  0.1229  0.6009  0.1521
  492MPD2     C 7364   2.261   0.009  11.484  0.6694 -0.2818  0.1256
  492MPD2    C1 7365   2.129   4.729  11.444 -0.0733 -0.0391 -0.0258
  492MPD2    C2 7366   2.044   4.647  11.515  0.2269  0.0651  1.2788
  492MPD2    C3 7367   2.079   4.602  11.643 -0.2293 -0.0503 -0.2463
  492MPD2    C4 7368   2.210   4.627  11.679  0.3857  0.0597  0.1554
  492MPD2    C5 7369   2.301   4.686  11.600  0.0824 -0.6663  0.8980
  492MPD2     H 7370   1.945   4.625  11.478  1.8043 -5.1164  0.1352
  492MPD2    H1 7371   2.232   4.594  11.780 -1.6976  2.4554  1.3950
  492MPD2    H2 7372   2.335   0.063  11.426 -0.7143 -1.1963 -2.4809
  492MPD2    H3 7373   2.397   4.707  11.646  0.4723  0.0210 -0.2264
  492MPD2     N 7374   1.997   4.535  11.737 -0.5934  0.1186 -0.3326
  492MPD2    H5 7375   2.046   4.494  11.815 -0.4363  0.0971 -0.4428
  492MPD2    N1 7376   2.095   0.049  11.321 -0.1259 -0.8769  0.1301
  492MPD2    H7 7377   2.172   0.109  11.292 -0.4751 -0.4185  0.1606
  493TMC3    C1 7378   1.974   0.133  11.144  0.7590 -0.1718  0.0272
  493TMC3    C2 7379   2.075   0.224  11.152 -0.0085 -0.5885 -0.0783
  493TMC3    C3 7380   2.142   0.271  11.048 -0.0337  0.0405 -0.2022
  493TMC3    C4 7381   1.952   0.085  11.019  0.4033 -0.1971 -0.3590
  493TMC3    C5 7382   2.019   0.136  10.905 -1.0875 -0.0993 -0.2444
  493TMC3    C6 7383   2.117   0.225  10.921  0.5781  0.0278 -0.2935
  493TMC3     C 7384   1.979   0.040  11.252 -0.0254  0.0118 -0.2183
  493TMC3     O 7385   1.889   4.698  11.262 -0.3261 -0.0785 -0.2203
  493TMC3     H 7386   2.087   0.276  11.246 -0.6271  0.5893 -0.6435
  493TMC3    H1 7387   1.880   0.004  11.016  0.6484 -0.4570  0.7959
  493TMC3    H2 7388   2.192   0.237  10.844  2.0266  2.3680  1.4657
  493TMC3    C7 7389   1.935   0.145  10.786  0.0140 -0.6703 -0.6783
  493TMC3    C8 7390   2.275   0.302  11.086 -0.7024 -0.0133 -0.0105
  493TMC3    O1 7391   1.827   0.089  10.799 -0.2138 -0.2374 -0.2829
  493TMC3    O2 7392   2.308   0.245  11.188  0.1937  0.1797 -0.2707
  494TMC3    C1 7393   2.708   2.519   0.435 -0.3272  0.1126 -0.4992
  494TMC3    C2 7394   2.776   2.402   0.444  0.4462  0.2369  0.2404
  494TMC3    C3 7395   2.793   2.332   0.327 -0.1249 -0.1390  0.4099
  494TMC3    C4 7396   2.694   2.587   0.315  0.0645 -0.0972  0.0266
  494TMC3    C5 7397   2.729   2.521   0.197 -0.1545 -0.4011 -0.2914
  494TMC3    C6 7398   2.773   2.394   0.204  0.3088  0.1437  0.9797
  494TMC3     C 7399   2.633   2.565   0.550 -0.0047 -0.4997  0.2445
  494TMC3     O 7400   2.561   2.661   0.524  0.0498  0.3976 -0.7888
  494TMC3     H 7401   2.761   2.339   0.531  2.5738  0.0707  0.5099
  494TMC3    H1 7402   2.638   2.680   0.310 -0.1179 -0.2506 -0.7601
  494TMC3    H2 7403   2.783   2.334   0.114 -0.2304 -0.5224  1.3685
  494TMC3    C7 7404   2.737   2.581   0.068  0.1595 -0.4438  0.1728
  494TMC3    C8 7405   2.812   2.185   0.337 -0.4335 -1.0082  0.3312
  494TMC3    O1 7406   2.763   2.500  17.725  0.0670  0.5812  0.1140
  494TMC3    O2 7407   2.837   2.137   0.446 -0.3325  0.5313 -0.0064
  495TMC3    C1 7408   1.744   3.892  14.846  0.3736  0.0734  0.0562
  495TMC3    C2 7409   1.643   3.935  14.760 -0.5387  0.3408  0.3275
  495TMC3    C3 7410   1.525   3.981  14.811  0.7923 -0.3362  0.1870
  495TMC3    C4 7411   1.732   3.911  14.983  0.3787 -0.1204  0.3514
  495TMC3    C5 7412   1.616   3.949  15.029  0.2766 -0.0845 -1.1164
  495TMC3    C6 7413   1.510   3.981  14.947 -0.4605 -0.5706 -0.2948
  495TMC3     C 7414   1.869   3.840  14.799  0.1449 -0.2185  0.0335
  495TMC3     O 7415   1.973   3.896  14.845  0.1557  0.7364 -0.2552
  495TMC3     H 7416   1.675   3.947  14.657 -2.2521 -0.0169 -0.2465
  495TMC3    H1 7417   1.805   3.870  15.052  0.1342 -0.5813  0.3350
  495TMC3    H2 7418   1.413   4.008  14.986  0.9849  2.1253  1.4495
  495TMC3    C7 7419   1.600   3.935  15.171 -0.2510 -0.6370  0.3431
  495TMC3    C8 7420   1.400   3.954  14.734 -0.6448 -0.3559 -0.1838
  495TMC3    O1 7421   1.488   3.930  15.215 -0.2055  0.3333  0.8187
  495TMC3    O2 7422   1.292   3.956  14.790  0.2977  0.6168  0.0881
  496MPD2     C 7423   3.307   4.331  15.534  0.4046  0.2072  0.7846
  496MPD2    C1 7424   3.395   4.237  15.586  0.2598  0.3064  0.0888
  496MPD2    C2 7425   3.337   4.113  15.622 -0.6542  0.2109  0.2330
  496MPD2    C3 7426   3.201   4.079  15.611 -0.2552  0.1679  0.9173
  496MPD2    C4 7427   3.128   4.177  15.553  0.1396 -0.5517 -0.0608
  496MPD2    C5 7428   3.176   4.294  15.505 -0.0960  0.0786  0.4197
  496MPD2     H 7429   3.404   4.044  15.670 -0.0444  1.0747  0.6255
  496MPD2    H1 7430   3.021   4.166  15.535  0.3721  0.4034 -2.0364
  496MPD2    H2 7431   3.343   4.431  15.516 -0.5238  0.4983  0.5279
  496MPD2    H3 7432   3.110   4.368  15.461 -1.2160  0.5745  2.9805
  496MPD2     N 7433   3.161   3.953  15.651 -0.3262 -0.1537 -0.7112
  496MPD2    H5 7434   3.230   3.920  15.718 -0.6724 -0.3767 -0.4635
  496MPD2    N1 7435   3.534   4.265  15.593 -0.0145 -0.1403 -0.2900
  496MPD2    H7 7436   3.560   4.359  15.565 -0.9297  0.2952  0.3009
  497TMC3    C1 7437   3.041   3.755  15.688  0.6302 -0.4512  0.3372
  497TMC3    C2 7438   3.008   3.645  15.619 -0.1832  0.0401 -0.1367
  497TMC3    C3 7439   3.030   3.521  15.673 -0.6368  0.2014 -0.3409
  497TMC3    C4 7440   3.093   3.739  15.815 -0.3678 -0.1765  0.0861
  497TMC3    C5 7441   3.101   3.615  15.870 -0.0896 -0.1281 -0.5148
  497TMC3    C6 7442   3.065   3.502  15.805  0.0385 -0.2425 -0.7309
  497TMC3     C 7443   3.047   3.885  15.620  1.0609 -0.5292  0.6140
  497TMC3     O 7444   2.969   3.913  15.532 -0.4952 -0.0055  0.1019
  497TMC3     H 7445   2.963   3.654  15.521  0.4970  0.4763 -0.4029
  497TMC3    H1 7446   3.104   3.829  15.874  0.7411 -1.2483  1.5254
  497TMC3    H2 7447   3.076   3.404  15.850  2.4102 -0.2670 -1.3295
  497TMC3    C7 7448   3.125   3.601  16.010 -0.6494  0.1421  0.3690
  497TMC3    C8 7449   3.076   3.414  15.575 -0.3928 -0.6206  0.8432
  497TMC3    O1 7450   3.073   3.514  16.080 -0.5584 -0.3289 -0.3322
  497TMC3    O2 7451   3.023   3.422  15.468 -0.2672  0.1695 -0.2314
  498MPD2     C 7452   4.361   0.419  10.231 -0.0951  1.2536 -0.3272
  498MPD2    C1 7453   4.488   0.387  10.282 -1.1426  0.2484 -0.0731
  498MPD2    C2 7454   4.503   0.272  10.365  0.0131 -0.1656  0.1488
  498MPD2    C3 7455   4.391   0.197  10.411 -0.4898 -0.4648 -0.0781
  498MPD2    C4 7456   4.266   0.235  10.361  0.3870  0.2710  0.6973
  498MPD2    C5 7457   4.251   0.347  10.280  0.1236 -0.4124  0.7282
  498MPD2     H 7458   4.603   0.245  10.399  0.8673  0.0209 -2.2529
  498MPD2    H1 7459   4.179   0.170  10.368 -0.7163  1.4852 -1.6209
  498MPD2    H2 7460   4.333   0.502  10.167 -1.0881 -0.0292 -1.5616
  498MPD2    H3 7461   4.152   0.366  10.239 -0.2256 -1.6972  0.9888
  498MPD2     N 7462   4.408   0.071  10.471  0.2288  0.0598  0.3652
  498MPD2    H5 7463   4.501   0.037  10.492  0.5721  0.8079  0.0276
  498MPD2    N1 7464   4.597   0.477  10.267  0.3930 -0.5416  0.3697
  498MPD2    H7 7465   4.687   0.446  10.303  0.9840 -1.8346 -2.2321
  499TMC3    C1 7466   4.737   0.641  10.165 -0.8921  0.3760  0.1933
  499TMC3    C2 7467   0.097   0.629  10.254  0.6127 -0.3463 -0.3079
  499TMC3    C3 7468   0.217   0.693  10.234 -0.3950 -0.2115  0.4987
  499TMC3    C4 7469   0.014   0.731  10.059  0.1457 -0.1180 -0.2410
  499TMC3    C5 7470   0.137   0.790  10.035 -0.0043 -0.0264  0.0920
  499TMC3    C6 7471   0.239   0.775  10.124  0.6184 -0.2463  0.3705
  499TMC3     C 7472   4.602   0.593  10.188 -0.3130 -0.4246 -0.4129
  499TMC3     O 7473   4.519   0.651  10.118  0.0273 -0.1114  0.4954
  499TMC3     H 7474   0.092   0.569  10.345 -1.8754 -0.5967 -0.6245
  499TMC3    H1 7475   4.678   0.752   9.983  1.2188 -0.3304 -1.3431
  499TMC3    H2 7476   0.336   0.822  10.115  0.7956 -0.5569  0.6425
  499TMC3    C7 7477   0.151   0.898   9.933  0.2405 -0.7942  0.2409
  499TMC3    C8 7478   0.340   0.645  10.288  0.4628  0.2784 -0.0719
  499TMC3    O1 7479   0.261   0.959   9.931  0.1758  0.5756 -0.5785
  499TMC3    O2 7480   0.437   0.631  10.213  0.1538  0.3678  0.2762
  500MPD2     C 7481   1.386   1.220  10.985  0.6656  0.7202  0.4835
  500MPD2    C1 7482   1.442   1.238  10.863 -0.8676 -0.3960  0.4212
  500MPD2    C2 7483   1.356   1.234  10.755  0.1764  0.8357 -0.3914
  500MPD2    C3 7484   1.216   1.240  10.764  0.3989  0.2502 -0.4069
  500MPD2    C4 7485   1.166   1.225  10.891  0.9082  0.0157 -0.5586
  500MPD2    C5 7486   1.252   1.210  10.996 -0.0485 -0.1245 -0.0887
  500MPD2     H 7487   1.404   1.242  10.659  2.1280  0.3987  0.5439
  500MPD2    H1 7488   1.063   1.202  10.916  0.3086 -0.2130 -3.2402
  500MPD2    H2 7489   1.443   1.216  11.078  0.4688 -0.7288  0.5341
  500MPD2    H3 7490   1.215   1.193  11.097  0.4209 -1.1563 -0.0854
  500MPD2     N 7491   1.123   1.233  10.658 -0.1190  0.3839 -0.0482
  500MPD2    H5 7492   1.023   1.234  10.676 -0.3483  0.0698 -1.3012
  500MPD2    N1 7493   1.579   1.247  10.827 -0.1534 -0.1610  0.2277
  500MPD2    H7 7494   1.614   1.253  10.732  0.8504 -0.6357  0.5648
  501TMC3    C1 7495   1.804   1.252  10.881  0.4947 -0.1269 -0.1996
  501TMC3    C2 7496   1.829   1.320  10.761 -0.1648 -0.1422 -0.7201
  501TMC3    C3 7497   1.960   1.330  10.723  0.0525  0.7333 -0.1155
  501TMC3    C4 7498   1.902   1.199  10.963  0.3769  0.4820  1.3529
  501TMC3    C5 7499   2.032   1.210  10.913 -0.0586  1.7026  0.1994
  501TMC3    C6 7500   2.063   1.276  10.801 -0.4658 -0.3852 -0.6096
  501TMC3     C 7501   1.672   1.230  10.924  0.4731 -0.5195  0.4160
  501TMC3     O 7502   1.660   1.203  11.045  0.7409 -0.0826  0.7168
  501TMC3     H 7503   1.753   1.380  10.714  1.2869  2.1226 -0.1721
  501TMC3    H1 7504   1.879   1.155  11.060 -2.4299  0.4849  0.6919
  501TMC3    H2 7505   2.164   1.277  10.761 -0.7418  2.7521 -1.2476
  501TMC3    C7 7506   2.134   1.152  10.994  1.0723 -0.3942 -0.1738
  501TMC3    C8 7507   1.990   1.418  10.610  0.0294 -0.1426  0.3189
  501TMC3    O1 7508   2.100   1.083  11.091 -0.4354 -0.0299 -0.2398
  501TMC3    O2 7509   2.108   1.460  10.613 -0.0204  0.0644 -0.3441
  502TMC3    C1 7510   0.888   4.283  15.004  0.3336  0.2937 -0.5608
  502TMC3    C2 7511   0.880   4.382  14.907 -0.1166  0.1823  0.2463
  502TMC3    C3 7512   0.773   4.466  14.907  0.2640 -0.4531 -0.1972
  502TMC3    C4 7513   0.782   4.257  15.073 -0.5822 -0.6688 -0.0780
  502TMC3    C5 7514   0.671   4.330  15.067 -0.4070  0.0875 -0.4354
  502TMC3    C6 7515   0.676   4.452  14.998  0.8690  0.1158  0.0368
  502TMC3     C 7516   0.993   4.305  15.094 -0.1911  0.6718  0.3226
  502TMC3     O 7517   1.102   4.329  15.049 -0.4040 -0.3166  0.1113
  502TMC3     H 7518   0.968   4.404  14.846  1.5821  1.1377  3.0422
  502TMC3    H1 7519   0.777   4.163  15.127 -0.7153 -0.6073  0.0154
  502TMC3    H2 7520   0.589   4.517  14.991 -0.0804 -0.8710  2.5523
  502TMC3    C7 7521   0.617   4.347  15.207 -0.2374 -0.2127  1.1795
  502TMC3    C8 7522   0.809   4.599  14.872 -0.1169  0.1791 -0.1022
  502TMC3    O1 7523   0.682   4.296  15.300  0.2119  0.4049 -0.9498
  502TMC3    O2 7524   0.873   4.609  14.771  0.2324 -0.0016 -0.3545
  503MPD2     C 7525   2.567   1.194   0.137 -0.2086  0.6357 -0.2111
  503MPD2    C1 7526   2.671   1.191   0.044  0.1309 -0.2010  1.2676
  503MPD2    C2 7527   2.744   1.071   0.048 -0.0243 -0.5039  0.4007
  503MPD2    C3 7528   2.714   0.964   0.128 -1.5152  0.1828  0.2982
  503MPD2    C4 7529   2.613   0.980   0.222 -0.5222  0.6048  0.2146
  503MPD2    C5 7530   2.535   1.091   0.220 -0.4622 -0.1430 -0.1048
  503MPD2     H 7531   2.832   1.067  17.734 -1.2393 -0.6105 -1.2706
  503MPD2    H1 7532   2.576   0.902   0.286 -0.3869  1.0817  0.8761
  503MPD2    H2 7533   2.501   1.280   0.142  0.2584  0.8460  2.1944
  503MPD2    H3 7534   2.454   1.104   0.290 -0.5522 -1.6540  0.0686
  503MPD2     N 7535   2.778   0.842   0.105 -0.0363  0.0077  0.4207
  503MPD2    H5 7536   2.841   0.826   0.027 -1.2173  0.4407 -0.6109
  503MPD2    N1 7537   2.701   1.291  17.703  0.0550  0.1280  0.4154
  503MPD2    H7 7538   2.792   1.296  17.658  0.1669 -1.3645  0.4927
  504TMC3    C1 7539   2.823   0.607   0.130  0.5752  0.3701 -0.1950
  504TMC3    C2 7540   2.850   0.506   0.221 -0.8320 -0.2928  0.3762
  504TMC3    C3 7541   2.888   0.381   0.166 -1.2032 -0.4765 -0.3153
  504TMC3    C4 7542   2.855   0.592  17.744 -0.8123 -0.1566 -0.4367
  504TMC3    C5 7543   2.902   0.470  17.698 -0.0424 -0.2930 -0.2781
  504TMC3    C6 7544   2.905   0.366   0.032 -0.0800  0.0220  0.0569
  504TMC3     C 7545   2.767   0.731   0.193 -0.3575 -0.3725 -0.0390
  504TMC3     O 7546   2.712   0.713   0.304  0.2951  0.9123  0.1181
  504TMC3     H 7547   2.835   0.513   0.328 -0.2931  0.5829  0.3858
  504TMC3    H1 7548   2.831   0.671  17.674 -2.2415  0.5539  0.8493
  504TMC3    H2 7549   2.932   0.268  17.744  0.3195  0.3224 -0.4339
  504TMC3    C7 7550   2.975   0.450  17.575 -0.2956 -0.1389 -0.5803
  504TMC3    C8 7551   2.966   0.291   0.253  0.0037 -0.1350 -0.2134
  504TMC3    O1 7552   3.011   0.339  17.537 -0.4578  0.4644 -0.1058
  504TMC3    O2 7553   2.960   0.172   0.221 -0.4377 -0.4152 -0.2644
  505MPD2     C 7554   3.512   3.476  10.968 -0.2373  0.4637  0.2264
  505MPD2    C1 7555   3.603   3.563  10.911  0.3217  0.9363  0.3397
  505MPD2    C2 7556   3.661   3.667  10.990 -0.5258 -0.3412  0.1976
  505MPD2    C3 7557   3.620   3.675  11.119 -0.4174 -0.2245  0.2391
  505MPD2    C4 7558   3.524   3.589  11.174 -0.3783 -0.2982 -0.5818
  505MPD2    C5 7559   3.473   3.491  11.095 -0.3253 -0.4929 -0.1960
  505MPD2     H 7560   3.729   3.743  10.954 -0.1686 -0.3565  0.8379
  505MPD2    H1 7561   3.482   3.594  11.274  1.0012  0.7162 -0.0540
  505MPD2    H2 7562   3.473   3.393  10.911 -0.4461 -0.9145  2.3883
  505MPD2    H3 7563   3.403   3.418  11.134  1.3945 -1.5610  0.8983
  505MPD2     N 7564   3.672   3.775  11.204 -0.1849  0.2165 -0.2757
  505MPD2    H5 7565   3.640   3.767  11.300  2.9107 -2.0494  0.5447
  505MPD2    N1 7566   3.627   3.550  10.775  0.4225 -0.2258 -0.3890
  505MPD2    H7 7567   3.556   3.496  10.726  1.4143 -1.0851 -0.8854
  506TMC3    C1 7568   3.852   3.622  10.763 -0.2924 -0.7342  0.6291
  506TMC3    C2 7569   3.944   3.708  10.716  0.1536 -0.7468  0.6167
  506TMC3    C3 7570   4.057   3.717  10.783  0.3108 -0.5205 -0.5022
  506TMC3    C4 7571   3.893   3.527  10.849 -0.9190 -1.1895 -0.0853
  506TMC3    C5 7572   4.008   3.536  10.915 -0.1366 -0.5914 -0.6412
  506TMC3    C6 7573   4.090   3.646  10.883 -0.4050  0.3875 -0.2838
  506TMC3     C 7574   3.716   3.623  10.704 -0.4744 -0.2013 -0.0597
  506TMC3     O 7575   3.713   3.643  10.579 -0.1938  0.6001  0.2698
  506TMC3     H 7576   3.917   3.789  10.648 -0.9966 -3.0947 -1.7228
  506TMC3    H1 7577   3.828   3.443  10.872 -1.0141 -1.7437 -2.4320
  506TMC3    H2 7578   4.183   3.661  10.937 -0.6562  0.4779  0.1166
  506TMC3    C7 7579   4.018   3.475  11.041 -0.2550 -0.2264 -0.1547
  506TMC3    C8 7580   4.153   3.815  10.745 -0.0783  0.7302 -0.2961
  506TMC3    O1 7581   3.974   3.362  11.045  0.3482 -0.1565 -0.0842
  506TMC3    O2 7582   4.191   3.896  10.833 -0.1295  0.4912 -0.1272
  507TMC3    C1 7583   4.161   0.162  14.813  1.1094 -0.3564 -0.5887
  507TMC3    C2 7584   4.154   0.049  14.728 -0.6240 -0.5354 -0.2793
  507TMC3    C3 7585   4.265   0.032  14.655 -0.0380  0.0081  0.5703
  507TMC3    C4 7586   4.270   0.252  14.814 -0.5312 -0.3159 -0.1815
  507TMC3    C5 7587   4.379   0.224  14.741  0.8488  0.2117  0.2154
  507TMC3    C6 7588   4.375   0.111  14.666 -0.1581 -0.2978 -0.3108
  507TMC3     C 7589   4.039   0.212  14.866  0.2545 -0.5016 -0.1791
  507TMC3     O 7590   4.041   0.277  14.969  0.2697 -0.6115 -0.5347
  507TMC3     H 7591   4.073   4.717  14.719 -1.8789  0.8976 -0.0861
  507TMC3    H1 7592   4.254   0.349  14.861  0.7762 -0.1441 -0.0950
  507TMC3    H2 7593   4.464   0.094  14.606 -0.3468 -1.5879 -0.2265
  507TMC3    C7 7594   4.435   0.330  14.669 -0.4644 -0.6282 -0.1101
  507TMC3    C8 7595   4.240   4.723  14.519 -0.6222  0.3259  0.4289
  507TMC3    O1 7596   4.432   0.313  14.549 -0.5607 -0.0575  0.0281
  507TMC3    O2 7597   4.150   4.644  14.496  0.6477  0.1045  0.7406
  508MPD2     C 7598   0.321   2.225  15.842 -0.2603  0.0078 -0.1403
  508MPD2    C1 7599   0.255   2.318  15.917 -0.9699  0.5318  0.3470
  508MPD2    C2 7600   0.217   2.439  15.865 -0.2335  0.1964 -0.2051
  508MPD2    C3 7601   0.268   2.479  15.744  0.3858 -0.3343 -0.7657
  508MPD2    C4 7602   0.339   2.389  15.667  0.9214 -0.0876  0.1574
  508MPD2    C5 7603   0.366   2.265  15.717  0.6498 -0.0185  0.2442
  508MPD2     H 7604   0.165   2.514  15.924  3.5908  2.8245 -0.2217
  508MPD2    H1 7605   0.373   2.408  15.565 -0.6804  1.7700 -0.0335
  508MPD2    H2 7606   0.338   2.122  15.870 -0.3707 -0.0273 -0.2029
  508MPD2    H3 7607   0.439   2.206  15.662  0.1828 -1.9668  1.7041
  508MPD2     N 7608   0.247   2.614  15.707  0.7533 -0.5540 -0.1723
  508MPD2    H5 7609   0.191   2.671  15.770  1.5180 -1.8146  1.6497
  508MPD2    N1 7610   0.237   2.282  16.050  0.6007 -0.1484  0.1620
  508MPD2    H7 7611   0.285   2.196  16.074 -0.1191 -0.2079  1.3972
  509TMC3    C1 7612   0.213   3.033  15.695 -0.1824 -0.2193 -0.0491
  509TMC3    C2 7613   0.332   3.088  15.692  0.3997  0.5351 -0.8773
  509TMC3    C3 7614   0.443   3.007  15.668 -0.1071 -0.1096 -0.6640
  509TMC3    C4 7615   0.199   2.893  15.666  0.2696  0.1595  0.2106
  509TMC3    C5 7616   0.308   2.823  15.631  0.0008 -0.5162  0.7441
  509TMC3    C6 7617   0.432   2.877  15.632  0.4260  0.0920 -0.7617
  509TMC3     C 7618   0.100   3.126  15.684  0.6295  0.1513  0.6235
  509TMC3     O 7619   4.725   3.072  15.708 -0.4076  0.1149  0.8227
  509TMC3     H 7620   0.341   3.194  15.710 -1.0461  0.4252  0.5596
  509TMC3    H1 7621   0.103   2.844  15.662 -0.0893  0.8926 -0.2872
  509TMC3    H2 7622   0.513   2.809  15.610  0.8767  0.7437 -1.1470
  509TMC3    C7 7623   0.310   2.685  15.606  0.2457  0.1513 -0.0999
  509TMC3    C8 7624   0.581   3.062  15.658  0.1771  0.6053 -0.0005
  509TMC3    O1 7625   0.401   2.645  15.533 -0.3680  0.3266  0.4517
  509TMC3    O2 7626   0.674   2.980  15.640 -0.5459  0.1699 -0.3804
  510MPD2     C 7627   2.842   4.403  14.747  0.9161 -0.3426  0.2877
  510MPD2    C1 7628   2.892   4.285  14.807 -0.3108 -0.2020 -0.6411
  510MPD2    C2 7629   3.028   4.261  14.804 -0.0310 -0.1061  0.7558
  510MPD2    C3 7630   3.108   4.328  14.716 -0.0277 -0.4713  0.1287
  510MPD2    C4 7631   3.055   4.430  14.644  0.3071  0.1676 -0.1311
  510MPD2    C5 7632   2.921   4.462  14.658  0.0742 -0.1406  0.0920
  510MPD2     H 7633   3.077   4.199  14.878  0.2159  0.3188  0.9496
  510MPD2    H1 7634   3.112   4.484  14.569 -0.3720  1.1307  0.0364
  510MPD2    H2 7635   2.736   4.421  14.755  1.1073  0.1551  1.6506
  510MPD2    H3 7636   2.883   4.535  14.588  1.3394 -0.3659 -0.8362
  510MPD2     N 7637   3.252   4.286  14.709  0.3452 -0.2825  0.1256
  510MPD2    H5 7638   3.288   4.221  14.778 -1.8613  0.7306  2.2257
  510MPD2    N1 7639   2.803   4.219  14.887  0.2792  0.3769  0.5148
  510MPD2    H7 7640   2.718   4.266  14.918  1.9352  1.6492  3.1400
  511TMC3    C1 7641   2.715   4.042  15.017  0.7805 -0.3096  0.3705
  511TMC3    C2 7642   2.667   4.119  15.120  0.1055  0.1437 -0.4438
  511TMC3    C3 7643   2.586   4.053  15.215 -0.0028 -0.6870 -0.0431
  511TMC3    C4 7644   2.688   3.907  15.011  0.0753 -0.0283  0.0011
  511TMC3    C5 7645   2.603   3.854  15.098 -0.4600 -0.4968  0.5470
  511TMC3    C6 7646   2.559   3.921  15.208 -0.0865  0.5390 -0.5961
  511TMC3     C 7647   2.818   4.091  14.926 -0.1104 -0.2223  0.0526
  511TMC3     O 7648   2.902   4.011  14.897  0.2054  0.2828 -0.1489
  511TMC3     H 7649   2.696   4.222  15.137  0.2896 -0.2234  1.5069
  511TMC3    H1 7650   2.715   3.840  14.930  0.0866  0.3092 -0.2702
  511TMC3    H2 7651   2.472   3.881  15.258  0.3439  1.5596  0.9641
  511TMC3    C7 7652   2.524   3.746  15.039  0.1406 -0.4782  0.3574
  511TMC3    C8 7653   2.546   4.140  15.326 -0.1143  0.1954 -0.1996
  511TMC3    O1 7654   2.499   3.757  14.920 -0.2365 -0.2043  0.3583
  511TMC3    O2 7655   2.551   4.264  15.313 -0.6437  0.1549 -0.0766
  512TMC3    C1 7656   1.720   3.448  13.643  0.0525 -0.4987 -0.0141
  512TMC3    C2 7657   1.801   3.519  13.732  0.0137 -0.4681  0.0470
  512TMC3    C3 7658   1.937   3.513  13.712  0.1051  1.1788  0.9759
  512TMC3    C4 7659   1.775   3.374  13.542 -0.1655  0.6110 -0.2931
  512TMC3    C5 7660   1.913   3.364  13.534  0.1803 -0.2157 -0.0124
  512TMC3    C6 7661   1.992   3.426  13.621  0.0748  0.0092 -0.5892
  512TMC3     C 7662   1.584   3.489  13.614  0.2131 -0.0982  0.5724
  512TMC3     O 7663   1.524   3.438  13.519  0.1762  0.1919  0.5974
  512TMC3     H 7664   1.759   3.581  13.811  2.4373 -1.0994  1.8290
  512TMC3    H1 7665   1.716   3.310  13.477 -2.1616  2.3294 -0.1943
  512TMC3    H2 7666   2.099   3.426  13.605  0.1215 -0.4730 -0.2789
  512TMC3    C7 7667   1.976   3.301  13.422  0.2827  0.2300 -0.2047
  512TMC3    C8 7668   2.021   3.574  13.813 -0.5514  0.3262  0.6515
  512TMC3    O1 7669   2.064   3.374  13.378 -0.4580 -0.0007 -0.3066
  512TMC3    O2 7670   2.122   3.506  13.839  0.2284 -0.1325  0.0002
  513MPD2     C 7671   3.528   3.070  13.575  0.0331  0.1358  0.4540
  513MPD2    C1 7672   3.535   3.179  13.490 -0.4527 -0.5722 -0.8204
  513MPD2    C2 7673   3.551   3.301  13.553 -0.0856  0.1152 -0.2268
  513MPD2    C3 7674   3.560   3.321  13.688 -0.0287  0.4197 -0.4426
  513MPD2    C4 7675   3.547   3.210  13.769  0.2309 -0.8096 -0.3611
  513MPD2    C5 7676   3.531   3.089  13.719 -0.2851 -0.5963 -0.2044
  513MPD2     H 7677   3.545   3.393  13.496  0.7203 -0.8237 -1.8158
  513MPD2    H1 7678   3.558   3.224  13.876  0.4006  0.6067 -0.5632
  513MPD2    H2 7679   3.517   2.971  13.533  0.4117 -0.3813  1.5952
  513MPD2    H3 7680   3.539   3.009  13.791 -0.2345  0.7392  1.2725
  513MPD2     N 7681   3.588   3.452  13.734  0.1141 -1.1908  0.2753
  513MPD2    H5 7682   3.594   3.523  13.661  0.2119 -1.5213 -0.0400
  513MPD2    N1 7683   3.532   3.163  13.350 -0.4910  0.4331 -0.0363
  513MPD2    H7 7684   3.528   3.067  13.317 -2.0897  1.2003 -2.1215
  514TMC3    C1 7685   3.565   3.206  13.123  0.3375  0.0392 -0.3280
  514TMC3    C2 7686   3.470   3.268  13.053 -0.2893 -0.0093 -0.3499
  514TMC3    C3 7687   3.503   3.348  12.945  0.5237 -0.1618  0.5634
  514TMC3    C4 7688   3.697   3.231  13.083 -0.4778  0.4326 -0.5527
  514TMC3    C5 7689   3.724   3.305  12.978  0.7224 -0.4794 -0.1969
  514TMC3    C6 7690   3.629   3.357  12.902  0.1780  0.3181 -0.0304
  514TMC3     C 7691   3.552   3.258  13.258  0.0903  0.8325 -0.1877
  514TMC3     O 7692   3.581   3.377  13.268  0.0368  0.6545 -0.2147
  514TMC3     H 7693   3.370   3.264  13.092 -0.2892  1.2538 -0.2155
  514TMC3    H1 7694   3.777   3.188  13.143 -2.1614  0.6157  1.7853
  514TMC3    H2 7695   3.658   3.437  12.836  1.6350 -1.4003 -1.4842
  514TMC3    C7 7696   3.833   3.399  13.004  0.0810 -0.0172  0.1543
  514TMC3    C8 7697   3.398   3.438  12.897 -0.1626  0.6435 -0.9816
  514TMC3    O1 7698   3.905   3.448  12.920 -0.7226 -0.7706  0.0320
  514TMC3    O2 7699   3.281   3.417  12.938 -0.2799  0.1979  0.0473
  515MPD2     C 7700   2.038   0.708  14.375 -0.3706 -0.1764 -0.3701
  515MPD2    C1 7701   2.004   0.646  14.491 -0.8059 -0.1203  0.5248
  515MPD2    C2 7702   2.047   0.678  14.613  0.8825  0.3400  0.1829
  515MPD2    C3 7703   2.146   0.776  14.622  0.6603 -0.0944  0.1650
  515MPD2    C4 7704   2.183   0.842  14.505  0.0217  0.6129  0.8696
  515MPD2    C5 7705   2.121   0.813  14.388  0.4060  1.1646  0.0099
  515MPD2     H 7706   2.016   0.620  14.699  1.5353 -0.0335  0.1675
  515MPD2    H1 7707   2.256   0.922  14.513  1.2356 -0.6131  1.9260
  515MPD2    H2 7708   2.001   0.684  14.277  0.6594 -1.3365 -0.4798
  515MPD2    H3 7709   2.152   0.862  14.296  0.4068  2.8861  0.9272
  515MPD2     N 7710   2.232   0.793  14.741 -0.3292  0.3248 -0.0261
  515MPD2    H5 7711   2.309   0.859  14.733  0.9489 -0.9304  2.1579
  515MPD2    N1 7712   1.934   0.518  14.489  0.1517  0.0261 -0.4691
  515MPD2    H7 7713   1.899   0.479  14.576  0.3052  1.3603  0.1938
  516TMC3    C1 7714   1.780   0.350  14.404 -0.1864 -1.1725  0.9146
  516TMC3    C2 7715   1.672   0.350  14.316 -0.2974  0.3115 -0.3214
  516TMC3    C3 7716   1.554   0.276  14.354  0.1359 -0.9748 -0.7647
  516TMC3    C4 7717   1.775   0.283  14.526  0.0778  0.6798 -0.0280
  516TMC3    C5 7718   1.659   0.216  14.551  0.3359 -0.3856 -0.2623
  516TMC3    C6 7719   1.549   0.210  14.476 -0.2441  0.9119  0.3463
  516TMC3     C 7720   1.880   0.457  14.376 -0.5803 -0.3231 -0.3629
  516TMC3     O 7721   1.887   0.488  14.253  0.2262 -0.0731  0.1003
  516TMC3     H 7722   1.664   0.433  14.248  1.2124  0.5504 -0.1957
  516TMC3    H1 7723   1.851   0.285  14.603 -0.6084 -1.3194  0.7113
  516TMC3    H2 7724   1.451   0.196  14.521 -0.5845  1.4950 -0.2073
  516TMC3    C7 7725   1.681   0.104  14.638 -0.1352 -0.2342  0.2425
  516TMC3    C8 7726   1.429   0.310  14.292 -0.6800 -0.4985  0.6342
  516TMC3    O1 7727   1.765   0.109  14.727  0.0744 -0.3155 -0.1778
  516TMC3    O2 7728   1.330   0.298  14.357  0.9416  0.0311 -0.2379
  517MPD2     C 7729   1.008   2.449  17.137  0.2871 -0.2514 -0.2699
  517MPD2    C1 7730   1.091   2.400  17.236 -0.5923 -0.2868  0.0346
  517MPD2    C2 7731   1.119   2.478  17.347  1.1164 -0.0659 -0.0706
  517MPD2    C3 7732   1.054   2.596  17.365 -0.5642 -0.4450  0.8472
  517MPD2    C4 7733   0.975   2.644  17.265  0.5528  0.2961 -0.1771
  517MPD2    C5 7734   0.951   2.569  17.152  0.4115  0.6891 -0.2634
  517MPD2     H 7735   1.191   2.442  17.420  0.1625 -0.0301  0.8932
  517MPD2    H1 7736   0.927   2.741  17.261 -1.1885 -0.5025  1.1310
  517MPD2    H2 7737   0.984   2.395  17.046 -1.7993  2.4711 -1.3444
  517MPD2    H3 7738   0.886   2.598  17.069 -0.3652 -0.2816  0.0033
  517MPD2     N 7739   1.089   2.672  17.487 -0.6913 -0.1635 -0.3145
  517MPD2    H5 7740   1.173   2.637  17.531 -0.9406  1.2096  1.2550
  517MPD2    N1 7741   1.165   2.284  17.215 -0.8094 -0.7837 -0.2370
  517MPD2    H7 7742   1.214   2.243  17.294 -0.7893  3.1811  1.7542
  518TMC3    C1 7743   1.289   2.125  17.102 -0.4358 -0.2688 -0.2303
  518TMC3    C2 7744   1.297   2.045  17.214  0.1638  0.5422  0.0745
  518TMC3    C3 7745   1.401   1.961  17.224 -0.0593 -0.2449 -0.0760
  518TMC3    C4 7746   1.359   2.108  16.990  0.2485  0.2556  0.0605
  518TMC3    C5 7747   1.460   2.025  17.000 -0.2043  0.1837  0.4492
  518TMC3    C6 7748   1.481   1.950  17.116  0.8137 -0.1406  0.1485
  518TMC3     C 7749   1.182   2.220  17.097  0.4151 -0.9058  0.4574
  518TMC3     O 7750   1.143   2.254  16.985  0.2243  0.3615 -0.0547
  518TMC3     H 7751   1.209   2.051  17.277  0.6336  0.6625  0.7197
  518TMC3    H1 7752   1.350   2.186  16.915 -1.8132 -1.9056 -1.9412
  518TMC3    H2 7753   1.583   1.913  17.128  1.1958  0.9208  0.2211
  518TMC3    C7 7754   1.554   2.018  16.891 -0.6060 -0.1712 -0.0052
  518TMC3    C8 7755   1.407   1.854  17.320 -0.9502 -0.2916 -0.0645
  518TMC3    O1 7756   1.564   2.113  16.816  0.2507  0.1409 -0.5871
  518TMC3    O2 7757   1.480   1.758  17.298  0.0999  0.1821 -1.0544
  519MPD2     C 7758   3.040   0.845  14.339  0.0891 -0.1294 -0.1845
  519MPD2    C1 7759   3.084   0.835  14.209 -0.4768  0.3213  0.1457
  519MPD2    C2 7760   3.148   0.718  14.173 -0.2802 -0.0104 -0.5033
  519MPD2    C3 7761   3.153   0.606  14.259  0.2067  0.2093 -0.3657
  519MPD2    C4 7762   3.101   0.615  14.389 -0.1009  0.4350  0.0664
  519MPD2    C5 7763   3.049   0.733  14.426 -0.6627  0.7513 -0.3464
  519MPD2     H 7764   3.186   0.703  14.073  0.0596 -0.2658 -0.3392
  519MPD2    H1 7765   3.089   0.526  14.450  1.4532  0.5180  0.4958
  519MPD2    H2 7766   2.979   0.929  14.367  0.3277 -0.7376  2.1445
  519MPD2    H3 7767   2.995   0.742  14.520  0.3508  1.5594  0.1552
  519MPD2     N 7768   3.209   0.492  14.202  0.6175  0.3538 -0.6924
  519MPD2    H5 7769   3.223   0.497  14.101  1.4147  0.9376 -0.5550
  519MPD2    N1 7770   3.048   0.936  14.118  0.4434 -0.3129  0.5961
  519MPD2    H7 7771   2.989   1.008  14.159 -1.0245 -1.5524  0.6324
  520TMC3    C1 7772   3.300   0.288  14.173 -0.0713 -0.3773  0.2139
  520TMC3    C2 7773   3.248   0.293  14.045 -0.4908 -1.2861  0.3414
  520TMC3    C3 7774   3.335   0.241  13.949 -0.0351 -0.3677 -0.0456
  520TMC3    C4 7775   3.426   0.239  14.200 -0.3549 -0.1278 -0.4083
  520TMC3    C5 7776   3.514   0.198  14.101 -0.4846  0.3958 -0.3366
  520TMC3    C6 7777   3.467   0.200  13.971 -0.7211  0.2069 -0.4000
  520TMC3     C 7778   3.265   0.384  14.268 -0.1315  0.4234 -0.4762
  520TMC3     O 7779   3.286   0.368  14.388 -0.5794 -0.2410  0.3950
  520TMC3     H 7780   3.146   0.324  14.024  0.1766  0.7252  0.0583
  520TMC3    H1 7781   3.469   0.250  14.299  1.1351  1.7718 -1.2527
  520TMC3    H2 7782   3.519   0.150  13.891  0.4605 -1.4180  1.3859
  520TMC3    C7 7783   3.606   0.104  14.147  0.9734 -0.7780  0.1560
  520TMC3    C8 7784   3.298   0.238  13.808 -0.6677  0.2714  0.2487
  520TMC3    O1 7785   3.587   0.047  14.253  0.0628 -0.2519 -0.7534
  520TMC3    O2 7786   3.383   0.217  13.726 -0.4089 -0.2045 -0.2533
  521MPD2     C 7787   4.099   3.301  17.509  0.4513 -0.5028  0.1754
  521MPD2    C1 7788   4.060   3.299  17.377 -0.0535 -0.7780  0.8191
  521MPD2    C2 7789   4.140   3.230  17.284 -0.2577 -0.0132  0.2285
  521MPD2    C3 7790   4.262   3.184  17.321  0.4115 -0.9683  0.4266
  521MPD2    C4 7791   4.295   3.178  17.457 -0.0189 -0.2370 -0.7937
  521MPD2    C5 7792   4.217   3.245  17.550  0.0989 -1.1049 -0.0786
  521MPD2     H 7793   4.103   3.224  17.182  1.3729 -3.1044 -0.1590
  521MPD2    H1 7794   4.386   3.134  17.496 -2.0700 -1.1740  3.0411
  521MPD2    H2 7795   4.034   3.358  17.574  0.7087  1.8864 -1.6560
  521MPD2    H3 7796   4.245   3.254  17.654 -0.7596 -0.3477  0.0860
  521MPD2     N 7797   4.337   3.141  17.209  0.0158  0.2674 -0.5357
  521MPD2    H5 7798   4.307   3.167  17.115 -1.9478  0.9530  0.2942
  521MPD2    N1 7799   3.946   3.363  17.348 -0.4331  0.0675 -0.7622
  521MPD2    H7 7800   3.879   3.387  17.420 -3.0180  1.6529 -3.6857
  522TMC3    C1 7801   4.532   3.057  17.101  0.4414 -0.1457  0.1784
  522TMC3    C2 7802   4.611   2.943  17.094  0.5020 -1.1056  1.0090
  522TMC3    C3 7803   4.657   2.929  16.968 -0.4417 -0.3014  0.2225
  522TMC3    C4 7804   4.497   3.138  16.992 -0.7463 -1.0770 -0.1452
  522TMC3    C5 7805   4.566   3.120  16.877  0.0232  0.2964  0.2756
  522TMC3    C6 7806   4.644   3.008  16.858 -0.5942 -0.1650  0.2412
  522TMC3     C 7807   4.461   3.081  17.225 -0.3269 -0.6940 -0.0602
  522TMC3     O 7808   4.511   3.021  17.323 -0.5905  0.2581 -0.1361
  522TMC3     H 7809   4.632   2.877  17.178 -0.0482 -2.4689  0.0713
  522TMC3    H1 7810   4.453   3.234  17.015  1.4818 -0.3824  1.2289
  522TMC3    H2 7811   4.673   2.983  16.757  1.0991  1.1739  0.3961
  522TMC3    C7 7812   4.531   3.200  16.758 -0.1739 -0.5720 -0.1336
  522TMC3    C8 7813   4.724   2.804  16.930 -0.4179  0.3004 -0.1690
  522TMC3    O1 7814   4.620   3.201  16.672  0.3860  0.5947 -0.1233
  522TMC3    O2 7815   0.056   2.813  16.833  0.2682 -0.7097 -0.7215
  523MPD2     C 7816   2.856   3.585  10.365  0.0407 -0.4489  0.6006
  523MPD2    C1 7817   2.742   3.540  10.311  0.3249 -0.0142 -0.4084
  523MPD2    C2 7818   2.663   3.620  10.224  0.4510  0.5130  0.0833
  523MPD2    C3 7819   2.702   3.754  10.203 -0.1255  0.4062  0.4277
  523MPD2    C4 7820   2.821   3.794  10.255  0.5034  0.3546  0.9179
  523MPD2    C5 7821   2.903   3.710  10.327  0.2200  0.4025 -0.3274
  523MPD2     H 7822   2.575   3.576  10.178 -0.0136  0.4086  1.0675
  523MPD2    H1 7823   2.860   3.894  10.238 -0.7280  0.5031 -1.0506
  523MPD2    H2 7824   2.918   3.519  10.425  0.9697 -0.2749 -0.1673
  523MPD2    H3 7825   2.996   3.743  10.371  0.0241  1.2562 -0.5571
  523MPD2     N 7826   2.627   3.847  10.128  0.1753  0.2567 -0.1047
  523MPD2    H5 7827   2.658   3.943  10.131 -1.1194  0.6343  1.7244
  523MPD2    N1 7828   2.708   3.410  10.352 -0.7210 -0.3180 -0.3609
  523MPD2    H7 7829   2.760   3.365  10.426  0.5830 -0.9287 -1.6542
  524TMC3    C1 7830   2.428   3.926  10.011 -0.0503 -0.1233 -0.6514
  524TMC3    C2 7831   2.472   4.057  10.026  0.1345 -0.0405 -0.2104
  524TMC3    C3 7832   2.390   4.150   9.962 -0.8794  0.0502 -0.4387
  524TMC3    C4 7833   2.301   3.900   9.967 -0.4935  0.9079 -0.3093
  524TMC3    C5 7834   2.222   4.002   9.910  0.8527 -0.2609  0.0903
  524TMC3    C6 7835   2.269   4.122   9.911  0.0227  0.5733 -0.2562
  524TMC3     C 7836   2.510   3.817  10.061  0.7050  0.2694 -0.8505
  524TMC3     O 7837   2.489   3.710  10.001 -0.0895 -0.3012  0.4883
  524TMC3     H 7838   2.576   4.076  10.048  0.0748 -1.6780  1.4459
  524TMC3    H1 7839   2.252   3.805   9.979 -0.5235  1.1652  1.5802
  524TMC3    H2 7840   2.222   4.215   9.881  2.8774  1.7446 -1.1009
  524TMC3    C7 7841   2.081   3.992   9.943 -0.7860  0.0700 -0.1118
  524TMC3    C8 7842   2.446   4.280   9.933 -0.0526 -0.0793 -0.5487
  524TMC3    O1 7843   2.040   3.888   9.990  0.2833 -0.2524  0.1846
  524TMC3    O2 7844   2.403   4.341   9.836  0.3346 -0.1913  0.0821
  525MPD2     C 7845   4.501   4.448  14.595 -0.8129  0.0209 -0.6614
  525MPD2    C1 7846   4.591   4.483  14.690 -0.0645  0.4251  0.8676
  525MPD2    C2 7847   4.673   4.589  14.653 -0.5165 -0.0608 -0.4921
  525MPD2    C3 7848   4.662   4.650  14.528  0.1150 -0.7804  0.1285
  525MPD2    C4 7849   4.564   4.607  14.438  0.9898 -0.7407  1.0396
  525MPD2    C5 7850   4.482   4.510  14.474  0.2942 -0.2417 -0.2848
  525MPD2     H 7851   0.007   4.625  14.726  1.6438 -1.3072 -2.0149
  525MPD2    H1 7852   4.549   4.657  14.343 -0.0411  1.2090  2.2416
  525MPD2    H2 7853   4.431   4.368  14.613 -0.2859  0.3690  2.9162
  525MPD2    H3 7854   4.402   4.474  14.411 -0.7667 -0.7673  1.3674
  525MPD2     N 7855   4.732   0.032  14.490  0.2267  0.7001 -0.1511
  525MPD2    H5 7856   4.707   0.079  14.404  3.4438  0.0007 -1.4950
  525MPD2    N1 7857   4.609   4.419  14.814  0.0728  0.0691 -0.6621
  525MPD2    H7 7858   4.685   4.450  14.874 -1.2457 -1.8396  2.0251
  526TMC3    C1 7859   4.554   4.302  15.009 -0.4486 -0.2847 -0.0311
  526TMC3    C2 7860   4.461   4.337  15.106 -0.2545 -0.3989  0.4033
  526TMC3    C3 7861   4.517   4.352  15.227 -0.1711  0.0392  0.4647
  526TMC3    C4 7862   4.690   4.292  15.035  0.0252  0.2318  0.0558
  526TMC3    C5 7863   4.726   4.296  15.168 -1.2175 -0.3110  0.3630
  526TMC3    C6 7864   4.640   4.324  15.266 -0.0260  0.3527 -0.2002
  526TMC3     C 7865   4.516   4.338  14.872 -0.7289 -0.7030  0.1676
  526TMC3     O 7866   4.403   4.319  14.835 -0.0547 -0.6017 -0.1586
  526TMC3     H 7867   4.355   4.342  15.084  0.0121 -1.8255 -1.2155
  526TMC3    H1 7868   0.016   4.265  14.952 -0.3462  1.8749 -0.7572
  526TMC3    H2 7869   4.686   4.339  15.363  2.8778 -2.7721 -1.0647
  526TMC3    C7 7870   0.093   4.210  15.213 -0.0263 -0.0153  0.0707
  526TMC3    C8 7871   4.442   4.390  15.348  0.0471 -0.8568  0.0836
  526TMC3    O1 7872   0.074   4.148  15.317 -0.5037 -0.2079 -0.1483
  526TMC3    O2 7873   4.473   4.336  15.449  0.1974  0.1890  0.4283
  527MPD2     C 7874   1.930   2.851   1.293 -0.1870 -0.8311  0.3140
  527MPD2    C1 7875   1.960   2.943   1.204  0.2130  0.1341  0.3908
  527MPD2    C2 7876   2.091   2.949   1.157 -0.0917 -0.0310 -0.1437
  527MPD2    C3 7877   2.193   2.875   1.220 -0.0907 -0.1825 -0.0693
  527MPD2    C4 7878   2.154   2.766   1.295 -0.2942 -0.5404 -0.0796
  527MPD2    C5 7879   2.021   2.757   1.331  1.1039 -0.6058  0.4317
  527MPD2     H 7880   2.129   3.019   1.085  0.1880 -0.9968 -0.9366
  527MPD2    H1 7881   2.217   2.700   1.354  0.5597 -0.4626 -0.8950
  527MPD2    H2 7882   1.831   2.841   1.336  0.2521  0.3056  1.5845
  527MPD2    H3 7883   1.998   2.675   1.399 -0.8437  0.0332  0.5339
  527MPD2     N 7884   2.330   2.892   1.183 -0.4765 -0.5464  0.7254
  527MPD2    H5 7885   2.338   2.970   1.119  0.5059 -1.2532 -0.0163
  527MPD2    N1 7886   1.861   3.027   1.156  0.4056 -0.0442  0.2472
  527MPD2    H7 7887   1.882   3.076   1.071  0.4494  0.9461  0.8308
  528TMC3    C1 7888   1.657   3.136   1.131  0.2678 -0.3170  0.2260
  528TMC3    C2 7889   1.696   3.187   1.012 -0.0242 -0.0254 -0.1299
  528TMC3    C3 7890   1.607   3.252   0.932 -0.3082 -0.1527  0.2528
  528TMC3    C4 7891   1.534   3.158   1.176  0.2638  0.6056  0.7712
  528TMC3    C5 7892   1.441   3.211   1.090 -0.1005  0.2542  0.2109
  528TMC3    C6 7893   1.475   3.261   0.967 -0.4934 -0.5012  0.0065
  528TMC3     C 7894   1.738   3.046   1.209 -0.7450 -0.2603  0.2796
  528TMC3     O 7895   1.683   2.996   1.304 -0.2291 -0.0706 -0.0392
  528TMC3     H 7896   1.799   3.188   0.979 -0.2094  2.0664 -0.6401
  528TMC3    H1 7897   1.499   3.111   1.267 -1.6117 -0.0525 -0.2885
  528TMC3    H2 7898   1.407   3.317   0.904  2.4969  2.2087 -0.7767
  528TMC3    C7 7899   1.306   3.247   1.138 -0.3004  0.2399  0.9512
  528TMC3    C8 7900   1.668   3.343   0.838  0.2721 -0.1800 -0.3361
  528TMC3    O1 7901   1.211   3.249   1.060  0.0403  0.3438  0.5916
  528TMC3    O2 7902   1.791   3.365   0.853 -1.0887  0.1460  0.0115
  529MPD2     C 7903   3.904   0.988   0.995  0.3546 -0.1848 -0.3061
  529MPD2    C1 7904   4.027   0.958   0.933 -0.7113 -0.1315  0.4967
  529MPD2    C2 7905   4.065   1.034   0.825 -0.2301  0.5392 -0.5322
  529MPD2    C3 7906   3.971   1.125   0.779 -0.1897  0.0101 -0.4763
  529MPD2    C4 7907   3.856   1.149   0.843 -0.4507  0.5204  0.3029
  529MPD2    C5 7908   3.819   1.087   0.952  0.0368  0.4909  0.1445
  529MPD2     H 7909   4.159   1.011   0.776  0.2255 -0.1156  0.6556
  529MPD2    H1 7910   3.799   1.232   0.803 -2.1286 -1.1799 -0.8707
  529MPD2    H2 7911   3.867   0.938   1.084 -0.8548  1.9537  0.3992
  529MPD2    H3 7912   3.729   1.125   0.998  0.0001 -1.2629  1.5283
  529MPD2     N 7913   3.989   1.196   0.661  0.5732 -0.0706 -0.0812
  529MPD2    H5 7914   3.925   1.260   0.617 -0.6234 -0.5759  0.9452
  529MPD2    N1 7915   4.115   0.857   0.982 -0.1742  0.5470 -0.4182
  529MPD2    H7 7916   4.211   0.846   0.949 -0.1438  0.6712 -0.3735
  530TMC3    C1 7917   4.215   0.709   1.142 -0.1137  0.2584 -0.4840
  530TMC3    C2 7918   4.331   0.775   1.131  0.2762  0.3506  0.1186
  530TMC3    C3 7919   4.442   0.728   1.192  0.0416 -0.0605 -0.1151
  530TMC3    C4 7920   4.201   0.614   1.233  0.0217  0.1433  0.4488
  530TMC3    C5 7921   4.315   0.556   1.283 -1.1911 -0.3383  0.0834
  530TMC3    C6 7922   4.443   0.608   1.262  0.0888  0.3535  0.8445
  530TMC3     C 7923   4.090   0.770   1.086 -0.0602  0.1030 -0.7956
  530TMC3     O 7924   3.985   0.742   1.138  0.4395 -0.0205 -0.8594
  530TMC3     H 7925   4.320   0.869   1.078  1.1441  0.2782 -0.1893
  530TMC3    H1 7926   4.107   0.561   1.238  0.7725 -1.2128  0.2537
  530TMC3    H2 7927   4.527   0.564   1.315  0.4174  1.9825  1.6880
  530TMC3    C7 7928   4.318   0.419   1.325  0.7114 -1.1205 -0.2107
  530TMC3    C8 7929   4.555   0.826   1.210  0.4332  0.0774 -0.5308
  530TMC3    O1 7930   4.410   0.348   1.286  0.2537 -0.6956  0.1258
  530TMC3    O2 7931   4.526   0.946   1.213  0.2741 -0.3715 -0.2933
  531MPD2     C 7932   3.994   3.784  13.307 -0.2002  0.2574 -0.1201
  531MPD2    C1 7933   3.883   3.720  13.362  0.2526 -0.3250  0.0810
  531MPD2    C2 7934   3.833   3.602  13.305  0.4113 -0.2032  0.6840
  531MPD2    C3 7935   3.892   3.553  13.197 -0.1985  0.0876  0.2155
  531MPD2    C4 7936   4.012   3.609  13.149  0.6988 -0.0766 -0.4245
  531MPD2    C5 7937   4.066   3.723  13.205 -0.6896  0.0522 -0.0870
  531MPD2     H 7938   3.755   3.543  13.350 -1.0401  0.9362 -0.3093
  531MPD2    H1 7939   4.061   3.553  13.070  1.0654 -1.1510  0.5611
  531MPD2    H2 7940   4.018   3.877  13.357 -1.1326  0.2008  0.4314
  531MPD2    H3 7941   4.160   3.758  13.165 -0.7310  0.5055  0.2166
  531MPD2     N 7942   3.831   3.433  13.139 -0.3611 -0.3051  0.6704
  531MPD2    H5 7943   3.759   3.383  13.190  0.2742 -3.2688 -1.3432
  531MPD2    N1 7944   3.830   3.781  13.479 -0.2577  0.5902  0.4517
  531MPD2    H7 7945   3.875   3.864  13.516 -1.2216  0.4820  1.8694
  532TMC3    C1 7946   3.709   3.769  13.683 -0.2683  0.0852  0.1844
  532TMC3    C2 7947   3.619   3.687  13.751  0.0420  0.0262  0.3984
  532TMC3    C3 7948   3.663   3.629  13.865  0.5852 -0.3656  0.4795
  532TMC3    C4 7949   3.827   3.799  13.738  0.4477 -0.1432 -0.0979
  532TMC3    C5 7950   3.871   3.733  13.854  1.0377 -0.4467 -0.7126
  532TMC3    C6 7951   3.785   3.652  13.914 -0.4065  0.0950 -0.0476
  532TMC3     C 7952   3.712   3.737  13.543  1.0437 -0.4110 -0.6865
  532TMC3     O 7953   3.622   3.660  13.505 -0.1226 -0.1286  0.1827
  532TMC3     H 7954   3.526   3.658  13.703  0.3371 -0.4014  0.0844
  532TMC3    H1 7955   3.906   3.852  13.686  0.4145  1.0279  1.0598
  532TMC3    H2 7956   3.811   3.613  14.012  1.5230 -0.5329 -0.8142
  532TMC3    C7 7957   4.013   3.723  13.873 -0.0825  0.2017 -0.1611
  532TMC3    C8 7958   3.626   3.492  13.866  0.6677  0.0667 -0.3119
  532TMC3    O1 7959   4.055   3.726  13.985  0.3743 -0.1570 -0.1286
  532TMC3    O2 7960   3.639   3.424  13.967  0.1329 -0.1677  0.0608
  533TMC3    C1 7961   0.146   0.205  14.510 -0.4225 -0.8216  0.4122
  533TMC3    C2 7962   0.278   0.232  14.512 -0.4059  0.0822 -0.0951
  533TMC3    C3 7963   0.318   0.356  14.544  0.6368 -0.2224 -0.0618
  533TMC3    C4 7964   0.065   0.297  14.565  0.3889 -0.2544 -0.3716
  533TMC3    C5 7965   0.110   0.407  14.634 -0.4447  0.0777  0.0462
  533TMC3    C6 7966   0.242   0.437  14.627  0.4119  0.8256 -0.0550
  533TMC3     C 7967   0.112   0.073  14.554  0.3700  0.1875  0.4674
  533TMC3     O 7968   0.178   0.017  14.643 -0.2798  0.3634  0.3434
  533TMC3     H 7969   0.350   0.161  14.470 -0.6194 -0.5183  0.5638
  533TMC3    H1 7970   4.699   0.265  14.577  0.9150 -1.8678 -0.1468
  533TMC3    H2 7971   0.280   0.524  14.679  3.2100 -0.5074  0.1191
  533TMC3    C7 7972   0.069   0.408  14.770 -0.1165 -0.4623  0.8361
  533TMC3    C8 7973   0.449   0.392  14.508 -0.8950 -0.1026  0.0533
  533TMC3    O1 7974   0.004   0.306  14.801 -0.3914 -0.2820  0.5851
  533TMC3    O2 7975   0.531   0.300  14.507 -0.6170  0.7006 -0.3851
  534MPD2     C 7976   0.733   2.368   1.560 -0.4106  0.6479  0.0207
  534MPD2    C1 7977   0.861   2.395   1.515 -1.0550 -0.0627 -0.3052
  534MPD2    C2 7978   0.942   2.286   1.497 -0.3702  0.5612  0.3519
  534MPD2    C3 7979   0.908   2.159   1.545 -0.1578  0.5302 -0.4812
  534MPD2    C4 7980   0.789   2.144   1.605  0.5582  0.5302 -0.5592
  534MPD2    C5 7981   0.699   2.248   1.605 -0.7304  0.2967 -0.1424
  534MPD2     H 7982   1.040   2.292   1.451 -0.9554 -0.2374 -0.9983
  534MPD2    H1 7983   0.757   2.046   1.638  0.8627  1.3307  2.1214
  534MPD2    H2 7984   0.655   2.443   1.565 -1.2112 -0.0697 -1.6838
  534MPD2    H3 7985   0.600   2.235   1.647 -0.8941 -0.1328 -0.6624
  534MPD2     N 7986   0.992   2.046   1.544  0.1697  0.1681  0.7430
  534MPD2    H5 7987   0.954   1.956   1.571 -0.3358  0.0397 -0.4055
  534MPD2    N1 7988   0.910   2.520   1.490 -0.4678 -0.3023 -0.1713
  534MPD2    H7 7989   1.009   2.524   1.468 -1.0052  0.4345 -2.3713
  535TMC3    C1 7990   1.174   1.917   1.485 -0.8132 -0.2153  0.1136
  535TMC3    C2 7991   1.087   1.807   1.471  0.6487  0.1683  0.5397
  535TMC3    C3 7992   1.141   1.682   1.461 -0.4879 -0.6644 -0.3416
  535TMC3    C4 7993   1.312   1.901   1.481 -0.1267 -0.1299  0.2663
  535TMC3    C5 7994   1.359   1.775   1.453 -0.2952  1.1895 -0.4627
  535TMC3    C6 7995   1.275   1.664   1.437 -0.1990  0.1654 -1.0440
  535TMC3     C 7996   1.120   2.049   1.506 -0.0219 -0.0097 -0.4649
  535TMC3     O 7997   1.196   2.145   1.508  0.4078  0.5906  0.2842
  535TMC3     H 7998   0.979   1.816   1.463  0.7560 -0.7648 -2.1933
  535TMC3    H1 7999   1.377   1.988   1.485 -0.6442  0.2283  0.8001
  535TMC3    H2 8000   1.314   1.565   1.418 -0.4294 -0.2155  0.4710
  535TMC3    C7 8001   1.502   1.750   1.430  0.1860  0.2532  1.1966
  535TMC3    C8 8002   1.051   1.568   1.434  0.6037 -0.3122  0.8140
  535TMC3    O1 8003   1.532   1.663   1.352  0.3278  0.0886 -0.3845
  535TMC3    O2 8004   1.092   1.485   1.359  0.4443  0.1585 -0.1698
  536MPD2     C 8005   1.308   4.678  16.396 -0.8131 -0.0471 -0.5150
  536MPD2    C1 8006   1.235   4.567  16.428  0.1855  0.5013  0.3607
  536MPD2    C2 8007   1.148   4.525  16.331 -0.3621  0.3209  0.4162
  536MPD2    C3 8008   1.135   4.593  16.205 -0.3878  0.2902  0.3388
  536MPD2    C4 8009   1.223   4.693  16.179  0.1863 -0.5210  0.6303
  536MPD2    C5 8010   1.300   0.005  16.274  0.4204 -0.3639 -0.1954
  536MPD2     H 8011   1.082   4.443  16.358 -0.6360 -0.0420 -1.3967
  536MPD2    H1 8012   1.202   4.737  16.082 -0.7903 -2.6721 -0.1576
  536MPD2    H2 8013   1.369   4.726  16.472 -2.3548 -1.2574  1.4739
  536MPD2    H3 8014   1.359   0.095  16.254  2.0748 -1.0763  1.4460
  536MPD2     N 8015   1.029   4.567  16.109 -0.5008 -0.0093 -0.3045
  536MPD2    H5 8016   1.029   4.621  16.023  0.5681  0.7200  0.1508
  536MPD2    N1 8017   1.249   4.509  16.555 -0.3452  0.0652 -0.4280
  536MPD2    H7 8018   1.301   4.558  16.627  0.9304  1.1686 -2.1051
  537TMC3    C1 8019   1.151   4.389  16.735 -0.0635 -0.1070 -0.8586
  537TMC3    C2 8020   1.146   4.502  16.810 -0.4534  0.2238 -0.0293
  537TMC3    C3 8021   1.078   4.493  16.930 -0.3611 -0.5806 -0.3114
  537TMC3    C4 8022   1.090   4.275  16.772 -0.0946 -0.4298  0.2432
  537TMC3    C5 8023   1.047   4.256  16.903  0.4633  0.3025 -0.2131
  537TMC3    C6 8024   1.039   4.366  16.986  0.9422  0.1927 -0.2440
  537TMC3     C 8025   1.185   4.396  16.594 -0.0914  0.1538  0.2995
  537TMC3     O 8026   1.155   4.301  16.529  0.1157  1.1560 -0.1699
  537TMC3     H 8027   1.198   4.594  16.788 -1.9364  0.9879 -0.3412
  537TMC3    H1 8028   1.079   4.185  16.714 -2.0342  0.4375 -0.6966
  537TMC3    H2 8029   0.994   4.361  17.084 -3.0142 -0.1940 -2.0738
  537TMC3    C7 8030   0.944   4.159  16.919 -0.1976  0.5411 -0.2926
  537TMC3    C8 8031   1.098   4.605  17.025 -0.0125 -0.0142 -0.9294
  537TMC3    O1 8032   0.891   4.113  16.822  0.3992 -0.1100 -0.6017
  537TMC3    O2 8033   1.158   4.577  17.126  0.3346  0.4615 -0.1371
  538TMC3    C1 8034   2.684   2.731  11.380  0.1212  0.1515 -0.5663
  538TMC3    C2 8035   2.747   2.636  11.310 -0.2834 -0.2214 -0.5417
  538TMC3    C3 8036   2.785   2.653  11.179  0.6921  0.3793 -0.5882
  538TMC3    C4 8037   2.653   2.850  11.318  0.5521 -0.1338 -0.3305
  538TMC3    C5 8038   2.681   2.862  11.180 -0.2135  0.3643  0.4029
  538TMC3    C6 8039   2.748   2.768  11.113 -0.8223  0.1322 -0.2848
  538TMC3     C 8040   2.632   2.707  11.513  0.5152 -0.3462 -0.5381
  538TMC3     O 8041   2.544   2.783  11.550  0.7176  0.4371 -0.2390
  538TMC3     H 8042   2.766   2.541  11.359  1.7830  0.9625  0.9396
  538TMC3    H1 8043   2.589   2.922  11.367 -1.2088 -0.9195 -1.4678
  538TMC3    H2 8044   2.736   2.758  11.006  2.1103 -2.5942 -0.3581
  538TMC3    C7 8045   2.586   2.944  11.103 -0.2033  0.9130  0.1884
  538TMC3    C8 8046   2.881   2.558  11.120 -0.5322  0.6228  0.0082
  538TMC3    O1 8047   2.476   2.981  11.144 -0.0318 -0.4915  0.1556
  538TMC3    O2 8048   2.887   2.447  11.172 -0.7461  0.1667  0.7858
  539MPD2     C 8049   2.558   2.133  11.638 -0.5774  0.4024  0.0789
  539MPD2    C1 8050   2.537   2.101  11.498  0.0086 -0.3572 -0.6867
  539MPD2    C2 8051   2.487   2.205  11.417 -0.5910 -0.6371  0.5033
  539MPD2    C3 8052   2.452   2.325  11.468  0.1384 -0.2557 -0.3387
  539MPD2    C4 8053   2.469   2.351  11.604 -0.1928 -0.1327  0.7540
  539MPD2    C5 8054   2.520   2.261  11.687  0.3302  0.4576  1.2627
  539MPD2     H 8055   2.465   2.185  11.313  2.1082 -1.6386  0.1159
  539MPD2    H1 8056   2.436   2.442  11.654 -0.3197  1.9824 -3.1539
  539MPD2    H2 8057   2.609   2.064  11.704 -1.4175  1.5268  1.9437
  539MPD2    H3 8058   2.532   2.293  11.790  2.0807  0.4641  1.0652
  539MPD2     N 8059   2.408   2.439  11.394  0.2146  0.0030  0.2955
  539MPD2    H5 8060   2.365   2.508  11.453  0.7037 -0.0847  0.7479
  539MPD2    N1 8061   2.584   1.979  11.441  0.2693  0.1316 -0.3144
  539MPD2    H7 8062   2.595   1.973  11.341  0.6639 -0.6223 -0.2311
  540TMC3    C1 8063   2.366   2.599  11.221  0.0594  0.0800 -0.4524
  540TMC3    C2 8064   2.349   2.630  11.093  0.0624 -0.4034 -0.1730
  540TMC3    C3 8065   2.273   2.746  11.071  0.6740  0.0889  0.6271
  540TMC3    C4 8066   2.324   2.684  11.324 -0.0918 -0.6910 -0.0184
  540TMC3    C5 8067   2.251   2.792  11.299  0.1747  0.2611 -0.5127
  540TMC3    C6 8068   2.223   2.825  11.166  0.5116 -0.3415 -0.3343
  540TMC3     C 8069   2.411   2.464  11.255  0.1922  0.8241 -0.1607
  540TMC3     O 8070   2.458   2.388  11.174  0.3578  0.6437  0.2115
  540TMC3     H 8071   2.380   2.553  11.024  3.3214  0.9032 -0.1630
  540TMC3    H1 8072   2.358   2.677  11.427 -2.5905  0.6825  0.9022
  540TMC3    H2 8073   2.154   2.903  11.136 -0.5471 -1.4197 -0.7079
  540TMC3    C7 8074   2.213   2.883  11.408  0.7452  0.4924 -0.1773
  540TMC3    C8 8075   2.244   2.784  10.936 -0.5267 -0.0366  0.3935
  540TMC3    O1 8076   2.222   2.838  11.523  0.8515  0.3237 -0.3223
  540TMC3    O2 8077   2.162   2.873  10.917 -0.3486  0.1487 -0.1083
  541MPD2     C 8078   0.779   3.164  13.580 -0.0696 -0.5467 -0.0113
  541MPD2    C1 8079   0.747   3.100  13.456 -0.3193  0.1723  0.3843
  541MPD2    C2 8080   0.798   3.161  13.339 -0.3075  0.3722  0.3526
  541MPD2    C3 8081   0.874   3.281  13.355  0.1593 -0.5596 -0.0657
  541MPD2    C4 8082   0.918   3.330  13.476 -0.4596  0.6028 -0.1761
  541MPD2    C5 8083   0.860   3.276  13.588 -0.5747 -0.9097 -0.0769
  541MPD2     H 8084   0.774   3.119  13.242  0.4426 -2.0383  1.1966
  541MPD2    H1 8085   0.978   3.420  13.475  0.6180 -0.1052  1.2131
  541MPD2    H2 8086   0.736   3.126  13.672  0.6638 -2.5224 -0.4688
  541MPD2    H3 8087   0.873   3.320  13.686 -2.1903  2.7879 -1.5387
  541MPD2     N 8088   0.919   3.355  13.241  0.0798 -0.3766 -0.5220
  541MPD2    H5 8089   0.951   3.450  13.260 -1.2741 -0.2874  1.3741
  541MPD2    N1 8090   0.683   2.976  13.453  0.4753  0.6716 -0.3526
  541MPD2    H7 8091   0.643   2.948  13.542 -2.4277  1.6964 -1.3376
  542TMC3    C1 8092   0.914   3.410  13.014  0.1599  0.3090  0.4563
  542TMC3    C2 8093   0.967   3.381  12.894 -0.6377  0.1085 -0.3613
  542TMC3    C3 8094   0.929   3.457  12.788 -0.6117  0.1433  0.8241
  542TMC3    C4 8095   0.828   3.514  13.042  0.4391  0.0001 -0.3576
  542TMC3    C5 8096   0.791   3.589  12.932  0.7528  0.5676  0.6237
  542TMC3    C6 8097   0.843   3.561  12.810  0.7427 -0.1867 -0.6568
  542TMC3     C 8098   0.916   3.307  13.109  0.1802 -0.1327  0.0084
  542TMC3     O 8099   0.913   3.194  13.065  0.4901  0.3412  0.5315
  542TMC3     H 8100   1.021   3.287  12.882 -1.8337 -0.6908  0.5253
  542TMC3    H1 8101   0.772   3.520  13.134  1.1971  0.6080  0.0614
  542TMC3    H2 8102   0.813   3.609  12.717 -1.6719 -2.7383 -1.1991
  542TMC3    C7 8103   0.656   3.656  12.913  0.1556  0.5680 -0.6647
  542TMC3    C8 8104   0.978   3.432  12.659  0.1980  0.5617 -0.4876
  542TMC3    O1 8105   0.611   3.686  12.798 -0.0167  0.1537  0.7403
  542TMC3    O2 8106   0.910   3.455  12.561 -0.1629 -0.2432  0.1777
  543TMC3    C1 8107   4.152   0.573  17.142  0.7957  0.4295  0.0500
  543TMC3    C2 8108   4.190   0.505  17.258 -0.3691  0.0806 -0.5020
  543TMC3    C3 8109   4.161   0.565  17.378  0.1723  0.1114  0.8388
  543TMC3    C4 8110   4.081   0.691  17.143  0.0823  1.0440 -0.4443
  543TMC3    C5 8111   4.037   0.740  17.263 -0.5571  0.3534  0.6921
  543TMC3    C6 8112   4.075   0.675  17.383 -0.3655 -0.6086 -0.1401
  543TMC3     C 8113   4.243   0.540  17.029 -0.5181  0.1267  0.0809
  543TMC3     O 8114   4.347   0.484  17.060  0.0759 -0.0797  0.2746
  543TMC3     H 8115   4.250   0.416  17.246 -1.1313 -0.1650 -2.4910
  543TMC3    H1 8116   4.072   0.747  17.051 -0.1628  0.6821 -0.6423
  543TMC3    H2 8117   4.040   0.715  17.478  2.0963  2.2506 -0.3957
  543TMC3    C7 8118   3.907   0.807  17.276  0.1133  0.1516  0.1408
  543TMC3    C8 8119   4.183   0.484  17.491  0.2780 -0.5238 -0.4498
  543TMC3    O1 8120   3.853   0.831  17.383  0.2406  0.1351 -0.4622
  543TMC3    O2 8121   4.235   0.378  17.467  0.6240  0.3510 -0.5570
  544MPD2     C 8122   4.144   0.359   0.241 -0.7646 -0.0240 -0.4524
  544MPD2    C1 8123   4.173   0.283   0.131  0.1873 -0.0288  0.7976
  544MPD2    C2 8124   4.180   0.340   0.006 -0.2441  0.1469 -0.1220
  544MPD2    C3 8125   4.151   0.475  17.741  0.3755 -0.2906 -0.1697
  544MPD2    C4 8126   4.113   0.550   0.098 -2.4313  0.1627  0.4809
  544MPD2    C5 8127   4.114   0.491   0.222 -0.2735  0.1629 -0.3885
  544MPD2     H 8128   4.222   0.290  17.669  0.7741 -3.4289  2.4548
  544MPD2    H1 8129   4.096   0.656   0.090 -0.8327  0.3875  0.0540
  544MPD2    H2 8130   4.154   0.326   0.344 -0.5622 -2.6361 -1.3322
  544MPD2    H3 8131   4.093   0.560   0.303  0.2858  0.4510 -0.4904
  544MPD2     N 8132   4.144   0.536  17.617  0.4787 -0.4828  0.1392
  544MPD2    H5 8133   4.108   0.631  17.613  0.2308 -0.6244 -1.2760
  544MPD2    N1 8134   4.214   0.148   0.152 -0.2329  0.4669 -0.1256
  544MPD2    H7 8135   4.202   0.111   0.246  2.2095  2.5860  1.0382
  545TMC3    C1 8136   4.271   4.653   0.095  0.3015 -0.1690  0.0201
  545TMC3    C2 8137   4.339   4.577   0.008 -0.2475  1.0268 -0.0317
  545TMC3    C3 8138   4.382   4.451   0.038 -0.0121  0.0086  0.4432
  545TMC3    C4 8139   4.233   4.608   0.215 -0.2941  0.0424 -0.5821
  545TMC3    C5 8140   4.272   4.476   0.242 -0.9420  0.3064  0.8350
  545TMC3    C6 8141   4.347   4.399   0.158  1.2316 -0.4244  0.2800
  545TMC3     C 8142   4.248   0.056   0.055 -0.5777  0.4469 -0.1702
  545TMC3     O 8143   4.253   0.080  17.685  0.4988 -0.5749 -0.0932
  545TMC3     H 8144   4.373   4.625  17.666 -0.0328 -0.4129 -0.6999
  545TMC3    H1 8145   4.180   4.661   0.293 -0.3352 -0.0999 -0.5142
  545TMC3    H2 8146   4.378   4.297   0.176 -1.4572 -1.1475  0.6862
  545TMC3    C7 8147   4.278   4.441   0.384  0.0660  0.4073  0.3280
  545TMC3    C8 8148   4.459   4.366  17.697  0.0330 -1.0090  0.2349
  545TMC3    O1 8149   4.269   4.533   0.468 -0.0529 -0.5787  0.1118
  545TMC3    O2 8150   4.514   4.273  17.749 -0.2961 -0.0529  0.2220
  546MPD2     C 8151   1.142   0.405   0.093  0.6842  0.2263 -0.5307
  546MPD2    C1 8152   1.133   0.442  17.711 -0.3137  0.8387 -0.6486
  546MPD2    C2 8153   1.174   0.567  17.667  0.5793  0.2148  0.0661
  546MPD2    C3 8154   1.244   0.641   0.004  0.2945  0.4368  0.4087
  546MPD2    C4 8155   1.265   0.598   0.137  0.0961 -0.1019 -0.0857
  546MPD2    C5 8156   1.214   0.480   0.179 -0.5274 -0.0305 -0.5539
  546MPD2     H 8157   1.163   0.596  17.563  0.7514 -1.8886 -0.5341
  546MPD2    H1 8158   1.330   0.656   0.201 -2.3129 -0.2187  2.4470
  546MPD2    H2 8159   1.102   0.311   0.129 -0.2117  1.6485  2.1461
  546MPD2    H3 8160   1.222   0.455   0.285  0.1997 -0.1296 -0.6361
  546MPD2     N 8161   1.310   0.756  17.714  0.4679  0.2544 -0.7552
  546MPD2    H5 8162   1.355   0.818   0.030  0.2779 -0.6064  0.1905
  546MPD2    N1 8163   1.052   0.361  17.640 -0.0324 -0.2104 -0.2042
  546MPD2    H7 8164   1.038   0.271  17.686  2.9826 -0.0216  1.0449
  547TMC3    C1 8165   0.916   0.258  17.474 -0.4466  0.2183 -0.3236
  547TMC3    C2 8166   0.855   0.273  17.352 -0.6439 -0.1321  0.1678
  547TMC3    C3 8167   0.807   0.157  17.288  0.3013 -0.4069 -0.2014
  547TMC3    C4 8168   0.912   0.138  17.554  0.3125  0.1322 -0.2797
  547TMC3    C5 8169   0.860   0.028  17.482  0.2303  0.4928  0.5299
  547TMC3    C6 8170   0.814   0.038  17.353  0.7591  0.2363 -0.5908
  547TMC3     C 8171   1.001   0.372  17.515  0.4417  0.0815 -0.4260
  547TMC3     O 8172   1.025   0.465  17.439  0.5741 -0.1201  1.0176
  547TMC3     H 8173   0.858   0.369  17.302 -1.6595  1.3878  3.0515
  547TMC3    H1 8174   0.958   0.117  17.650  2.4844  1.5238 -1.0295
  547TMC3    H2 8175   0.797   4.682  17.302  0.8635 -0.1892  0.1685
  547TMC3    C7 8176   0.829   4.645  17.561 -0.6962  0.1644  0.3501
  547TMC3    C8 8177   0.695   0.172  17.198  0.3854 -0.2481  0.0361
  547TMC3    O1 8178   0.830   4.656  17.683 -0.7311  0.4918  0.2147
  547TMC3    O2 8179   0.692   0.276  17.141 -0.1022 -0.0081 -0.0523
  548MPD2     C 8180   1.444   0.505  13.112 -0.4288 -0.2343 -0.2117
  548MPD2    C1 8181   1.363   0.393  13.105  0.1610 -0.2323  0.3733
  548MPD2    C2 8182   1.419   0.279  13.053 -0.4266 -0.2303  0.1749
  548MPD2    C3 8183   1.550   0.268  13.021  0.5882 -0.2279  0.3952
  548MPD2    C4 8184   1.634   0.378  13.045  0.1967  0.1069 -0.4289
  548MPD2    C5 8185   1.582   0.499  13.088 -0.1416  0.3128 -0.0301
  548MPD2     H 8186   1.362   0.188  13.035 -2.4453  1.2999 -1.0917
  548MPD2    H1 8187   1.741   0.386  13.027 -0.0183 -0.8956 -2.0540
  548MPD2    H2 8188   1.404   0.599  13.147 -0.3723 -0.6823  1.0815
  548MPD2    H3 8189   1.645   0.587  13.097  2.8342 -1.8551  0.2756
  548MPD2     N 8190   1.600   0.151  12.964 -0.2903  0.2696  0.3509
  548MPD2    H5 8191   1.532   0.079  12.940  2.4017 -2.0526 -0.3249
  548MPD2    N1 8192   1.223   0.416  13.139 -0.1636 -0.0144 -0.1393
  548MPD2    H7 8193   1.191   0.512  13.144 -2.4049 -0.7773  0.0207
  549TMC3    C1 8194   1.001   0.330  13.113  0.6097 -0.4589  0.3127
  549TMC3    C2 8195   0.968   0.446  13.043  1.0063  0.1034  0.5962
  549TMC3    C3 8196   0.840   0.460  13.003  0.0217 -1.0375  0.7016
  549TMC3    C4 8197   0.911   0.229  13.116 -0.5449  0.0355  0.1804
  549TMC3    C5 8198   0.782   0.240  13.072 -0.6350  0.2360  0.2755
  549TMC3    C6 8199   0.746   0.358  13.012 -0.7272 -0.3284  0.2106
  549TMC3     C 8200   1.137   0.306  13.149  0.9665  0.2280  0.3886
  549TMC3     O 8201   1.164   0.195  13.175  0.0790  0.7288 -0.1282
  549TMC3     H 8202   1.040   0.525  13.023 -1.2173  1.5637 -1.5643
  549TMC3    H1 8203   0.945   0.139  13.167  0.1436  1.5165  2.3366
  549TMC3    H2 8204   0.640   0.367  12.987 -0.5459  0.1377 -0.4061
  549TMC3    C7 8205   0.684   0.135  13.094  0.1379  0.1857 -0.4276
  549TMC3    C8 8206   0.798   0.560  12.909 -0.1335  0.2615 -0.1861
  549TMC3    O1 8207   0.569   0.168  13.069 -0.0070  0.4144  0.5349
  549TMC3    O2 8208   0.680   0.573  12.884 -0.4722  0.0913 -0.0708
  550TMC3    C1 8209   4.492   3.787  13.195 -0.6004 -0.2259  0.2699
  550TMC3    C2 8210   4.458   3.828  13.319  0.2821  0.0697 -0.7381
  550TMC3    C3 8211   4.381   3.938  13.329 -0.1176  0.3577  0.3643
  550TMC3    C4 8212   4.463   3.852  13.075  0.7271 -0.0252  0.0919
  550TMC3    C5 8213   4.375   3.959  13.092 -0.3872  0.1207 -0.2401
  550TMC3    C6 8214   4.332   4.004  13.216 -0.1203 -0.0394  0.7221
  550TMC3     C 8215   4.605   3.688  13.184  0.0952  0.2973 -0.0974
  550TMC3     O 8216   4.676   3.696  13.283 -0.8171  0.0207  0.0059
  550TMC3     H 8217   4.481   3.757  13.397 -1.3377  2.1045  1.5709
  550TMC3    H1 8218   4.501   3.814  12.981  2.0772 -1.7836  1.3573
  550TMC3    H2 8219   4.273   4.094  13.228  0.2088  0.3296 -0.4128
  550TMC3    C7 8220   4.313   4.007  12.974  0.2635  0.0461  0.4749
  550TMC3    C8 8221   4.361   3.997  13.457 -0.3150  0.9840  0.0728
  550TMC3    O1 8222   4.207   4.064  12.975 -0.3352  0.2979  0.2363
  550TMC3    O2 8223   4.281   4.090  13.464  0.4369  0.4180  0.5064
  551TMC3    C1 8224   2.509   1.550  13.233  0.2318 -0.3129  0.3007
  551TMC3    C2 8225   2.606   1.575  13.148  0.1187  0.0646  0.3009
  551TMC3    C3 8226   2.706   1.660  13.183 -0.0224 -0.2164 -0.2414
  551TMC3    C4 8227   2.513   1.607  13.356  0.2678 -0.0575 -0.0328
  551TMC3    C5 8228   2.613   1.692  13.400 -0.0489  0.3150  0.0668
  551TMC3    C6 8229   2.711   1.720  13.308 -0.3916 -0.2870 -0.0782
  551TMC3     C 8230   2.412   1.455  13.178  0.3719  0.2688  0.3468
  551TMC3     O 8231   2.444   1.385  13.087 -0.1447 -0.0260 -0.3000
  551TMC3     H 8232   2.606   1.518  13.056  0.5036  0.7572 -0.1311
  551TMC3    H1 8233   2.431   1.592  13.426 -1.0087 -0.7057 -1.6770
  551TMC3    H2 8234   2.786   1.794  13.331 -0.2052 -0.6493  0.4635
  551TMC3    C7 8235   2.628   1.721  13.539 -0.0856  0.6611 -0.7728
  551TMC3    C8 8236   2.811   1.695  13.086  0.1529  0.3564 -0.3266
  551TMC3    O1 8237   2.629   1.626  13.619 -0.2945 -0.1971  0.1200
  551TMC3    O2 8238   2.792   1.651  12.973  0.5379 -0.3246  0.1630
  552MPD2     C 8239   3.876   3.348  14.492  0.1232 -0.0671  0.0005
  552MPD2    C1 8240   3.989   3.294  14.437 -0.2855 -0.0415  1.0088
  552MPD2    C2 8241   4.103   3.278  14.517 -0.3847  0.0527 -0.4293
  552MPD2    C3 8242   4.096   3.304  14.653  0.0724 -0.8995  0.1973
  552MPD2    C4 8243   3.981   3.354  14.708  0.6620  0.7266 -0.6962
  552MPD2    C5 8244   3.878   3.379  14.624  0.3876  0.1990  0.2131
  552MPD2     H 8245   4.185   3.228  14.467  0.9827  0.6371  1.2194
  552MPD2    H1 8246   3.969   3.376  14.813  3.9420 -0.4909 -0.0755
  552MPD2    H2 8247   3.782   3.365  14.440  1.3832  0.5699 -2.0747
  552MPD2    H3 8248   3.790   3.425  14.666  1.1243  1.3548  0.5043
  552MPD2     N 8249   4.192   3.289  14.753  0.0012  0.3765  0.8287
  552MPD2    H5 8250   4.170   3.325  14.846  1.3452  0.7716  0.9972
  552MPD2    N1 8251   3.996   3.250  14.304 -0.1128 -0.1763 -0.6071
  552MPD2    H7 8252   4.074   3.188  14.283  1.1133  0.1377  3.0300
  553TMC3    C1 8253   3.931   3.183  14.090 -0.8437 -0.2461 -0.3889
  553TMC3    C2 8254   3.905   3.223  13.961  0.0375 -0.1662  0.0457
  553TMC3    C3 8255   3.931   3.135  13.859  0.1820  0.1084 -0.1112
  553TMC3    C4 8256   3.970   3.051  14.113 -0.0100  0.9939  0.1787
  553TMC3    C5 8257   3.979   2.970  14.009  0.1953  0.3811 -0.5753
  553TMC3    C6 8258   3.960   3.007  13.881 -0.2569  0.0314 -0.7180
  553TMC3     C 8259   3.910   3.270  14.205  0.1304 -0.1334 -0.3891
  553TMC3     O 8260   3.814   3.348  14.206  0.0883 -0.0381 -0.4869
  553TMC3     H 8261   3.876   3.324  13.935 -0.6419  0.3373  2.7995
  553TMC3    H1 8262   3.990   3.014  14.213  1.2306  0.5553 -0.2395
  553TMC3    H2 8263   3.974   2.941  13.796  2.7373  1.3560 -1.2484
  553TMC3    C7 8264   4.055   2.842  14.027  0.0318 -0.5279 -0.2302
  553TMC3    C8 8265   3.943   3.173  13.721 -0.7445 -0.7949  0.4432
  553TMC3    O1 8266   4.010   2.748  13.956  0.5636  0.1827  0.0734
  553TMC3    O2 8267   3.997   3.280  13.693  0.0242 -0.0190 -0.0384
  554TMC3    C1 8268   2.002   2.150  11.503  0.0635 -0.3644  0.0275
  554TMC3    C2 8269   1.932   2.063  11.430 -0.2855  0.0395 -0.1681
  554TMC3    C3 8270   1.940   2.076  11.294 -0.1571 -0.0804  0.4724
  554TMC3    C4 8271   2.063   2.260  11.444  0.6918 -0.2421 -0.1835
  554TMC3    C5 8272   2.055   2.271  11.310 -0.1273  0.2806  0.1968
  554TMC3    C6 8273   2.010   2.176  11.230  0.3082  0.4119  0.1722
  554TMC3     C 8274   2.037   2.135  11.644  0.8899 -0.2362 -0.8200
  554TMC3     O 8275   2.091   2.234  11.692  0.5566 -0.7599  0.4762
  554TMC3     H 8276   1.874   1.984  11.476  1.2105 -1.3148 -0.5845
  554TMC3    H1 8277   2.107   2.340  11.502  1.8237 -1.6967  0.9673
  554TMC3    H2 8278   1.988   2.194  11.125 -1.8550 -0.3279  0.4964
  554TMC3    C7 8279   2.007   2.403  11.259 -0.7160 -0.2365 -0.6731
  554TMC3    C8 8280   1.839   2.024  11.200  0.4441 -0.6338 -0.2424
  554TMC3    O1 8281   2.025   2.419  11.138  0.5445  0.1403 -0.2853
  554TMC3    O2 8282   1.861   2.014  11.080 -0.1873 -0.2857  0.0613
  555TMC3    C1 8283   0.111   2.133  15.364 -0.0920 -0.5533  0.3517
  555TMC3    C2 8284   0.078   2.157  15.496 -0.0662  0.0103  0.7814
  555TMC3    C3 8285   0.070   2.047  15.582 -0.0306 -0.1474  0.1741
  555TMC3    C4 8286   0.164   2.010  15.330 -0.1813 -0.2186  0.3017
  555TMC3    C5 8287   0.177   1.912  15.422 -0.7719 -0.1290  1.3220
  555TMC3    C6 8288   0.133   1.931  15.553  0.0705 -0.0885  0.3028
  555TMC3     C 8289   0.100   2.249  15.268 -0.1256 -0.0541  0.0826
  555TMC3     O 8290   0.127   2.360  15.299  0.2319 -0.0858  0.2748
  555TMC3     H 8291   0.052   2.259  15.523  0.7561  0.8748 -1.6649
  555TMC3    H1 8292   0.204   2.003  15.229  1.7085  1.4631  0.9358
  555TMC3    H2 8293   0.120   1.851  15.625 -0.1571 -0.4214 -0.1078
  555TMC3    C7 8294   0.213   1.777  15.391 -0.1137  0.4450  0.1292
  555TMC3    C8 8295   0.009   2.079  15.713 -0.2148 -0.0356  0.3389
  555TMC3    O1 8296   0.237   1.710  15.492  0.1718 -0.4407 -0.3102
  555TMC3    O2 8297   4.672   2.176  15.715 -0.1617  0.1561 -0.0496
  556MPD2     C 8298   3.309   3.628  10.513 -0.0920 -0.4904  0.1043
  556MPD2    C1 8299   3.296   3.547  10.626 -0.8626 -0.1306  0.6729
  556MPD2    C2 8300   3.316   3.406  10.604 -0.1750 -0.4439  0.0801
  556MPD2    C3 8301   3.339   3.347  10.481  1.0065 -0.0472  0.4158
  556MPD2    C4 8302   3.356   3.441  10.378 -0.3426 -0.4828  0.0981
  556MPD2    C5 8303   3.332   3.573  10.394 -0.1450  0.3639  0.6192
  556MPD2     H 8304   3.313   3.339  10.690 -0.9017  0.0014  0.4015
  556MPD2    H1 8305   3.358   3.413  10.273 -0.0349  0.5610 -0.1760
  556MPD2    H2 8306   3.294   3.736  10.512  0.5038 -0.3910  1.5044
  556MPD2    H3 8307   3.333   3.642  10.310  0.0436  1.6844  1.6993
  556MPD2     N 8308   3.354   3.207  10.468 -0.0599 -0.0626 -0.7732
  556MPD2    H5 8309   3.343   3.147  10.549  1.5061 -0.6970 -1.0367
  556MPD2    N1 8310   3.251   3.592  10.754  0.3735 -0.3079 -0.5273
  556MPD2    H7 8311   3.231   3.517  10.819  0.5151 -1.6797 -2.0568
  557TMC3    C1 8312   3.381   2.999  10.374  0.4122  0.0566 -0.1926
  557TMC3    C2 8313   3.452   2.923  10.293  0.8536  0.0419  0.1368
  557TMC3    C3 8314   3.433   2.786  10.291  0.8400 -0.1233  0.1026
  557TMC3    C4 8315   3.300   2.944  10.469 -0.3079  0.0377  0.0412
  557TMC3    C5 8316   3.307   2.810  10.487 -0.5361  0.4225  0.3677
  557TMC3    C6 8317   3.364   2.723  10.393 -0.1858 -0.3386 -0.0011
  557TMC3     C 8318   3.369   3.143  10.350 -0.1383  0.2903 -0.1851
  557TMC3     O 8319   3.397   3.193  10.243  0.2257  0.5876  0.2254
  557TMC3     H 8320   3.512   2.977  10.221 -0.4320  0.1218 -0.8847
  557TMC3    H1 8321   3.238   3.010  10.529 -0.6435 -0.4923  0.2688
  557TMC3    H2 8322   3.371   2.615  10.398 -1.0530 -0.3804  0.3287
  557TMC3    C7 8323   3.248   2.749  10.605 -0.3033  0.5538  0.0280
  557TMC3    C8 8324   3.520   2.712  10.201 -0.1688 -0.1241  0.3233
  557TMC3    O1 8325   3.199   2.840  10.673  0.1051  0.1630 -0.0893
  557TMC3    O2 8326   3.630   2.764  10.183 -0.7798  0.5590  0.9094
  558TMC3    C1 8327   1.054   1.271  10.438 -0.2002 -0.2007  0.3174
  558TMC3    C2 8328   0.926   1.255  10.483 -0.2947 -0.1621  0.4231
  558TMC3    C3 8329   0.832   1.270  10.383  0.3751  0.3794 -0.6044
  558TMC3    C4 8330   1.086   1.321  10.313 -0.1966  0.5467  0.8246
  558TMC3    C5 8331   0.989   1.339  10.221  0.1398 -0.1796  0.7035
  558TMC3    C6 8332   0.858   1.313  10.253 -0.6421  0.8260  0.5865
  558TMC3     C 8333   1.165   1.257  10.531 -0.1764  0.3252  0.4643
  558TMC3     O 8334   1.268   1.300  10.483  0.1915 -0.1484  0.0758
  558TMC3     H 8335   0.892   1.230  10.583 -3.0390 -1.1709 -0.7717
  558TMC3    H1 8336   1.186   1.341  10.278 -0.2346 -1.5120 -0.4698
  558TMC3    H2 8337   0.773   1.346  10.194 -2.5469  1.2827  3.6056
  558TMC3    C7 8338   1.020   1.401  10.090  0.2345 -0.1402  0.0562
  558TMC3    C8 8339   0.695   1.285  10.422 -0.4858 -0.1782 -0.3975
  558TMC3    O1 8340   1.141   1.425  10.068 -0.1767 -0.6323  0.4572
  558TMC3    O2 8341   0.604   1.286  10.340 -0.5109  0.0067 -0.2188
  559MPD2     C 8342   0.983   1.681  10.284 -0.5389 -0.2305  0.6904
  559MPD2    C1 8343   0.948   1.660  10.409  0.2430 -0.0788  0.1018
  559MPD2    C2 8344   1.043   1.672  10.504  0.6355  0.1952 -0.3469
  559MPD2    C3 8345   1.173   1.693  10.473 -0.4249  0.3557 -0.4059
  559MPD2    C4 8346   1.211   1.697  10.345 -0.3536  0.3257  0.3498
  559MPD2    C5 8347   1.113   1.703  10.248 -0.4917 -0.0302 -0.1512
  559MPD2     H 8348   1.022   1.673  10.610  0.6258  2.9222 -0.3837
  559MPD2    H1 8349   1.314   1.710  10.314 -1.1853  0.5445 -2.3174
  559MPD2    H2 8350   0.925   1.674  10.192 -0.4428  2.8154  0.3879
  559MPD2    H3 8351   1.135   1.726  10.144  1.2197  1.9348  0.6333
  559MPD2     N 8352   1.260   1.697  10.583  0.4242  0.0842 -0.0784
  559MPD2    H5 8353   1.219   1.690  10.675 -0.9542  0.3374 -0.6578
  559MPD2    N1 8354   0.817   1.629  10.450  0.1422 -0.0255 -0.9412
  559MPD2    H7 8355   0.795   1.626  10.549  0.2841  1.5447 -0.8650
  560TMC3    C1 8356   1.450   1.675  10.716  0.8484  0.0420  0.8110
  560TMC3    C2 8357   1.366   1.648  10.817  0.6968 -0.4889  0.6159
  560TMC3    C3 8358   1.414   1.643  10.943  0.3056  0.8859 -0.6147
  560TMC3    C4 8359   1.578   1.719  10.735  0.2611 -0.4099 -0.5025
  560TMC3    C5 8360   1.623   1.732  10.873  0.5556 -0.0882 -0.2808
  560TMC3    C6 8361   1.540   1.684  10.978 -0.2037 -0.3663  0.8029
  560TMC3     C 8362   1.397   1.687  10.584 -0.3436 -0.1073  0.2867
  560TMC3     O 8363   1.469   1.668  10.488  0.0516 -0.6038 -0.0375
  560TMC3     H 8364   1.269   1.603  10.801  0.1118  1.5912 -1.6609
  560TMC3    H1 8365   1.646   1.730  10.651  0.9861 -2.8674 -0.2551
  560TMC3    H2 8366   1.559   1.695  11.084 -0.5732 -2.4621  1.0764
  560TMC3    C7 8367   1.758   1.696  10.894 -0.0248  0.0717  0.5187
  560TMC3    C8 8368   1.321   1.605  11.048 -0.0022 -0.6599  0.0894
  560TMC3    O1 8369   1.778   1.589  10.947  0.2957  0.3074 -0.4821
  560TMC3    O2 8370   1.205   1.624  11.023  0.5539 -0.0093  0.6173
  561TMC3    C1 8371   3.599   0.492  11.131 -0.3474  0.6449  0.4296
  561TMC3    C2 8372   3.562   0.414  11.234  0.3947  0.9870  0.5468
  561TMC3    C3 8373   3.467   0.459  11.323  0.1563  0.0171 -0.2175
  561TMC3    C4 8374   3.542   0.613  11.107  0.3269 -0.1637 -0.1658
  561TMC3    C5 8375   3.448   0.653  11.201  0.1153  0.7083  0.3961
  561TMC3    C6 8376   3.417   0.580  11.314 -0.3429  0.5202  0.1226
  561TMC3     C 8377   3.712   0.450  11.059 -0.5536  0.4743  0.7203
  561TMC3     O 8378   3.713   0.482  10.940 -0.4842  0.3509 -0.2423
  561TMC3     H 8379   3.594   0.311  11.229  0.9163  1.1781 -0.0721
  561TMC3    H1 8380   3.577   0.669  11.021  0.8424 -1.5059 -0.8253
  561TMC3    H2 8381   3.341   0.617  11.382 -0.8276 -0.2363 -0.0077
  561TMC3    C7 8382   3.443   0.792  11.230 -0.3189  0.0869 -0.0938
  561TMC3    C8 8383   3.462   0.388  11.449 -0.1126 -0.8283  0.0500
  561TMC3    O1 8384   3.350   0.847  11.287 -0.6310 -0.3049  0.4482
  561TMC3    O2 8385   3.509   0.274  11.442 -1.1146  0.2528  0.3580
  562TMC3    C1 8386   4.431   2.297  16.848 -0.2897 -0.2131  0.2111
  562TMC3    C2 8387   4.438   2.431  16.834 -0.2118  0.4819 -1.0286
  562TMC3    C3 8388   4.462   2.482  16.709 -0.0886  0.0383 -1.0360
  562TMC3    C4 8389   4.465   2.214  16.744 -0.5551 -0.4081  0.0303
  562TMC3    C5 8390   4.480   2.265  16.618 -0.1012 -0.4723 -0.4306
  562TMC3    C6 8391   4.474   2.399  16.599 -0.4555 -0.2911 -0.2745
  562TMC3     C 8392   4.419   2.231  16.975  0.8640 -0.3520 -0.1367
  562TMC3     O 8393   4.469   2.119  16.971  0.2380 -0.3245  0.0856
  562TMC3     H 8394   4.409   2.491  16.919  1.0767  1.0409 -0.9813
  562TMC3    H1 8395   4.450   2.107  16.754 -2.2926 -0.0906  0.8770
  562TMC3    H2 8396   4.496   2.430  16.498 -1.8119 -2.8139 -1.3690
  562TMC3    C7 8397   4.470   2.175  16.510 -0.7076 -0.0510 -0.5900
  562TMC3    C8 8398   4.445   2.627  16.702  0.0218  0.2551 -0.1146
  562TMC3    O1 8399   4.424   2.224  16.408 -0.1030 -0.1643  0.1590
  562TMC3    O2 8400   4.432   2.698  16.804  0.9544 -0.1287  0.1016
  563MPD2     C 8401   2.338   3.723  15.678 -0.2952  0.8360  0.0960
  563MPD2    C1 8402   2.357   3.731  15.819  0.0448  0.0472  0.1144
  563MPD2    C2 8403   2.462   3.665  15.885 -0.2154  0.0242 -0.0854
  563MPD2    C3 8404   2.542   3.581  15.811  0.0905 -0.3223  0.5642
  563MPD2    C4 8405   2.514   3.567  15.674  0.1009 -0.4959 -0.0894
  563MPD2    C5 8406   2.420   3.641  15.605  0.2595 -0.6161  0.4481
  563MPD2     H 8407   2.471   3.669  15.993 -1.4321  0.7775 -0.0209
  563MPD2    H1 8408   2.580   3.499  15.620  3.1280  1.4990  1.0895
  563MPD2    H2 8409   2.269   3.782  15.619 -0.6525  1.2507  0.9342
  563MPD2    H3 8410   2.421   3.638  15.497 -1.1106  3.3031  0.3481
  563MPD2     N 8411   2.636   3.510  15.889  0.6795 -0.1203 -0.4211
  563MPD2    H5 8412   2.642   3.536  15.987  1.3919  1.6132 -0.9217
  563MPD2    N1 8413   2.265   3.814  15.889  0.3540 -0.4265 -0.0301
  563MPD2    H7 8414   2.180   3.835  15.838  0.9499 -1.6496 -1.5456
  564TMC3    C1 8415   2.161   3.827  16.097 -0.7833 -0.2902 -0.1147
  564TMC3    C2 8416   2.056   3.771  16.038  0.3255 -0.1759  0.1436
  564TMC3    C3 8417   1.969   3.698  16.116  0.3838 -0.4357  0.0881
  564TMC3    C4 8418   2.189   3.806  16.231  0.1609  0.0445  0.5635
  564TMC3    C5 8419   2.105   3.726  16.302 -0.0758  0.0834 -0.6331
  564TMC3    C6 8420   1.993   3.685  16.248 -0.1535 -0.8240  0.6051
  564TMC3     C 8421   2.287   3.843  16.021 -0.2311 -0.6477 -0.2516
  564TMC3     O 8422   2.393   3.855  16.081 -0.0204 -0.4289 -0.2764
  564TMC3     H 8423   2.020   3.804  15.942 -2.0662 -1.2351  0.6947
  564TMC3    H1 8424   2.284   3.835  16.274 -0.6413  3.0109  0.2927
  564TMC3    H2 8425   1.912   3.646  16.308 -1.2711 -2.0266 -1.6850
  564TMC3    C7 8426   2.179   3.616  16.362  0.3011 -0.3293 -0.6000
  564TMC3    C8 8427   1.909   3.572  16.072 -0.0594  0.2318  0.2551
  564TMC3    O1 8428   2.294   3.639  16.380 -0.1856  0.1847  0.4251
  564TMC3    O2 8429   1.903   3.478  16.152 -0.1112  0.0444  0.1817
  565TMC3    C1 8430   2.447   0.161   9.989  0.2091 -0.5222 -0.1116
  565TMC3    C2 8431   2.441   0.065  10.085  0.3734  0.0292 -0.3643
  565TMC3    C3 8432   2.370   4.688  10.061  0.9339 -0.4315  0.3075
  565TMC3    C4 8433   2.396   0.150   9.867 -0.5098 -0.0871  0.4366
  565TMC3    C5 8434   2.338   0.026   9.844  0.4221 -0.0827  0.4067
  565TMC3    C6 8435   2.327   4.662   9.935 -0.2454  0.0231  0.5510
  565TMC3     C 8436   2.554   0.260   9.996 -0.4500 -0.2800 -0.4002
  565TMC3     O 8437   2.557   0.342   9.907 -0.0865  0.0301 -0.0647
  565TMC3     H 8438   2.495   0.087  10.177 -1.3116 -0.0733  0.6570
  565TMC3    H1 8439   2.396   0.221   9.786  0.6035  0.6518  1.0961
  565TMC3    H2 8440   2.257   4.585   9.904  0.9082 -0.9465  0.3557
  565TMC3    C7 8441   2.303   4.732   9.707 -0.2244 -0.4530  0.6944
  565TMC3    C8 8442   2.335   4.612  10.183 -0.0039 -0.1515 -0.1409
  565TMC3    O1 8443   2.252   0.083   9.643 -0.0312  0.2497  0.1165
  565TMC3    O2 8444   2.390   4.661  10.280  0.0465  0.3626  0.0946
  566MPD2     C 8445   4.175   1.868  13.975 -0.3337  0.4174 -0.7345
  566MPD2    C1 8446   4.266   1.892  13.873  0.2271  0.0091  0.0333
  566MPD2    C2 8447   4.295   1.786  13.788  0.2068  0.4792  0.1796
  566MPD2    C3 8448   4.241   1.659  13.814  0.0275 -0.6686  0.2405
  566MPD2    C4 8449   4.157   1.641  13.920  0.0394 -0.3397 -0.9161
  566MPD2    C5 8450   4.125   1.742  13.998 -0.5974  0.5612 -0.3102
  566MPD2     H 8451   4.365   1.789  13.705 -1.4516 -0.0827 -1.2289
  566MPD2    H1 8452   4.097   1.552  13.936  1.3769 -1.5246 -2.4661
  566MPD2    H2 8453   4.139   1.950  14.036  0.2561  0.2184 -0.1156
  566MPD2    H3 8454   4.044   1.739  14.069 -0.3810  2.7968  0.0567
  566MPD2     N 8455   4.262   1.554  13.720  0.6501 -0.4221  0.4643
  566MPD2    H5 8456   4.321   1.578  13.641  0.3456 -1.6773 -0.1503
  566MPD2    N1 8457   4.309   2.027  13.848 -0.4881  0.4532  0.2194
  566MPD2    H7 8458   4.254   2.099  13.893 -0.5976 -0.0622  0.9176
  567TMC3    C1 8459   4.528   1.972  13.766  0.1532  0.7295 -0.2393
  567TMC3    C2 8460   4.584   1.942  13.648  0.0022 -0.2387 -0.0965
  567TMC3    C3 8461   4.706   1.872  13.641  0.1965 -0.2800 -0.8211
  567TMC3    C4 8462   4.583   1.912  13.877  0.0015  0.9238 -0.4187
  567TMC3    C5 8463   4.694   1.828  13.868 -0.1219  0.5998 -0.6521
  567TMC3    C6 8464   0.025   1.814  13.752 -0.7456  0.1084  0.1333
  567TMC3     C 8465   4.419   2.064  13.769  0.1116 -0.5488 -0.3780
  567TMC3     O 8466   4.429   2.179  13.717 -0.5639 -0.0157 -0.0010
  567TMC3     H 8467   4.542   1.992  13.562 -0.5250 -0.5355 -0.0077
  567TMC3    H1 8468   4.539   1.931  13.975 -2.1415  1.1491 -1.4311
  567TMC3    H2 8469   0.106   1.744  13.739  0.1296  0.9446  1.0211
  567TMC3    C7 8470   0.040   1.795  13.985  0.3364  0.1626  0.2418
  567TMC3    C8 8471   0.032   1.857  13.516  0.5475  0.4450 -0.5258
  567TMC3    O1 8472   0.150   1.747  13.961  0.4213 -0.7955  0.1920
  567TMC3    O2 8473   4.718   1.913  13.421 -0.1667  0.2906  0.2186
  568MPD2     C 8474   1.998   2.102  16.270 -0.6716  0.0227  0.1832
  568MPD2    C1 8475   1.967   2.194  16.363 -0.4352  0.4982 -0.1176
  568MPD2    C2 8476   1.915   2.313  16.323 -0.4968 -0.3502  0.4934
  568MPD2    C3 8477   1.903   2.348  16.189  0.1088 -0.1365 -0.0033
  568MPD2    C4 8478   1.928   2.251  16.095  0.5279 -0.9776  0.5526
  568MPD2    C5 8479   1.966   2.129  16.141 -0.4415 -0.7479  0.3620
  568MPD2     H 8480   1.893   2.390  16.396  1.8251  0.3226  0.4716
  568MPD2    H1 8481   1.913   2.264  15.989  2.1268 -0.2634  0.4200
  568MPD2    H2 8482   2.036   2.002  16.289 -1.4841 -0.1984  0.6470
  568MPD2    H3 8483   1.979   2.055  16.063 -3.0066 -2.1428  1.2451
  568MPD2     N 8484   1.860   2.478  16.155 -0.7199  0.3600  0.3120
  568MPD2    H5 8485   1.845   2.536  16.237  3.0537 -3.2622  3.5444
  568MPD2    N1 8486   1.992   2.164  16.497 -0.1996  0.2256  0.2077
  568MPD2    H7 8487   2.056   2.087  16.511 -1.6159 -0.3238  3.5220
  569TMC3    C1 8488   1.827   2.691  16.057 -0.3585  0.2785 -0.6454
  569TMC3    C2 8489   1.773   2.722  16.181 -0.0822 -0.8875  0.4376
  569TMC3    C3 8490   1.695   2.840  16.184 -0.1770 -0.4821 -0.3494
  569TMC3    C4 8491   1.800   2.764  15.942  0.1307  0.7124 -0.4931
  569TMC3    C5 8492   1.715   2.872  15.953 -0.1293 -0.1040 -0.5661
  569TMC3    C6 8493   1.656   2.909  16.072 -0.4987 -0.6652 -0.4392
  569TMC3     C 8494   1.855   2.545  16.037 -0.9989  0.6778  0.6955
  569TMC3     O 8495   1.883   2.512  15.926  0.4938 -0.6856 -0.2871
  569TMC3     H 8496   1.772   2.662  16.271 -0.7924  0.4809  1.3416
  569TMC3    H1 8497   1.838   2.727  15.847  0.7249  1.0599 -0.3931
  569TMC3    H2 8498   1.590   2.995  16.075 -0.4280 -0.5385 -2.9821
  569TMC3    C7 8499   1.739   2.972  15.853 -0.3979 -0.7332  1.0010
  569TMC3    C8 8500   1.641   2.887  16.310  0.3216  0.4153  0.2255
  569TMC3    O1 8501   1.784   2.932  15.745  0.0140  0.1435 -0.0544
  569TMC3    O2 8502   1.528   2.927  16.305  0.0162 -0.1562 -0.1199
  570TMC3    C1 8503   1.474   0.863  16.131  0.5989  0.1045 -0.3311
  570TMC3    C2 8504   1.539   0.809  16.021  0.1387 -0.2314 -0.3613
  570TMC3    C3 8505   1.599   0.896  15.933  0.1562  0.9344  0.0861
  570TMC3    C4 8506   1.454   0.999  16.137  0.2886  0.4245 -0.6258
  570TMC3    C5 8507   1.492   1.075  16.030  0.2999  0.0780 -0.1935
  570TMC3    C6 8508   1.565   1.030  15.930 -0.5127  0.5101  0.1119
  570TMC3     C 8509   1.383   0.772  16.205  0.5243 -0.2948  0.0694
  570TMC3     O 8510   1.368   0.661  16.164  0.0903 -0.2974  0.2693
  570TMC3     H 8511   1.560   0.702  16.021 -1.6941 -0.5971  2.0870
  570TMC3    H1 8512   1.383   1.044  16.205  0.1709 -0.3722 -0.2177
  570TMC3    H2 8513   1.595   1.098  15.852  0.0575 -0.4758 -0.5357
  570TMC3    C7 8514   1.464   1.219  16.035  0.0491  0.0225 -0.2049
  570TMC3    C8 8515   1.689   0.842  15.830  0.1109 -0.2954 -0.5377
  570TMC3    O1 8516   1.441   1.259  16.146  0.2346 -0.1158  0.2168
  570TMC3    O2 8517   1.708   0.725  15.826  0.6414 -0.0137  0.2304
  571MPD2     C 8518   3.249   3.627   0.580 -0.0287  0.0642  0.9404
  571MPD2    C1 8519   3.237   3.596   0.715 -0.8174 -0.0134  0.6960
  571MPD2    C2 8520   3.282   3.695   0.803  1.1413 -0.1118 -0.3390
  571MPD2    C3 8521   3.328   3.820   0.761  0.2502  0.1377  0.3653
  571MPD2    C4 8522   3.322   3.853   0.624 -0.2221 -0.5281  0.9051
  571MPD2    C5 8523   3.284   3.752   0.537 -0.6659  0.2484 -0.4607
  571MPD2     H 8524   3.283   3.674   0.909 -1.2306 -1.5340 -0.5977
  571MPD2    H1 8525   3.346   3.953   0.589 -0.0935 -0.8844 -0.0410
  571MPD2    H2 8526   3.224   3.563   0.496  1.3381  1.3302 -0.4365
  571MPD2    H3 8527   3.283   3.770   0.430 -1.0948  2.7546 -0.0479
  571MPD2     N 8528   3.381   3.925   0.845  0.3930 -0.3654  0.1573
  571MPD2    H5 8529   3.406   4.010   0.796 -0.2056  1.7252  3.4800
  571MPD2    N1 8530   3.193   3.468   0.749  0.7625  0.0373 -0.0660
  571MPD2    H7 8531   3.175   3.396   0.679 -0.7186 -1.2354  1.6335
  572TMC3    C1 8532   3.421   4.052   1.040 -0.6019 -0.6021 -1.0836
  572TMC3    C2 8533   3.433   4.060   1.177 -0.2246  0.3760 -0.5877
  572TMC3    C3 8534   3.497   4.165   1.232  0.2711 -0.0152  0.7698
  572TMC3    C4 8535   3.467   4.153   0.957 -0.8027 -0.2269 -0.4499
  572TMC3    C5 8536   3.528   4.253   1.025  0.0786  0.0390 -0.4174
  572TMC3    C6 8537   3.557   4.260   1.157 -0.0755  0.3452  0.8500
  572TMC3     C 8538   3.391   3.923   0.979 -0.7624 -0.3175  0.2774
  572TMC3     O 8539   3.351   3.835   1.055 -0.4541  0.0531 -0.3289
  572TMC3     H 8540   3.404   3.974   1.238  0.4800  0.7316  0.2511
  572TMC3    H1 8541   3.454   4.157   0.850 -0.5023  2.4269 -0.3737
  572TMC3    H2 8542   3.624   4.335   1.198  1.6078 -1.0054  0.5718
  572TMC3    C7 8543   3.612   4.335   0.934 -0.3392 -0.0372 -0.5256
  572TMC3    C8 8544   3.500   4.191   1.375  0.2646  0.1262  0.1394
  572TMC3    O1 8545   3.601   4.319   0.812  0.3278  0.0120 -0.0483
  572TMC3    O2 8546   3.551   4.296   1.413  0.0231  0.0269  0.2669
  573MPD2     C 8547   4.392   4.350   1.828 -0.3185  0.3050 -0.7134
  573MPD2    C1 8548   4.314   4.378   1.718 -0.0195  0.1386 -0.0654
  573MPD2    C2 8549   4.369   4.366   1.596 -0.5985 -0.3351  0.1141
  573MPD2    C3 8550   4.498   4.317   1.583  0.0138 -0.8750 -0.6527
  573MPD2    C4 8551   4.575   4.291   1.694 -0.2317  0.3353 -0.1131
  573MPD2    C5 8552   4.521   4.315   1.822 -0.1098  0.3832  0.2331
  573MPD2     H 8553   4.308   4.361   1.506 -0.8702  0.4975  0.2468
  573MPD2    H1 8554   4.675   4.249   1.696  0.3715  1.3129 -7.6922
  573MPD2    H2 8555   4.347   4.378   1.923  0.8823  0.3162 -0.1392
  573MPD2    H3 8556   4.586   4.302   1.908 -1.3040 -0.1476  1.0616
  573MPD2     N 8557   4.557   4.288   1.455 -0.0944  0.0100  0.5206
  573MPD2    H5 8558   4.635   4.223   1.454 -0.2727 -0.1262 -2.9447
  573MPD2    N1 8559   4.181   4.411   1.742 -0.1418 -0.0945 -0.1718
  573MPD2    H7 8560   4.145   4.414   1.837  1.3068  0.9316  0.3355
  574TMC3    C1 8561   4.563   4.251   1.223 -0.1096  1.1088  0.3684
  574TMC3    C2 8562   4.489   4.243   1.111  0.2722 -0.5556  0.3726
  574TMC3    C3 8563   4.514   4.151   1.021 -0.0383 -0.4810  0.0037
  574TMC3    C4 8564   4.669   4.158   1.246  0.4870 -0.0527  0.1253
  574TMC3    C5 8565   4.686   4.069   1.145  0.0933  0.5580  0.1360
  574TMC3    C6 8566   4.604   4.056   1.038 -0.0507  0.8512 -0.4380
  574TMC3     C 8567   4.510   4.329   1.337 -0.1323  0.6566  0.0914
  574TMC3     O 8568   4.428   4.420   1.314  0.1389  0.2099 -0.4510
  574TMC3     H 8569   4.389   4.285   1.106  0.7892  0.6940  0.7663
  574TMC3    H1 8570   4.733   4.145   1.332 -0.6064  0.1714  0.9642
  574TMC3    H2 8571   4.608   3.976   0.965 -1.9076 -0.5521  1.0201
  574TMC3    C7 8572   0.053   3.970   1.172  0.1452 -0.2129 -0.3512
  574TMC3    C8 8573   4.400   4.101   0.939 -0.4223  0.2284  0.1807
  574TMC3    O1 8574   0.149   4.002   1.236 -0.7580  0.2015  0.5504
  574TMC3    O2 8575   4.397   3.985   0.916  0.0670 -0.3302  0.0350
  575TMC3    C1 8576   2.583   4.323  10.977  0.0350  0.3139  0.3225
  575TMC3    C2 8577   2.517   4.218  11.044 -0.9222  0.4833  0.1350
  575TMC3    C3 8578   2.402   4.164  10.986  0.3864  0.0835 -0.3376
  575TMC3    C4 8579   2.539   4.375  10.852 -0.2636 -0.5577  0.4351
  575TMC3    C5 8580   2.429   4.308  10.798 -0.2962 -0.0954 -0.7248
  575TMC3    C6 8581   2.362   4.205  10.860 -0.3589  0.4146 -0.1425
  575TMC3     C 8582   2.659   4.418  11.064  0.1543 -1.0315  0.4931
  575TMC3     O 8583   2.715   4.375  11.165 -0.2257  0.3215  0.4616
  575TMC3     H 8584   2.545   4.202  11.147 -1.8399  0.4530  0.3752
  575TMC3    H1 8585   2.599   4.441  10.791 -2.0260 -0.0067 -0.6893
  575TMC3    H2 8586   2.277   4.153  10.817 -1.0138  0.4077  1.1686
  575TMC3    C7 8587   2.393   4.351  10.659  0.4645  0.6112 -0.6203
  575TMC3    C8 8588   2.308   4.083  11.069  0.0042  0.1679 -0.9134
  575TMC3    O1 8589   2.475   4.429  10.606 -1.0373 -0.7485  0.0954
  575TMC3    O2 8590   2.193   4.065  11.030  0.2976 -0.2481  0.2176
  576MPD2     C 8591   2.754   0.913  12.582 -0.7923  1.0478 -0.8088
  576MPD2    C1 8592   2.795   0.979  12.463 -0.0270 -0.2657  0.0119
  576MPD2    C2 8593   2.794   1.120  12.466  0.5591 -0.0395  0.5296
  576MPD2    C3 8594   2.754   1.192  12.575 -0.2199 -0.0898 -0.2439
  576MPD2    C4 8595   2.717   1.120  12.692 -0.3489  0.3303  0.3973
  576MPD2    C5 8596   2.714   0.980  12.692  0.3369  0.3324  0.0734
  576MPD2     H 8597   2.824   1.175  12.377  0.5094 -1.1728 -0.1887
  576MPD2    H1 8598   2.686   1.175  12.779  0.0733  1.6449 -0.2861
  576MPD2    H2 8599   2.756   0.805  12.595  0.6849  1.6895  4.1129
  576MPD2    H3 8600   2.720   0.935  12.791  0.0120  1.2565  0.5208
  576MPD2     N 8601   2.754   1.333  12.568 -0.5094 -0.3834 -0.8731
  576MPD2    H5 8602   2.781   1.369  12.477 -2.5521 -0.7277 -1.6084
  576MPD2    N1 8603   2.847   0.914  12.346 -0.3070  0.2583 -0.3547
  576MPD2    H7 8604   2.851   0.973  12.264  1.1527  1.6873  0.7585
  577TMC3    C1 8605   2.985   0.787  12.215 -0.0796 -0.2830 -0.1943
  577TMC3    C2 8606   3.085   0.690  12.227  0.1029 -0.0894  1.1802
  577TMC3    C3 8607   3.210   0.723  12.180  0.2045 -0.0625  0.1247
  577TMC3    C4 8608   2.996   0.901  12.140 -0.3084 -0.2512 -0.3362
  577TMC3    C5 8609   3.118   0.917  12.078 -0.1450  0.1930 -0.1751
  577TMC3    C6 8610   3.230   0.836  12.105  0.4608 -0.1020 -0.7305
  577TMC3     C 8611   2.901   0.793  12.338 -0.1177  0.0057  0.0101
  577TMC3     O 8612   2.917   0.703  12.423  0.0599 -0.5111 -0.9860
  577TMC3     H 8613   3.065   0.599  12.281  3.6138 -0.9618  0.9826
  577TMC3    H1 8614   2.917   0.970  12.113  0.7764  0.9593 -0.3948
  577TMC3    H2 8615   3.330   0.855  12.067  1.8942 -3.2550  1.4937
  577TMC3    C7 8616   3.116   0.935  11.937  0.7431 -0.0268 -0.2524
  577TMC3    C8 8617   3.281   0.601  12.134  0.5494 -0.1389  0.1783
  577TMC3    O1 8618   3.188   0.857  11.876  0.2527 -0.2438 -0.5686
  577TMC3    O2 8619   3.270   0.502  12.200 -0.1452 -0.3545 -0.1741
  578MPD2     C 8620   0.778   1.280   0.466 -0.4169  0.4936 -0.3829
  578MPD2    C1 8621   0.719   1.349   0.564 -0.2146  0.6511  0.0956
  578MPD2    C2 8622   0.699   1.292   0.684 -0.5691  0.2306  0.1711
  578MPD2    C3 8623   0.742   1.164   0.707  0.6136  0.1817  0.7536
  578MPD2    C4 8624   0.798   1.092   0.604  0.1553 -0.3545  0.8452
  578MPD2    C5 8625   0.815   1.154   0.484 -0.4006  0.4397  0.8639
  578MPD2     H 8626   0.664   1.346   0.771 -0.9915  1.9301 -1.0404
  578MPD2    H1 8627   0.841   0.994   0.619 -1.4727 -1.5425 -2.2485
  578MPD2    H2 8628   0.778   1.324   0.367 -1.2766 -1.9793 -1.4748
  578MPD2    H3 8629   0.849   1.090   0.404  0.1902  1.9073 -0.0698
  578MPD2     N 8630   0.727   1.107   0.839 -0.7139 -0.3719  0.3121
  578MPD2    H5 8631   0.695   1.167   0.914  1.6371  1.4927 -0.1765
  578MPD2    N1 8632   0.683   1.484   0.544  1.2112  0.0079 -0.1567
  578MPD2    H7 8633   0.718   1.520   0.456 -0.5289 -0.2578 -0.9696
  579TMC3    C1 8634   0.693   0.936   1.005 -0.0581 -0.1942  0.2200
  579TMC3    C2 8635   0.716   1.009   1.119  0.0891 -0.3899 -0.2585
  579TMC3    C3 8636   0.664   0.954   1.241  0.0167 -0.6851  0.3977
  579TMC3    C4 8637   0.622   0.820   1.004  0.1635  0.3392 -0.2176
  579TMC3    C5 8638   0.563   0.779   1.125 -0.1479 -0.9535  0.4682
  579TMC3    C6 8639   0.586   0.845   1.242  0.3370 -0.3307 -0.0546
  579TMC3     C 8640   0.744   0.975   0.874 -0.6520  0.2091  0.2735
  579TMC3     O 8641   0.806   0.887   0.813 -0.1460  0.4258 -0.0147
  579TMC3     H 8642   0.767   1.103   1.105 -0.3445  0.2285  2.3383
  579TMC3    H1 8643   0.606   0.766   0.912  2.8532  2.2509 -1.7927
  579TMC3    H2 8644   0.539   0.809   1.333  0.2350  3.0218  1.2271
  579TMC3    C7 8645   0.543   0.631   1.152  0.3191  0.8186  0.0446
  579TMC3    C8 8646   0.663   1.040   1.356 -0.3899  0.0090 -0.4966
  579TMC3    O1 8647   0.572   0.598   1.266  0.1751 -0.4056  0.6137
  579TMC3    O2 8648   0.583   1.014   1.445 -0.1278 -0.2925 -0.3181
  580TMC3    C1 8649   0.782   0.249  12.649  0.3185  0.1576  0.1786
  580TMC3    C2 8650   0.900   0.300  12.702 -0.4187 -0.1943 -0.0502
  580TMC3    C3 8651   0.984   0.212  12.759 -0.0077  0.2659 -0.6719
  580TMC3    C4 8652   0.744   0.115  12.656 -0.3892 -0.4394 -0.3068
  580TMC3    C5 8653   0.841   0.034  12.718  0.1906  0.3121 -0.3591
  580TMC3    C6 8654   0.953   0.084  12.777  0.3371 -0.2846 -0.4807
  580TMC3     C 8655   0.736   0.314  12.530  0.0199 -0.1265  0.3085
  580TMC3     O 8656   0.829   0.368  12.466 -0.1329 -1.3890  0.7098
  580TMC3     H 8657   0.933   0.403  12.696 -1.4032 -0.1043 -3.4496
  580TMC3    H1 8658   0.659   0.071  12.605 -1.5092 -0.4167  1.5230
  580TMC3    H2 8659   1.032   0.018  12.811  0.3467  0.3334  0.6742
  580TMC3    C7 8660   0.837   4.629  12.704  0.3740 -0.2842  0.1891
  580TMC3    C8 8661   1.121   0.243  12.755 -0.2323  0.6074  0.1531
  580TMC3    O1 8662   0.895   4.570  12.794 -0.3057  0.1568 -0.6402
  580TMC3    O2 8663   1.196   0.191  12.837  0.3649 -0.0546 -0.1306
  581MPD2     C 8664   3.393   4.697  14.677  0.4524  0.2370 -0.0291
  581MPD2    C1 8665   3.333   0.017  14.792  0.1483  0.0211  0.3238
  581MPD2    C2 8666   3.212   0.069  14.786 -0.5272  0.9574 -0.5856
  581MPD2    C3 8667   3.138   0.079  14.671  0.5792  0.1604 -0.1974
  581MPD2    C4 8668   3.193   0.022  14.557  0.2608  0.1890 -0.3366
  581MPD2    C5 8669   3.322   4.705  14.558  1.1059 -0.5729 -0.3608
  581MPD2     H 8670   3.169   0.117  14.873  0.7064  3.0937 -1.1319
  581MPD2    H1 8671   3.140   0.026  14.462 -2.2870  0.3617  1.0870
  581MPD2    H2 8672   3.495   4.658  14.674  0.7158  0.7281  2.0180
  581MPD2    H3 8673   3.367   4.662  14.469  0.1079 -0.0964 -1.0818
  581MPD2     N 8674   3.008   0.140  14.677 -0.6661  0.4824 -0.6170
  581MPD2    H5 8675   2.982   0.177  14.768 -0.1324 -3.9452  1.3113
  581MPD2    N1 8676   3.415   0.009  14.910 -0.5514 -0.1848 -0.5314
  581MPD2    H7 8677   3.511   4.715  14.900 -0.3256  1.0976 -2.3852
  582TMC3    C1 8678   3.493   0.040  15.137  0.1187  0.2319  0.3209
  582TMC3    C2 8679   3.438   4.728  15.256 -0.1539  0.7009  0.8432
  582TMC3    C3 8680   3.524   4.651  15.330 -0.0795 -0.6112  0.5005
  582TMC3    C4 8681   3.599   4.722  15.077 -0.6343  0.2197  0.1672
  582TMC3    C5 8682   3.659   4.617  15.135  0.3465 -0.4848  0.2427
  582TMC3    C6 8683   3.631   4.582  15.268  0.1563 -1.4030  0.3283
  582TMC3     C 8684   3.385   0.059  15.036 -0.1908 -0.2958 -0.0976
  582TMC3     O 8685   3.281   0.105  15.079 -0.1740  0.2022  0.3211
  582TMC3     H 8686   3.338   0.019  15.290 -0.6194 -1.8396  1.6119
  582TMC3    H1 8687   3.654   0.027  14.994  0.3370  0.6235  1.0176
  582TMC3    H2 8688   3.707   4.525  15.319  1.8665  1.3733  0.8717
  582TMC3    C7 8689   3.647   4.500  15.049  0.2883 -0.0696  0.8636
  582TMC3    C8 8690   3.511   4.619  15.469 -0.0379  0.0821 -0.2868
  582TMC3    O1 8691   3.595   4.533  14.944 -0.4092  0.0796  0.1113
  582TMC3    O2 8692   3.588   4.533  15.515  0.2202  0.0520  0.5109
  583MPD2     C 8693   3.035   1.890  16.737 -1.1348  0.0215  0.3296
  583MPD2    C1 8694   3.053   1.988  16.647 -0.5661  0.1352  0.5956
  583MPD2    C2 8695   3.020   2.122  16.684 -0.8228  0.6447 -0.1304
  583MPD2    C3 8696   2.972   2.153  16.810 -0.6929 -0.2493 -0.1868
  583MPD2    C4 8697   2.955   2.051  16.898 -0.0368  0.3563  0.2456
  583MPD2    C5 8698   2.987   1.919  16.866 -0.3846 -0.5122 -0.2147
  583MPD2     H 8699   3.038   2.197  16.609 -1.6298 -0.3020 -1.2700
  583MPD2    H1 8700   2.924   2.068  17.001  0.1261  2.1174 -0.0024
  583MPD2    H2 8701   3.054   1.786  16.713 -2.0011  0.7022 -3.2752
  583MPD2    H3 8702   2.971   1.840  16.939 -2.4397 -1.2629 -1.5087
  583MPD2     N 8703   2.936   2.289  16.842  0.5906  0.3081 -0.5255
  583MPD2    H5 8704   2.922   2.352  16.764  0.7863 -0.1934 -0.9668
  583MPD2    N1 8705   3.119   1.966  16.523 -0.0411 -0.2982 -0.6042
  583MPD2    H7 8706   3.131   2.042  16.456  0.3399 -0.5289 -0.8021
  584TMC3    C1 8707   2.859   2.473  16.974  0.4526  0.6100 -0.1498
  584TMC3    C2 8708   2.928   2.560  16.892 -0.4608 -0.2466 -0.0471
  584TMC3    C3 8709   2.958   2.688  16.933  0.4730 -0.5218 -0.1875
  584TMC3    C4 8710   2.814   2.513  17.101  0.3926  1.2515  0.0680
  584TMC3    C5 8711   2.835   2.641  17.141 -1.1122  0.7949 -0.1039
  584TMC3    C6 8712   2.902   2.730  17.058  0.3635 -0.0841  0.3673
  584TMC3     C 8713   2.914   2.337  16.972  0.0630 -0.3822  0.4431
  584TMC3     O 8714   2.941   2.287  17.077 -0.2907 -0.6211  0.4488
  584TMC3     H 8715   2.987   2.527  16.807 -1.5135 -0.6003 -0.6367
  584TMC3    H1 8716   2.762   2.444  17.166  1.7622 -1.0717 -1.2893
  584TMC3    H2 8717   2.924   2.824  17.107  0.9335  0.6880 -1.3891
  584TMC3    C7 8718   2.826   2.664  17.287 -0.3465 -0.1926 -0.6061
  584TMC3    C8 8719   3.056   2.768  16.856  0.1305  0.6608 -0.4304
  584TMC3    O1 8720   2.802   2.565  17.349  0.0680 -1.2574  0.2036
  584TMC3    O2 8721   3.086   2.720  16.747 -0.3321 -0.0408 -0.3539
  585MPD2     C 8722   1.815   1.259   0.960  0.2392 -0.1496 -0.4134
  585MPD2    C1 8723   1.947   1.254   0.937 -0.0261  0.2994  0.5945
  585MPD2    C2 8724   1.987   1.173   0.832 -0.4475 -0.4620 -0.5399
  585MPD2    C3 8725   1.900   1.111   0.752 -0.6772 -0.3165  0.3726
  585MPD2    C4 8726   1.765   1.132   0.765 -0.2166 -0.6736 -0.0674
  585MPD2    C5 8727   1.722   1.203   0.873 -0.3795  0.0297  0.3936
  585MPD2     H 8728   2.093   1.155   0.818 -0.2434  0.9129 -0.8441
  585MPD2    H1 8729   1.695   1.088   0.696 -0.0425 -1.9868  0.5838
  585MPD2    H2 8730   1.779   1.334   1.029 -0.3492 -0.5261 -0.3138
  585MPD2    H3 8731   1.619   1.224   0.898 -0.1231  1.0368  0.6333
  585MPD2     N 8732   1.931   1.027   0.640 -0.7164  0.3374  0.5151
  585MPD2    H5 8733   1.860   1.012   0.568  1.2737  0.8693 -1.5509
  585MPD2    N1 8734   2.021   1.346   1.014  0.1406  0.5032  0.2473
  585MPD2    H7 8735   1.970   1.391   1.088 -0.4525 -0.3381  0.3536
  586TMC3    C1 8736   2.072   0.908   0.484  0.0819 -0.7162  0.1562
  586TMC3    C2 8737   2.189   0.852   0.440  0.4082  0.2838 -0.2934
  586TMC3    C3 8738   2.205   0.832   0.306 -0.4435 -0.2618  0.0539
  586TMC3    C4 8739   1.968   0.922   0.396 -0.1812  0.0537  0.0395
  586TMC3    C5 8740   1.991   0.899   0.265  0.3516 -0.1702  0.5402
  586TMC3    C6 8741   2.104   0.845   0.219 -1.0306 -0.2323 -0.2403
  586TMC3     C 8742   2.064   0.974   0.619 -0.5802  0.0676 -0.3606
  586TMC3     O 8743   2.168   0.971   0.687  0.2267 -0.4520  0.0823
  586TMC3     H 8744   2.268   0.822   0.509 -0.5733  1.4607  1.3514
  586TMC3    H1 8745   1.874   0.970   0.421 -0.2452  0.3241 -0.7217
  586TMC3    H2 8746   2.116   0.812   0.116  2.3641 -0.8982  0.3701
  586TMC3    C7 8747   1.889   0.928   0.169 -0.2267  0.1623 -0.0592
  586TMC3    C8 8748   2.314   0.744   0.262  0.3679  0.0390 -0.1561
  586TMC3    O1 8749   1.774   0.897   0.198  0.5061 -0.0771  0.3898
  586TMC3    O2 8750   2.344   0.653   0.336  0.6256 -0.3185 -0.1812
  587TMC3    C1 8751   4.179   4.085  17.311  0.0827 -0.1357  0.6527
  587TMC3    C2 8752   4.110   4.202  17.346  0.2915  0.3163  0.4383
  587TMC3    C3 8753   4.115   4.227  17.480  1.1669 -0.0106  0.4788
  587TMC3    C4 8754   4.227   3.994  17.397  0.2480  0.3052  0.0763
  587TMC3    C5 8755   4.234   4.026  17.523 -0.3265  0.1348 -0.1999
  587TMC3    C6 8756   4.183   4.149  17.569 -0.1017 -0.0275 -0.0180
  587TMC3     C 8757   4.209   4.060  17.168 -0.0996  0.1261  0.0195
  587TMC3     O 8758   4.300   3.983  17.145  0.1219  0.6088  0.3380
  587TMC3     H 8759   4.095   4.285  17.278 -1.3227 -0.2885  0.0463
  587TMC3    H1 8760   4.264   3.900  17.359  1.9412  0.2086  1.9586
  587TMC3    H2 8761   4.196   4.186  17.670 -0.3998  2.0294 -0.7437
  587TMC3    C7 8762   4.326   3.952  17.610 -0.3331  0.7078  0.3170
  587TMC3    C8 8763   4.071   4.358  17.533  0.5416  0.9618  0.9007
  587TMC3    O1 8764   4.387   3.861  17.558  0.0806  0.0507  0.6224
  587TMC3    O2 8765   4.108   4.382  17.649  0.3632 -0.2765  0.0406
  588TMC3    C1 8766   2.654   1.729   9.741 -0.4746  0.6521  0.3977
  588TMC3    C2 8767   2.580   1.623   9.783  0.0625  0.0722  1.2164
  588TMC3    C3 8768   2.639   1.525   9.865  0.4760 -0.4043 -1.0427
  588TMC3    C4 8769   2.779   1.745   9.791 -0.6201 -0.0205 -0.3007
  588TMC3    C5 8770   2.829   1.658   9.884  0.4530 -0.4581  0.0561
  588TMC3    C6 8771   2.761   1.545   9.923  0.4272  0.1920 -0.3423
  588TMC3     C 8772   2.579   1.855   9.750  0.4222  0.5750 -0.7001
  588TMC3     O 8773   2.457   1.855   9.725  0.5926  0.0146  0.1684
  588TMC3     H 8774   2.474   1.626   9.759 -0.0245 -0.9847  1.4307
  588TMC3    H1 8775   2.844   1.819   9.745  0.8195 -0.2986  1.2556
  588TMC3    H2 8776   2.806   1.470   9.987 -0.2608  1.3425  1.4825
  588TMC3    C7 8777   2.945   1.697   9.969  0.4587 -0.0583 -0.5030
  588TMC3    C8 8778   2.564   1.401   9.886 -0.1944  0.2698  0.7261
  588TMC3    O1 8779   3.015   1.615  10.026  0.1578  0.3463  0.7555
  588TMC3    O2 8780   2.489   1.380   9.796  0.2286  0.2552 -0.0271
  589TMC3    C1 8781   1.012   4.144   1.042 -0.0512  0.3325  0.1216
  589TMC3    C2 8782   1.106   4.148   1.142  0.0556 -0.3626 -0.4179
  589TMC3    C3 8783   1.214   4.070   1.136  0.0767 -0.4635 -0.3529
  589TMC3    C4 8784   1.033   4.065   0.928 -0.3091 -0.3989 -0.3226
  589TMC3    C5 8785   1.159   4.001   0.917 -0.6907  0.5812  0.3287
  589TMC3    C6 8786   1.245   3.994   1.028  0.6361  0.5536 -0.7235
  589TMC3     C 8787   0.878   4.191   1.056 -0.6118  0.1795  0.3736
  589TMC3     O 8788   0.808   4.166   0.962 -0.3176  0.2580 -1.0664
  589TMC3     H 8789   1.082   4.200   1.234 -0.8605 -2.4484  0.5264
  589TMC3    H1 8790   0.958   4.047   0.852  0.1125 -0.2275 -0.7735
  589TMC3    H2 8791   1.343   3.948   1.019  0.2377 -0.2486 -0.9806
  589TMC3    C7 8792   1.170   3.894   0.823 -0.5015 -0.0073 -0.1205
  589TMC3    C8 8793   1.317   4.091   1.234  0.1061 -0.4649  0.4069
  589TMC3    O1 8794   1.243   3.809   0.865 -0.1924  0.4462  0.6109
  589TMC3    O2 8795   1.317   4.195   1.298  0.5526  0.5487  0.5347
  590MPD2     C 8796   0.735   2.152  16.701  0.0732  0.3382 -0.0625
  590MPD2    C1 8797   0.688   2.232  16.596 -0.1653  0.2247  0.1868
  590MPD2    C2 8798   0.764   2.322  16.529 -0.4862 -0.2182 -0.0256
  590MPD2    C3 8799   0.895   2.338  16.569  0.2410  0.8563 -0.0430
  590MPD2    C4 8800   0.943   2.264  16.680  0.3850 -0.1322  0.9859
  590MPD2    C5 8801   0.865   2.176  16.750 -2.2161  0.0408 -0.0585
  590MPD2     H 8802   0.731   2.383  16.446 -0.9852  1.0435  1.1050
  590MPD2    H1 8803   1.044   2.278  16.718  1.4345 -1.7750 -1.2624
  590MPD2    H2 8804   0.680   2.072  16.749 -1.0640  0.8378 -0.5377
  590MPD2    H3 8805   0.896   2.115  16.834  1.2654 -1.5841 -2.5571
  590MPD2     N 8806   0.965   2.436  16.501  0.3428  0.1594 -1.0370
  590MPD2    H5 8807   0.912   2.500  16.443 -2.0715  0.8202  1.9041
  590MPD2    N1 8808   0.559   2.203  16.556 -0.0425 -0.4969  0.1674
  590MPD2    H7 8809   0.493   2.161  16.621 -0.4650 -1.8555 -1.1303
  591TMC3    C1 8810   1.131   2.561  16.404  0.1524 -0.0185  0.7688
  591TMC3    C2 8811   1.237   2.542  16.315 -0.1756  0.4301  0.2238
  591TMC3    C3 8812   1.296   2.635  16.249 -0.0653  0.2842  0.4517
  591TMC3    C4 8813   1.099   2.692  16.435  0.7142  0.4764 -0.0302
  591TMC3    C5 8814   1.180   2.792  16.376 -0.2581  0.7451 -0.0841
  591TMC3    C6 8815   1.265   2.767  16.272  0.9476  0.3243 -0.1760
  591TMC3     C 8816   1.100   2.454  16.495  1.2481  0.4832 -0.4679
  591TMC3     O 8817   1.192   2.381  16.525 -0.3478  0.3244  0.4352
  591TMC3     H 8818   1.257   2.435  16.317 -0.7968  0.2924 -0.7598
  591TMC3    H1 8819   1.052   2.724  16.528 -0.3430 -0.6981 -0.1546
  591TMC3    H2 8820   1.309   2.843  16.209 -1.0831  0.7531 -1.0630
  591TMC3    C7 8821   1.150   2.926  16.412 -1.2601 -0.4032  0.3466
  591TMC3    C8 8822   1.371   2.599  16.131 -0.1843 -0.7684  0.3238
  591TMC3    O1 8823   1.039   2.953  16.454 -0.2314  0.4737  0.6715
  591TMC3    O2 8824   1.440   2.495  16.119  0.3965  0.6135  0.3254
  592MPD2     C 8825   1.323   4.438  11.767 -0.2143 -0.1808  0.1842
  592MPD2    C1 8826   1.382   4.436  11.888  0.1850  0.6787 -0.1223
  592MPD2    C2 8827   1.349   4.330  11.977 -0.1735 -0.4972 -0.1395
  592MPD2    C3 8828   1.276   4.222  11.934 -0.6528 -0.4568  0.0390
  592MPD2    C4 8829   1.220   4.225  11.814  0.7875  0.0535 -0.3406
  592MPD2    C5 8830   1.239   4.335  11.736 -0.2604 -1.1955 -0.1332
  592MPD2     H 8831   1.374   4.338  12.082  2.5238 -0.6570 -0.7692
  592MPD2    H1 8832   1.158   4.144  11.775 -1.9540  1.8058  0.3264
  592MPD2    H2 8833   1.344   4.526  11.707  1.2352 -0.1649  0.7309
  592MPD2    H3 8834   1.204   4.340  11.634 -2.7659  1.3246  0.8546
  592MPD2     N 8835   1.252   4.114  12.020  0.0811 -0.2483  0.0454
  592MPD2    H5 8836   1.266   4.128  12.119  2.2114  0.5840 -0.3699
  592MPD2    N1 8837   1.459   4.548  11.930  0.4279  0.1120  0.1893
  592MPD2    H7 8838   1.472   4.610  11.851  3.4059 -0.9343 -0.1557
  593TMC3    C1 8839   1.614   4.680  12.047  0.7294  0.7057 -0.1724
  593TMC3    C2 8840   1.650   4.706  12.181  0.4985 -0.0047  0.1550
  593TMC3    C3 8841   1.765   0.044  12.202  0.5781 -0.0807 -0.1823
  593TMC3    C4 8842   1.682   4.729  11.941  0.2069  0.3502  0.0287
  593TMC3    C5 8843   1.786   0.076  11.965  0.3183 -0.0616 -0.5616
  593TMC3    C6 8844   1.829   0.101  12.098  0.3395  1.0648 -0.5786
  593TMC3     C 8845   1.519   4.573  12.046 -0.6354 -0.1426 -1.2878
  593TMC3     O 8846   1.522   4.494  12.139 -0.0997  0.6637  0.2143
  593TMC3     H 8847   1.593   4.663  12.262 -0.7645  1.1593 -0.1286
  593TMC3    H1 8848   1.646   4.708  11.841  0.8143  0.7443 -0.2739
  593TMC3    H2 8849   1.926   0.147  12.115  0.5504  0.1674  0.5837
  593TMC3    C7 8850   1.858   0.139  11.853  0.1865  0.4186 -0.3471
  593TMC3    C8 8851   1.780   0.101  12.334 -0.0343 -0.0122 -0.5818
  593TMC3    O1 8852   1.959   0.202  11.879 -0.7659  0.6201 -0.3838
  593TMC3    O2 8853   1.686   0.078  12.410  0.0871 -0.1631  0.0422
  594MPD2     C 8854   0.362   3.144  14.844 -0.0293 -0.4767 -0.2245
  594MPD2    C1 8855   0.277   3.246  14.814 -0.1817 -0.1430  0.2217
  594MPD2    C2 8856   0.337   3.364  14.781  0.2689  0.2000  0.0149
  594MPD2    C3 8857   0.474   3.373  14.759  0.0075 -0.1277  0.3809
  594MPD2    C4 8858   0.560   3.277  14.795 -0.9674 -0.5818 -0.2121
  594MPD2    C5 8859   0.499   3.167  14.848 -0.2352  0.4119 -0.8266
  594MPD2     H 8860   0.277   3.453  14.767 -0.7175 -0.5604 -0.5549
  594MPD2    H1 8861   0.666   3.296  14.809 -0.8322 -1.2500 -0.2932
  594MPD2    H2 8862   0.337   3.059  14.907  0.2462  0.1231  0.6960
  594MPD2    H3 8863   0.559   3.082  14.878 -1.6502 -0.0841  0.5984
  594MPD2     N 8864   0.520   3.499  14.722  0.1961 -0.8889 -0.3785
  594MPD2    H5 8865   0.448   3.571  14.716  1.8158  0.9081  1.5099
  594MPD2    N1 8866   0.143   3.228  14.855  0.5585  0.3557  0.0072
  594MPD2    H7 8867   0.119   3.147  14.911 -1.2629  1.0647  0.2614
  595TMC3    C1 8868   0.770   3.859  14.572 -0.1174 -0.0632 -0.5798
  595TMC3    C2 8869   0.752   3.715  14.589  0.1037  0.3037  0.2579
  595TMC3    C3 8870   0.654   3.678  14.682  0.5407 -0.2451  0.1702
  595TMC3    C4 8871   0.705   3.949  14.644 -0.1855  0.2688  0.2791
  595TMC3    C5 8872   0.629   3.895  14.747  0.6416 -0.6594 -0.2586
  595TMC3    C6 8873   0.602   3.766  14.766 -0.4326  0.6087  0.1130
  595TMC3     C 8874   0.896   3.904  14.525 -0.2881  0.1487 -0.2401
  595TMC3     O 8875   0.934   4.015  14.550 -0.1838 -0.1836  0.4723
  595TMC3     H 8876   0.794   3.650  14.513 -0.7889 -1.6139  1.3990
  595TMC3    H1 8877   0.714   4.056  14.630  1.4150  0.1654  0.5526
  595TMC3    H2 8878   0.531   3.734  14.840  1.3501  2.4762  2.6174
  595TMC3    C7 8879   0.544   3.986  14.816  0.0920 -0.2696  0.1924
  595TMC3    C8 8880   0.647   3.536  14.701  0.5361 -0.7637  0.4665
  595TMC3    O1 8881   0.470   4.056  14.750 -0.0868  0.5923 -0.4711
  595TMC3    O2 8882   0.750   3.474  14.688  0.6045  0.2818 -0.2277
  596MPD2     C 8883   3.763   1.679  16.898 -0.1051  0.0483  0.2862
  596MPD2    C1 8884   3.783   1.779  16.811 -0.2623  0.2696 -0.2313
  596MPD2    C2 8885   3.841   1.762  16.684 -0.3882  0.1879 -0.5129
  596MPD2    C3 8886   3.870   1.633  16.639 -0.2930 -0.2462  0.0536
  596MPD2    C4 8887   3.851   1.533  16.730 -0.2438 -1.3759  0.1645
  596MPD2    C5 8888   3.804   1.555  16.855  0.5908  0.0361  0.7759
  596MPD2     H 8889   3.868   1.850  16.626  2.0112  0.2442  0.6944
  596MPD2    H1 8890   3.898   1.438  16.708  0.2276 -1.9413  3.5311
  596MPD2    H2 8891   3.726   1.681  17.000 -0.7820  1.1500  0.0217
  596MPD2    H3 8892   3.793   1.474  16.927 -3.0916 -0.5128 -0.3666
  596MPD2     N 8893   3.920   1.604  16.507  1.0511  0.4827 -0.3474
  596MPD2    H5 8894   3.940   1.507  16.484  0.6527  0.2050  0.4994
  596MPD2    N1 8895   3.752   1.911  16.841 -0.1395  0.0679  0.4861
  596MPD2    H7 8896   3.771   1.973  16.762  0.6578  0.2419  0.8222
  597TMC3    C1 8897   3.694   2.106  16.967 -0.1166  0.1254 -0.0102
  597TMC3    C2 8898   3.730   2.188  16.866 -0.0267  0.1245  0.3715
  597TMC3    C3 8899   3.730   2.324  16.883 -0.4192 -0.3190 -0.2013
  597TMC3    C4 8900   3.622   2.158  17.074  0.5038  0.2993  0.5763
  597TMC3    C5 8901   3.607   2.295  17.072  0.1161  1.1045 -0.4752
  597TMC3    C6 8902   3.669   2.384  16.986  0.6177  0.3845  0.3483
  597TMC3     C 8903   3.672   1.963  16.940  0.8772  0.0418 -0.2250
  597TMC3     O 8904   3.598   1.906  17.019  0.2840 -0.4390  0.0236
  597TMC3     H 8905   3.767   2.154  16.770 -2.6232 -1.0844 -0.2059
  597TMC3    H1 8906   3.557   2.097  17.134 -0.2227 -1.1302 -1.6649
  597TMC3    H2 8907   3.650   2.491  16.994  0.9651  0.4371  0.4926
  597TMC3    C7 8908   3.511   2.349  17.178 -0.6268  0.3629  0.2739
  597TMC3    C8 8909   3.798   2.423  16.799 -0.6414 -0.6532 -0.2663
  597TMC3    O1 8910   3.490   2.278  17.277 -0.1943 -0.4134  0.4405
  597TMC3    O2 8911   3.774   2.542  16.813 -0.1731 -0.9277 -0.1378
  598TMC3    C1 8912   2.273   2.867  15.376 -0.1189  0.0662 -0.1898
  598TMC3    C2 8913   2.181   2.777  15.340 -0.7937 -0.2777  0.3184
  598TMC3    C3 8914   2.059   2.818  15.295  0.0724 -0.0715 -0.7157
  598TMC3    C4 8915   2.264   2.995  15.336 -0.1462 -0.4773 -1.6003
  598TMC3    C5 8916   2.143   3.040  15.285  0.4741  0.4227 -0.1967
  598TMC3    C6 8917   2.040   2.953  15.275  0.4172 -0.2901  0.2171
  598TMC3     C 8918   2.361   2.835  15.490  0.1915 -0.3394  0.3463
  598TMC3     O 8919   2.417   2.932  15.540 -0.1465  0.2647 -0.2363
  598TMC3     H 8920   2.176   2.670  15.354  1.1121 -0.4234 -0.0884
  598TMC3    H1 8921   2.341   3.069  15.351  0.6131 -1.9766  1.8863
  598TMC3    H2 8922   1.949   2.999  15.238  0.9632  1.3413  0.9276
  598TMC3    C7 8923   2.155   3.147  15.190 -0.5895 -0.1332 -0.2722
  598TMC3    C8 8924   2.002   2.740  15.188 -0.6561 -0.6568 -0.3375
  598TMC3    O1 8925   2.081   3.133  15.091  0.8938 -0.4340 -0.3991
  598TMC3    O2 8926   1.989   2.620  15.206  0.8201 -0.2384  0.1002
  599MPD2     C 8927   1.902   0.320  15.555 -0.0746  0.0306  0.5075
  599MPD2    C1 8928   2.008   0.313  15.641  0.2661  0.8386 -0.7192
  599MPD2    C2 8929   2.002   0.361  15.770 -0.0996  0.3171 -0.3528
  599MPD2    C3 8930   1.880   0.416  15.807  1.1235 -0.9326 -0.0837
  599MPD2    C4 8931   1.767   0.423  15.720  0.4187  0.3412  0.6994
  599MPD2    C5 8932   1.782   0.376  15.594 -0.3695  0.5344  0.8795
  599MPD2     H 8933   2.084   0.356  15.840  0.2581  0.7205 -0.7438
  599MPD2    H1 8934   1.686   0.491  15.744 -0.2584  0.3655 -1.6103
  599MPD2    H2 8935   1.903   0.273  15.458  1.9120  0.5663  0.2692
  599MPD2    H3 8936   1.703   0.383  15.520 -3.0541  0.8038  3.7925
  599MPD2     N 8937   1.864   0.472  15.936 -0.8099 -0.6349 -0.0072
  599MPD2    H5 8938   1.954   0.482  15.982  0.0714  0.3740 -1.9636
  599MPD2    N1 8939   2.122   0.257  15.577  0.2775 -0.1443  0.7152
  599MPD2    H7 8940   2.113   0.232  15.479 -0.2343  0.5936  0.5762
  600TMC3    C1 8941   1.765   0.534  16.138 -0.8743 -0.2702  0.2914
  600TMC3    C2 8942   1.676   0.494  16.236  0.9097 -0.4077  1.0711
  600TMC3    C3 8943   1.680   0.559  16.358  0.1483 -0.7092 -0.2242
  600TMC3    C4 8944   1.824   0.653  16.146 -0.6594 -0.8776  0.1150
  600TMC3    C5 8945   1.821   0.726  16.259  0.7727  0.7209  0.4107
  600TMC3    C6 8946   1.765   0.673  16.373 -0.3934  1.1869 -0.9275
  600TMC3     C 8947   1.747   0.480  16.010 -0.3360 -0.8533  0.1623
  600TMC3     O 8948   1.630   0.444  15.982  0.1695  0.2038  0.7774
  600TMC3     H 8949   1.628   0.397  16.232 -0.9409  0.5512 -0.0761
  600TMC3    H1 8950   1.869   0.694  16.056 -2.2910 -1.8184 -1.1304
  600TMC3    H2 8951   1.741   0.730  16.462  2.8802  1.3022 -0.1417
  600TMC3    C7 8952   1.845   0.867  16.260  0.5674 -0.0268 -0.3469
  600TMC3    C8 8953   1.599   0.521  16.472  0.3923 -0.0299 -0.7120
  600TMC3    O1 8954   1.806   0.929  16.358 -0.0263  0.5062  0.6982
  600TMC3    O2 8955   1.622   0.566  16.582 -0.2110 -0.1316 -0.0952
  601MPD2     C 8956   3.935   4.722   0.815 -0.1706 -0.4696  0.3031
  601MPD2    C1 8957   3.861   4.637   0.736  0.5192  0.2575 -0.1136
  601MPD2    C2 8958   3.785   4.536   0.796 -0.0911  0.4319  0.6897
  601MPD2    C3 8959   3.760   4.533   0.931  0.1336  0.3626  0.2130
  601MPD2    C4 8960   3.821   4.628   1.008 -0.2201 -0.2729  0.4660
  601MPD2    C5 8961   3.916   4.711   0.953 -0.3328 -0.4840  0.1664
  601MPD2     H 8962   3.731   4.472   0.727 -0.1796  2.0794 -0.7763
  601MPD2    H1 8963   3.798   4.624   1.114 -0.4170 -1.4790  0.3756
  601MPD2    H2 8964   4.012   0.054   0.784 -0.7278 -1.0031 -2.2768
  601MPD2    H3 8965   3.980   0.024   1.024 -0.5861  2.6776 -1.8785
  601MPD2     N 8966   3.676   4.439   0.999  0.4559 -0.2304 -0.3475
  601MPD2    H5 8967   3.660   4.448   1.099  1.5451  2.4338 -0.4141
  601MPD2    N1 8968   3.871   4.647   0.601  0.2810  0.4218 -0.5079
  601MPD2    H7 8969   3.855   4.564   0.545 -3.1674  1.6919 -1.4079
  602TMC3    C1 8970   3.907   0.000   0.394 -0.1558  0.3156 -0.7584
  602TMC3    C2 8971   3.850   0.096   0.318  0.1094 -0.0465  0.1354
  602TMC3    C3 8972   3.816   0.070   0.186 -0.0824 -0.6693  0.0757
  602TMC3    C4 8973   3.929   4.616   0.344 -0.6953 -0.2344  0.1983
  602TMC3    C5 8974   3.883   4.589   0.218 -0.1798  0.4711 -0.1703
  602TMC3    C6 8975   3.830   4.679   0.136  0.4094  0.5056 -0.7587
  602TMC3     C 8976   3.909   0.023   0.538 -0.5869 -0.1971  1.4490
  602TMC3     O 8977   3.925   0.135   0.582 -0.0623 -0.0743  0.4503
  602TMC3     H 8978   3.814   0.191   0.356  0.5386  0.0782  0.2222
  602TMC3    H1 8979   3.969   4.535   0.404  0.1902  0.4871  0.5684
  602TMC3    H2 8980   3.841   4.664   0.029 -0.2510 -0.4733 -0.6820
  602TMC3    C7 8981   3.866   4.447   0.179 -0.6251  0.2766  0.0275
  602TMC3    C8 8982   3.735   0.164   0.114 -0.0986 -0.7596 -0.1200
  602TMC3    O1 8983   3.929   4.362   0.235 -0.2101 -0.2577  0.7548
  602TMC3    O2 8984   3.758   0.283   0.113 -0.0373 -0.2508 -0.7441
  603TMC3    C1 8985   1.958   4.361  11.356 -0.3072 -0.3377  0.9363
  603TMC3    C2 8986   2.034   4.302  11.458 -0.9150  0.0361  0.1701
  603TMC3    C3 8987   2.172   4.315  11.460  0.2238  0.3253 -0.2761
  603TMC3    C4 8988   2.018   4.413  11.245  0.4151  0.6741  0.7461
  603TMC3    C5 8989   2.157   4.420  11.249  0.6223  0.3151  0.4820
  603TMC3    C6 8990   2.234   4.380  11.357  0.0087 -0.2948 -0.3188
  603TMC3     C 8991   1.815   4.344  11.365 -0.4626  0.1740  0.2119
  603TMC3     O 8992   1.762   4.279  11.454  0.6628  0.3804  0.5541
  603TMC3     H 8993   1.970   4.268  11.539 -0.1265 -1.0236  0.3563
  603TMC3    H1 8994   1.959   4.450  11.163 -0.1233 -0.7493  0.4876
  603TMC3    H2 8995   2.340   4.364  11.341 -0.1414 -1.0450 -0.5395
  603TMC3    C7 8996   2.233   4.486  11.135 -0.5967 -0.0712 -0.2588
  603TMC3    C8 8997   2.246   4.274  11.572  0.6023  0.7279 -0.5780
  603TMC3    O1 8998   2.356   4.506  11.143 -0.3667  0.1866  0.0731
  603TMC3    O2 8999   2.177   4.222  11.658  0.0506  0.2121  0.0528
  604MPD2     C 9000   3.250   3.051  16.437 -1.4521  0.3033 -0.0620
  604MPD2    C1 9001   3.145   2.989  16.382 -0.4394  0.4468  0.6143
  604MPD2    C2 9002   3.157   2.933  16.256  0.5210 -0.4337  0.1485
  604MPD2    C3 9003   3.280   2.936  16.197 -0.1185 -0.0748  0.2845
  604MPD2    C4 9004   3.381   2.997  16.263  0.3584  0.0758 -0.6456
  604MPD2    C5 9005   3.372   3.060  16.384 -0.2807 -0.0249 -0.1346
  604MPD2     H 9006   3.068   2.885  16.218 -1.3627  1.8201  1.7494
  604MPD2    H1 9007   3.479   3.008  16.218  0.4803  1.2416 -0.0900
  604MPD2    H2 9008   3.253   3.091  16.537  1.3844  2.1462 -0.8697
  604MPD2    H3 9009   3.457   3.103  16.436 -0.9076  0.9585  0.0765
  604MPD2     N 9010   3.294   2.884  16.065 -0.4031  0.6477 -0.1673
  604MPD2    H5 9011   3.209   2.853  16.019 -0.8766 -0.5573  1.5171
  604MPD2    N1 9012   3.029   2.991  16.457 -0.0403  0.2120  0.0949
  604MPD2    H7 9013   3.039   3.045  16.543  1.4708  0.3700 -0.1827
  605TMC3    C1 9014   2.802   2.988  16.514  0.3192  0.4918  0.4607
  605TMC3    C2 9015   2.846   2.997  16.643 -0.8358 -0.3526 -0.2030
  605TMC3    C3 9016   2.818   3.107  16.717  0.1791 -0.1552  0.4436
  605TMC3    C4 9017   2.696   3.062  16.473 -0.1227 -0.3409  0.0114
  605TMC3    C5 9018   2.656   3.158  16.564 -0.2344  0.0758 -0.0881
  605TMC3    C6 9019   2.719   3.190  16.678 -0.1477 -0.1442  0.3521
  605TMC3     C 9020   2.901   2.953  16.417 -0.4862  0.0921  0.1206
  605TMC3     O 9021   2.857   2.940  16.299  0.3847 -0.2970  0.4006
  605TMC3     H 9022   2.933   2.940  16.672 -1.6010 -0.9051  1.0364
  605TMC3    H1 9023   2.643   3.057  16.378 -0.5027  0.0899  0.1995
  605TMC3    H2 9024   2.689   3.277  16.735 -0.1414  0.1892 -0.1652
  605TMC3    C7 9025   2.542   3.237  16.537 -0.7120 -0.8710 -0.9625
  605TMC3    C8 9026   2.941   3.174  16.741 -0.3528 -0.0196 -0.1849
  605TMC3    O1 9027   2.546   3.354  16.570  0.4461  0.1963  0.3895
  605TMC3    O2 9028   3.033   3.152  16.662  0.2806  0.0241 -0.7212
  606TMC3    C1 9029   3.342   1.370  17.286 -0.1241 -0.2727  0.6312
  606TMC3    C2 9030   3.418   1.411  17.394  0.4526  0.4236  0.5994
  606TMC3    C3 9031   3.354   1.412  17.515  0.5105 -0.7419  1.1572
  606TMC3    C4 9032   3.211   1.330  17.299  0.4675  0.5547  0.4528
  606TMC3    C5 9033   3.155   1.328  17.424  0.4126  0.2001  0.5185
  606TMC3    C6 9034   3.226   1.361  17.541  0.6836 -0.2947 -1.0735
  606TMC3     C 9035   3.399   1.342  17.156  0.5462  0.1568  0.2088
  606TMC3     O 9036   3.318   1.336  17.066  0.3995 -0.5988 -0.0874
  606TMC3     H 9037   3.517   1.454  17.383  1.2515 -2.2161 -2.7514
  606TMC3    H1 9038   3.156   1.303  17.210  0.2529  1.0099  0.4452
  606TMC3    H2 9039   3.180   1.334  17.635  2.8887  0.2437  0.1548
  606TMC3    C7 9040   3.046   1.239  17.451 -0.2988 -0.4798 -0.4486
  606TMC3    C8 9041   3.440   1.454  17.627  0.3000 -0.6290 -0.4344
  606TMC3    O1 9042   3.000   1.245  17.563  0.0325 -0.0799  0.1924
  606TMC3    O2 9043   3.561   1.481  17.611  0.1085  0.4634  1.0254
  607MPD2     C 9044   1.494   3.857  11.920  0.0451  0.0160  0.6880
  607MPD2    C1 9045   1.548   3.941  12.017  0.4228  0.1857  0.9966
  607MPD2    C2 9046   1.571   3.899  12.150  0.3333  0.1379 -0.2625
  607MPD2    C3 9047   1.545   3.766  12.173  0.1165 -0.8849  0.1654
  607MPD2    C4 9048   1.485   3.680  12.082  0.2000  0.4766 -0.2935
  607MPD2    C5 9049   1.462   3.730  11.958 -0.4115  0.0809  0.3235
  607MPD2     H 9050   1.615   3.963  12.226 -0.6585 -0.4416  0.8013
  607MPD2    H1 9051   1.448   3.580  12.102  1.2468 -0.1084 -1.2404
  607MPD2    H2 9052   1.452   3.886  11.824 -2.8794  1.0009  2.2386
  607MPD2    H3 9053   1.405   3.665  11.893  2.4501 -2.6330  0.5510
  607MPD2     N 9054   1.559   3.735  12.309  0.1880  0.4321  0.7545
  607MPD2    H5 9055   1.605   3.807  12.364  0.4825 -0.7572  2.0780
  607MPD2    N1 9056   1.612   4.064  11.985 -0.1928 -0.2788  0.6850
  607MPD2    H7 9057   1.650   4.120  12.060  0.0180  0.0739  0.3185
  608TMC3    C1 9058   1.729   4.223  11.879  0.2421 -0.0646 -0.1817
  608TMC3    C2 9059   1.812   4.209  11.982  0.2369  0.0344  0.1462
  608TMC3    C3 9060   1.898   4.312  12.017 -0.2214 -0.3308 -0.0158
  608TMC3    C4 9061   1.732   4.330  11.795  0.6594  1.0475 -0.3890
  608TMC3    C5 9062   1.818   4.430  11.832  0.0017 -0.1136 -0.0985
  608TMC3    C6 9063   1.896   4.433  11.946  0.4438 -0.2595  0.3523
  608TMC3     C 9064   1.633   4.115  11.860  0.1302  0.9832 -0.4924
  608TMC3     O 9065   1.602   4.095  11.747  0.4617  0.4586 -0.4503
  608TMC3     H 9066   1.825   4.113  12.032  1.0265  0.0910  0.0513
  608TMC3    H1 9067   1.674   4.332  11.703 -1.5154  0.1100  0.9629
  608TMC3    H2 9068   1.952   4.521  11.977 -0.4831  0.8609 -1.1894
  608TMC3    C7 9069   1.869   4.510  11.721  0.1327  0.0799 -0.4364
  608TMC3    C8 9070   1.952   4.324  12.149  0.0065  0.3807 -0.3992
  608TMC3    O1 9071   1.796   4.554  11.637  0.1855  0.1310  0.0749
  608TMC3    O2 9072   2.037   4.407  12.171  0.3498  0.1621  0.2375
  609TMC3    C1 9073   0.130   3.857  10.105 -0.9280  0.8851  0.2217
  609TMC3    C2 9074   0.105   3.954  10.019  0.4573  0.6124 -0.4349
  609TMC3    C3 9075   0.111   3.938   9.882 -0.0005 -0.5614  0.5305
  609TMC3    C4 9076   0.155   3.733  10.050 -0.8573 -0.5745  1.0003
  609TMC3    C5 9077   0.174   3.715   9.916 -0.1328 -0.3128 -0.0345
  609TMC3    C6 9078   0.157   3.821   9.828  0.9133 -0.1911  0.3295
  609TMC3     C 9079   0.081   3.865  10.239 -0.4033 -0.0541 -0.0523
  609TMC3     O 9080   0.032   3.763  10.293 -0.0321 -0.0989 -0.4175
  609TMC3     H 9081   0.067   4.048  10.058 -1.2525 -0.5888  0.8003
  609TMC3    H1 9082   0.187   3.652  10.115 -0.6884 -1.0560  0.3203
  609TMC3    H2 9083   0.158   3.812   9.720 -2.5035 -0.1708  0.2996
  609TMC3    C7 9084   0.241   3.592   9.867 -0.4657  0.0230  0.9899
  609TMC3    C8 9085   0.089   4.051   9.791  0.3666  0.4111  0.0070
  609TMC3    O1 9086   0.294   3.609   9.759 -0.1552 -0.2973 -0.0207
  609TMC3    O2 9087   0.120   4.026   9.676 -0.0704  0.3325  0.3432
  610TMC3    C1 9088   2.585   4.240  12.322  0.2538 -0.4161 -0.9366
  610TMC3    C2 9089   2.475   4.245  12.245 -0.1202 -0.3698  0.0026
  610TMC3    C3 9090   2.378   4.153  12.263  0.0597  0.1815 -0.1697
  610TMC3    C4 9091   2.589   4.157  12.428  0.5309 -0.5097  0.3730
  610TMC3    C5 9092   2.490   4.060  12.447  0.5596 -0.4388  0.8353
  610TMC3    C6 9093   2.394   4.053  12.353  0.3042 -0.1071 -0.3631
  610TMC3     C 9094   2.703   4.328  12.302  0.4893  0.2855 -0.7353
  610TMC3     O 9095   2.807   4.302  12.360 -0.1229 -0.8141 -0.5387
  610TMC3     H 9096   2.462   4.321  12.169  1.4550 -0.0917  0.0276
  610TMC3    H1 9097   2.672   4.154  12.498  1.0153 -1.3088 -0.2309
  610TMC3    H2 9098   2.327   3.970  12.374  0.0515 -0.3303 -2.1113
  610TMC3    C7 9099   2.510   3.957  12.545 -1.1135 -0.0005 -0.4927
  610TMC3    C8 9100   2.274   4.147  12.164 -0.3823  0.2482  0.0118
  610TMC3    O1 9101   2.627   3.935  12.575  0.0829 -0.1240  0.7876
  610TMC3    O2 9102   2.273   4.218  12.068 -0.0699 -0.0218 -1.0992
  611MPD2     C 9103   1.238   4.241  10.813 -0.1474  0.3907 -0.4280
  611MPD2    C1 9104   1.225   4.240  10.678 -0.6963 -0.0150 -0.4742
  611MPD2    C2 9105   1.329   4.287  10.594 -0.1938  0.5289  0.4335
  611MPD2    C3 9106   1.435   4.356  10.649  0.0375 -0.3640 -0.6443
  611MPD2    C4 9107   1.452   4.355  10.786 -0.3506  0.0359  0.6454
  611MPD2    C5 9108   1.355   4.288  10.861  0.0162  0.0882  0.2160
  611MPD2     H 9109   1.311   4.275  10.488 -0.7546 -2.8780  0.9015
  611MPD2    H1 9110   1.535   4.406  10.834  1.4479 -1.2911 -1.0554
  611MPD2    H2 9111   1.178   4.188  10.886 -0.5279  0.7568 -0.4783
  611MPD2    H3 9112   1.354   4.280  10.969 -2.2778 -1.7424  0.0590
  611MPD2     N 9113   1.538   4.404  10.568  0.8155  0.0571 -0.1499
  611MPD2    H5 9114   1.605   4.450  10.629 -0.4796  1.4888  0.2075
  611MPD2    N1 9115   1.123   4.155  10.636  0.7105 -0.2006  0.4059
  611MPD2    H7 9116   1.061   4.116  10.706  0.7827 -0.2269  0.4551
  612TMC3    C1 9117   1.662   4.458  10.366  0.6978 -0.0886  0.5049
  612TMC3    C2 9118   1.760   4.508  10.451 -0.0559 -0.4466 -0.1862
  612TMC3    C3 9119   1.872   4.559  10.387 -0.3381  0.4836 -0.4919
  612TMC3    C4 9120   1.656   4.477  10.232 -1.0061 -0.9460  0.9718
  612TMC3    C5 9121   1.766   4.534  10.179  0.1930 -0.6616  0.2602
  612TMC3    C6 9122   1.879   4.572  10.244  0.2047  0.1935 -0.0695
  612TMC3     C 9123   1.539   4.403  10.435  0.4176  0.4814  0.3533
  612TMC3     O 9124   1.443   4.385  10.360 -0.4948  0.4600  0.3738
  612TMC3     H 9125   1.752   4.507  10.559 -2.2428  0.7154 -0.3496
  612TMC3    H1 9126   1.574   4.434  10.176  1.3709 -2.2493 -1.5133
  612TMC3    H2 9127   1.964   4.602  10.184  0.5249  2.3179  1.4274
  612TMC3    C7 9128   1.761   4.582  10.045 -0.1232 -0.1202  0.1096
  612TMC3    C8 9129   1.983   4.613  10.455  0.8757  0.1371 -0.2569
  612TMC3    O1 9130   1.863   4.602   9.982  0.2423 -0.3155  0.8163
  612TMC3    O2 9131   2.066   4.676  10.390 -0.1999  0.1929  0.0732
  613MPD2     C 9132   0.675   1.428  16.799 -0.8595 -0.8329  0.1448
  613MPD2    C1 9133   0.567   1.503  16.785  0.2477 -0.1707  0.1440
  613MPD2    C2 9134   0.446   1.448  16.806  0.0113  0.7163 -0.1839
  613MPD2    C3 9135   0.432   1.313  16.852 -0.6188 -0.3371 -0.1843
  613MPD2    C4 9136   0.548   1.243  16.891  0.6749  0.4865 -0.1387
  613MPD2    C5 9137   0.666   1.305  16.857 -0.1560  0.1811 -0.0952
  613MPD2     H 9138   0.357   1.508  16.787 -0.5577  0.3060  1.1779
  613MPD2    H1 9139   0.545   1.144  16.935 -2.9845  0.6834  0.0998
  613MPD2    H2 9140   0.772   1.477  16.796 -0.7085 -1.1167  0.3841
  613MPD2    H3 9141   0.750   1.239  16.877  0.1036  0.9346  1.3030
  613MPD2     N 9142   0.306   1.254  16.871  0.0426  0.3934 -0.2708
  613MPD2    H5 9143   0.300   1.188  16.948  1.4596  1.6489  0.9075
  613MPD2    N1 9144   0.583   1.639  16.742  0.2834  0.3967  1.0460
  613MPD2    H7 9145   0.677   1.673  16.722  0.2364  0.5367  1.0632
  614TMC3    C1 9146   0.505   1.812  16.597 -0.3845  0.0766  0.0267
  614TMC3    C2 9147   0.603   1.780  16.511 -0.3672 -0.2748 -0.7560
  614TMC3    C3 9148   0.576   1.798  16.380 -0.3255 -0.7105  0.2595
  614TMC3    C4 9149   0.390   1.875  16.550 -0.2170  0.7415  0.5198
  614TMC3    C5 9150   0.374   1.896  16.420 -0.0640  0.0372 -0.2320
  614TMC3    C6 9151   0.464   1.855  16.328  0.1364  0.2008 -0.6517
  614TMC3     C 9152   0.477   1.723  16.707 -0.6260 -0.0087 -0.3761
  614TMC3     O 9153   0.369   1.729  16.760 -0.1329  0.0338  0.6986
  614TMC3     H 9154   0.703   1.746  16.537  0.0275  0.0397 -1.8420
  614TMC3    H1 9155   0.315   1.898  16.624 -0.3921 -2.8325  1.4550
  614TMC3    H2 9156   0.450   1.871  16.221  0.7316  0.2533 -0.7229
  614TMC3    C7 9157   0.241   1.928  16.383 -0.1626 -0.2963  0.4718
  614TMC3    C8 9158   0.689   1.798  16.288 -0.6153  0.3361 -0.2369
  614TMC3    O1 9159   0.158   1.976  16.462  0.4630  0.2235  0.2501
  614TMC3    O2 9160   0.711   1.897  16.215  0.7595 -0.3458 -0.2616
  615MPD2     C 9161   0.323   3.042  16.025 -0.2410 -0.0539 -0.4215
  615MPD2    C1 9162   0.410   3.145  16.024  0.5416  0.7029 -0.4881
  615MPD2    C2 9163   0.357   3.271  16.000  0.1223  0.4959  0.4292
  615MPD2    C3 9164   0.220   3.295  15.984  0.2662 -0.1806 -0.1062
  615MPD2    C4 9165   0.137   3.190  16.010  0.2160  0.1735  0.2064
  615MPD2    C5 9166   0.186   3.066  16.019  0.1412 -0.2199  0.1465
  615MPD2     H 9167   0.419   3.359  15.989 -2.1902  1.8162 -2.2858
  615MPD2    H1 9168   0.031   3.213  16.020  0.5124  0.2291  3.4500
  615MPD2    H2 9169   0.364   2.941  16.023  0.0353  0.0377  1.3788
  615MPD2    H3 9170   0.121   2.980  16.027 -1.2185  0.6029 -2.0745
  615MPD2     N 9171   0.161   3.418  15.947  0.3525 -0.1129  0.1516
  615MPD2    H5 9172   0.059   3.417  15.948  0.3493 -1.1402 -1.0200
  615MPD2    N1 9173   0.549   3.120  16.034  0.0856  0.2731 -0.3815
  615MPD2    H7 9174   0.582   3.024  16.024 -1.3214  0.1346 -3.7188
  616TMC3    C1 9175   0.777   3.171  16.028 -0.3514 -0.4269 -0.5300
  616TMC3    C2 9176   0.872   3.271  16.012 -0.3783  0.1541  0.0929
  616TMC3    C3 9177   0.996   3.242  16.046 -0.5316 -0.2701  0.3408
  616TMC3    C4 9178   0.812   3.042  16.064  0.1728 -0.6271 -0.0306
  616TMC3    C5 9179   0.944   3.018  16.095  0.8072 -0.4528  0.5455
  616TMC3    C6 9180   1.038   3.116  16.078 -0.0995 -0.1150  0.4314
  616TMC3     C 9181   0.642   3.218  16.044  0.9775  0.1330  0.2311
  616TMC3     O 9182   0.637   3.340  16.048 -0.1761  0.4070  0.8176
  616TMC3     H 9183   0.845   3.361  15.958 -0.6826  0.0770  0.1149
  616TMC3    H1 9184   0.733   2.969  16.075  0.2228 -0.4709  1.4333
  616TMC3    H2 9185   1.143   3.098  16.097  0.1704 -1.3863 -2.3553
  616TMC3    C7 9186   0.994   2.882  16.085 -0.2322 -0.7062 -0.1878
  616TMC3    C8 9187   1.094   3.345  16.029 -0.4547 -0.3413 -0.1385
  616TMC3    O1 9188   1.106   2.870  16.034  0.2159  0.1957  0.6567
  616TMC3    O2 9189   1.177   3.312  15.946  0.6097 -0.1880  0.0174
  617MPD2     C 9190   3.177   1.461  13.588  0.0566 -0.2460  0.4062
  617MPD2    C1 9191   3.200   1.423  13.713  0.4556 -0.3140 -0.2907
  617MPD2    C2 9192   3.095   1.393  13.796 -0.0333  0.3640 -0.0851
  617MPD2    C3 9193   2.962   1.422  13.759  0.4972  0.5823 -0.2393
  617MPD2    C4 9194   2.941   1.464  13.631  0.6622 -0.3490 -1.3411
  617MPD2    C5 9195   3.045   1.489  13.545 -0.4607 -0.3236  0.5033
  617MPD2     H 9196   3.109   1.352  13.895 -2.8523 -1.0083 -0.2576
  617MPD2    H1 9197   2.845   1.499  13.593 -0.0543  0.8828  1.5791
  617MPD2    H2 9198   3.263   1.494  13.531 -0.5575 -0.6113 -0.7346
  617MPD2    H3 9199   3.019   1.540  13.453  0.1865 -0.7601  0.0780
  617MPD2     N 9200   2.844   1.399  13.835  0.2851  0.8980 -0.0913
  617MPD2    H5 9201   2.757   1.425  13.789 -0.4678 -1.1470  0.1840
  617MPD2    N1 9202   3.336   1.403  13.743  0.2614  0.1498  0.3805
  617MPD2    H7 9203   3.395   1.440  13.669 -0.6257 -0.7807 -0.7873
  618TMC3    C1 9204   3.532   1.394  13.872 -0.0996 -0.6686  0.2913
  618TMC3    C2 9205   3.617   1.285  13.878  0.3173 -0.6801 -0.2202
  618TMC3    C3 9206   3.750   1.303  13.841 -0.1105  0.3932 -1.0984
  618TMC3    C4 9207   3.570   1.519  13.825  0.5522 -0.0060 -0.7637
  618TMC3    C5 9208   3.702   1.532  13.795  0.1912  0.1192  0.5917
  618TMC3    C6 9209   3.795   1.428  13.803 -0.3167  0.4116 -0.0432
  618TMC3     C 9210   3.392   1.364  13.863 -0.2893  0.0532  0.3288
  618TMC3     O 9211   3.353   1.281  13.944 -0.3762  0.6439  0.7656
  618TMC3     H 9212   3.590   1.187  13.915 -1.2605  0.9485  2.9363
  618TMC3    H1 9213   3.502   1.604  13.828  0.9711  0.2675  1.2448
  618TMC3    H2 9214   3.899   1.433  13.776  0.0287  0.5796  1.3158
  618TMC3    C7 9215   3.754   1.659  13.826 -0.2886 -0.0064  0.1702
  618TMC3    C8 9216   3.833   1.189  13.820  0.7089 -0.3771  0.0485
  618TMC3    O1 9217   3.710   1.695  13.934 -1.0117  0.2459  0.6975
  618TMC3    O2 9218   3.830   1.100  13.905  0.4395 -0.1989  0.1189
  619MPD2     C 9219   4.536   2.715  13.392 -0.8452 -0.0033 -0.0654
  619MPD2    C1 9220   4.428   2.804  13.412  0.4630  0.1614  0.3629
  619MPD2    C2 9221   4.317   2.763  13.476 -0.4416  0.7193  0.2233
  619MPD2    C3 9222   4.300   2.633  13.507  0.0373 -0.4976  0.1574
  619MPD2    C4 9223   4.403   2.544  13.482 -0.0525  0.0124  0.3138
  619MPD2    C5 9224   4.518   2.584  13.422 -0.8195 -0.0996 -0.1592
  619MPD2     H 9225   4.233   2.828  13.496  0.5733  2.0120  0.3170
  619MPD2    H1 9226   4.390   2.442  13.519  0.6985  0.0366  0.6402
  619MPD2    H2 9227   4.631   2.746  13.349 -0.5624 -0.6061  0.1188
  619MPD2    H3 9228   4.587   2.504  13.395 -0.5725 -0.6221  2.0400
  619MPD2     N 9229   4.173   2.590  13.563 -0.1380 -0.3120 -0.8015
  619MPD2    H5 9230   4.163   2.490  13.578  0.2217 -0.3871 -1.0754
  619MPD2    N1 9231   4.428   2.933  13.356 -0.0109  0.8924 -0.0542
  619MPD2    H7 9232   4.352   2.995  13.383 -0.2256 -0.2725  2.0178
  620TMC3    C1 9233   4.480   3.126  13.241  0.8287 -1.2257  0.0255
  620TMC3    C2 9234   4.357   3.148  13.180 -0.2064  0.0972 -0.5311
  620TMC3    C3 9235   4.302   3.274  13.195  0.2936  0.3566 -0.2716
  620TMC3    C4 9236   4.547   3.225  13.307  0.2132  0.0177 -0.1611
  620TMC3    C5 9237   4.487   3.353  13.309 -0.3230 -0.0872  0.4415
  620TMC3    C6 9238   4.370   3.380  13.242  0.1967  0.3414  0.6104
  620TMC3     C 9239   4.525   2.989  13.274 -0.6600 -0.3914 -0.6147
  620TMC3     O 9240   4.612   2.940  13.205 -0.0755 -0.6567 -0.0576
  620TMC3     H 9241   4.312   3.059  13.136 -0.1543 -0.0209 -0.3468
  620TMC3    H1 9242   4.629   3.206  13.374  0.6821  1.6496 -0.2576
  620TMC3    H2 9243   4.325   3.479  13.249 -3.4780 -1.3286  0.5755
  620TMC3    C7 9244   4.516   3.444  13.423  0.3705 -0.0316  0.5592
  620TMC3    C8 9245   4.170   3.279  13.253  0.3112 -0.6305 -0.7861
  620TMC3    O1 9246   4.629   3.427  13.472  0.3245 -0.3737  0.0997
  620TMC3    O2 9247   4.149   3.358  13.349  0.4475 -0.4498  0.2999
  621MPD2     C 9248   4.533   2.675  10.787 -0.0498 -0.2521 -0.9954
  621MPD2    C1 9249   4.642   2.614  10.739  0.1202 -0.7812  0.6184
  621MPD2    C2 9250   4.723   2.679  10.638 -0.0113 -0.8862 -1.0066
  621MPD2    C3 9251   4.687   2.804  10.598  0.2461 -0.0944 -0.8894
  621MPD2    C4 9252   4.587   2.869  10.661  0.0574 -0.1283  0.3649
  621MPD2    C5 9253   4.509   2.801  10.745 -0.5702 -0.2582  0.1178
  621MPD2     H 9254   0.069   2.626  10.596 -0.1696 -2.3014  0.4568
  621MPD2    H1 9255   4.570   2.976  10.652 -2.6130 -0.7226 -1.5995
  621MPD2    H2 9256   4.461   2.630  10.855 -1.4513 -0.1661 -2.4156
  621MPD2    H3 9257   4.418   2.849  10.781 -0.6036 -2.3439  2.8145
  621MPD2     N 9258   0.031   2.863  10.499  0.0926  0.2336  0.0708
  621MPD2    H5 9259   0.119   2.819  10.475 -0.8579 -1.2780 -0.6194
  621MPD2    N1 9260   4.679   2.484  10.778 -0.4656  0.1841 -0.1025
  621MPD2    H7 9261   0.021   2.447  10.727 -0.2978  1.1705 -0.5592
  622TMC3    C1 9262   4.680   2.271  10.897 -0.4079 -0.1858  0.2706
  622TMC3    C2 9263   4.657   2.217  11.024 -0.2171 -0.3352 -0.5562
  622TMC3    C3 9264   4.632   2.087  11.038  0.1467  0.2671  0.5353
  622TMC3    C4 9265   4.667   2.201  10.784 -0.0769 -0.4276 -0.2156
  622TMC3    C5 9266   4.638   2.068  10.794  0.0851 -0.0792  0.6714
  622TMC3    C6 9267   4.629   2.005  10.924 -0.6949  0.0416 -0.0586
  622TMC3     C 9268   4.638   2.412  10.890 -0.0354 -0.4487 -0.1581
  622TMC3     O 9269   4.568   2.453  10.981 -0.1413  0.7039 -0.1351
  622TMC3     H 9270   4.666   2.284  11.109  0.2837 -0.9821 -0.1024
  622TMC3    H1 9271   4.649   2.256  10.693 -2.4481 -2.2981 -0.8848
  622TMC3    H2 9272   4.606   1.899  10.930 -0.3829  0.0003  0.4291
  622TMC3    C7 9273   4.620   1.983  10.679 -0.0188 -0.0712  0.2898
  622TMC3    C8 9274   4.508   2.068  11.104  0.1124 -0.1362 -0.1778
  622TMC3    O1 9275   4.555   1.881  10.696 -0.8222 -0.1165  0.3140
  622TMC3    O2 9276   4.486   1.956  11.145  0.2488  0.0400 -0.2984
  623MPD2     C 9277   3.404   3.208  15.950  0.8470 -0.7488 -0.0724
  623MPD2    C1 9278   3.309   3.246  16.048  0.5115  0.6384  0.3394
  623MPD2    C2 9279   3.349   3.335  16.139 -0.1495 -0.5749  0.3857
  623MPD2    C3 9280   3.476   3.385  16.155 -0.3632  0.0062  0.0948
  623MPD2    C4 9281   3.567   3.348  16.067 -0.5553  0.2661  0.0168
  623MPD2    C5 9282   3.537   3.249  15.973  0.2756 -0.9969  0.0957
  623MPD2     H 9283   3.273   3.373  16.207 -0.3547 -2.3880  1.1790
  623MPD2    H1 9284   3.673   3.369  16.075 -0.5277  0.2273 -0.2537
  623MPD2    H2 9285   3.389   3.138  15.868 -1.6577 -1.9773  1.4543
  623MPD2    H3 9286   3.620   3.212  15.913  0.6327  0.2456 -0.1764
  623MPD2     N 9287   3.495   3.459  16.270  0.0093  0.8092  0.2390
  623MPD2    H5 9288   3.425   3.459  16.343 -0.9754  1.0472 -0.7015
  623MPD2    N1 9289   3.174   3.219  16.062 -0.2847  0.1028  0.4755
  623MPD2    H7 9290   3.122   3.262  16.137 -3.1118 -0.0318 -1.4006
  624TMC3    C1 9291   3.800   3.532  16.602 -0.3571 -0.4010 -0.4831
  624TMC3    C2 9292   3.698   3.540  16.696  0.4442  0.5305  0.3552
  624TMC3    C3 9293   3.569   3.543  16.645  0.3147  0.6847 -0.3496
  624TMC3    C4 9294   3.774   3.532  16.463  0.3982  0.4191  0.3672
  624TMC3    C5 9295   3.642   3.537  16.427  0.9685  0.1304 -0.3763
  624TMC3    C6 9296   3.537   3.535  16.513 -0.0823 -0.0737 -0.5380
  624TMC3     C 9297   3.934   3.499  16.649  0.3690  0.5628 -0.0353
  624TMC3     O 9298   3.942   3.452  16.764 -0.2746 -0.7940 -0.0258
  624TMC3     H 9299   3.722   3.537  16.802 -0.9332  3.2751  0.7537
  624TMC3    H1 9300   3.850   3.522  16.387 -0.2937  0.4723 -0.3272
  624TMC3    H2 9301   3.436   3.555  16.480 -1.0996 -2.8873  0.8856
  624TMC3    C7 9302   3.612   3.528  16.292 -0.6619  0.3680 -0.7364
  624TMC3    C8 9303   3.463   3.557  16.746  0.1245 -0.0112 -0.7107
  624TMC3    O1 9304   3.705   3.557  16.218 -0.2099  0.2641 -0.3825
  624TMC3    O2 9305   3.488   3.630  16.840 -0.3736 -0.3663  0.1821
  625MPD2     C 9306   3.912   0.314   1.113 -0.0163  0.2269 -0.2085
  625MPD2    C1 9307   3.896   0.412   1.019 -0.4402  0.7620 -0.1760
  625MPD2    C2 9308   3.994   0.442   0.932  0.3544  0.1475  0.1923
  625MPD2    C3 9309   4.119   0.395   0.955  0.4335 -0.6155  0.3199
  625MPD2    C4 9310   4.139   0.292   1.050 -0.4515  0.0344  0.3181
  625MPD2    C5 9311   4.033   0.250   1.127  0.5678  0.4020  0.0254
  625MPD2     H 9312   3.987   0.521   0.858 -0.3181 -0.8857 -0.8574
  625MPD2    H1 9313   4.238   0.253   1.072 -1.1230 -1.7875  0.1815
  625MPD2    H2 9314   3.828   0.271   1.167  1.5048 -0.3593  1.7066
  625MPD2    H3 9315   4.036   0.165   1.196  1.2924  0.5484  0.1780
  625MPD2     N 9316   4.229   0.441   0.871 -0.4743 -0.3135  0.4858
  625MPD2    H5 9317   4.200   0.506   0.799  1.0471  0.4979  0.6143
  625MPD2    N1 9318   3.772   0.478   1.010  0.3538 -0.0846 -0.2197
  625MPD2    H7 9319   3.769   0.529   0.922  0.7803  0.7949  0.2875
  626TMC3    C1 9320   3.543   0.531   1.036  0.6663 -0.6485 -0.7030
  626TMC3    C2 9321   3.507   0.523   0.904 -0.5085  0.1926  0.3296
  626TMC3    C3 9322   3.398   0.593   0.865  0.1003  0.3310 -0.5818
  626TMC3    C4 9323   3.470   0.608   1.119 -0.7872 -0.3650 -0.2603
  626TMC3    C5 9324   3.361   0.683   1.072 -0.1286 -0.4310 -0.3578
  626TMC3    C6 9325   3.318   0.674   0.944  0.1135  0.2979  0.5647
  626TMC3     C 9326   3.659   0.465   1.092  0.4047  0.5891 -0.1629
  626TMC3     O 9327   3.649   0.423   1.204 -0.2060  0.2619 -0.3284
  626TMC3     H 9328   3.570   0.477   0.828  1.5201 -0.1689  2.2446
  626TMC3    H1 9329   3.508   0.640   1.215 -1.8709 -1.4567  0.5281
  626TMC3    H2 9330   3.240   0.736   0.902  1.3978 -0.6456 -3.1768
  626TMC3    C7 9331   3.285   0.772   1.162 -0.0138  0.2196  0.1809
  626TMC3    C8 9332   3.321   0.545   0.754 -0.7193  0.7222  0.0543
  626TMC3    O1 9333   3.188   0.834   1.110 -0.3907 -0.3297  0.0617
  626TMC3    O2 9334   3.254   0.629   0.697  0.2823  0.2608  0.5169
  627MPD2     C 9335   2.232   0.227  14.313  0.2029 -0.0544  0.3609
  627MPD2    C1 9336   2.300   0.152  14.411 -0.7480  0.3811 -0.1761
  627MPD2    C2 9337   2.238   0.043  14.474  0.5437  0.7959 -0.0443
  627MPD2    C3 9338   2.115   0.007  14.435 -0.2439 -0.5882  0.5531
  627MPD2    C4 9339   2.046   0.080  14.337 -0.3456 -0.4503 -0.3925
  627MPD2    C5 9340   2.104   0.194  14.280  0.0185 -0.8042 -0.0189
  627MPD2     H 9341   2.287   4.719  14.549 -1.5111 -2.8181 -1.6605
  627MPD2    H1 9342   1.939   0.079  14.321 -0.1971 -0.4056 -1.4121
  627MPD2    H2 9343   2.280   0.311  14.265  0.5731 -0.3450  0.2254
  627MPD2    H3 9344   2.056   0.245  14.197  1.6920  1.7779  0.5869
  627MPD2     N 9345   2.059   4.626  14.492 -0.1402  0.3268 -0.0813
  627MPD2    H5 9346   2.119   4.574  14.555  1.6954  0.8656 -1.3698
  627MPD2    N1 9347   2.427   0.185  14.450 -0.1462 -0.5574  0.9052
  627MPD2    H7 9348   2.477   0.116  14.505  0.4040 -1.0210 -0.1862
  628TMC3    C1 9349   2.608   0.310  14.508 -0.2835  0.1869 -0.3557
  628TMC3    C2 9350   2.703   0.205  14.514 -0.1975  0.3556 -0.6012
  628TMC3    C3 9351   2.803   0.229  14.596 -0.3624 -0.3034  0.8567
  628TMC3    C4 9352   2.632   0.437  14.563 -0.2900 -0.3389 -0.6630
  628TMC3    C5 9353   2.744   0.448  14.641 -0.3849  0.6386  0.4331
  628TMC3    C6 9354   2.822   0.339  14.665  0.6203  0.2759  0.2379
  628TMC3     C 9355   2.498   0.296  14.419 -0.1146  0.0610 -0.0350
  628TMC3     O 9356   2.457   0.405  14.374 -0.0163 -0.3779 -0.3823
  628TMC3     H 9357   2.696   0.115  14.454  0.1412  0.1453 -0.3251
  628TMC3    H1 9358   2.556   0.513  14.555 -1.0526 -0.4891  4.9338
  628TMC3    H2 9359   2.910   0.356  14.726 -0.7452  1.4175  1.8853
  628TMC3    C7 9360   2.784   0.581  14.685  0.4024  0.0473 -0.6091
  628TMC3    C8 9361   2.918   0.141  14.572  0.1430 -0.0724 -0.0683
  628TMC3    O1 9362   2.848   0.591  14.788  0.3852 -0.3956 -0.2716
  628TMC3    O2 9363   2.932   0.112  14.455  0.1089 -0.1285  0.3460
  629MPD2     C 9364   1.210   3.841  15.993  0.0963 -0.4762 -0.0472
  629MPD2    C1 9365   1.139   3.814  16.110  0.1919 -0.4062  0.4437
  629MPD2    C2 9366   1.089   3.686  16.137  0.1184  0.5110  0.5392
  629MPD2    C3 9367   1.107   3.587  16.044  0.4253  0.4786 -0.3767
  629MPD2    C4 9368   1.161   3.616  15.923  0.0628 -0.2651 -0.0267
  629MPD2    C5 9369   1.219   3.738  15.905 -0.0459  0.0410  0.2487
  629MPD2     H 9370   1.044   3.667  16.234  2.1570  0.2939  1.4575
  629MPD2    H1 9371   1.163   3.540  15.846 -2.7161 -0.5794  0.1824
  629MPD2    H2 9372   1.236   3.944  15.971 -0.7719 -0.7773 -2.4863
  629MPD2    H3 9373   1.247   3.764  15.803  3.2808 -0.5284  1.0162
  629MPD2     N 9374   1.050   3.463  16.080  0.5502 -0.5531  0.3091
  629MPD2    H5 9375   0.991   3.461  16.163  0.1121 -1.7176 -0.0310
  629MPD2    N1 9376   1.154   3.911  16.219  0.4621 -0.4325  0.1714
  629MPD2    H7 9377   1.207   3.996  16.204  1.8659 -1.5313 -1.0639
  630TMC3    C1 9378   1.211   3.963  16.436  0.2206  1.0844  0.4338
  630TMC3    C2 9379   1.314   4.044  16.398  0.3583  0.4234 -0.0313
  630TMC3    C3 9380   1.385   4.107  16.485 -0.9712 -0.0306  0.5196
  630TMC3    C4 9381   1.185   3.946  16.573 -0.3261  0.1750  0.1414
  630TMC3    C5 9382   1.263   4.013  16.663 -0.2130  0.6570 -0.1485
  630TMC3    C6 9383   1.362   4.103  16.625  0.5850 -0.1160  0.6612
  630TMC3     C 9384   1.136   3.880  16.350 -0.2363 -0.3257  0.4666
  630TMC3     O 9385   1.051   3.805  16.399  0.3948  0.0924  0.5422
  630TMC3     H 9386   1.337   4.063  16.294  0.7606 -4.4846 -0.8501
  630TMC3    H1 9387   1.116   3.872  16.613 -0.4848 -1.5535 -3.3695
  630TMC3    H2 9388   1.431   4.152  16.692 -1.3241  2.6015  0.6081
  630TMC3    C7 9389   1.259   3.973  16.803  1.1309  0.0249 -0.4992
  630TMC3    C8 9390   1.483   4.205  16.447  0.3114  0.0680 -0.2213
  630TMC3    O1 9391   1.174   3.890  16.843 -0.2044  0.2771 -0.3386
  630TMC3    O2 9392   1.560   4.240  16.538  0.6035  0.2110 -0.0140
  631MPD2     C 9393   4.051   3.826  15.655 -0.3229  0.5840  0.2134
  631MPD2    C1 9394   4.125   3.940  15.682 -0.2630 -0.5089  0.2168
  631MPD2    C2 9395   4.262   3.930  15.704 -0.3660  0.1570  0.2971
  631MPD2    C3 9396   4.330   3.811  15.700  0.0977  0.8351 -0.3258
  631MPD2    C4 9397   4.251   3.695  15.671 -0.3209  0.3126 -0.7559
  631MPD2    C5 9398   4.111   3.702  15.652  0.0820  0.2819  0.3102
  631MPD2     H 9399   4.312   4.021  15.736 -1.6077  0.8397  0.3293
  631MPD2    H1 9400   4.295   3.602  15.637 -1.3213 -0.6876  0.6885
  631MPD2    H2 9401   3.945   3.835  15.637 -0.8218 -2.8168  1.3901
  631MPD2    H3 9402   4.052   3.613  15.632 -1.8179  1.1750  1.9242
  631MPD2     N 9403   4.469   3.803  15.715  0.2229 -0.1867 -0.1784
  631MPD2    H5 9404   4.519   3.890  15.703 -1.1320  0.5220 -0.6403
  631MPD2    N1 9405   4.045   4.059  15.691 -0.4041 -0.1522 -0.0822
  631MPD2    H7 9406   3.946   4.042  15.684 -0.6134  0.1505  2.0870
  632TMC3    C1 9407   3.988   4.270  15.680  0.6775 -1.1098  0.0964
  632TMC3    C2 9408   3.866   4.224  15.705  0.3409 -0.3336 -0.3001
  632TMC3    C3 9409   3.764   4.249  15.614  0.5679 -0.3480  0.0063
  632TMC3    C4 9410   4.011   4.344  15.567  0.4337 -0.0726 -0.6747
  632TMC3    C5 9411   3.909   4.359  15.477  0.3812 -0.2604  0.4314
  632TMC3    C6 9412   3.786   4.315  15.505  0.1668  0.7250 -0.2360
  632TMC3     C 9413   4.095   4.183  15.711 -0.2968 -0.9105 -0.3062
  632TMC3     O 9414   4.211   4.226  15.707  0.3561  0.1549 -0.4461
  632TMC3     H 9415   3.845   4.163  15.792 -0.7403  1.1275  0.4640
  632TMC3    H1 9416   4.110   4.384  15.549  0.3019  0.7429  0.3979
  632TMC3    H2 9417   3.707   4.305  15.431 -0.3755  1.1871  0.2743
  632TMC3    C7 9418   3.945   4.316  15.340 -0.2571 -0.5602  0.0024
  632TMC3    C8 9419   3.632   4.190  15.636 -0.3239  0.0538  0.3705
  632TMC3    O1 9420   3.875   4.336  15.244 -0.0068  0.3198  0.6970
  632TMC3    O2 9421   3.633   4.081  15.691 -0.1039 -0.4065  0.4919
  633MPD2     C 9422   2.966   1.468  17.095  0.2474  0.1187 -0.6032
  633MPD2    C1 9423   2.989   1.443  16.958 -0.1326  0.1147  0.0169
  633MPD2    C2 9424   2.898   1.353  16.905  0.2013  0.8790  0.5047
  633MPD2    C3 9425   2.795   1.289  16.972  0.5975  0.1962 -0.8477
  633MPD2    C4 9426   2.773   1.324  17.100 -0.8065 -0.1780  0.2769
  633MPD2    C5 9427   2.865   1.406  17.164 -0.2378 -0.0272 -0.5646
  633MPD2     H 9428   2.907   1.344  16.797  0.5277 -1.1915  0.6918
  633MPD2    H1 9429   2.693   1.281  17.160 -0.3309 -0.8847  0.4010
  633MPD2    H2 9430   3.024   1.540  17.151 -1.2973  2.0006 -1.4042
  633MPD2    H3 9431   2.848   1.440  17.265  2.8162 -1.1760  0.3338
  633MPD2     N 9432   2.722   1.181  16.907 -0.6274 -0.2681  0.2162
  633MPD2    H5 9433   2.653   1.137  16.967 -0.9383 -0.4376 -0.2658
  633MPD2    N1 9434   3.088   1.506  16.878 -0.0418 -0.1114 -0.4899
  633MPD2    H7 9435   3.096   1.479  16.781  1.1836 -0.2957 -0.3479
  634TMC3    C1 9436   3.284   1.629  16.842  0.0652  0.2723 -0.4204
  634TMC3    C2 9437   3.324   1.538  16.751  0.2895 -0.4102  0.4151
  634TMC3    C3 9438   3.430   1.572  16.663 -1.3193 -0.3878  0.9792
  634TMC3    C4 9439   3.331   1.757  16.846  1.2352  0.5218  0.0948
  634TMC3    C5 9440   3.421   1.796  16.750  0.0690 -1.0126  0.1163
  634TMC3    C6 9441   3.466   1.704  16.654  0.6853 -0.3759 -0.4023
  634TMC3     C 9442   3.183   1.598  16.934 -0.6329 -0.5884 -0.3455
  634TMC3     O 9443   3.174   1.652  17.042  0.6687  0.6253  0.1254
  634TMC3     H 9444   3.307   1.432  16.765 -2.4219  0.0746  0.6849
  634TMC3    H1 9445   3.308   1.812  16.936 -1.1296 -1.1845  0.5425
  634TMC3    H2 9446   3.536   1.743  16.580  0.3471 -0.6328 -0.8584
  634TMC3    C7 9447   3.446   1.942  16.717  0.8996  0.0646 -1.2629
  634TMC3    C8 9448   3.452   1.476  16.557 -0.3956  0.1022 -0.5936
  634TMC3    O1 9449   3.508   1.965  16.616  0.2772 -0.3413 -0.2691
  634TMC3    O2 9450   3.418   1.363  16.571 -0.3288  0.6440  0.3818
  635TMC3    C1 9451   3.064   3.318   0.863 -0.6651 -0.1343 -1.0444
  635TMC3    C2 9452   3.136   3.219   0.806  0.7144 -0.7262 -0.0753
  635TMC3    C3 9453   3.120   3.095   0.859  0.5114 -0.1125 -0.3153
  635TMC3    C4 9454   2.974   3.300   0.962  0.1219  0.0770 -0.1533
  635TMC3    C5 9455   2.959   3.177   1.008 -0.3955 -0.2350 -0.7128
  635TMC3    C6 9456   3.036   3.075   0.961  0.4820  0.4313 -0.1012
  635TMC3     C 9457   3.139   3.443   0.877  0.0687  0.1813 -0.2661
  635TMC3     O 9458   3.114   3.519   0.969  0.0977 -0.6947  0.3649
  635TMC3     H 9459   3.231   3.236   0.756 -0.2624  1.2101 -1.2456
  635TMC3    H1 9460   2.934   3.389   1.008 -1.1888 -0.0846 -0.9616
  635TMC3    H2 9461   3.020   2.972   0.992 -1.2867  0.3594 -1.2466
  635TMC3    C7 9462   2.864   3.152   1.112  0.4330 -0.1343  0.1668
  635TMC3    C8 9463   3.176   2.978   0.797  0.2962 -0.3455  0.0946
  635TMC3    O1 9464   2.778   3.241   1.125  0.2121  0.5823  0.2489
  635TMC3    O2 9465   3.141   2.871   0.852  0.4227  0.1468  0.3983
  636MPD2     C 9466   4.439   1.921  16.357 -0.1206  0.6103  0.0435
  636MPD2    C1 9467   4.520   1.934  16.464 -0.8531 -0.0917 -0.0408
  636MPD2    C2 9468   4.601   1.826  16.502  0.2044  0.1701 -0.5898
  636MPD2    C3 9469   4.599   1.709  16.428  0.0222  0.5700 -0.4187
  636MPD2    C4 9470   4.512   1.698  16.320  0.1094  0.6070  0.0570
  636MPD2    C5 9471   4.429   1.802  16.285 -0.0795 -0.8523  0.4229
  636MPD2     H 9472   4.664   1.832  16.590  1.2214 -0.1949 -1.2975
  636MPD2    H1 9473   4.500   1.614  16.254 -0.9383  0.3593  0.5599
  636MPD2    H2 9474   4.373   2.002  16.328 -1.0378 -0.1735 -0.0749
  636MPD2    H3 9475   4.360   1.800  16.202 -1.6318 -0.1751  1.7068
  636MPD2     N 9476   4.665   1.598  16.480 -0.0052 -0.3939  0.7672
  636MPD2    H5 9477   4.717   1.611  16.566 -0.4498 -1.8644  1.2577
  636MPD2    N1 9478   4.537   2.056  16.537  0.0124 -0.3315  0.5491
  636MPD2    H7 9479   4.599   2.052  16.618 -0.1800  0.6767  0.7465
  637TMC3    C1 9480   0.061   1.401  16.482 -0.0920 -0.5064 -0.3312
  637TMC3    C2 9481   0.062   1.385  16.619  0.2303  0.5282  0.0752
  637TMC3    C3 9482   0.176   1.326  16.674  0.1718  0.3152 -0.4984
  637TMC3    C4 9483   0.152   1.345  16.402  0.1701 -0.3446 -0.1901
  637TMC3    C5 9484   0.274   1.299  16.461  0.3147  0.6763 -0.0188
  637TMC3    C6 9485   0.275   1.272  16.597 -0.3366  0.5281 -0.3456
  637TMC3     C 9486   4.698   1.481  16.414 -0.7637  0.5699 -0.3726
  637TMC3     O 9487   4.659   1.446  16.304 -0.1762  0.7970  0.0055
  637TMC3     H 9488   4.721   1.426  16.681 -0.4640 -0.7871  0.0724
  637TMC3    H1 9489   0.151   1.367  16.295 -0.6617  0.5633 -0.0022
  637TMC3    H2 9490   0.357   1.211  16.635 -1.3040  0.3326  1.4120
  637TMC3    C7 9491   0.395   1.356  16.405  0.2158  0.1416  0.5824
  637TMC3    C8 9492   0.182   1.297  16.818  0.2151 -0.8725  0.4863
  637TMC3    O1 9493   0.384   1.417  16.301 -0.1726  0.1059 -0.4539
  637TMC3    O2 9494   0.073   1.263  16.864 -0.0703  0.3027 -0.2456
  638MPD2     C 9495   0.042   0.667  15.013  0.6080  0.6868  0.2016
  638MPD2    C1 9496   0.048   0.544  14.965 -0.2951 -0.8323 -0.2936
  638MPD2    C2 9497   0.028   0.437  15.049 -0.7340  0.0415  0.2900
  638MPD2    C3 9498   4.728   0.468  15.184 -0.5944  0.0235 -0.7423
  638MPD2    C4 9499   4.709   0.601  15.228 -0.2728 -0.6149 -0.0423
  638MPD2    C5 9500   0.001   0.698  15.135  0.1422 -0.0561 -0.3856
  638MPD2     H 9501   0.042   0.335  15.014 -2.2072  1.2413 -3.7095
  638MPD2    H1 9502   4.662   0.626  15.323 -0.3471  2.8599 -1.0045
  638MPD2    H2 9503   0.040   0.744  14.936 -2.3820 -1.3286 -1.7411
  638MPD2    H3 9504   4.712   0.799  15.165  3.0358  0.8460 -0.8362
  638MPD2     N 9505   4.692   0.360  15.264 -0.0679  0.7717 -0.1946
  638MPD2    H5 9506   4.716   0.275  15.214 -1.6701  0.1421  0.1131
  638MPD2    N1 9507   0.079   0.527  14.833 -0.4169 -0.4783 -0.6268
  638MPD2    H7 9508   0.124   0.599  14.777 -0.7617  0.6066  0.5082
  639TMC3    C1 9509   4.561   0.225  15.380 -0.4113 -0.0963  0.0848
  639TMC3    C2 9510   4.509   0.183  15.264 -0.3056  0.1257  0.5118
  639TMC3    C3 9511   4.536   0.056  15.224  0.0797  0.0497 -0.9874
  639TMC3    C4 9512   4.632   0.142  15.456 -0.8867 -0.3444 -0.0279
  639TMC3    C5 9513   4.674   0.029  15.408 -0.4217  0.2712  0.0538
  639TMC3    C6 9514   4.624   4.720  15.288  0.2002  0.5262  0.9225
  639TMC3     C 9515   4.616   0.354  15.375  0.5062  0.0245 -0.4176
  639TMC3     O 9516   4.572   0.444  15.447  0.3209  0.2631  0.2214
  639TMC3     H 9517   4.453   0.253  15.203 -3.7384 -1.1252  2.2377
  639TMC3    H1 9518   4.679   0.184  15.545 -1.6946 -1.5157  0.9525
  639TMC3    H2 9519   4.649   4.620  15.252 -0.8558  0.3458  0.6983
  639TMC3    C7 9520   0.054   4.706  15.464  0.6658  0.1160  0.2729
  639TMC3    C8 9521   4.471   4.731  15.112 -0.7170 -0.1694 -0.1932
  639TMC3    O1 9522   0.075   4.716  15.584  0.2940 -0.8124 -0.2122
  639TMC3    O2 9523   4.525   4.630  15.066 -0.9919 -0.0079 -0.1785
  640MPD2     C 9524   1.100   4.247  10.040  0.3944  0.1475  0.4634
  640MPD2    C1 9525   0.972   4.289  10.010 -0.0812 -0.5971 -0.1878
  640MPD2    C2 9526   0.900   4.357  10.102 -0.5663 -0.2155  1.1889
  640MPD2    C3 9527   0.956   4.394  10.221  0.0946  0.9231  0.4344
  640MPD2    C4 9528   1.086   4.358  10.244 -0.2064 -0.1884  0.2093
  640MPD2    C5 9529   1.152   4.278  10.159 -0.2637  0.1325 -0.1883
  640MPD2     H 9530   0.800   4.382  10.068  0.0430 -1.3892 -1.4755
  640MPD2    H1 9531   1.126   4.379  10.343 -1.4328  0.9053  0.4801
  640MPD2    H2 9532   1.161   4.186   9.975  1.8480  2.5375 -0.4322
  640MPD2    H3 9533   1.251   4.241  10.182 -0.3279  0.9932  1.4195
  640MPD2     N 9534   0.886   4.469  10.320 -0.1138 -0.0744  0.5507
  640MPD2    H5 9535   0.946   4.510  10.391 -1.1519 -0.6452  1.7445
  640MPD2    N1 9536   0.925   4.268   9.881  0.4262 -0.0344  0.1586
  640MPD2    H7 9537   0.983   4.221   9.812  0.0204  1.9501 -1.5387
  641TMC3    C1 9538   0.784   4.270   9.686 -0.0833 -0.3141 -0.1091
  641TMC3    C2 9539   0.821   4.149   9.628 -0.0738 -0.0185  0.4569
  641TMC3    C3 9540   0.811   4.139   9.493  0.2463  0.1381  0.3593
  641TMC3    C4 9541   0.745   4.382   9.614 -0.9986 -0.7115 -0.1787
  641TMC3    C5 9542   0.751   4.367   9.479 -0.1654  0.4737  0.1572
  641TMC3    C6 9543   0.783   4.252   9.419 -0.3325  0.2214 -0.5800
  641TMC3     C 9544   0.801   4.300   9.825 -0.1335  0.2711  0.5341
  641TMC3     O 9545   0.711   4.370   9.872 -0.0500 -0.0918 -0.1423
  641TMC3     H 9546   0.850   4.067   9.692  1.2304  0.2956  0.2617
  641TMC3    H1 9547   0.737   4.476   9.667 -1.3284 -0.3632 -0.8388
  641TMC3    H2 9548   0.770   4.242   9.312 -0.2528 -1.4470 -0.4326
  641TMC3    C7 9549   0.722   4.494   9.410 -0.9354  0.5629 -0.5516
  641TMC3    C8 9550   0.834   4.008   9.430 -0.5048 -0.3243  0.8495
  641TMC3    O1 9551   0.697   4.592   9.472 -0.0545 -0.0979  0.3890
  641TMC3    O2 9552   0.837   3.918   9.514  0.1667  0.4034 -0.1696
  642TMC3    C1 9553   1.759   4.725  12.888  0.3045  0.5208  0.6215
  642TMC3    C2 9554   1.877   4.717  12.805 -0.0555 -0.4007  0.0315
  642TMC3    C3 9555   1.895   4.597  12.748 -0.3577  0.2549  0.5289
  642TMC3    C4 9556   1.663   4.618  12.900  0.5759 -0.6346  0.2811
  642TMC3    C5 9557   1.691   4.505  12.826  0.5740  0.1071  0.4283
  642TMC3    C6 9558   1.804   4.493  12.757 -0.4951 -0.5041 -0.2921
  642TMC3     C 9559   1.733   0.120  12.943 -0.8643 -0.5048  0.0873
  642TMC3     O 9560   1.826   0.196  12.937  0.1676  0.1963  0.0923
  642TMC3     H 9561   1.943   0.063  12.785 -0.0705 -0.9127 -2.0899
  642TMC3    H1 9562   1.584   4.624  12.974  0.5522 -0.8265  0.2710
  642TMC3    H2 9563   1.820   4.411  12.688  4.6163  1.3886 -1.3839
  642TMC3    C7 9564   1.583   4.403  12.837  0.4002 -0.8438 -0.8724
  642TMC3    C8 9565   1.945   4.604  12.610 -0.5185 -0.3248  0.1083
  642TMC3    O1 9566   1.516   4.403  12.942  1.2319  0.0648 -0.2675
  642TMC3    O2 9567   1.883   4.555  12.518  0.0930 -0.3809  0.0891
  643TMC3    C1 9568   0.414   4.348   0.414 -0.3981 -0.4409  1.0535
  643TMC3    C2 9569   0.295   4.311   0.353  0.3238  0.4275 -0.1404
  643TMC3    C3 9570   0.305   4.214   0.259 -0.2880 -0.6557  0.0485
  643TMC3    C4 9571   0.538   4.313   0.362 -0.6872 -0.2155 -0.4982
  643TMC3    C5 9572   0.535   4.222   0.261 -0.2166 -0.2879 -0.0908
  643TMC3    C6 9573   0.421   4.171   0.217  0.5012 -0.4315 -0.0632
  643TMC3     C 9574   0.415   4.452   0.510 -0.6071 -0.2739 -0.4905
  643TMC3     O 9575   0.321   4.534   0.498 -0.0794  0.4947 -0.2623
  643TMC3     H 9576   0.201   4.356   0.381  0.2318  0.5392 -0.6253
  643TMC3    H1 9577   0.637   4.347   0.388 -1.2374  1.2412 -0.3077
  643TMC3    H2 9578   0.429   4.104   0.132  0.2896  1.0463 -1.2410
  643TMC3    C7 9579   0.620   4.279   0.156 -0.0985 -0.3289  0.0540
  643TMC3    C8 9580   0.237   4.242   0.133 -0.3534 -0.1405 -0.0175
  643TMC3    O1 9581   0.631   4.398   0.162  0.4346 -0.3498 -0.6991
  643TMC3    O2 9582   0.227   4.153   0.049  0.4635 -0.0832  0.4553
  644MPD2     C 9583   1.023   0.108  10.072 -0.2514  0.0383  0.5538
  644MPD2    C1 9584   0.988   0.007   9.989 -0.6385  0.0017  0.8464
  644MPD2    C2 9585   0.865   4.680  10.011 -0.2161  0.2360 -0.3680
  644MPD2    C3 9586   0.780   4.727  10.108  0.3305  0.1781  0.0755
  644MPD2    C4 9587   0.824   0.091  10.195 -0.7579  0.3649 -0.3561
  644MPD2    C5 9588   0.946   0.151  10.171  0.1668 -0.0745  0.1000
  644MPD2     H 9589   0.819   4.610   9.941  1.3417  0.7724 -1.9332
  644MPD2    H1 9590   0.748   0.134  10.259  0.0291  0.8677  0.2326
  644MPD2    H2 9591   1.118   0.159  10.060 -0.4468  0.3593  0.3910
  644MPD2    H3 9592   0.986   0.231  10.232  1.4365 -2.2211  2.0761
  644MPD2     N 9593   0.654   4.673  10.112  0.3063  0.5183 -0.1412
  644MPD2    H5 9594   0.634   4.595  10.050 -0.5400  0.2202  0.5059
  644MPD2    N1 9595   1.081   4.699   9.894 -0.3125 -0.1077  0.0998
  644MPD2    H7 9596   1.177   4.732   9.899  0.0275 -1.0894 -0.0763
  645TMC3    C1 9597   0.431   4.634  10.188 -0.4951  0.5719  0.3466
  645TMC3    C2 9598   0.319   4.681  10.244  0.9824  0.2053 -0.0853
  645TMC3    C3 9599   0.209   4.605  10.232 -0.3720  0.4866 -0.2831
  645TMC3    C4 9600   0.444   4.506  10.146 -0.4435 -0.2383 -0.0264
  645TMC3    C5 9601   0.335   4.426  10.156 -0.0824  0.1020  0.4407
  645TMC3    C6 9602   0.216   4.473  10.193  0.0251  0.1755  0.0510
  645TMC3     C 9603   0.552   4.715  10.195  0.6112 -0.0417 -0.4068
  645TMC3     O 9604   0.545   0.075  10.267 -0.5971 -0.8266 -0.0349
  645TMC3     H 9605   0.311   0.048  10.271  1.4815  0.6376 -1.6253
  645TMC3    H1 9606   0.535   4.472  10.097  0.6604  2.7583 -0.0467
  645TMC3    H2 9607   0.129   4.410  10.213 -0.0582  0.2961  0.0663
  645TMC3    C7 9608   0.341   4.280  10.130  0.3974  0.3063  0.0735
  645TMC3    C8 9609   0.085   4.679  10.221 -0.2969 -0.5253 -0.8475
  645TMC3    O1 9610   0.235   4.226  10.100 -0.3863  0.2988 -0.4151
  645TMC3    O2 9611   0.093   0.060  10.243  0.3480 -0.5274 -0.3998
  646MPD2     C 9612   0.116   3.976  14.638  0.4123  0.4386 -0.3702
  646MPD2    C1 9613   0.033   3.975  14.749  0.2008 -0.8457  0.4800
  646MPD2    C2 9614   4.643   4.021  14.740  0.0394 -0.4915  0.1238
  646MPD2    C3 9615   4.590   4.069  14.622  0.0694  0.1396  0.4943
  646MPD2    C4 9616   4.674   4.080  14.511  0.3808  0.1737  0.6583
  646MPD2    C5 9617   0.065   4.024  14.523 -0.2181  0.7827 -0.4664
  646MPD2     H 9618   4.574   4.013  14.823 -2.7379  0.0454 -2.1346
  646MPD2    H1 9619   4.658   4.125  14.414  0.9914  3.0326  1.8821
  646MPD2    H2 9620   0.218   3.941  14.627  1.2868  2.8662  0.0335
  646MPD2    H3 9621   0.123   4.042  14.433 -2.4151  1.2008 -1.8055
  646MPD2     N 9622   4.456   4.098  14.610  0.3510 -0.2717 -0.4085
  646MPD2    H5 9623   4.393   4.078  14.688  1.5902  1.6236  1.0625
  646MPD2    N1 9624   0.089   3.924  14.868 -0.6699 -0.0492 -0.3803
  646MPD2    H7 9625   0.185   3.891  14.873 -0.7693 -0.2468  0.3387
  647TMC3    C1 9626   0.106   3.812  15.066  0.2153  0.1205  0.4316
  647TMC3    C2 9627   0.092   3.828  15.197  0.5742  0.3969 -0.2148
  647TMC3    C3 9628   0.182   3.788  15.287  0.0708  0.2160  0.2375
  647TMC3    C4 9629   0.218   3.752  15.011  0.0346 -0.7843 -0.3560
  647TMC3    C5 9630   0.308   3.716  15.101 -0.4370 -0.6064 -0.3855
  647TMC3    C6 9631   0.293   3.725  15.240 -0.3202 -0.1437 -0.2269
  647TMC3     C 9632   0.021   3.895  14.981  0.9231  0.4520  0.7542
  647TMC3     O 9633   4.657   3.942  15.025  0.1160  0.0648 -0.8098
  647TMC3     H 9634   4.735   3.873  15.226  1.0220  0.3323  1.3663
  647TMC3    H1 9635   0.237   3.734  14.906  2.0274  2.0035 -0.4528
  647TMC3    H2 9636   0.366   3.683  15.309 -0.0638  1.6843  0.6040
  647TMC3    C7 9637   0.359   3.586  15.080  0.0267 -0.1860  0.0730
  647TMC3    C8 9638   0.139   3.732  15.408  0.1405  0.3815 -0.2907
  647TMC3    O1 9639   0.479   3.576  15.102  0.5085  0.3840  0.8725
  647TMC3    O2 9640   0.220   3.731  15.503 -0.2885 -0.3217  0.1422
  648TMC3    C1 9641   3.978   1.657  16.273  0.2789  0.4800  0.3158
  648TMC3    C2 9642   4.015   1.528  16.239 -0.0706 -0.4170 -0.3037
  648TMC3    C3 9643   4.049   1.500  16.111 -0.6224  0.1129  0.4485
  648TMC3    C4 9644   3.953   1.744  16.173 -0.0736 -0.2256 -0.2898
  648TMC3    C5 9645   3.977   1.710  16.045  0.2852 -0.1387 -0.2372
  648TMC3    C6 9646   4.026   1.587  16.006  0.6084 -0.9330 -0.3424
  648TMC3     C 9647   3.931   1.698  16.403  0.2392 -0.4671  0.1903
  648TMC3     O 9648   3.904   1.820  16.405 -0.2407 -0.1563  0.6444
  648TMC3     H 9649   4.036   1.460  16.321  1.4475  1.6565  1.0251
  648TMC3    H1 9650   3.925   1.847  16.194 -2.0322 -0.2234 -2.9259
  648TMC3    H2 9651   4.075   1.579  15.909  0.8727 -0.2494 -0.2629
  648TMC3    C7 9652   3.960   1.809  15.942 -0.1320  0.2530  0.2395
  648TMC3    C8 9653   4.072   1.357  16.086 -0.1934 -0.6540  0.2613
  648TMC3    O1 9654   4.048   1.811  15.856 -0.7705 -0.3520  0.8638
  648TMC3    O2 9655   4.056   1.278  16.178  0.0242  0.4500 -0.2769
  649TMC3    C1 9656   3.164   2.355  12.708  0.2216 -0.5989 -0.0302
  649TMC3    C2 9657   3.285   2.395  12.749  0.2656  0.5698  0.2931
  649TMC3    C3 9658   3.326   2.372  12.873 -0.4600 -0.5069  0.9627
  649TMC3    C4 9659   3.074   2.293  12.794  0.2933  0.1045  0.0265
  649TMC3    C5 9660   3.119   2.276  12.923 -0.1406  0.2285 -0.7720
  649TMC3    C6 9661   3.236   2.327  12.965 -0.7899  0.2694  0.5355
  649TMC3     C 9662   3.123   2.395  12.575  0.8718  0.1222 -1.2792
  649TMC3     O 9663   3.009   2.435  12.565 -0.5710  0.5600 -0.4190
  649TMC3     H 9664   3.344   2.446  12.674  0.5081 -2.8313 -1.8711
  649TMC3    H1 9665   2.973   2.264  12.768  1.3954 -1.1391 -2.8975
  649TMC3    H2 9666   3.265   2.321  13.069 -2.1813 -3.0460  0.7347
  649TMC3    C7 9667   3.031   2.252  13.034  0.7998  0.4667 -0.1917
  649TMC3    C8 9668   3.445   2.432  12.926 -0.1129 -0.3884  0.7446
  649TMC3    O1 9669   3.049   2.317  13.135 -0.0187 -0.0606  0.4507
  649TMC3    O2 9670   3.451   2.439  13.046 -0.2416 -0.6591 -0.8517
  650TMC3    C1 9671   0.972   3.972  12.957 -0.3596  0.1048  0.8275
  650TMC3    C2 9672   0.885   4.050  13.038  0.1788  0.2737 -0.2605
  650TMC3    C3 9673   0.754   4.051  13.013  0.0071 -0.3603  0.7515
  650TMC3    C4 9674   0.923   3.912  12.835 -0.4290  0.0628  0.4639
  650TMC3    C5 9675   0.784   3.922  12.813 -0.0915  0.3368 -0.2399
  650TMC3    C6 9676   0.709   3.991  12.904  0.7378 -0.7188 -0.0942
  650TMC3     C 9677   1.089   3.919  13.032  0.5605  0.3048  0.1410
  650TMC3     O 9678   1.151   4.003  13.100  0.1508 -0.6847 -0.0822
  650TMC3     H 9679   0.924   4.107  13.122  0.3310 -0.2482  0.0221
  650TMC3    H1 9680   0.979   3.852  12.763 -3.0084 -4.2110  2.0032
  650TMC3    H2 9681   0.602   3.981  12.887  0.6809 -1.6307  0.7829
  650TMC3    C7 9682   0.777   3.988  12.683 -0.6615  0.1001 -0.3009
  650TMC3    C8 9683   0.668   4.141  13.085  0.2322 -0.0956 -0.0870
  650TMC3    O1 9684   0.828   3.937  12.587  0.0876 -0.3901 -0.5782
  650TMC3    O2 9685   0.548   4.117  13.075 -0.2414 -0.3737 -0.4746
  651MPD2     C 9686   4.525   1.289  10.595 -0.0772 -0.2546 -0.5998
  651MPD2    C1 9687   4.568   1.343  10.709  0.4708 -1.1046  0.3698
  651MPD2    C2 9688   4.690   1.410  10.703  0.3284  0.2980  0.0011
  651MPD2    C3 9689   0.023   1.415  10.586  0.2646 -0.2192  0.1188
  651MPD2    C4 9690   4.714   1.350  10.478  1.2724  0.9246 -0.1873
  651MPD2    C5 9691   4.592   1.291  10.480  0.0634 -0.1172  0.2720
  651MPD2     H 9692   4.719   1.450  10.800  0.7761 -1.6365  0.6583
  651MPD2    H1 9693   0.025   1.339  10.381 -0.5584  1.0056 -1.1204
  651MPD2    H2 9694   4.432   1.236  10.580  0.5481 -1.2326 -1.0235
  651MPD2    H3 9695   4.548   1.258  10.387 -1.1481  3.0990 -0.2928
  651MPD2     N 9696   0.146   1.483  10.592  0.1415  0.1427  0.5879
  651MPD2    H5 9697   0.178   1.524  10.680 -2.7510  2.1446  0.7281
  651MPD2    N1 9698   4.490   1.336  10.828  0.1542 -0.0520 -0.4243
  651MPD2    H7 9699   4.517   1.401  10.901 -0.4316 -0.3001  0.0144
  652TMC3    C1 9700   0.582   1.638  10.449 -1.1939  0.2709  0.3342
  652TMC3    C2 9701   0.463   1.564  10.418  0.4060  0.0795  0.5424
  652TMC3    C3 9702   0.361   1.558  10.519  0.1044 -0.3147  1.0441
  652TMC3    C4 9703   0.576   1.711  10.563  0.2932 -0.2727 -0.6814
  652TMC3    C5 9704   0.479   1.697  10.651 -0.2312  0.6128 -0.2991
  652TMC3    C6 9705   0.380   1.604  10.644 -1.1449 -0.5286 -0.2097
  652TMC3     C 9706   0.705   1.634  10.367  0.0496  0.5702 -0.4773
  652TMC3     O 9707   0.696   1.644  10.245  0.3875 -0.5588 -0.1323
  652TMC3     H 9708   0.462   1.522  10.318 -0.6835 -0.8691  0.9468
  652TMC3    H1 9709   0.666   1.761  10.595  0.5621 -0.4393 -1.1799
  652TMC3    H2 9710   0.301   1.598  10.717 -0.4805  0.6284  0.6020
  652TMC3    C7 9711   0.488   1.768  10.776 -0.4528  0.4035  0.0862
  652TMC3    C8 9712   0.237   1.487  10.485 -0.3670  0.0147  0.9059
  652TMC3    O1 9713   0.445   1.723  10.878 -0.4014  0.2075 -0.5518
  652TMC3    O2 9714   0.237   1.435  10.372 -0.5742  0.0158 -0.1136
  653MPD2     C 9715   3.216   1.971   0.181 -0.2277 -0.5308 -0.0740
  653MPD2    C1 9716   3.152   2.044   0.091 -0.5880 -0.9847 -0.0411
  653MPD2    C2 9717   3.082   1.988  17.737  0.4803 -0.1429 -0.5242
  653MPD2    C3 9718   3.074   1.847  17.731  0.2684  0.2219  0.3852
  653MPD2    C4 9719   3.130   1.772   0.079  0.0234  0.5728  0.2117
  653MPD2    C5 9720   3.201   1.838   0.179 -0.4261 -0.6634  0.2469
  653MPD2     H 9721   3.031   2.046  17.661 -1.8641  2.4486  3.0641
  653MPD2    H1 9722   3.127   1.664   0.089 -0.8090  0.4678 -1.1892
  653MPD2    H2 9723   3.277   2.005   0.264 -0.3852  1.8673 -0.9488
  653MPD2    H3 9724   3.236   1.776   0.261  1.6691 -1.4586 -1.2878
  653MPD2     N 9725   2.986   1.788  17.632  0.0633  0.1667  0.0189
  653MPD2    H5 9726   2.929   1.853  17.578  1.1293  0.1208 -1.1658
  653MPD2    N1 9727   3.152   2.188   0.097 -0.2890  0.1671  0.4196
  653MPD2    H7 9728   3.108   2.242   0.024  2.4758 -1.7237 -2.6053
  654TMC3    C1 9729   2.877   1.596  17.538 -0.3331 -0.7374  0.2704
  654TMC3    C2 9730   2.808   1.687  17.466 -1.0480  0.1169  0.2861
  654TMC3    C3 9731   2.672   1.678  17.454 -0.0850  0.3386 -0.1638
  654TMC3    C4 9732   2.813   1.491  17.599  0.1889 -0.3074 -0.4629
  654TMC3    C5 9733   2.678   1.499  17.598 -0.0537 -0.6423  0.0325
  654TMC3    C6 9734   2.602   1.584  17.525 -0.3480  0.6361 -0.2095
  654TMC3     C 9735   2.980   1.649  17.618  0.2763  0.4402  0.6902
  654TMC3     O 9736   3.062   1.563  17.639  0.1549  0.1142 -0.5918
  654TMC3     H 9737   2.851   1.771  17.413  2.2791 -2.1234 -0.5286
  654TMC3    H1 9738   2.869   1.439  17.676  2.0188  0.0942 -1.5119
  654TMC3    H2 9739   2.496   1.565  17.513 -0.0674 -0.0989 -1.5757
  654TMC3    C7 9740   2.609   1.391  17.670 -0.2974 -0.0846  0.2010
  654TMC3    C8 9741   2.598   1.728  17.337 -0.1652 -0.8646  0.4009
  654TMC3    O1 9742   2.488   1.408  17.691  0.0662 -0.0871  0.2621
  654TMC3    O2 9743   2.478   1.725  17.345 -0.0711 -0.4892 -0.1438
  655MPD2     C 9744   4.554   1.762  15.598  0.0098  0.0566  0.9892
  655MPD2    C1 9745   4.459   1.845  15.550  0.3604  0.8204 -0.0019
  655MPD2    C2 9746   4.424   1.863  15.415  1.2592 -0.1829  0.2974
  655MPD2    C3 9747   4.500   1.803  15.318 -0.1476 -0.0714  0.5012
  655MPD2    C4 9748   4.600   1.719  15.364 -0.3590  0.4579  0.5587
  655MPD2    C5 9749   4.628   1.699  15.497 -0.8842  0.0549  0.4431
  655MPD2     H 9750   4.344   1.932  15.390  1.8199 -0.4406 -2.2857
  655MPD2    H1 9751   4.656   1.651  15.301 -2.6055  0.7892 -1.7871
  655MPD2    H2 9752   4.558   1.733  15.703  1.1221 -0.2165  0.8657
  655MPD2    H3 9753   4.719   1.651  15.529 -0.0061  0.3043 -1.7140
  655MPD2     N 9754   4.462   1.816  15.182  0.5779  0.4246 -0.1955
  655MPD2    H5 9755   4.382   1.876  15.163 -0.3768 -0.7735  0.0250
  655MPD2    N1 9756   4.388   1.930  15.640  0.1348  0.6138  0.0380
  655MPD2    H7 9757   4.338   2.006  15.594 -0.9397  1.2157  2.1876
  656TMC3    C1 9758   4.314   2.034  15.835  0.1636  0.2280 -0.5452
  656TMC3    C2 9759   4.249   2.021  15.956 -0.0923 -0.3419  0.1590
  656TMC3    C3 9760   4.169   2.124  15.997 -0.3424 -0.1556 -0.2839
  656TMC3    C4 9761   4.323   2.151  15.770  0.4153  0.4490  0.1922
  656TMC3    C5 9762   4.246   2.250  15.816  0.7552 -0.3505 -0.2084
  656TMC3    C6 9763   4.161   2.233  15.923  0.3780  0.2917  0.2014
  656TMC3     C 9764   4.380   1.920  15.777  0.1780  0.1137  0.9816
  656TMC3     O 9765   4.400   1.825  15.850 -0.0765  0.1914 -0.2274
  656TMC3     H 9766   4.241   1.929  16.014  1.4072  0.3235  1.4387
  656TMC3    H1 9767   4.390   2.172  15.688  0.4112  0.1028  0.1011
  656TMC3    H2 9768   4.095   2.313  15.954  0.4623 -0.2793  1.8600
  656TMC3    C7 9769   4.249   2.370  15.735 -0.0897  0.6590 -0.1643
  656TMC3    C8 9770   4.091   2.112  16.120  0.1855  0.0518  0.2757
  656TMC3    O1 9771   4.316   2.376  15.635 -0.0745  0.1417 -0.2614
  656TMC3    O2 9772   4.109   2.014  16.192 -0.3671  0.1293  0.1212
  657TMC3    C1 9773   3.456   1.321  14.649  0.5052  0.5341  0.1584
  657TMC3    C2 9774   3.439   1.386  14.767 -0.0708  0.1080 -0.7553
  657TMC3    C3 9775   3.380   1.502  14.772 -0.4707 -0.1656  0.2139
  657TMC3    C4 9776   3.405   1.379  14.537  0.2636 -0.1019  0.8096
  657TMC3    C5 9777   3.341   1.503  14.546 -0.5821  0.0335  0.0439
  657TMC3    C6 9778   3.330   1.567  14.668  0.4269  0.0685 -0.2486
  657TMC3     C 9779   3.507   1.190  14.637  0.3503  0.3512  0.1315
  657TMC3     O 9780   3.515   1.135  14.526 -0.0051 -0.9942 -0.2396
  657TMC3     H 9781   3.471   1.335  14.857  1.7058  0.5510 -1.1268
  657TMC3    H1 9782   3.405   1.328  14.441  0.7263  0.5032  0.4826
  657TMC3    H2 9783   3.262   1.652  14.674 -1.5697 -1.7264  2.2694
  657TMC3    C7 9784   3.276   1.556  14.435 -0.3612  0.4766 -0.5777
  657TMC3    C8 9785   3.358   1.565  14.898 -0.1473 -0.4135 -0.1873
  657TMC3    O1 9786   3.280   1.484  14.338  0.2209  0.4039  0.0592
  657TMC3    O2 9787   3.277   1.650  14.913  0.0382  0.3670  0.1206
  658MPD2     C 9788   0.142   1.766  14.479 -0.4749 -0.1101 -0.1667
  658MPD2    C1 9789   0.003   1.775  14.466 -1.1352  0.3376  0.1760
  658MPD2    C2 9790   4.688   1.790  14.342 -0.2899  0.7984  0.3338
  658MPD2    C3 9791   0.032   1.790  14.230  0.6185  0.0002 -0.9233
  658MPD2    C4 9792   0.169   1.771  14.247  0.7914 -0.0164 -0.6512
  658MPD2    C5 9793   0.224   1.754  14.374  0.2242  0.8574  0.2387
  658MPD2     H 9794   4.580   1.798  14.333 -0.3174  0.5485  0.4519
  658MPD2    H1 9795   0.232   1.771  14.160 -0.3306  1.1778 -1.4647
  658MPD2    H2 9796   0.186   1.764  14.578  0.2482  2.8377 -0.4053
  658MPD2    H3 9797   0.328   1.728  14.381  0.0939 -0.3071 -2.1328
  658MPD2     N 9798   4.709   1.813  14.101  0.1114 -0.4757  0.2033
  658MPD2    H5 9799   4.610   1.830  14.088  0.2767  0.2420 -0.1119
  658MPD2    N1 9800   4.659   1.762  14.589 -0.1287  0.1215 -0.1971
  658MPD2    H7 9801   4.718   1.758  14.672  1.0209 -0.7761 -1.0525
  659TMC3    C1 9802   4.453   1.745  14.723  0.1673 -0.0315 -1.0547
  659TMC3    C2 9803   4.528   1.763  14.835 -0.2272 -0.2914  0.9371
  659TMC3    C3 9804   4.456   1.754  14.953  0.9892 -0.0221  0.3261
  659TMC3    C4 9805   4.322   1.718  14.724  1.1325 -0.4172  0.5039
  659TMC3    C5 9806   4.261   1.709  14.848 -0.0862 -0.7377  0.8898
  659TMC3    C6 9807   4.327   1.719  14.961  0.0267 -0.4232 -0.5962
  659TMC3     C 9808   4.520   1.761  14.593  0.4336 -0.4910  0.1453
  659TMC3     O 9809   4.440   1.756  14.498  0.1782  0.0540  0.5091
  659TMC3     H 9810   4.630   1.801  14.839  0.1915 -1.2538 -1.0083
  659TMC3    H1 9811   4.259   1.721  14.635 -0.3019 -1.6748  1.4727
  659TMC3    H2 9812   4.280   1.689  15.054  2.1308 -1.8757 -0.0022
  659TMC3    C7 9813   4.123   1.756  14.839  0.7898  0.1020 -0.7243
  659TMC3    C8 9814   4.531   1.757  15.076  0.1533 -0.4922  0.7654
  659TMC3    O1 9815   4.060   1.749  14.733  0.0794 -0.3071 -0.1646
  659TMC3    O2 9816   4.642   1.703  15.080  0.4549 -0.4391 -0.1789
  660MPD2     C 9817   2.977   0.284  12.884  0.3721 -0.3309 -0.3420
  660MPD2    C1 9818   2.838   0.308  12.881 -0.4625  0.4453  1.0610
  660MPD2    C2 9819   2.761   0.203  12.920 -0.1549 -0.0970 -0.0970
  660MPD2    C3 9820   2.818   0.087  12.976  0.4601 -0.0486  0.1472
  660MPD2    C4 9821   2.955   0.082  13.000  0.7809  0.1139  0.2472
  660MPD2    C5 9822   3.035   0.175  12.945 -0.4867  0.3045 -0.3852
  660MPD2     H 9823   2.653   0.204  12.911 -0.0295 -0.0609 -1.6663
  660MPD2    H1 9824   2.987   0.003  13.066  2.7982  0.7067 -0.0243
  660MPD2    H2 9825   3.044   0.353  12.834  0.8871 -3.0041 -3.3327
  660MPD2    H3 9826   3.143   0.172  12.951 -0.5181  0.2177  0.2153
  660MPD2     N 9827   2.738   4.725  13.035 -0.2974 -0.3078 -0.6282
  660MPD2    H5 9828   2.774   4.666  13.109  0.4960 -0.3504 -1.0441
  660MPD2    N1 9829   2.784   0.413  12.812 -0.0310 -0.2222 -0.2546
  660MPD2    H7 9830   2.847   0.482  12.773  0.0428  0.2728  0.7444
  661TMC3    C1 9831   2.596   0.538  12.718 -0.7892  0.1008  0.2103
  661TMC3    C2 9832   2.648   0.514  12.594 -0.5207  0.7487  0.2195
  661TMC3    C3 9833   2.571   0.537  12.479  0.0590 -0.6556 -0.7546
  661TMC3    C4 9834   2.467   0.591  12.728 -0.3022 -0.1946 -0.2628
  661TMC3    C5 9835   2.388   0.594  12.619  0.5810 -0.4435 -0.3540
  661TMC3    C6 9836   2.440   0.574  12.491 -0.0050  0.1510 -0.0390
  661TMC3     C 9837   2.645   0.451  12.816  0.1987  0.2593  1.1084
  661TMC3     O 9838   2.547   0.396  12.873 -0.0096  0.1817 -0.4768
  661TMC3     H 9839   2.745   0.467  12.582 -0.6953  0.3224  0.4771
  661TMC3    H1 9840   2.413   0.592  12.822 -1.2986 -2.3123 -0.8047
  661TMC3    H2 9841   2.372   0.583  12.407  1.5158  2.3469 -1.0343
  661TMC3    C7 9842   2.247   0.571  12.648  0.5721 -0.3371 -0.3317
  661TMC3    C8 9843   2.631   0.547  12.346 -0.6670  0.1222 -0.1614
  661TMC3    O1 9844   2.202   0.598  12.760 -0.3890 -0.1021  0.1665
  661TMC3    O2 9845   2.576   0.626  12.271  0.7874  0.0602 -0.4055
  662MPD2     C 9846   2.572   0.542  17.611  0.2104  0.2429  0.0901
  662MPD2    C1 9847   2.526   0.474  17.720 -0.4270 -0.1222 -0.9158
  662MPD2    C2 9848   2.452   0.553   0.056  0.4679  0.0728  0.1179
  662MPD2    C3 9849   2.430   0.692   0.048  0.2860  0.1245  0.0197
  662MPD2    C4 9850   2.491   0.757  17.690 -0.5145 -0.2542  0.3025
  662MPD2    C5 9851   2.565   0.679  17.605 -1.1394  0.8086 -0.1833
  662MPD2     H 9852   2.409   0.510   0.146  0.0864 -0.0172 -0.1074
  662MPD2    H1 9853   2.483   0.863  17.666 -0.0569 -0.0392  1.0837
  662MPD2    H2 9854   2.640   0.489  17.546 -0.5389 -0.5386 -0.0649
  662MPD2    H3 9855   2.614   0.725  17.520 -2.1197 -0.2828 -1.3491
  662MPD2     N 9856   2.354   0.773   0.135 -0.4534  0.7929 -0.0448
  662MPD2    H5 9857   2.337   0.870   0.109  2.4873  0.7523 -2.0860
  662MPD2    N1 9858   2.533   0.330  17.731  0.6772 -0.1828 -0.7141
  662MPD2    H7 9859   2.515   0.295   0.075 -0.1099 -1.1526 -1.2270
  663TMC3    C1 9860   2.571   0.114  17.665  0.1713 -0.1119 -0.3628
  663TMC3    C2 9861   2.613   0.081   0.044 -1.0748 -0.3414 -0.3557
  663TMC3    C3 9862   2.668   4.697   0.048 -1.1185 -0.1638  0.0088
  663TMC3    C4 9863   2.573   0.031  17.558  0.2927  0.1304  0.1339
  663TMC3    C5 9864   2.602   4.639  17.579  0.8160 -0.9923  0.2041
  663TMC3    C6 9865   2.659   4.603  17.698 -0.0472 -0.3739  0.3127
  663TMC3     C 9866   2.554   0.250  17.626 -0.1007 -1.2570 -0.5794
  663TMC3     O 9867   2.547   0.277  17.506  0.4427 -0.4684 -0.0703
  663TMC3     H 9868   2.655   0.154   0.112 -0.5150 -1.1685  0.1817
  663TMC3    H1 9869   2.540   0.053  17.457 -2.2403  1.1879  1.1797
  663TMC3    H2 9870   2.680   4.497  17.712  0.8791 -0.0612  1.2553
  663TMC3    C7 9871   2.630   4.561  17.458  0.4429  0.4005 -0.2565
  663TMC3    C8 9872   2.660   4.630   0.177  0.3768 -0.1804  0.0515
  663TMC3    O1 9873   2.626   4.618  17.347  0.2697  0.4583 -0.2626
  663TMC3    O2 9874   2.728   4.532   0.202 -0.5533  0.0082 -0.5967
  664MPD2     C 9875   0.771   3.155  17.478  0.3936  0.2832  0.3919
  664MPD2    C1 9876   0.811   3.233  17.582  1.1031 -0.1293  0.4320
  664MPD2    C2 9877   0.754   3.199  17.704  0.4253 -0.0386  0.6506
  664MPD2    C3 9878   0.688   3.079  17.726  0.5501  0.2999 -0.5767
  664MPD2    C4 9879   0.649   2.999  17.623  0.3299  0.0842 -1.1840
  664MPD2    C5 9880   0.691   3.044  17.496 -0.7018 -0.1561 -0.1867
  664MPD2     H 9881   0.772   3.269   0.036  0.0805 -0.6806  1.2873
  664MPD2    H1 9882   0.595   2.906  17.637 -0.8643  0.8886 -0.4248
  664MPD2    H2 9883   0.784   3.182  17.373  0.2830  0.6444  0.4711
  664MPD2    H3 9884   0.648   2.986  17.415 -2.1542 -1.7491  1.7260
  664MPD2     N 9885   0.651   3.041   0.110  0.3263 -0.2575  0.1185
  664MPD2    H5 9886   0.697   3.099   0.179 -1.5705  0.2198  0.9804
  664MPD2    N1 9887   0.887   3.355  17.569  0.4577 -0.3289 -0.3419
  664MPD2    H7 9888   0.898   3.405  17.657 -0.8018 -2.4764  1.0357
  665TMC3    C1 9889   0.557   2.946   0.301  0.4042  0.4584 -0.3164
  665TMC3    C2 9890   0.447   2.891   0.360 -0.1159 -0.5156  0.3712
  665TMC3    C3 9891   0.413   2.940   0.484 -0.4368  0.5440 -0.1054
  665TMC3    C4 9892   0.637   3.032   0.376 -0.8257 -0.2708 -0.2626
  665TMC3    C5 9893   0.598   3.074   0.495 -0.0492  0.5994  0.7040
  665TMC3    C6 9894   0.483   3.028   0.553  0.9264 -0.3599 -0.0395
  665TMC3     C 9895   0.570   2.942   0.158 -0.0791 -0.2563 -0.4251
  665TMC3     O 9896   0.507   2.855   0.097 -0.0386 -0.1530 -1.1687
  665TMC3     H 9897   0.389   2.830   0.292  0.3245  0.2174 -0.6575
  665TMC3    H1 9898   0.734   3.067   0.341 -0.0287 -0.6932  1.5364
  665TMC3    H2 9899   0.441   3.076   0.641 -0.1487 -0.7208 -0.3580
  665TMC3    C7 9900   0.651   3.202   0.544 -0.1286  0.5561 -0.1768
  665TMC3    C8 9901   0.270   2.938   0.521 -0.1050  0.5548  0.5492
  665TMC3    O1 9902   0.774   3.214   0.543  0.4526 -0.3799 -0.1220
  665TMC3    O2 9903   0.237   2.985   0.626  0.4423  0.1607 -0.1904
  666TMC3    C1 9904   0.121   3.039  10.366 -0.1895 -0.0682  0.6171
  666TMC3    C2 9905   0.230   2.964  10.355  0.2450 -0.3604  0.0946
  666TMC3    C3 9906   0.349   3.029  10.330 -0.9837 -0.1204  0.2163
  666TMC3    C4 9907   0.129   3.174  10.348  0.2609  0.3882  0.1554
  666TMC3    C5 9908   0.251   3.232  10.322  0.4524  0.4877 -0.2514
  666TMC3    C6 9909   0.364   3.164  10.315 -0.7051  0.3672 -0.2117
  666TMC3     C 9910   0.015   2.992  10.457 -0.2652  0.2570 -0.1318
  666TMC3     O 9911   4.660   3.070  10.464  0.2996 -0.7044  0.0459
  666TMC3     H 9912   0.229   2.855  10.353 -1.6096 -0.3529  0.2681
  666TMC3    H1 9913   0.040   3.235  10.350 -0.5271 -0.9465  5.2469
  666TMC3    H2 9914   0.458   3.205  10.282  0.2500  0.1150  2.2022
  666TMC3    C7 9915   0.263   3.380  10.320  0.2087  0.2495 -0.1004
  666TMC3    C8 9916   0.470   2.942  10.305 -0.0598 -0.1174 -0.7522
  666TMC3    O1 9917   0.161   3.438  10.356 -0.2911  0.4283  0.1266
  666TMC3    O2 9918   0.460   2.823  10.325  0.4147 -0.1138 -0.2824
  667MPD2     C 9919   1.766   3.328  14.886 -0.0044 -0.3679  0.0135
  667MPD2    C1 9920   1.770   3.267  15.005 -0.6726  0.2052  0.6928
  667MPD2    C2 9921   1.704   3.146  15.033 -0.3084  0.0505  0.2050
  667MPD2    C3 9922   1.641   3.081  14.933  0.5220 -0.0776  0.8475
  667MPD2    C4 9923   1.628   3.144  14.810  0.2934  0.3056 -0.3585
  667MPD2    C5 9924   1.698   3.259  14.790  1.2526  0.4925 -0.5372
  667MPD2     H 9925   1.698   3.115  15.136 -0.9202 -2.3691 -0.5700
  667MPD2    H1 9926   1.577   3.101  14.724 -0.7112 -0.6058  0.7019
  667MPD2    H2 9927   1.822   3.417  14.857  0.9353 -1.0953 -0.4300
  667MPD2    H3 9928   1.695   3.306  14.692 -1.2295  1.6980  0.1148
  667MPD2     N 9929   1.562   2.964  14.953 -0.0402 -0.1519  0.0751
  667MPD2    H5 9930   1.497   2.951  14.876 -1.4466  0.4941  1.1537
  667MPD2    N1 9931   1.826   3.334  15.117  0.5401  0.1851 -0.8439
  667MPD2    H7 9932   1.844   3.273  15.196  1.3244  0.9050 -0.4697
  668TMC3    C1 9933   1.927   3.508  15.250  0.0092  0.6497  1.6040
  668TMC3    C2 9934   1.954   3.640  15.255 -0.0169  0.1332 -0.7788
  668TMC3    C3 9935   2.053   3.667  15.345 -0.7561 -0.1118 -0.2526
  668TMC3    C4 9936   1.966   3.411  15.344 -0.1993 -0.5288 -1.0455
  668TMC3    C5 9937   2.033   3.460  15.457  0.7231 -0.5099 -0.9982
  668TMC3    C6 9938   2.094   3.583  15.447  0.5512  0.0734 -0.5933
  668TMC3     C 9939   1.863   3.468  15.120 -0.3899  0.0942  0.0080
  668TMC3     O 9940   1.848   3.556  15.040  0.5898 -0.4762  0.4971
  668TMC3     H 9941   1.929   3.712  15.178 -1.1313 -0.6006 -1.1043
  668TMC3    H1 9942   1.941   3.306  15.341  1.0032 -0.8023 -1.5549
  668TMC3    H2 9943   2.167   3.614  15.521 -0.6567  0.4060  0.4335
  668TMC3    C7 9944   2.102   3.371  15.547  0.1251  0.4694  0.6484
  668TMC3    C8 9945   2.123   3.791  15.337  0.3096 -0.1681  0.2352
  668TMC3    O1 9946   2.094   3.250  15.524 -0.4031 -0.1524  0.4003
  668TMC3    O2 9947   2.155   3.845  15.440  0.4242  0.2780 -0.4205
  669TMC3    C1 9948   4.505   3.198  15.020 -0.0720 -0.0621  0.1752
  669TMC3    C2 9949   4.396   3.229  14.945 -0.3770 -0.1707 -0.2227
  669TMC3    C3 9950   4.419   3.290  14.827 -0.2332  0.4200 -0.3782
  669TMC3    C4 9951   4.639   3.213  14.979 -0.4373  0.1851 -0.4458
  669TMC3    C5 9952   4.653   3.267  14.860  0.2997 -0.2241 -0.0284
  669TMC3    C6 9953   4.544   3.304  14.780 -0.3291 -0.5428 -0.1113
  669TMC3     C 9954   4.492   3.149  15.158  0.1963 -0.2084 -0.2463
  669TMC3     O 9955   4.414   3.208  15.232  0.4048  0.2441  0.1548
  669TMC3     H 9956   4.293   3.223  14.976  0.2701 -1.2837  1.7313
  669TMC3    H1 9957   4.719   3.180  15.043  0.3562 -0.7760 -1.9379
  669TMC3    H2 9958   4.555   3.329  14.675  1.4199 -1.0101 -0.0359
  669TMC3    C7 9959   0.042   3.300  14.805  0.2271  0.8855 -0.4395
  669TMC3    C8 9960   4.320   3.248  14.732  0.1928 -0.0476 -0.2909
  669TMC3    O1 9961   0.040   3.368  14.706 -0.3947 -0.0314 -0.0571
  669TMC3    O2 9962   4.366   3.203  14.628  0.1718 -0.0887  0.4279
  670MPD2     C 9963   3.183   1.202  13.143  0.3402  0.6684 -0.3297
  670MPD2    C1 9964   3.259   1.118  13.219 -0.3300  0.1392  0.0921
  670MPD2    C2 9965   3.221   1.086  13.343 -0.0133  1.0705  0.3373
  670MPD2    C3 9966   3.105   1.128  13.391 -0.4505 -0.1977  0.0241
  670MPD2    C4 9967   3.032   1.223  13.319  0.1534  0.1302  0.6832
  670MPD2    C5 9968   3.071   1.254  13.192  0.4775  0.3698  0.3339
  670MPD2     H 9969   3.281   1.018  13.401  3.0239  2.8751 -0.6855
  670MPD2    H1 9970   2.939   1.271  13.349  0.0862  1.2345 -1.2943
  670MPD2    H2 9971   3.212   1.221  13.041 -3.4335  0.8423 -1.3808
  670MPD2    H3 9972   3.003   1.313  13.132  1.0657  0.7015  0.0045
  670MPD2     N 9973   3.061   1.080  13.519 -0.3256  0.3860 -0.4971
  670MPD2    H5 9974   3.131   1.029  13.571 -1.0604 -1.5390 -1.3939
  670MPD2    N1 9975   3.388   1.088  13.172 -0.0538  0.1519 -0.1843
  670MPD2    H7 9976   3.410   1.105  13.074  1.0552  0.9180  0.1917
  671TMC3    C1 9977   2.908   1.034  13.682  0.6788 -0.1298 -0.6931
  671TMC3    C2 9978   2.996   1.051  13.783  0.1123 -0.6554 -0.2720
  671TMC3    C3 9979   2.967   0.996  13.908 -0.0324 -0.1701 -0.2721
  671TMC3    C4 9980   2.794   0.962  13.704  0.3531 -0.0868  0.2182
  671TMC3    C5 9981   2.768   0.910  13.825 -0.0813  0.4644 -0.1828
  671TMC3    C6 9982   2.844   0.938  13.936 -0.6067 -0.0200  0.1699
  671TMC3     C 9983   2.931   1.096  13.558  0.0308  0.2860 -0.7587
  671TMC3     O 9984   2.828   1.123  13.496  0.2979  0.2539  0.1563
  671TMC3     H 9985   3.098   1.080  13.759 -1.5517  3.2563 -2.6966
  671TMC3    H1 9986   2.723   0.952  13.622  0.8522  0.2898 -0.2651
  671TMC3    H2 9987   2.838   0.889  14.032 -3.0204  0.4981  0.2657
  671TMC3    C7 9988   2.671   0.809  13.840  0.4372 -0.1845  0.0365
  671TMC3    C8 9989   3.086   0.950  13.984 -0.1323  0.8226 -1.1851
  671TMC3    O1 9990   2.640   0.747  13.740  0.2491 -0.1651 -0.3257
  671TMC3    O2 9991   3.178   0.890  13.924  0.2385  0.0640 -0.6985
  672MPD2     C 9992   2.528   1.650   0.995  0.4887 -0.1263  0.3046
  672MPD2    C1 9993   2.663   1.629   1.023  0.1805 -0.3736 -0.2544
  672MPD2    C2 9994   2.715   1.667   1.147 -0.4846 -0.3428 -0.1795
  672MPD2    C3 9995   2.631   1.721   1.240 -0.0357  0.4834  0.0622
  672MPD2    C4 9996   2.503   1.755   1.196 -0.7374 -0.2218 -0.1450
  672MPD2    C5 9997   2.449   1.708   1.083 -0.3038 -0.0102 -0.5000
  672MPD2     H 9998   2.820   1.655   1.171 -0.9166  1.7815  2.7416
  672MPD2    H1 9999   2.438   1.805   1.267 -0.3116  1.4669 -0.9559
  672MPD2    H210000   2.477   1.620   0.905  0.9937 -0.1830  0.0347
  672MPD2    H310001   2.347   1.717   1.050  0.2392 -1.9138 -2.7631
  672MPD2     N10002   2.678   1.763   1.363  0.0661 -0.3881  0.2619
  672MPD2    H510003   2.609   1.819   1.412 -1.4321 -0.9950 -1.1516
  672MPD2    N110004   2.753   1.571   0.931 -0.4435  0.5736 -0.1892
  672MPD2    H710005   2.851   1.562   0.955 -0.7302  1.1919  1.2021
  673TMC3    C110006   2.842   1.521   0.709 -0.8393  0.0342 -0.3324
  673TMC3    C210007   2.931   1.424   0.741 -0.1599  0.1390  0.3315
  673TMC3    C310008   3.008   1.372   0.645  0.7305 -0.6530  0.0964
  673TMC3    C410009   2.831   1.560   0.580 -0.5474 -0.6614 -0.4743
  673TMC3    C510010   2.898   1.498   0.485  0.3361  1.0615 -0.2121
  673TMC3    C610011   2.983   1.399   0.511  0.4081  0.8167  0.0407
  673TMC3     C10012   2.727   1.547   0.797 -0.3427  0.5520 -0.2534
  673TMC3     O10013   2.622   1.549   0.739 -0.0250 -0.1605  0.0792
  673TMC3     H10014   2.920   1.379   0.839 -0.4795 -0.2327  0.1231
  673TMC3    H110015   2.758   1.633   0.546 -0.6587 -1.5824 -2.2111
  673TMC3    H210016   3.043   1.374   0.424  1.8378 -1.4459  1.6473
  673TMC3    C710017   2.874   1.539   0.353 -0.1170  0.2641 -0.1159
  673TMC3    C810018   3.096   1.262   0.676  0.1718 -0.0791  0.1764
  673TMC3    O110019   2.852   1.454   0.262 -0.3782 -0.2389 -0.2929
  673TMC3    O210020   3.125   1.190   0.580 -0.0359 -0.6939 -0.0030
  674MPD2     C10021   2.988   1.154   1.185 -0.5876 -0.5495 -0.1129
  674MPD2    C110022   2.904   1.141   1.077 -0.2106  0.5859  0.1002
  674MPD2    C210023   2.782   1.194   1.089  0.4378 -0.6850  0.4150
  674MPD2    C310024   2.742   1.266   1.199  0.5129 -0.1485  0.3625
  674MPD2    C410025   2.826   1.280   1.306  0.5529  0.5792  0.1314
  674MPD2    C510026   2.953   1.221   1.302 -0.6877  0.3121  0.5341
  674MPD2     H10027   2.706   1.174   1.015 -0.7365  0.4785  1.2796
  674MPD2    H110028   2.794   1.341   1.389 -0.5201  0.4518 -0.1952
  674MPD2    H210029   3.092   1.125   1.180 -0.6694 -0.7968 -0.3644
  674MPD2    H310030   3.021   1.236   1.385 -0.6164 -0.6839  0.6617
  674MPD2     N10031   2.606   1.311   1.194 -0.5844 -0.2831  0.1302
  674MPD2    H510032   2.552   1.290   1.111  0.3207  0.9699 -0.7556
  674MPD2    N110033   2.952   1.048   0.980 -0.6764  0.1214 -0.9331
  674MPD2    H710034   3.045   1.013   1.000 -0.3037  2.5401  1.5630
  675TMC3    C110035   2.934   0.910   0.786  0.0562 -0.5194  0.1636
  675TMC3    C210036   2.932   0.785   0.852 -0.5078 -0.1136  0.3042
  675TMC3    C310037   2.909   0.674   0.777 -0.1036  1.0971 -0.0867
  675TMC3    C410038   2.919   0.919   0.657  0.5671  0.3494  0.3758
  675TMC3    C510039   2.915   0.799   0.588 -0.0015  0.1858 -0.3764
  675TMC3    C610040   2.891   0.681   0.642 -0.0321  0.0080  0.3658
  675TMC3     C10041   2.881   1.027   0.861  0.1583  0.3422  0.4200
  675TMC3     O10042   2.816   1.117   0.806  0.3622 -0.2728  0.6758
  675TMC3     H10043   2.923   0.776   0.960 -0.6957 -0.5076  0.2554
  675TMC3    H110044   2.936   1.017   0.615  0.0242 -0.1323 -0.9447
  675TMC3    H210045   2.886   0.596   0.576 -4.4682  1.0910 -0.7163
  675TMC3    C710046   2.953   0.807   0.452  0.2458 -0.4430  0.7166
  675TMC3    C810047   2.936   0.540   0.836  0.3832  0.3111 -0.5039
  675TMC3    O110048   3.025   0.710   0.418 -0.0505  0.2954  0.0222
  675TMC3    O210049   2.960   0.449   0.760  0.1507  0.2428  0.1142
  676MPD2     C10050   0.992   4.141  11.277  0.6324  0.1898 -0.8252
  676MPD2    C110051   0.977   4.052  11.376  1.2357  0.0155  0.0751
  676MPD2    C210052   0.977   3.923  11.343 -0.3024  0.6708  0.5385
  676MPD2    C310053   0.971   3.869  11.215  0.3689 -0.4105 -0.3271
  676MPD2    C410054   0.971   3.960  11.116 -0.1057  0.7366  0.1971
  676MPD2    C510055   0.990   4.096  11.145  0.0227  0.5165 -0.3733
  676MPD2     H10056   0.976   3.857  11.429  1.0101  1.2956  1.0316
  676MPD2    H110057   0.966   3.927  11.013  1.7176 -0.1756  0.4069
  676MPD2    H210058   1.004   4.249  11.285 -3.6947  0.5200  1.4415
  676MPD2    H310059   1.012   4.169  11.069 -1.1808 -0.1507 -1.3690
  676MPD2     N10060   0.954   3.734  11.190  0.2360  0.1600  0.1694
  676MPD2    H510061   0.968   3.703  11.094  1.8823 -0.5547  0.6262
  676MPD2    N110062   0.953   4.085  11.510 -0.3507  0.1816  0.4928
  676MPD2    H710063   0.939   4.010  11.577 -1.9949  1.9389  2.1221
  677TMC3    C110064   0.876   4.193  11.686  0.3101 -0.1625 -0.4741
  677TMC3    C210065   0.823   4.072  11.725 -0.0932  0.2061  0.0008
  677TMC3    C310066   0.788   4.057  11.855  0.1733  0.1890 -0.7905
  677TMC3    C410067   0.898   4.297  11.774 -0.7831  0.2791  1.0669
  677TMC3    C510068   0.871   4.272  11.902  0.1421 -0.0129  0.5827
  677TMC3    C610069   0.803   4.159  11.948 -0.3800 -0.4931 -0.3914
  677TMC3     C10070   0.924   4.208  11.550 -0.1310 -0.9552  0.8814
  677TMC3     O10071   0.913   4.319  11.495  0.2874  0.4602 -0.6343
  677TMC3     H10072   0.794   3.991  11.659  2.5940 -0.3933 -0.4203
  677TMC3    H110073   0.941   4.387  11.732  0.5741  0.2048  2.2918
  677TMC3    H210074   0.791   4.149  12.055 -0.6116  4.9084  0.1095
  677TMC3    C710075   0.885   4.379  11.998 -0.4197 -0.5433  0.3603
  677TMC3    C810076   0.771   3.921  11.909  0.3017  0.0401  0.2407
  677TMC3    O110077   0.807   4.379  12.091 -0.0393 -0.6778  0.0397
  677TMC3    O210078   0.826   3.836  11.840  0.0585 -0.1740 -1.2033
  678MPD2     C10079   1.731   3.943   1.496  0.0652  0.2272  0.3312
  678MPD2    C110080   1.680   4.068   1.471  0.0068 -0.4587 -0.0524
  678MPD2    C210081   1.577   4.080   1.384  0.0138  0.7281 -0.1493
  678MPD2    C310082   1.523   3.973   1.327  1.2840 -0.4502  0.1842
  678MPD2    C410083   1.575   3.846   1.349 -0.1380  0.0915 -0.2173
  678MPD2    C510084   1.683   3.829   1.429 -0.1185 -0.1954  0.9186
  678MPD2     H10085   1.543   4.180   1.360  0.2732  0.6628 -0.7963
  678MPD2    H110086   1.529   3.760   1.303  0.1626  0.4291 -1.1628
  678MPD2    H210087   1.805   3.926   1.574  0.1838  0.7021  0.3230
  678MPD2    H310088   1.722   3.729   1.446  2.8036  0.2787 -2.9830
  678MPD2     N10089   1.397   3.980   1.251 -0.1634  0.2725  0.4536
  678MPD2    H510090   1.372   3.892   1.206 -1.6477  1.1396 -0.4000
  678MPD2    N110091   1.736   4.184   1.524 -0.4950 -0.1871 -0.1883
  678MPD2    H710092   1.705   4.268   1.477  0.7924  0.6147  0.3964
  679TMC3    C110093   2.117   4.411   1.655 -0.1373 -0.7102  0.6571
  679TMC3    C210094   2.028   4.315   1.672 -0.4120  0.1508  0.7137
  679TMC3    C310095   1.900   4.315   1.623 -0.4017  0.1486  0.5527
  679TMC3    C410096   2.086   4.521   1.587  0.5874 -0.6061  0.2448
  679TMC3    C510097   1.952   4.526   1.542  0.2069  0.7462 -0.3291
  679TMC3    C610098   1.850   4.429   1.562  0.3539 -0.1344 -0.0292
  679TMC3     C10099   2.257   4.369   1.654 -0.0633 -0.0142 -0.0500
  679TMC3     O10100   2.267   4.251   1.628  0.5101  0.2680 -0.4099
  679TMC3     H10101   2.064   4.226   1.722 -1.0314 -0.6494 -0.2529
  679TMC3    H110102   2.148   4.609   1.575  0.6413 -0.5382  1.0158
  679TMC3    H210103   1.750   4.431   1.522 -0.2030 -1.8186  1.2901
  679TMC3    C710104   1.931   4.617   1.431  0.4980 -0.1673  0.3120
  679TMC3    C810105   1.837   4.188   1.616 -0.0706  0.3236  0.6676
  679TMC3    O110106   2.029   4.654   1.375  0.4106  0.3127  0.1985
  679TMC3    O210107   1.897   4.095   1.668  0.6316 -0.0383  0.0639
  680MPD2     C10108   2.633   3.051  13.391 -0.3978  0.4462 -0.5422
  680MPD2    C110109   2.615   3.003  13.518 -0.0692 -0.7854  0.1576
  680MPD2    C210110   2.627   3.098  13.620  0.3823 -0.4620 -0.2501
  680MPD2    C310111   2.650   3.234  13.599  0.0329 -0.7088 -0.2016
  680MPD2    C410112   2.657   3.282  13.470 -0.0930  0.2652 -0.4316
  680MPD2    C510113   2.641   3.194  13.371 -0.1724  0.3338  0.5494
  680MPD2     H10114   2.622   3.061  13.722  0.8850 -0.3512 -0.1827
  680MPD2    H110115   2.655   3.388  13.448  3.2902  0.2698 -0.7438
  680MPD2    H210116   2.612   2.980  13.312  0.3202 -0.8914  0.4775
  680MPD2    H310117   2.647   3.225  13.267  0.9580 -2.9772 -0.3817
  680MPD2     N10118   2.664   3.326  13.698  0.3970 -0.2590  0.1473
  680MPD2    H510119   2.680   3.423  13.675 -0.0788 -0.2970 -0.3581
  680MPD2    N110120   2.605   2.870  13.555 -0.5571  0.2409  0.2029
  680MPD2    H710121   2.579   2.854  13.652 -0.0639 -0.2242  0.2543
  681TMC3    C110122   2.590   2.633  13.544  0.1038  0.8389 -0.3148
  681TMC3    C210123   2.547   2.636  13.676  0.2098 -0.1499 -0.1758
  681TMC3    C310124   2.482   2.521  13.726  0.0709  0.0162  0.4256
  681TMC3    C410125   2.573   2.521  13.469  0.3542  0.8789 -0.2912
  681TMC3    C510126   2.507   2.415  13.520 -0.1098  1.0415 -0.7279
  681TMC3    C610127   2.462   2.410  13.647 -0.4106  0.1783  0.3161
  681TMC3     C10128   2.608   2.760  13.477 -0.4385  0.0241 -0.1633
  681TMC3     O10129   2.630   2.759  13.356 -0.2870  0.1582  0.3189
  681TMC3     H10130   2.560   2.719  13.744 -1.1782 -0.4882  0.5096
  681TMC3    H110131   2.604   2.531  13.365 -1.3891  1.7616 -0.7176
  681TMC3    H210132   2.400   2.331  13.687  2.5205 -1.6964  1.2360
  681TMC3    C710133   2.509   2.293  13.427 -0.7706 -0.6651  0.0242
  681TMC3    C810134   2.399   2.545  13.838  0.6164  0.2989 -0.4675
  681TMC3    O110135   2.434   2.198  13.458  0.6412  0.4959  0.0442
  681TMC3    O210136   2.278   2.527  13.825 -0.1384 -0.1021  0.1873
  682MPD2     C10137   0.367   4.370  11.178  0.2237  0.1472  0.4035
  682MPD2    C110138   0.287   4.253  11.177  0.4968  0.1127  0.1576
  682MPD2    C210139   0.212   4.223  11.294  0.2103  0.2031 -0.8334
  682MPD2    C310140   0.206   4.307  11.407 -0.6578  0.3439 -0.1175
  682MPD2    C410141   0.281   4.423  11.399 -0.0323 -0.0578 -0.2766
  682MPD2    C510142   0.356   4.449  11.285 -0.1170 -0.0633 -0.4117
  682MPD2     H10143   0.151   4.133  11.291 -0.5264  0.6094  1.9753
  682MPD2    H110144   0.291   4.489  11.485 -0.8369 -0.6892  0.2961
  682MPD2    H210145   0.449   4.397  11.113 -0.1043 -1.9037 -0.8737
  682MPD2    H310146   0.410   4.543  11.292  0.6697 -0.6889  1.8551
  682MPD2     N10147   0.144   4.270  11.531 -0.3882 -0.0459 -0.8570
  682MPD2    H510148   0.142   4.338  11.606  0.5948  0.4996 -1.3306
  682MPD2    N110149   0.300   4.155  11.081  0.5824  0.3854 -0.3807
  682MPD2    H710150   0.239   4.075  11.090 -1.2508  2.2064  3.1159
  683TMC3    C110151   0.023   4.108  11.903 -0.9232 -0.3773  0.1091
  683TMC3    C210152   4.680   4.001  11.917  0.1316 -0.2061 -0.2515
  683TMC3    C310153   4.631   3.961  11.792  0.5578  0.4041 -0.0764
  683TMC3    C410154   0.065   4.179  11.795 -0.0828  0.0754 -0.2171
  683TMC3    C510155   0.008   4.143  11.682  0.6248 -0.0053 -0.0541
  683TMC3    C610156   4.653   4.038  11.677  0.0326 -0.2082 -0.3001
  683TMC3     C10157   0.109   4.141  12.016  0.6966  0.0863 -0.1652
  683TMC3     O10158   0.177   4.241  12.012  0.2367  0.4834 -0.8439
  683TMC3     H10159   4.637   3.968  12.012  0.3493  1.1416  0.3208
  683TMC3    H110160   0.148   4.249  11.797 -0.9859  1.2111 -3.0737
  683TMC3    H210161   4.613   3.998  11.585 -0.7823  0.9470 -0.4415
  683TMC3    C710162   0.091   4.147  11.559  0.3507 -0.2274 -0.3790
  683TMC3    C810163   4.627   3.822  11.761 -0.3397  0.3065 -0.1901
  683TMC3    O110164   0.076   4.053  11.487 -0.2115 -0.0376  0.0090
  683TMC3    O210165   4.608   3.789  11.649 -0.8970 -0.4366  0.3983
  684MPD2     C10166   2.878   3.538  16.540 -0.7225  0.0935  0.0058
  684MPD2    C110167   2.832   3.577  16.415  0.1809 -0.2093 -0.1177
  684MPD2    C210168   2.798   3.712  16.396 -0.2222 -0.8260  0.4666
  684MPD2    C310169   2.827   3.811  16.484  0.3482  0.2348  0.3553
  684MPD2    C410170   2.892   3.773  16.601  0.6138 -0.7639 -0.1002
  684MPD2    C510171   2.908   3.640  16.626 -0.3762 -0.0114 -0.7288
  684MPD2     H10172   2.745   3.742  16.307  2.0054  2.0145  0.0900
  684MPD2    H110173   2.910   3.843  16.682  0.0424  1.9131 -2.2871
  684MPD2    H210174   2.889   3.434  16.569 -2.7322 -0.1583 -0.1356
  684MPD2    H310175   2.949   3.617  16.724  1.6682  1.7431 -1.1678
  684MPD2     N10176   2.817   3.945  16.445  0.1781  0.0840 -0.0963
  684MPD2    H510177   2.856   4.014  16.509  0.8344  2.0675 -2.6365
  684MPD2    N110178   2.797   3.486  16.321 -0.4331 -0.2326  0.4628
  684MPD2    H710179   2.763   3.526  16.234 -0.1080  2.2106  1.4600
  685TMC3    C110180   2.850   3.309  16.174 -0.1251 -1.2536  0.5121
  685TMC3    C210181   2.775   3.371  16.080  0.0203  0.6960  0.4406
  685TMC3    C310182   2.789   3.329  15.950  0.1551 -0.7351  0.7460
  685TMC3    C410183   2.938   3.208  16.143 -0.6749 -0.4011  0.6367
  685TMC3    C510184   2.958   3.189  16.011 -0.0588  0.8476  0.7232
  685TMC3    C610185   2.878   3.240  15.916  0.5273 -0.5954  0.0991
  685TMC3     C10186   2.852   3.361  16.308  0.2389  0.2056  0.6179
  685TMC3     O10187   2.925   3.301  16.387 -0.3195  0.1252  0.8333
  685TMC3     H10188   2.693   3.436  16.108 -0.9246  0.2745 -1.3464
  685TMC3    H110189   2.958   3.133  16.218 -0.9110 -0.2024  0.8996
  685TMC3    H210190   2.900   3.234  15.810  2.0078  0.0677  0.3618
  685TMC3    C710191   3.096   3.162  15.970 -0.8163 -0.0081 -0.0378
  685TMC3    C810192   2.717   3.405  15.846 -0.5638  0.2651 -0.1114
  685TMC3    O110193   3.128   3.128  15.856  0.8029  0.4186 -0.6990
  685TMC3    O210194   2.735   3.375  15.728  0.6205  0.1030 -0.7795
  686MPD2     C10195   4.326   4.132  16.001  0.6799 -0.8606 -0.5887
  686MPD2    C110196   4.365   4.007  16.041  0.2079  0.1704 -0.6384
  686MPD2    C210197   4.498   3.971  16.021 -0.5302 -0.4447  0.1342
  686MPD2    C310198   4.586   4.069  15.971  0.2181  0.4118 -0.5981
  686MPD2    C410199   4.544   4.198  15.946 -0.5325  0.5938 -0.0739
  686MPD2    C510200   4.412   4.231  15.954  0.2468  0.1479 -0.1372
  686MPD2     H10201   4.524   3.867  16.032 -1.1541 -0.6423 -0.2444
  686MPD2    H110202   4.611   4.265  15.893 -0.4467  0.2862 -0.3565
  686MPD2    H210203   4.222   4.160  16.016  0.6349 -2.4616  1.9192
  686MPD2    H310204   4.383   4.333  15.930 -0.5655  0.5035  2.3351
  686MPD2     N10205   4.713   4.035  15.912 -0.0578 -0.0528  0.6821
  686MPD2    H510206   0.016   4.094  15.840  0.0636 -0.6670  0.2457
  686MPD2    N110207   4.267   3.919  16.076 -0.1177  0.7179  0.9602
  686MPD2    H710208   4.171   3.949  16.074 -0.8536 -1.9386 -3.5403
  687TMC3    C110209   0.103   3.858  15.817  0.6314  0.4375  0.2735
  687TMC3    C210210   4.737   3.828  15.735  0.2324 -0.1673  0.7598
  687TMC3    C310211   4.682   3.704  15.733 -0.1008  0.3680 -0.3556
  687TMC3    C410212   0.187   3.761  15.858  0.0596  0.4584 -0.0283
  687TMC3    C510213   0.143   3.634  15.848  0.7390 -0.4029  1.3967
  687TMC3    C610214   0.021   3.603  15.783  0.2478 -0.5455 -0.5393
  687TMC3     C10215   0.055   3.922  15.936 -0.0537 -0.6285  0.5531
  687TMC3     O10216   0.054   3.845  16.031  0.7146 -0.5285 -0.2153
  687TMC3     H10217   4.690   3.911  15.683 -1.4066 -1.4507  0.1884
  687TMC3    H110218   0.282   3.788  15.904  0.4881 -1.9047  0.4777
  687TMC3    H210219   4.725   3.500  15.788  0.1592 -0.4011  1.7732
  687TMC3    C710220   0.233   3.531  15.902 -0.2825 -0.7122 -0.1377
  687TMC3    C810221   4.538   3.685  15.724  0.7652 -0.0491  0.1978
  687TMC3    O110222   0.352   3.552  15.890  0.0677 -0.5130  0.0582
  687TMC3    O210223   4.495   3.567  15.744 -0.1275  0.2734 -0.0655
  688MPD2     C10224   3.187   2.705  17.371  0.3682 -0.3554 -0.2638
  688MPD2    C110225   3.234   2.588  17.424 -0.5523  0.1308  0.1333
  688MPD2    C210226   3.323   2.509  17.350 -0.8792 -0.0887 -0.3974
  688MPD2    C310227   3.354   2.542  17.216 -0.6337 -0.4030  0.4691
  688MPD2    C410228   3.292   2.659  17.159  0.2108  0.3741  0.1477
  688MPD2    C510229   3.214   2.739  17.234 -0.0377 -0.8935  0.0836
  688MPD2     H10230   3.362   2.419  17.397 -0.3663  0.6301  0.5532
  688MPD2    H110231   3.304   2.667  17.052 -0.0640  0.6849  0.1393
  688MPD2    H210232   3.120   2.773  17.423  1.3530  0.4215  0.0100
  688MPD2    H310233   3.162   2.820  17.186 -0.5973 -1.5553 -0.4360
  688MPD2     N10234   3.446   2.466  17.133 -0.2060  0.2452 -0.5521
  688MPD2    H510235   3.470   2.501  17.041 -2.8466  3.7758  0.1156
  688MPD2    N110236   3.212   2.558  17.565  0.4040  0.4164  0.2562
  688MPD2    H710237   3.244   2.466  17.591 -1.8705 -0.4805 -0.0982
  689TMC3    C110238   3.129   2.568   0.025  0.0033  0.4001  0.1293
  689TMC3    C210239   3.089   2.651   0.133  0.7332 -0.2635 -0.5817
  689TMC3    C310240   3.113   2.603   0.263 -0.0723  0.5219 -0.5822
  689TMC3    C410241   3.193   2.450   0.051  0.2220  0.8729 -0.1208
  689TMC3    C510242   3.198   2.396   0.178 -0.3417 -0.1099  0.6018
  689TMC3    C610243   3.164   2.478   0.282  0.1684 -0.0931  0.0508
  689TMC3     C10244   3.146   2.642  17.652 -0.3687  0.3035  0.3574
  689TMC3     O10245   3.118   2.761  17.644  0.8679  0.3068 -0.4056
  689TMC3     H10246   3.045   2.748   0.116  0.9582  0.1406  1.0637
  689TMC3    H110247   3.255   2.393  17.733 -0.8669 -0.3444 -0.0811
  689TMC3    H210248   3.172   2.440   0.382 -0.3055  0.2345  0.2144
  689TMC3    C710249   3.193   2.256   0.207  0.0261  0.2962  0.3787
  689TMC3    C810250   3.040   2.660   0.383  0.6052 -0.9114 -0.3592
  689TMC3    O110251   3.220   2.213   0.316 -0.6669 -0.0274  0.7073
  689TMC3    O210252   3.035   2.595   0.485 -0.6801 -0.2925  0.7180
  690MPD2     C10253   1.225   4.351  15.838 -0.1720 -0.5148 -0.6585
  690MPD2    C110254   1.221   4.251  15.747 -0.2078 -0.2892 -0.0753
  690MPD2    C210255   1.330   4.232  15.670  0.2981  0.4700  0.1568
  690MPD2    C310256   1.449   4.306  15.680 -0.0774 -0.5720  0.4656
  690MPD2    C410257   1.456   4.400  15.778 -0.3122 -0.1288  0.2066
  690MPD2    C510258   1.344   4.419  15.855  0.1825 -0.2577  0.2761
  690MPD2     H10259   1.334   4.161  15.588 -0.2373 -0.5118  0.9727
  690MPD2    H110260   1.554   4.441  15.801 -0.4284  0.7179 -0.8311
  690MPD2    H210261   1.140   4.373  15.902  0.2600 -1.9871  0.4175
  690MPD2    H310262   1.343   4.496  15.932  0.6043  0.0936 -0.0626
  690MPD2     N10263   1.554   4.293  15.582 -0.1775  0.6418  0.1732
  690MPD2    H510264   1.527   4.228  15.508  0.4017  1.0968 -0.4368
  690MPD2    N110265   1.109   4.172  15.717  0.6363 -0.6234  0.3688
  690MPD2    H710266   1.110   4.113  15.634 -0.8817 -1.5590  0.9956
  691TMC3    C110267   0.896   4.079  15.750  0.4972 -0.3328 -0.0850
  691TMC3    C210268   0.769   4.101  15.794 -0.5080 -0.4201 -0.0290
  691TMC3    C310269   0.681   3.991  15.813  0.5763 -0.2269 -1.0308
  691TMC3    C410270   0.936   3.950  15.721 -0.5610 -0.1849 -0.1689
  691TMC3    C510271   0.851   3.848  15.744  0.7124 -0.2352  0.3067
  691TMC3    C610272   0.729   3.865  15.794  0.1163  0.0202  0.7692
  691TMC3     C10273   0.994   4.178  15.798  0.6750 -1.0576  0.0591
  691TMC3     O10274   0.966   4.247  15.898  0.4362  0.7807 -0.7818
  691TMC3     H10275   0.739   4.199  15.828 -2.4366 -0.1248 -2.5905
  691TMC3    H110276   1.035   3.942  15.678 -0.4540 -1.3823  0.2852
  691TMC3    H210277   0.656   3.785  15.805  1.0724 -0.9718 -0.0370
  691TMC3    C710278   0.908   3.718  15.710 -0.9355  0.5264  0.3321
  691TMC3    C810279   0.550   4.003  15.752  0.1471 -0.2607 -0.1416
  691TMC3    O110280   1.009   3.712  15.638 -0.1794 -0.1514 -0.3297
  691TMC3    O210281   0.517   3.914  15.679 -0.5350  0.8083 -0.3131
  692TMC3    C110282   2.343   0.177  15.541 -0.0433  0.2814  0.5994
  692TMC3    C210283   2.356   0.261  15.436 -0.0907 -0.2607  0.2017
  692TMC3    C310284   2.482   0.294  15.379  0.1207  0.7610 -0.1874
  692TMC3    C410285   2.445   0.090  15.579  0.0836  0.1922  0.1731
  692TMC3    C510286   2.565   0.115  15.511  0.0725 -0.4645  0.2153
  692TMC3    C610287   2.585   0.217  15.423  0.1254  0.2676  0.1501
  692TMC3     C10288   2.232   0.212  15.639 -0.2689  0.7262 -0.5343
  692TMC3     O10289   2.245   0.202  15.761  0.6012 -0.2876 -0.5697
  692TMC3     H10290   2.285   0.341  15.420  0.2263  0.0381  0.2882
  692TMC3    H110291   2.425   0.032  15.668 -0.1298  0.0119  0.0075
  692TMC3    H210292   2.679   0.227  15.370 -0.2075  0.7183 -0.3556
  692TMC3    C710293   2.664   0.012  15.525  0.2612 -0.4185  0.5337
  692TMC3    C810294   2.504   0.434  15.409 -0.0588  0.8787  0.5532
  692TMC3    O110295   2.733   4.720  15.424 -0.2246 -0.1288 -0.1256
  692TMC3    O210296   2.420   0.500  15.467 -0.4096 -0.0596  0.5144
  693MPD2     C10297   2.440   3.215  10.687  0.4070 -1.0422 -0.2862
  693MPD2    C110298   2.369   3.135  10.767 -0.6308  0.3981 -0.0088
  693MPD2    C210299   2.429   3.057  10.866  0.1613 -0.0484 -0.0038
  693MPD2    C310300   2.565   3.056  10.880 -0.3681  0.7727 -0.8335
  693MPD2    C410301   2.637   3.117  10.783  0.4212  0.0004  0.0815
  693MPD2    C510302   2.579   3.203  10.692 -0.0050 -0.0754  0.1018
  693MPD2     H10303   2.365   3.000  10.933  0.3294  0.0255  0.2198
  693MPD2    H110304   2.745   3.122  10.786  0.4766 -1.0558 -0.1718
  693MPD2    H210305   2.388   3.291  10.630 -2.2947  0.4823  4.2508
  693MPD2    H310306   2.646   3.262  10.631  2.4548 -2.1622  0.7565
  693MPD2     N10307   2.640   2.981  10.980  0.3439 -0.1546 -0.2347
  693MPD2    H510308   2.741   2.972  10.975  0.5222  0.7670  1.7275
  693MPD2    N110309   2.230   3.108  10.756 -0.2340 -0.2327  0.9310
  693MPD2    H710310   2.187   3.048  10.826  0.9862 -0.0344  1.8498
  694TMC3    C110311   2.006   3.112  10.719  0.6274 -0.4689 -0.6750
  694TMC3    C210312   1.930   3.041  10.635 -0.1994  0.8217  0.1854
  694TMC3    C310313   1.845   2.941  10.692  0.3193  0.4007 -0.9329
  694TMC3    C410314   1.986   3.112  10.860 -0.4953  0.6762 -0.2750
  694TMC3    C510315   1.889   3.034  10.902 -0.2438 -0.1996 -0.0585
  694TMC3    C610316   1.828   2.939  10.830  0.4276 -0.4765  0.2657
  694TMC3     C10317   2.143   3.163  10.677 -0.3365  0.1785 -0.2146
  694TMC3     O10318   2.163   3.218  10.563 -0.0744 -0.0511  0.2383
  694TMC3     H10319   1.956   3.045  10.530  0.7739 -1.2761  0.3437
  694TMC3    H110320   2.046   3.175  10.925  1.9662 -1.1086 -0.8031
  694TMC3    H210321   1.777   2.856  10.877 -1.0151 -0.5544 -1.4902
  694TMC3    C710322   1.887   3.010  11.043  0.2703  0.0543  0.3072
  694TMC3    C810323   1.762   2.845  10.631  0.1918  0.1761 -0.9422
  694TMC3    O110324   1.859   3.099  11.121 -0.3358  0.4291 -0.4927
  694TMC3    O210325   1.677   2.780  10.691  0.4938  1.1424 -0.3272
  695MPD2     C10326   3.166   0.195  13.543 -0.3067 -0.2154 -0.8037
  695MPD2    C110327   3.099   0.246  13.655  0.0375  0.3305  0.0341
  695MPD2    C210328   2.967   0.281  13.645  0.1352  0.3725 -0.0526
  695MPD2    C310329   2.893   0.256  13.535 -0.4561 -0.3154 -0.2842
  695MPD2    C410330   2.964   0.206  13.420  0.3303 -0.0324 -0.1540
  695MPD2    C510331   3.100   0.178  13.423  0.1231 -0.1505  0.6908
  695MPD2     H10332   2.925   0.313  13.740  0.7136  0.8007  0.0594
  695MPD2    H110333   2.916   0.191  13.323 -0.3759 -0.2010  0.2203
  695MPD2    H210334   3.265   0.152  13.554 -0.5388 -0.7200 -0.7391
  695MPD2    H310335   3.155   0.129  13.343 -1.7818  0.1239 -0.7812
  695MPD2     N10336   2.752   0.278  13.531  0.2747 -0.2883  0.4369
  695MPD2    H510337   2.706   0.306  13.617  2.1421 -0.0019  1.3476
  695MPD2    N110338   3.160   0.257  13.781  0.0472  0.5283  0.6935
  695MPD2    H710339   3.095   0.282  13.855 -0.2047  1.0477  0.2978
  696TMC3    C110340   2.530   0.276  13.473  0.5156 -0.2332 -0.5851
  696TMC3    C210341   2.499   0.225  13.595 -0.3942 -0.2578  0.1937
  696TMC3    C310342   2.416   0.301  13.677  0.0284  0.2122 -0.0499
  696TMC3    C410343   2.468   0.385  13.421  0.7408  0.2916 -0.3719
  696TMC3    C510344   2.370   0.449  13.492  0.5628  0.5884 -0.8359
  696TMC3    C610345   2.346   0.413  13.622 -0.1621 -0.0895  0.5527
  696TMC3     C10346   2.665   0.258  13.426  0.6114 -0.0194  0.1545
  696TMC3     O10347   2.681   0.245  13.306  0.2781  0.3372 -0.2346
  696TMC3     H10348   2.566   0.144  13.623 -1.5230 -0.2833  2.8049
  696TMC3    H110349   2.496   0.421  13.323  2.5678 -2.3542 -0.8353
  696TMC3    H210350   2.279   0.472  13.683  2.2421  2.2491  0.9095
  696TMC3    C710351   2.342   0.581  13.444  0.1024  0.2215 -0.1239
  696TMC3    C810352   2.481   0.313  13.806  0.0022 -0.1596 -0.3645
  696TMC3    O110353   2.306   0.596  13.325 -0.0613 -0.4501 -0.3958
  696TMC3    O210354   2.603   0.312  13.805 -0.0738 -0.1739  0.3148
  697MPD2     C10355   2.207   2.030  15.525 -0.2857  0.0672 -0.2538
  697MPD2    C110356   2.232   1.976  15.398 -0.0932 -0.0914 -0.2372
  697MPD2    C210357   2.274   2.068  15.300 -0.8578  0.0884  0.6550
  697MPD2    C310358   2.274   2.197  15.325  0.6033  0.7181 -0.3649
  697MPD2    C410359   2.226   2.252  15.450  0.2798 -0.1307 -0.3035
  697MPD2    C510360   2.192   2.163  15.547 -0.0865  0.4721 -0.2547
  697MPD2     H10361   2.304   2.034  15.202 -1.0746  1.1707  0.2147
  697MPD2    H110362   2.218   2.356  15.476  1.2922 -0.0980 -0.1295
  697MPD2    H210363   2.200   1.963  15.609 -0.5169  1.5257  0.9025
  697MPD2    H310364   2.164   2.198  15.646 -0.7123 -1.0029  0.0970
  697MPD2     N10365   2.324   2.282  15.222 -0.2568  0.7053  0.0337
  697MPD2    H510366   2.354   2.235  15.137  0.0678 -0.5701  0.8438
  697MPD2    N110367   2.230   1.837  15.367 -0.0736 -0.4487 -0.3175
  697MPD2    H710368   2.261   1.806  15.276  1.1989 -0.4553  0.1114
  698TMC3    C110369   2.341   2.487  15.092  0.0798  0.1991  1.0191
  698TMC3    C210370   2.346   2.626  15.096 -0.2104  0.0254 -0.1926
  698TMC3    C310371   2.283   2.706  15.006  0.0942  0.7595  0.3019
  698TMC3    C410372   2.267   2.429  14.990  0.3685  0.5020 -0.8497
  698TMC3    C510373   2.212   2.515  14.891  0.2354  0.0330  0.6083
  698TMC3    C610374   2.219   2.653  14.898 -0.3757  0.6127  0.2570
  698TMC3     C10375   2.351   2.417  15.224 -0.4720  0.8105  0.5926
  698TMC3     O10376   2.335   2.493  15.321  0.1012 -0.4858 -0.4459
  698TMC3     H10377   2.385   2.677  15.183 -2.2427 -1.4209  1.5672
  698TMC3    H110378   2.261   2.322  14.975 -0.9905  0.5361 -0.4839
  698TMC3    H210379   2.183   2.720  14.821 -0.2339 -0.1991 -0.5156
  698TMC3    C710380   2.225   2.469  14.755  0.5453  0.6335 -0.2179
  698TMC3    C810381   2.327   2.843  14.987 -0.0299  0.6666 -0.3922
  698TMC3    O110382   2.144   2.503  14.672 -0.6835  0.1261  0.2807
  698TMC3    O210383   2.259   2.920  14.921  0.0412 -0.1411 -0.0953
  699TMC3    C110384   2.541   4.621  13.106 -0.5835 -0.0534  0.3192
  699TMC3    C210385   2.562   4.617  13.243  0.3272 -0.6879 -0.1426
  699TMC3    C310386   2.480   4.530  13.315  0.1191  0.5260  0.0246
  699TMC3    C410387   2.427   4.563  13.051  0.4562  1.3420  0.2985
  699TMC3    C510388   2.358   4.470  13.125 -0.1655 -0.6652 -0.1918
  699TMC3    C610389   2.393   4.444  13.250 -1.0961 -0.8105  0.0092
  699TMC3     C10390   2.608   4.696  13.004  0.0110 -0.1798 -0.5857
  699TMC3     O10391   2.547   4.736  12.902 -0.3608  0.5268 -0.0822
  699TMC3     H10392   2.624   4.695  13.287  1.3189 -0.0960 -2.6114
  699TMC3    H110393   2.385   4.585  12.954 -1.0534 -2.4065  0.1097
  699TMC3    H210394   2.332   4.387  13.319  0.4280 -1.0047  1.2070
  699TMC3    C710395   2.216   4.456  13.098 -0.2231 -0.1166 -0.5708
  699TMC3    C810396   2.445   4.563  13.453 -0.4602  0.0223 -0.3611
  699TMC3    O110397   2.183   4.340  13.092  0.8593  0.3894  0.2664
  699TMC3    O210398   2.330   4.569  13.490 -0.0739 -0.4118  0.0917
  700TMC3    C110399   1.272   2.840  17.096 -0.4015 -0.6617 -0.3722
  700TMC3    C210400   1.288   2.706  17.093 -0.1762  0.7895  0.0303
  700TMC3    C310401   1.367   2.651  17.196 -0.1282  0.3291 -0.1362
  700TMC3    C410402   1.315   2.912  17.198 -0.4293  0.0671  0.7022
  700TMC3    C510403   1.381   2.858  17.301 -0.0472 -0.6232  0.6220
  700TMC3    C610404   1.421   2.730  17.298 -0.4889  0.1340  0.5807
  700TMC3     C10405   1.191   2.903  16.998  0.4116 -0.1884  0.3486
  700TMC3     O10406   1.102   2.834  16.947 -0.3062  0.6550  0.0368
  700TMC3     H10407   1.254   2.644  17.012  0.7197 -0.5717  0.6940
  700TMC3    H110408   1.278   3.014  17.202 -0.7646 -0.0457  0.5297
  700TMC3    H210409   1.494   2.705  17.373 -1.4759  0.9416  1.8082
  700TMC3    C710410   1.450   2.953  17.397  0.1043  0.4935  0.1670
  700TMC3    C810411   1.423   2.522  17.169  0.7277  0.0231 -0.8432
  700TMC3    O110412   1.560   2.929  17.449 -0.0213 -0.0648 -0.3968
  700TMC3    O210413   1.424   2.474  17.051 -0.0722 -0.5958 -0.7001
  701TMC3    C110414   1.629   1.122  15.450  0.6106 -0.1132 -0.4402
  701TMC3    C210415   1.662   1.060  15.318  0.4183 -0.9620 -0.1670
  701TMC3    C310416   1.727   1.146  15.236  0.6991  0.2312 -0.2994
  701TMC3    C410417   1.662   1.249  15.486 -0.3671 -0.4957 -0.0872
  701TMC3    C510418   1.734   1.328  15.395  0.1761  0.6129  0.5976
  701TMC3    C610419   1.754   1.279  15.269 -0.5537  0.0973 -0.3352
  701TMC3     C10420   1.534   1.060  15.532  0.4251 -0.6940 -0.1319
  701TMC3     O10421   1.490   1.114  15.631  0.1339 -0.3190 -0.2736
  701TMC3     H10422   1.629   0.962  15.286 -4.9756  0.4499  1.0875
  701TMC3    H110423   1.633   1.282  15.585 -1.8906  0.0574 -0.7073
  701TMC3    H210424   1.804   1.350  15.205 -0.7239  2.2159  1.8712
  701TMC3    C710425   1.743   1.473  15.431  0.2529  0.6479 -0.2075
  701TMC3    C810426   1.760   1.102  15.100 -0.3822 -0.9039 -0.1588
  701TMC3    O110427   1.765   1.548  15.336 -0.0807 -0.1451 -0.1579
  701TMC3    O210428   1.846   1.166  15.041 -0.6186 -0.6100 -0.0592
  702MPD2     C10429   1.150   3.355  10.648  0.2939  0.3595 -0.6435
  702MPD2    C110430   1.051   3.418  10.712 -0.3277 -0.2037  0.1898
  702MPD2    C210431   0.963   3.503  10.636 -0.2280 -0.6121 -0.4222
  702MPD2    C310432   0.991   3.534  10.503  0.3375 -0.3729 -0.0023
  702MPD2    C410433   1.097   3.471  10.439  0.4280  0.0306  0.3930
  702MPD2    C510434   1.177   3.385  10.517  0.2777 -0.3511 -0.5530
  702MPD2     H10435   0.882   3.556  10.685  2.1054  0.2263  2.5109
  702MPD2    H110436   1.117   3.477  10.333 -2.9242  0.3010 -0.2416
  702MPD2    H210437   1.226   3.291  10.691 -0.7224 -0.7205 -0.4760
  702MPD2    H310438   1.264   3.333  10.480 -0.7962 -0.9757 -2.1870
  702MPD2     N10439   0.914   3.643  10.449 -0.0773  0.9835 -0.1346
  702MPD2    H510440   0.845   3.682  10.512  1.7111  2.5233  0.8590
  702MPD2    N110441   1.032   3.415  10.855 -0.1353 -0.7476 -0.3493
  702MPD2    H710442   0.976   3.489  10.896  0.3756 -0.6119  0.1089
  703TMC3    C110443   0.885   3.851  10.364  0.2893  0.0036 -0.1491
  703TMC3    C210444   0.782   3.844  10.452 -0.8831 -0.3542 -0.4065
  703TMC3    C310445   0.791   3.912  10.573 -1.0353 -0.2905 -0.1769
  703TMC3    C410446   0.984   3.944  10.384  0.3598 -0.2819  0.3576
  703TMC3    C510447   0.985   4.018  10.499  0.3014  0.1936  0.7636
  703TMC3    C610448   0.888   4.007  10.593  0.6111  0.4509  0.0689
  703TMC3     C10449   0.948   3.725  10.345 -1.0412  0.4949  0.5626
  703TMC3     O10450   1.036   3.711  10.265 -0.0590 -0.4193  0.4015
  703TMC3     H10451   0.697   3.782  10.428 -0.1624 -1.2569 -0.6032
  703TMC3    H110452   1.076   3.925  10.330 -0.0918 -3.4389  0.7349
  703TMC3    H210453   0.888   4.072  10.679 -1.9612 -0.2683  0.6154
  703TMC3    C710454   1.101   4.103  10.512 -0.3196  0.5359  1.0645
  703TMC3    C810455   0.728   3.834  10.674  0.2535 -0.4809 -0.9338
  703TMC3    O110456   1.178   4.100  10.417 -0.0490 -0.1786 -0.1612
  703TMC3    O210457   0.682   3.725  10.641 -0.0388 -0.2708  0.2307
  704TMC3    C110458   3.508   1.474  12.264  0.9014  0.1110  0.6617
  704TMC3    C210459   3.642   1.500  12.251  0.5200  0.3749  0.4584
  704TMC3    C310460   3.719   1.451  12.355 -0.5171 -0.4590 -0.0444
  704TMC3    C410461   3.452   1.403  12.368 -0.1329  0.3045 -0.0490
  704TMC3    C510462   3.537   1.361  12.465 -0.0445 -0.0569  0.4920
  704TMC3    C610463   3.671   1.383  12.468 -0.2741  0.4632 -0.4008
  704TMC3     C10464   3.448   1.447  12.138  0.4881  0.3738 -0.0966
  704TMC3     O10465   3.326   1.457  12.135  0.1829 -0.2263 -0.9201
  704TMC3     H10466   3.688   1.554  12.168  1.0913 -1.4851 -0.4382
  704TMC3    H110467   3.348   1.373  12.362  0.2655 -1.0317 -0.2480
  704TMC3    H210468   3.739   1.339  12.540  0.8095 -0.1337 -1.7743
  704TMC3    C710469   3.508   1.222  12.509 -0.1484 -0.5756 -0.2452
  704TMC3    C810470   3.856   1.416  12.312 -0.3769 -0.3404 -0.2365
  704TMC3    O110471   3.607   1.153  12.534 -0.3675  0.9412  0.0299
  704TMC3    O210472   3.855   1.395  12.190 -0.3502 -0.1367 -0.2000
  705MPD2     C10473   2.483   0.111  16.286  0.1835 -0.7818  0.1253
  705MPD2    C110474   2.518   0.246  16.288  0.1921  0.8190  0.4562
  705MPD2    C210475   2.445   0.320  16.384  0.4057 -0.4354  0.2540
  705MPD2    C310476   2.346   0.266  16.464  0.4073 -0.4657  0.2604
  705MPD2    C410477   2.318   0.128  16.455  0.0029 -0.3380 -0.4076
  705MPD2    C510478   2.397   0.054  16.374  0.3076  0.7057  0.1150
  705MPD2     H10479   2.464   0.422  16.415 -1.4031 -0.3639  1.1483
  705MPD2    H110480   2.231   0.078  16.496 -0.1806 -0.4124 -0.8850
  705MPD2    H210481   2.530   0.038  16.220  0.8915 -0.0743 -0.1462
  705MPD2    H310482   2.366   4.689  16.360  1.5096  0.1415  1.6559
  705MPD2     N10483   2.267   0.332  16.555  0.2312  0.6873  0.5063
  705MPD2    H510484   2.198   0.283  16.611  0.0827  1.0268  0.6208
  705MPD2    N110485   2.621   0.307  16.212  0.2412 -0.1670  0.5136
  705MPD2    H710486   2.647   0.401  16.240 -0.2332 -0.3290  1.4832
  706TMC3    C110487   3.034   0.308  16.013  0.6046  0.0044 -0.5607
  706TMC3    C210488   3.059   0.433  16.050  0.0351 -0.8429  0.3170
  706TMC3    C310489   2.945   0.509  16.083 -0.7788  0.7797  0.4948
  706TMC3    C410490   2.912   0.249  16.010  0.7307  0.5815  1.1913
  706TMC3    C510491   2.802   0.325  16.058 -0.2250 -0.2188 -0.3593
  706TMC3    C610492   2.822   0.455  16.092  0.0315  0.0831  0.4815
  706TMC3     C10493   3.151   0.216  16.002  0.5292  0.4429  0.2775
  706TMC3     O10494   3.234   0.227  16.089 -0.1648 -0.0620  0.2091
  706TMC3     H10495   3.161   0.471  16.051 -0.3200  0.1407 -0.5433
  706TMC3    H110496   2.904   0.142  15.999 -0.4528  0.4071  3.7818
  706TMC3    H210497   2.732   0.510  16.115  0.5412  0.4658  1.5566
  706TMC3    C710498   2.688   0.245  16.101  0.2600  0.9080 -0.4613
  706TMC3    C810499   2.969   0.651  16.093  0.6305 -0.0768  0.0047
  706TMC3    O110500   2.676   0.131  16.060 -0.4602 -0.0965 -0.6617
  706TMC3    O210501   3.057   0.699  16.025  0.0773  0.5866 -0.4733
  707TMC3    C110502   3.787   4.013   0.721  0.5007  0.1961 -0.0246
  707TMC3    C210503   3.734   3.887   0.705 -0.5481 -0.0002 -0.1601
  707TMC3    C310504   3.671   3.858   0.586 -0.3412  0.1018  0.1973
  707TMC3    C410505   3.738   4.109   0.640 -0.2114 -0.1188  0.1039
  707TMC3    C510506   3.667   4.078   0.523  0.4048  0.6303  0.1581
  707TMC3    C610507   3.635   3.951   0.496 -0.2216 -1.1407  1.2341
  707TMC3     C10508   3.825   4.059   0.857 -0.0799  0.1534  0.7465
  707TMC3     O10509   3.788   3.994   0.954 -0.0655  0.4152  0.1975
  707TMC3     H10510   3.756   3.813   0.780 -1.2256 -0.5882 -0.5441
  707TMC3    H110511   3.750   4.214   0.660  0.2155 -0.0813 -0.3477
  707TMC3    H210512   3.576   3.924   0.409  2.5259 -0.7147 -0.7573
  707TMC3    C710513   3.597   4.176   0.447  0.4916  0.1974 -0.5692
  707TMC3    C810514   3.683   3.726   0.538  0.1641  0.1252  0.6200
  707TMC3    O110515   3.551   4.148   0.337  0.5653 -0.4723  0.2101
  707TMC3    O210516   3.610   3.691   0.446  0.2986 -0.0091  0.5871
  708MPD2     C10517   1.400   2.886  14.577  0.4973 -0.1297  0.1484
  708MPD2    C110518   1.414   3.007  14.513  0.2232  0.5292  0.4681
  708MPD2    C210519   1.372   3.121  14.581  0.1020 -0.7586  0.0540
  708MPD2    C310520   1.290   3.108  14.691 -0.1787 -0.8574  0.3196
  708MPD2    C410521   1.258   2.982  14.743  0.2550 -0.5092  0.4690
  708MPD2    C510522   1.310   2.874  14.681 -0.5589 -0.5801 -0.0015
  708MPD2     H10523   1.389   3.220  14.538 -0.7002 -0.2596  0.9054
  708MPD2    H110524   1.175   2.973  14.812  1.9163  2.2796  2.8097
  708MPD2    H210525   1.407   2.792  14.523 -2.3175 -1.4829  2.1230
  708MPD2    H310526   1.276   2.774  14.707 -1.2781 -0.9170 -2.2742
  708MPD2     N10527   1.251   3.229  14.746  0.0011  0.3073 -0.2002
  708MPD2    H510528   1.255   3.311  14.688  3.4910  0.7505  0.6633
  708MPD2    N110529   1.470   3.010  14.388  0.2279  0.1351  0.4907
  708MPD2    H710530   1.473   2.919  14.343 -0.2358  0.4827 -0.2527
  709TMC3    C110531   1.465   3.123  14.182  0.9338  0.2551 -0.2552
  709TMC3    C210532   1.392   3.021  14.131 -0.8445 -0.4604 -0.0448
  709TMC3    C310533   1.310   3.044  14.025  0.1761 -0.1498 -0.4292
  709TMC3    C410534   1.435   3.246  14.142 -0.0497  0.5504 -0.4713
  709TMC3    C510535   1.340   3.269  14.040 -0.3299 -0.1144  0.4081
  709TMC3    C610536   1.287   3.162  13.972  0.5254  0.4760  0.5648
  709TMC3     C10537   1.505   3.122  14.325 -0.8748  0.3289  0.2495
  709TMC3     O10538   1.553   3.220  14.376  0.2090  0.4600 -0.0988
  709TMC3     H10539   1.410   2.920  14.166  0.0090 -0.0201  0.7727
  709TMC3    H110540   1.474   3.328  14.201  0.9968 -1.1380  1.1724
  709TMC3    H210541   1.220   3.174  13.888  0.8201  0.3362  0.3077
  709TMC3    C710542   1.235   3.354  14.098 -0.2109 -0.3993  0.2197
  709TMC3    C810543   1.285   2.930  13.940  0.4972  0.3234  0.3369
  709TMC3    O110544   1.268   3.460  14.150  0.3481  0.0912  0.3542
  709TMC3    O210545   1.237   2.826  13.987 -0.3451 -0.0166 -0.2604
  710TMC3    C110546   1.973   0.407   0.692  0.0860 -0.0673 -0.4962
  710TMC3    C210547   2.064   0.339   0.614  0.4970  0.2369 -0.5039
  710TMC3    C310548   2.121   0.217   0.659 -0.5124 -0.1293  0.6184
  710TMC3    C410549   1.924   0.357   0.806 -0.3040  0.2820  0.4331
  710TMC3    C510550   1.980   0.235   0.846  0.5231 -0.6262  0.1269
  710TMC3    C610551   2.075   0.166   0.777 -0.0035  0.3467  0.6298
  710TMC3     C10552   1.914   0.530   0.633 -0.3649 -0.0481  0.1696
  710TMC3     O10553   1.938   0.554   0.518  0.4704 -0.5671  0.0798
  710TMC3     H10554   2.102   0.383   0.523 -1.9322 -2.8700 -3.0320
  710TMC3    H110555   1.843   0.408   0.857 -0.5550 -0.9216  1.2528
  710TMC3    H210556   2.116   0.077   0.824 -0.4859  0.2705  0.9020
  710TMC3    C710557   1.929   0.168   0.968  0.1261 -0.6498  0.1142
  710TMC3    C810558   2.218   0.156   0.570 -0.5605 -0.0741 -0.2879
  710TMC3    O110559   1.969   0.052   0.990 -0.1363  0.2685 -0.4637
  710TMC3    O210560   2.239   0.222   0.470 -0.4475  0.0418 -0.2447
  711TMC3    C110561   2.312   0.750  14.950 -0.5815  0.3929 -0.7909
  711TMC3    C210562   2.292   0.770  15.083 -0.5426 -0.2466 -0.1744
  711TMC3    C310563   2.387   0.729  15.163 -0.4229  0.3302  0.6542
  711TMC3    C410564   2.404   0.655  14.904 -0.6621 -0.6376  0.3007
  711TMC3    C510565   2.489   0.608  14.994 -0.2433 -0.3037  0.1922
  711TMC3    C610566   2.495   0.663  15.117 -0.1026 -0.0880 -0.1462
  711TMC3     C10567   2.194   0.755  14.869  0.1542  0.2328 -0.5258
  711TMC3     O10568   2.107   0.685  14.909 -0.0876 -0.3289 -0.3016
  711TMC3     H10569   2.214   0.838  15.115  0.1664 -0.4094  1.9166
  711TMC3    H110570   2.400   0.622  14.800  2.5857  0.3861 -0.1538
  711TMC3    H210571   2.578   0.646  15.185 -1.1396  0.1861  1.1844
  711TMC3    C710572   2.560   0.494  14.967  0.3870 -0.1599  0.1038
  711TMC3    C810573   2.362   0.773  15.300  0.4390  0.8326  0.7004
  711TMC3    O110574   2.650   0.457  15.039 -0.4849 -0.2351  0.3586
  711TMC3    O210575   2.245   0.763  15.331 -0.7378  0.4536 -0.2053
  712MPD2     C10576   3.823   1.920  13.229 -0.4775 -0.1303 -0.2080
  712MPD2    C110577   3.763   1.909  13.348  0.1214 -0.0917  0.4129
  712MPD2    C210578   3.785   2.010  13.442 -0.4005  1.0288 -0.5487
  712MPD2    C310579   3.875   2.119  13.414  0.5427 -0.2815  0.7868
  712MPD2    C410580   3.940   2.121  13.291  0.5995  0.0578  0.4341
  712MPD2    C510581   3.906   2.027  13.197  0.0493  0.3180 -0.4854
  712MPD2     H10582   3.731   2.006  13.536  1.2811  2.4048  0.4902
  712MPD2    H110583   4.008   2.199  13.258  0.0492 -0.1379 -1.1774
  712MPD2    H210584   3.810   1.843  13.153 -1.7228  0.2211 -0.3422
  712MPD2    H310585   3.951   2.027  13.098 -1.8782 -1.0265 -1.3601
  712MPD2     N10586   3.887   2.237  13.495  0.0943  0.2697  0.2046
  712MPD2    H510587   3.939   2.316  13.458  3.0618 -2.9897 -2.6758
  712MPD2    N110588   3.670   1.809  13.387 -0.3346  0.0869  0.1865
  712MPD2    H710589   3.621   1.822  13.475  1.3660  1.7211  0.8819
  713TMC3    C110590   3.814   2.404  13.631 -1.0448  0.1554 -1.2797
  713TMC3    C210591   3.939   2.460  13.612  0.3896  0.8139 -0.2843
  713TMC3    C310592   3.943   2.595  13.627  0.2067  0.2651  0.2335
  713TMC3    C410593   3.698   2.473  13.647 -0.0579 -0.2771 -0.0933
  713TMC3    C510594   3.709   2.606  13.653  0.6408 -0.1288 -0.5535
  713TMC3    C610595   3.828   2.665  13.650 -0.1896  0.5040  0.0030
  713TMC3     C10596   3.796   2.263  13.595 -0.5342 -0.2085 -0.0147
  713TMC3     O10597   3.692   2.208  13.624 -0.4182 -0.0241 -0.4302
  713TMC3     H10598   4.024   2.394  13.611 -1.1290 -1.1586 -0.3053
  713TMC3    H110599   3.599   2.429  13.649  0.3822 -1.4285 -3.5852
  713TMC3    H210600   3.833   2.771  13.673 -0.5624  1.0099 -2.2826
  713TMC3    C710601   3.596   2.696  13.663  0.4193  0.8293 -0.4544
  713TMC3    C810602   4.069   2.669  13.610 -0.3685  0.3521  0.2414
  713TMC3    O110603   3.607   2.794  13.731 -0.2385 -0.2118  0.1934
  713TMC3    O210604   4.064   2.788  13.618  0.2148  0.0395 -0.4049
  714MPD2     C10605   0.265   0.976   1.425 -0.1115 -0.7714  0.3892
  714MPD2    C110606   0.247   0.839   1.440 -0.1304  0.1480  0.3820
  714MPD2    C210607   0.141   0.778   1.387  0.3720  0.1267 -0.4276
  714MPD2    C310608   0.041   0.850   1.318  0.0046  0.8757 -0.4798
  714MPD2    C410609   0.057   0.985   1.301 -0.1403 -0.1516  0.5150
  714MPD2    C510610   0.171   1.046   1.354  0.8693  0.4857 -0.0597
  714MPD2     H10611   0.116   0.672   1.387 -0.8346  0.4072  1.5676
  714MPD2    H110612   4.729   1.049   1.243 -0.8282  0.0823  1.5452
  714MPD2    H210613   0.355   1.034   1.444 -1.3672  0.7568  1.6185
  714MPD2    H310614   0.202   1.149   1.341  3.6159 -0.2134  0.9958
  714MPD2     N10615   4.665   0.775   1.271 -0.2149 -0.2355  0.0686
  714MPD2    H510616   4.658   0.676   1.291 -1.0954 -0.1476  0.1999
  714MPD2    N110617   0.351   0.770   1.503 -0.0557  0.4478  0.2692
  714MPD2    H710618   0.424   0.824   1.547 -1.7840  0.4212  3.1864
  715TMC3    C110619   0.486   0.584   1.571  0.4723 -0.3996  0.6817
  715TMC3    C210620   0.521   0.450   1.554  0.5251  0.1271  0.0903
  715TMC3    C310621   0.624   0.398   1.632 -1.2563 -0.1975 -0.5749
  715TMC3    C410622   0.550   0.664   1.662 -0.0382  0.1988 -0.4825
  715TMC3    C510623   0.651   0.612   1.726  0.1779 -0.4809 -0.4357
  715TMC3    C610624   0.691   0.483   1.715  0.0349 -0.3090  0.6195
  715TMC3     C10625   0.365   0.631   1.513  0.3654  0.2075  0.6048
  715TMC3     O10626   0.299   0.546   1.460 -0.1061  0.2341 -0.1434
  715TMC3     H10627   0.483   0.380   1.481 -0.1142  1.0108 -0.4204
  715TMC3    H110628   0.515   0.762   1.692  0.4519 -0.1559  1.2540
  715TMC3    H210629   0.779   0.441   1.762  0.2705  0.0569  0.4999
  715TMC3    C710630   0.729   0.710   1.800  0.3699  0.0380  0.2654
  715TMC3    C810631   0.683   0.273   1.587  0.5921  1.1600  0.6763
  715TMC3    O110632   0.725   0.826   1.770  0.6334  0.2365 -0.0337
  715TMC3    O210633   0.655   0.238   1.477 -0.0634 -0.8311 -0.0078
  716MPD2     C10634   0.899   3.900   9.086  0.7413 -0.4373  0.3567
  716MPD2    C110635   0.865   3.888   9.217  0.3145  0.1624 -0.2684
  716MPD2    C210636   0.859   3.760   9.267  0.0011 -0.1751  0.2569
  716MPD2    C310637   0.865   3.642   9.193 -0.8626 -0.0685  0.1130
  716MPD2    C410638   0.893   3.659   9.059 -0.3559 -0.3878  0.0495
  716MPD2    C510639   0.917   3.783   9.015  0.8229  0.1427  0.2106
  716MPD2     H10640   0.821   3.744   9.367 -0.1075 -0.5632  0.1541
  716MPD2    H110641   0.904   3.583   8.982  0.5796 -0.1429 -0.0619
  716MPD2    H210642   0.910   3.997   9.039  1.0342 -0.0358  1.2543
  716MPD2    H310643   0.936   3.799   8.909 -0.3512 -1.8659 -0.2847
  716MPD2     N10644   0.834   3.517   9.245 -0.4815 -0.2464 -0.6838
  716MPD2    H510645   0.805   3.511   9.342 -1.0972  0.2160 -0.8408
  716MPD2    N110646   0.854   4.007   9.297  0.4501 -1.1758 -0.2512
  716MPD2    H710647   0.878   4.097   9.255  0.8078 -0.6946  1.0083
  717TMC3    C110648   0.755   3.295   9.251  0.2580 -0.2310  0.2155
  717TMC3    C210649   0.665   3.335   9.343 -0.4990  0.1982  0.2572
  717TMC3    C310650   0.612   3.237   9.427 -0.0618  0.6123  0.9237
  717TMC3    C410651   0.792   3.164   9.224  0.2249  0.3146 -0.4512
  717TMC3    C510652   0.732   3.071   9.299  0.2260  0.6625  0.3820
  717TMC3    C610653   0.644   3.107   9.401  0.8062  0.1563  0.1941
  717TMC3     C10654   0.832   3.392   9.175  0.2490 -0.0127  0.0824
  717TMC3     O10655   0.858   3.373   9.061 -0.0473 -0.3038 -0.0074
  717TMC3     H10656   0.633   3.438   9.354 -1.2717 -0.0628  0.4766
  717TMC3    H110657   0.865   3.135   9.149 -1.6243 -2.3356 -1.2612
  717TMC3    H210658   0.592   3.033   9.461  1.9155 -0.1276  0.8192
  717TMC3    C710659   0.770   2.938   9.277  0.7123  0.5616 -0.0439
  717TMC3    C810660   0.509   3.276   9.524 -0.2867 -0.2890 -0.3267
  717TMC3    O110661   0.850   2.910   9.193 -0.2811  0.3046 -0.0122
  717TMC3    O210662   0.446   3.377   9.498  0.1656  0.4374  0.0939
  718MPD2     C10663   1.022   1.869  12.285  0.3311  0.1253 -1.0378
  718MPD2    C110664   0.978   1.899  12.417 -0.5962  0.0069  0.9360
  718MPD2    C210665   0.845   1.883  12.458  0.1699  0.4956  0.1211
  718MPD2    C310666   0.756   1.824  12.366 -0.4772  0.1452 -0.3432
  718MPD2    C410667   0.802   1.792  12.240 -0.5259  0.0093  0.6352
  718MPD2    C510668   0.930   1.816  12.198  0.3884 -0.2142 -0.1300
  718MPD2     H10669   0.804   1.906  12.555 -0.0870  1.3639 -0.1934
  718MPD2    H110670   0.740   1.756  12.159 -0.0867 -3.5190  1.8538
  718MPD2    H210671   1.121   1.893  12.247  0.9947 -1.8518 -0.5613
  718MPD2    H310672   0.966   1.801  12.096 -0.7292  2.8506 -0.9699
  718MPD2     N10673   0.621   1.807  12.400 -0.1891 -0.2486  0.2603
  718MPD2    H510674   0.595   1.824  12.497  1.8721  0.4532  0.7011
  718MPD2    N110675   1.075   1.970  12.494 -0.5768 -0.6152 -0.1430
  718MPD2    H710676   1.165   1.988  12.449 -0.2687 -2.5348 -0.2800
  719TMC3    C110677   1.158   2.082  12.691  0.0482 -0.2662 -0.5647
  719TMC3    C210678   1.129   2.108  12.821  0.1084 -0.3641  0.3062
  719TMC3    C310679   1.118   2.239  12.865 -0.4487 -0.2912  0.8542
  719TMC3    C410680   1.200   2.178  12.608  0.2701 -0.1937 -0.0933
  719TMC3    C510681   1.210   2.306  12.663 -0.7462 -0.3638  0.3001
  719TMC3    C610682   1.174   2.337  12.794  0.2461 -0.7397  0.4977
  719TMC3     C10683   1.060   1.997  12.629  0.7023  0.0883  0.4753
  719TMC3     O10684   0.967   1.980  12.704  0.2133  0.0436 -0.3563
  719TMC3     H10685   1.116   2.021  12.885 -2.0413  0.2423  0.7033
  719TMC3    H110686   1.238   2.156  12.508  0.8869  0.8655 -0.0916
  719TMC3    H210687   1.176   2.439  12.831 -2.7108 -0.5013 -0.0074
  719TMC3    C710688   1.265   2.416  12.577 -0.4471  0.4410  0.0788
  719TMC3    C810689   0.988   2.280  12.900  0.9377  0.0695  0.2323
  719TMC3    O110690   1.290   2.387  12.458 -0.4681  1.2397 -0.2126
  719TMC3    O210691   0.982   2.379  12.970 -0.0548  0.2064 -0.3047
  720MPD2     C10692   3.366   3.912  14.540  0.6831 -0.1057 -0.4956
  720MPD2    C110693   3.428   3.877  14.427 -0.4004  0.9256 -0.4083
  720MPD2    C210694   3.550   3.813  14.446  0.2833 -0.5436  0.0224
  720MPD2    C310695   3.595   3.780  14.576 -0.1712 -0.3356  0.0372
  720MPD2    C410696   3.517   3.792  14.685  0.6503 -0.1098  0.4514
  720MPD2    C510697   3.406   3.871  14.663  0.0721  0.2536 -0.3995
  720MPD2     H10698   3.612   3.809  14.357 -0.0934 -1.4323 -0.1999
  720MPD2    H110699   3.549   3.764  14.785 -2.7784 -3.7021  0.5816
  720MPD2    H210700   3.276   3.972  14.548  0.1001 -1.1279  0.5437
  720MPD2    H310701   3.353   3.905  14.750 -0.3221 -0.7715 -0.2414
  720MPD2     N10702   3.725   3.721  14.582  0.0751  0.0294  0.2037
  720MPD2    H510703   3.777   3.720  14.495 -0.4244 -0.9100 -0.0872
  720MPD2    N110704   3.400   3.921  14.300 -0.1682  0.0059 -0.4141
  720MPD2    H710705   3.448   3.881  14.220 -1.6232 -0.3420 -1.1027
  721TMC3    C110706   3.927   3.757  14.679  0.1924  0.1613 -0.5431
  721TMC3    C210707   3.979   3.859  14.755  0.5049  0.7286  0.0220
  721TMC3    C310708   4.102   3.907  14.730  0.5181  0.6332 -0.1505
  721TMC3    C410709   3.999   3.709  14.566 -0.5693  0.0401 -0.1524
  721TMC3    C510710   4.127   3.752  14.553  0.5288  0.5697  0.1418
  721TMC3    C610711   4.180   3.850  14.630 -0.1176 -0.1454 -0.3797
  721TMC3     C10712   3.793   3.705  14.699  0.4104  0.1659 -0.0856
  721TMC3     O10713   3.753   3.715  14.813  0.3346  0.2851  0.3489
  721TMC3     H10714   3.916   3.902  14.832 -1.2365 -2.2653  0.2829
  721TMC3    H110715   3.965   3.621  14.513 -0.4068 -1.2649  1.9131
  721TMC3    H210716   4.285   3.879  14.625  0.1572 -1.5532 -2.7858
  721TMC3    C710717   4.241   3.664  14.498 -0.4771 -0.3444  0.2997
  721TMC3    C810718   4.181   3.976  14.825  0.1070 -0.4313  0.6535
  721TMC3    O110719   4.350   3.681  14.553  0.2482  0.3338  0.1669
  721TMC3    O210720   4.301   3.977  14.808  0.2733 -0.0511  0.2680
  722MPD2     C10721   2.599   2.369  12.899 -0.2344 -0.2849  0.2671
  722MPD2    C110722   2.602   2.460  13.002  0.1217 -0.2007  0.3373
  722MPD2    C210723   2.484   2.466  13.082  0.1446 -0.4075  0.1202
  722MPD2    C310724   2.381   2.371  13.073  0.2394  0.5087 -0.5123
  722MPD2    C410725   2.394   2.277  12.976  0.4236 -0.0778 -0.0658
  722MPD2    C510726   2.502   2.275  12.890 -0.4077 -0.0837 -0.7026
  722MPD2     H10727   2.465   2.547  13.153 -1.2240  0.3134 -1.0679
  722MPD2    H110728   2.331   2.190  12.970 -1.4422  1.3045 -0.5045
  722MPD2    H210729   2.679   2.359  12.827  1.1407  2.3066  1.4311
  722MPD2    H310730   2.516   2.193  12.820  1.0130 -0.6207  0.2185
  722MPD2     N10731   2.264   2.390  13.157 -0.7560 -0.0896 -0.3372
  722MPD2    H510732   2.254   2.474  13.213  0.8986  0.0394 -0.2557
  722MPD2    N110733   2.707   2.548  13.031  0.3591  0.3696 -0.7691
  722MPD2    H710734   2.691   2.605  13.113  0.2190 -1.1097  0.2432
  723TMC3    C110735   2.029   2.367  13.203 -1.3149 -0.6385  0.0239
  723TMC3    C210736   1.927   2.274  13.203 -0.2358 -0.3870 -0.2650
  723TMC3    C310737   1.798   2.326  13.217  0.3694  0.6439  0.3367
  723TMC3    C410738   2.007   2.502  13.194  0.2732  0.3210  0.5318
  723TMC3    C510739   1.876   2.542  13.183 -0.0905  0.2687  0.1848
  723TMC3    C610740   1.773   2.460  13.210 -1.0048  0.4907 -0.1829
  723TMC3     C10741   2.149   2.307  13.155 -0.0477 -0.2390  1.2075
  723TMC3     O10742   2.137   2.198  13.100  0.4098  0.3152  0.0676
  723TMC3     H10743   1.940   2.167  13.204 -1.7395 -0.5545  2.4228
  723TMC3    H110744   2.084   2.570  13.160 -0.6969  0.9580 -0.4039
  723TMC3    H210745   1.673   2.503  13.209 -1.8912 -1.6148 -0.5222
  723TMC3    C710746   1.852   2.689  13.202 -0.4866  0.0478  0.0422
  723TMC3    C810747   1.681   2.246  13.201 -0.0564  0.3420  0.6063
  723TMC3    O110748   1.760   2.730  13.273 -0.1302  0.2895  0.9633
  723TMC3    O210749   1.590   2.268  13.274 -0.4996  0.1156 -0.2900
  724TMC3    C110750   2.591   0.632  10.184 -0.2615 -0.8600 -0.2029
  724TMC3    C210751   2.612   0.703  10.069  0.5146  0.1327  0.4506
  724TMC3    C310752   2.739   0.743  10.033 -0.0873  0.1047 -0.9301
  724TMC3    C410753   2.695   0.600  10.266 -0.2575 -0.3399  0.0589
  724TMC3    C510754   2.821   0.643  10.228 -0.0692 -0.0832  0.6584
  724TMC3    C610755   2.847   0.713  10.110 -0.5879 -0.2948  0.8035
  724TMC3     C10756   2.468   0.638  10.249  0.4035 -0.2274  0.4780
  724TMC3     O10757   2.471   0.659  10.367  0.6177  0.0822  0.2094
  724TMC3     H10758   2.544   0.730   9.988 -0.5923  1.7896  1.9297
  724TMC3    H110759   2.670   0.548  10.358 -0.9504  0.8939  0.5702
  724TMC3    H210760   2.945   0.733  10.070 -1.2186  2.0415  0.4111
  724TMC3    C710761   2.933   0.657  10.322  0.6475 -0.5649  0.1715
  724TMC3    C810762   2.743   0.858   9.946  0.5054  0.4692  0.3745
  724TMC3    O110763   3.026   0.717  10.274  0.0803  0.3562 -0.1793
  724TMC3    O210764   2.674   0.872   9.850 -0.1476  0.8007 -0.4240
  725TMC3    C110765   4.184   4.374  13.691  0.4181  0.3702 -0.2108
  725TMC3    C210766   4.099   4.343  13.589 -0.5433 -0.6591  0.3510
  725TMC3    C310767   4.009   4.242  13.604  0.1777  0.3255  0.1622
  725TMC3    C410768   4.200   4.285  13.790  0.5925 -0.3256  0.6225
  725TMC3    C510769   4.105   4.187  13.804 -0.5909 -0.3207 -0.3227
  725TMC3    C610770   4.000   4.171  13.724  0.5022  0.1246 -0.5110
  725TMC3     C10771   4.296   4.463  13.654  0.1269 -0.1612  0.3655
  725TMC3     O10772   4.291   4.584  13.641  0.5353 -0.3088 -0.7459
  725TMC3     H10773   4.106   4.406  13.501 -0.4822 -2.0253 -0.6249
  725TMC3    H110774   4.279   4.312  13.859 -0.6800  0.8314  1.6225
  725TMC3    H210775   3.925   4.095  13.742  0.1374  0.7103  0.4340
  725TMC3    C710776   4.113   4.098  13.909 -0.2215 -0.8659 -0.9180
  725TMC3    C810777   3.962   4.164  13.491 -0.0047 -0.8700  0.9205
  725TMC3    O110778   4.011   4.085  13.972  0.0278 -0.1358  0.1685
  725TMC3    O210779   3.916   4.052  13.509  0.4405  0.7113  0.5863
  726MPD2     C10780   2.221   0.857  10.725  0.2929 -0.2856 -0.0815
  726MPD2    C110781   2.113   0.909  10.665 -0.0334 -0.2443  0.2712
  726MPD2    C210782   1.991   0.883  10.711  0.2135  0.4673  0.1710
  726MPD2    C310783   1.976   0.802  10.820 -0.2947  0.1698 -0.2363
  726MPD2    C410784   2.086   0.746  10.884  0.4523 -0.4974  0.0978
  726MPD2    C510785   2.208   0.779  10.831 -0.4471 -0.6210  0.4632
  726MPD2     H10786   1.907   0.930  10.661 -1.7120 -1.4360  1.5790
  726MPD2    H110787   2.083   0.675  10.966 -1.4792 -0.0541  0.4006
  726MPD2    H210788   2.322   0.875  10.691  0.5467 -0.8970  0.3623
  726MPD2    H310789   2.297   0.736  10.875 -0.3456 -0.5001  0.3738
  726MPD2     N10790   1.853   0.789  10.888  0.1415 -0.0735 -0.4045
  726MPD2    H510791   1.849   0.735  10.974  0.3696  2.5394  1.2155
  726MPD2    N110792   2.121   1.001  10.553  0.2431 -1.0068 -0.8755
  726MPD2    H710793   2.036   1.038  10.513  1.2280 -1.0157 -2.9952
  727TMC3    C110794   2.219   1.131  10.386  0.1141  0.0717  0.2609
  727TMC3    C210795   2.306   1.238  10.377 -0.7136 -0.6349 -0.1037
  727TMC3    C310796   2.284   1.333  10.297 -0.9051  0.0709 -0.0021
  727TMC3    C410797   2.104   1.129  10.311 -0.1517 -0.3729 -0.4975
  727TMC3    C510798   2.080   1.242  10.235  0.2739 -0.1440 -1.0742
  727TMC3    C610799   2.163   1.350  10.243  0.3321 -0.6130 -0.0483
  727TMC3     C10800   2.238   1.039  10.500 -0.6787  0.1466  0.2559
  727TMC3     O10801   2.353   1.017  10.533 -1.3122 -0.1265 -0.3570
  727TMC3     H10802   2.405   1.224  10.419 -0.4056 -0.0444 -0.6355
  727TMC3    H110803   2.039   1.042  10.301  1.0896 -0.9529 -3.4860
  727TMC3    H210804   2.124   1.443  10.204  1.3570  0.1660  0.8013
  727TMC3    C710805   1.941   1.255  10.191  0.5154 -0.0287 -0.9968
  727TMC3    C810806   2.381   1.443  10.314  0.7843 -0.0644 -0.0995
  727TMC3    O110807   1.853   1.196  10.248  0.4367  0.1872 -0.1417
  727TMC3    O210808   2.424   1.454  10.425  0.0620 -0.8400 -0.1794
  728TMC3    C110809   1.754   4.339  15.448 -0.0467 -0.0111 -0.0389
  728TMC3    C210810   1.884   4.364  15.441  0.2632  0.6601 -0.2860
  728TMC3    C310811   1.943   4.387  15.319  0.5061  0.1735  0.3779
  728TMC3    C410812   1.678   4.348  15.331 -0.0357 -0.6927  0.3874
  728TMC3    C510813   1.737   4.382  15.217 -0.4772  0.6310  0.2328
  728TMC3    C610814   1.874   4.399  15.202 -0.5872  1.2091 -0.5623
  728TMC3     C10815   1.685   4.341  15.581 -0.3600 -0.3572 -0.7322
  728TMC3     O10816   1.749   4.399  15.668  0.8210 -0.7462 -0.5793
  728TMC3     H10817   1.944   4.364  15.532  0.6006 -2.9497 -0.4930
  728TMC3    H110818   1.569   4.345  15.332 -0.0382 -0.6926  0.0960
  728TMC3    H210819   1.915   4.428  15.106  1.5410  1.9629  0.5705
  728TMC3    C710820   1.654   4.378  15.097 -0.5210 -0.6166 -0.1029
  728TMC3    C810821   2.083   4.433  15.320 -0.0642  0.6206 -0.1612
  728TMC3    O110822   1.544   4.323  15.111  0.9814  0.8470  0.7239
  728TMC3    O210823   2.157   4.409  15.413 -0.0187 -0.2110 -0.2798
  729MPD2     C10824   3.171   0.401  16.357 -0.9320 -0.6158 -0.2011
  729MPD2    C110825   3.194   0.536  16.361  0.1617  0.4951 -0.0266
  729MPD2    C210826   3.100   0.611  16.429 -0.4420  0.5865  0.1249
  729MPD2    C310827   2.998   0.548  16.500 -0.6848 -0.4126 -0.4013
  729MPD2    C410828   2.982   0.412  16.500 -0.1318 -0.8455 -0.5231
  729MPD2    C510829   3.066   0.342  16.423 -0.3294 -0.2332  0.1304
  729MPD2     H10830   3.102   0.719  16.417  0.6424  0.3324 -2.0550
  729MPD2    H110831   2.914   0.358  16.565 -0.5787  0.9856  0.5259
  729MPD2    H210832   3.244   0.340  16.305  1.2436  0.3907  1.6882
  729MPD2    H310833   3.060   0.234  16.421  4.0314 -0.5063  1.4009
  729MPD2     N10834   2.911   0.613  16.584  0.9797  0.0415  0.5594
  729MPD2    H510835   2.839   0.558  16.630  0.1734 -0.0287 -0.7973
  729MPD2    N110836   3.296   0.590  16.271 -0.4423  0.2640 -0.9694
  729MPD2    H710837   3.347   0.519  16.219 -1.2657 -1.4262  0.5126
  730TMC3    C110838   2.790   0.801  16.674 -0.6490 -0.1385 -0.4364
  730TMC3    C210839   2.755   0.737  16.792  0.3949  0.9767  0.0423
  730TMC3    C310840   2.678   0.803  16.882  0.2971 -0.0807  0.2317
  730TMC3    C410841   2.760   0.936  16.661  0.2642 -0.0081  0.0021
  730TMC3    C510842   2.689   1.000  16.760  0.1636  0.5331 -0.4809
  730TMC3    C610843   2.643   0.931  16.867  0.0096  0.7634  0.1941
  730TMC3     C10844   2.900   0.750  16.595 -0.4651  0.4158 -0.4907
  730TMC3     O10845   2.982   0.840  16.564 -0.3264  0.1999  0.1055
  730TMC3     H10846   2.782   0.635  16.816  1.0130  0.8136 -1.3771
  730TMC3    H110847   2.775   0.983  16.564 -0.4352 -0.6443 -0.4236
  730TMC3    H210848   2.591   0.971  16.953 -0.8408  2.8093 -1.2834
  730TMC3    C710849   2.736   1.134  16.784 -1.0115 -0.3705 -0.2742
  730TMC3    C810850   2.692   0.774  17.027  0.1736 -0.5763 -0.1080
  730TMC3    O110851   2.795   1.173  16.684 -0.0916 -0.3089  0.4495
  730TMC3    O210852   2.586   0.753  17.087  0.3313  0.1501 -0.6855
  731MPD2     C10853   3.257   3.828  12.582  0.2125 -0.1395  0.8079
  731MPD2    C110854   3.398   3.830  12.600  0.1256  0.0605 -0.0793
  731MPD2    C210855   3.456   3.741  12.691  0.0390  0.2939 -0.2298
  731MPD2    C310856   3.380   3.648  12.755  0.2467  0.5930 -0.8061
  731MPD2    C410857   3.248   3.645  12.733 -0.4777  0.1644 -0.4005
  731MPD2    C510858   3.184   3.736  12.646  0.2170 -0.2276 -0.0538
  731MPD2     H10859   3.563   3.730  12.709  0.1228 -1.3313 -1.6656
  731MPD2    H110860   3.189   3.562  12.769 -0.4013  0.4154  0.3181
  731MPD2    H210861   3.205   3.892  12.512 -0.4844 -0.8891  0.6414
  731MPD2    H310862   3.079   3.728  12.622  0.7671 -0.9409 -2.2349
  731MPD2     N10863   3.448   3.554  12.833 -0.0979  0.6063 -0.1150
  731MPD2    H510864   3.546   3.573  12.851  0.0315  0.2845 -0.4792
  731MPD2    N110865   3.476   3.925  12.527 -0.0378  0.6957  0.5869
  731MPD2    H710866   3.432   3.973  12.450 -2.5593 -1.2596  0.8124
  732TMC3    C110867   3.674   4.032  12.443 -0.4144 -0.1726  0.4593
  732TMC3    C210868   3.648   3.990  12.318  0.4589  0.3198  0.7450
  732TMC3    C310869   3.736   4.021  12.220  0.0482 -0.2829  0.0384
  732TMC3    C410870   3.801   4.083  12.473  0.3030 -0.4438 -0.2044
  732TMC3    C510871   3.888   4.113  12.373 -0.0944 -0.3537  0.6226
  732TMC3    C610872   3.857   4.082  12.243 -0.3362 -0.7584  0.5300
  732TMC3     C10873   3.609   3.967  12.555  1.0295 -0.3887  0.1030
  732TMC3     O10874   3.674   3.953  12.654  0.0007 -0.2958  0.2917
  732TMC3     H10875   3.567   3.919  12.306  1.4917 -1.1387  2.4903
  732TMC3    H110876   3.818   4.134  12.567 -1.1503 -2.0841  0.9483
  732TMC3    H210877   3.928   4.095  12.162 -0.5762 -3.0733 -0.0552
  732TMC3    C710878   4.015   4.175  12.406  1.0733 -0.4569 -0.0966
  732TMC3    C810879   3.730   3.953  12.091  0.1955  0.4890  0.1495
  732TMC3    O110880   4.068   4.238  12.319 -0.5158  0.6433  0.7721
  732TMC3    O210881   3.824   3.980  12.017 -0.0424 -0.1650 -0.0413
  733TMC3    C110882   0.191   1.984  12.316  0.0385  0.0878  0.3071
  733TMC3    C210883   0.287   1.888  12.285 -0.0246  0.2951  0.3503
  733TMC3    C310884   0.391   1.867  12.368  0.5667 -0.5557 -0.3313
  733TMC3    C410885   0.208   2.065  12.428  0.5853  0.8189  0.1860
  733TMC3    C510886   0.311   2.031  12.511 -0.0654  0.0766 -0.0333
  733TMC3    C610887   0.407   1.938  12.484  0.2680  0.6330  0.0170
  733TMC3     C10888   0.051   1.961  12.265 -0.8881  0.6999  0.8180
  733TMC3     O10889   4.708   2.047  12.298 -0.2607 -0.1987  0.6173
  733TMC3     H10890   0.278   1.825  12.197  3.7870 -1.1842  1.0531
  733TMC3    H110891   0.140   2.145  12.454  1.6963  2.3615 -1.6875
  733TMC3    H210892   0.493   1.916  12.547  0.5047 -0.3135 -0.6202
  733TMC3    C710893   0.339   2.129  12.618  0.5087 -0.0635  0.1054
  733TMC3    C810894   0.517   1.808  12.310 -0.4096  0.0645  0.4010
  733TMC3    O110895   0.253   2.171  12.695 -0.1257  0.4697 -0.5001
  733TMC3    O210896   0.524   1.807  12.190  0.0981 -0.6109 -0.1804
  734MPD2     C10897   2.003   4.136  12.621  0.4533 -0.3330 -0.4740
  734MPD2    C110898   1.894   4.079  12.563  0.2153  0.6935  0.1202
  734MPD2    C210899   1.859   4.127  12.438  0.8006  0.8761 -0.3981
  734MPD2    C310900   1.943   4.214  12.376  0.1374  0.6813  0.2676
  734MPD2    C410901   2.059   4.265  12.435  0.1809 -0.5749 -0.1752
  734MPD2    C510902   2.076   4.232  12.563 -0.6420  0.7522 -0.0142
  734MPD2     H10903   1.770   4.095  12.384 -0.3223 -1.5416  2.9031
  734MPD2    H110904   2.124   4.338  12.388 -0.0460  0.0759  0.5303
  734MPD2    H210905   2.019   4.123  12.727 -1.7360 -1.6887 -0.3248
  734MPD2    H310906   2.156   4.278  12.620  0.2144 -0.0457 -0.5618
  734MPD2     N10907   1.902   4.232  12.241  0.7271 -0.5348  0.5488
  734MPD2    H510908   1.825   4.170  12.219  0.6346 -0.4240  0.5604
  734MPD2    N110909   1.815   3.988  12.637  0.0834  0.0414  0.0482
  734MPD2    H710910   1.861   3.950  12.719 -2.1056  0.5619  1.5195
  735TMC3    C110911   1.688   3.788  12.622  0.0514  0.3872 -0.0779
  735TMC3    C210912   1.579   3.728  12.565  0.0437  0.0525  0.0280
  735TMC3    C310913   1.584   3.601  12.504  0.3987  1.0308 -0.2442
  735TMC3    C410914   1.808   3.720  12.636  0.7682  0.0676 -0.3177
  735TMC3    C510915   1.811   3.595  12.576  0.2809 -1.1366  0.2089
  735TMC3    C610916   1.705   3.538  12.508  0.2234 -0.7155 -0.2731
  735TMC3     C10917   1.710   3.918  12.573 -0.2130  0.0401 -0.3232
  735TMC3     O10918   1.645   3.950  12.477  0.3457 -0.2297  0.4132
  735TMC3     H10919   1.489   3.788  12.559  1.8719  2.9697  2.0135
  735TMC3    H110920   1.898   3.769  12.672  0.7266 -0.8341  0.9970
  735TMC3    H210921   1.706   3.444  12.454 -0.3254  0.5661 -2.5380
  735TMC3    C710922   1.938   3.570  12.512 -0.3027  0.0045 -0.1043
  735TMC3    C810923   1.535   3.608  12.363 -0.1971  0.3100 -0.8806
  735TMC3    O110924   2.010   3.667  12.508 -0.3383 -0.4770  0.0579
  735TMC3    O210925   1.535   3.506  12.298  0.0418  1.0273 -0.8545
  736MPD2     C10926   2.103   3.258  12.414 -0.2646 -0.9331  0.1427
  736MPD2    C110927   2.073   3.390  12.411 -0.5988 -0.4741  0.5920
  736MPD2    C210928   2.153   3.472  12.334  0.0779 -0.2173  0.0862
  736MPD2    C310929   2.268   3.420  12.269  0.5102  0.1993  0.2875
  736MPD2    C410930   2.300   3.286  12.284 -0.0433  0.4815  0.4031
  736MPD2    C510931   2.213   3.203  12.352  0.2712  0.4283 -0.0207
  736MPD2     H10932   2.125   3.576  12.327 -1.7287 -0.5786  1.9537
  736MPD2    H110933   2.391   3.254  12.236 -1.1213 -2.0578  0.0591
  736MPD2    H210934   2.040   3.190  12.471  1.6081 -2.9637 -0.2234
  736MPD2    H310935   2.239   3.101  12.373  1.1005  0.4918 -0.7588
  736MPD2     N10936   2.359   3.497  12.191  0.0192  0.4413  0.0386
  736MPD2    H510937   2.436   3.442  12.154  0.3380  0.4206  0.7221
  736MPD2    N110938   1.964   3.437  12.484 -0.5378 -0.1736 -0.0227
  736MPD2    H710939   1.895   3.377  12.528 -0.7984  0.0838 -0.0725
  737TMC3    C110940   2.466   3.675  12.071  0.0624  0.1966 -0.2571
  737TMC3    C210941   2.500   3.806  12.068 -0.2306  0.1845  0.2925
  737TMC3    C310942   2.613   3.841  11.993  0.1866 -0.5887 -0.8359
  737TMC3    C410943   2.527   3.582  11.991 -0.6660  0.0809  0.2662
  737TMC3    C510944   2.633   3.620  11.914 -0.3874 -0.1940 -0.6574
  737TMC3    C610945   2.678   3.751  11.915  0.4263 -0.9443  0.8314
  737TMC3     C10946   2.360   3.636  12.161  0.3261 -0.5438  0.8195
  737TMC3     O10947   2.294   3.726  12.210  0.4673 -0.1783 -0.2872
  737TMC3     H10948   2.451   3.881  12.129  0.1416  1.8985 -1.5334
  737TMC3    H110949   2.489   3.481  11.975 -0.9179  0.0850  0.8232
  737TMC3    H210950   2.766   3.786  11.862 -0.5884  1.3135  0.6451
  737TMC3    C710951   2.706   3.515  11.845  0.3112  0.7070  0.0745
  737TMC3    C810952   2.648   3.979  11.980  0.1048  0.9422  0.2932
  737TMC3    O110953   2.700   3.394  11.882  0.2613 -0.1621  0.6061
  737TMC3    O210954   2.767   4.013  11.982 -0.0277  0.2270  0.1598
  738MPD2     C10955   2.474   3.106  14.990  0.7212  0.4756  0.4237
  738MPD2    C110956   2.528   2.982  15.033  0.1908  1.2974 -0.6460
  738MPD2    C210957   2.665   2.976  15.043 -0.3886  0.1104 -0.3501
  738MPD2    C310958   2.745   3.088  15.000  0.2502  0.2405  0.1719
  738MPD2    C410959   2.686   3.208  14.981  0.7750  0.6460  0.4890
  738MPD2    C510960   2.551   3.220  14.979  0.9628  0.0943  0.3332
  738MPD2     H10961   2.698   2.874  15.060  3.9532  1.5155 -0.3891
  738MPD2    H110962   2.743   3.298  14.959 -0.5107  0.6338 -2.8629
  738MPD2    H210963   2.366   3.114  14.984  0.7305 -0.7533 -1.2609
  738MPD2    H310964   2.513   3.318  14.950 -2.4396 -1.0532  0.8904
  738MPD2     N10965   2.882   3.075  14.965  0.7784  0.4970 -0.8831
  738MPD2    H510966   2.941   3.156  14.951 -0.8308  2.0266  1.1845
  738MPD2    N110967   2.455   2.863  15.030  0.0056  0.4483 -0.3478
  738MPD2    H710968   2.507   2.786  15.072  2.1342  2.4781  0.7642
  739TMC3    C110969   3.093   2.975  14.911  0.2754 -0.1116 -0.3613
  739TMC3    C210970   3.099   3.046  14.793 -0.9056  0.8095  0.1030
  739TMC3    C310971   3.197   3.007  14.705  0.0584  0.3953 -0.2526
  739TMC3    C410972   3.182   2.877  14.944  1.3716 -0.3609 -1.0426
  739TMC3    C510973   3.295   2.858  14.865 -0.8500  0.0063 -0.7904
  739TMC3    C610974   3.292   2.922  14.740 -0.0238  0.4230  0.1782
  739TMC3     C10975   2.951   2.957  14.957 -0.2880 -0.6643 -0.0515
  739TMC3     O10976   2.929   2.852  15.020 -0.5047  0.0675 -0.3393
  739TMC3     H10977   3.023   3.117  14.763 -0.3361  1.6947  0.7830
  739TMC3    H110978   3.181   2.846  15.048 -0.8471  2.2688 -0.2942
  739TMC3    H210979   3.372   2.908  14.668 -0.1279 -2.5077  0.6242
  739TMC3    C710980   3.415   2.831  14.928 -0.3183 -0.4761  0.5284
  739TMC3    C810981   3.189   3.068  14.575 -0.0648 -0.5823  0.4794
  739TMC3    O110982   3.414   2.838  15.053 -0.8273 -0.2289  0.2998
  739TMC3    O210983   3.076   3.100  14.545  0.0714  0.0656 -0.0070
  740TMC3    C110984   3.477   4.266  14.631  0.0335 -0.2017  0.0855
  740TMC3    C210985   3.520   4.205  14.745  0.6280  0.4721 -0.4213
  740TMC3    C310986   3.649   4.157  14.737  0.9713  0.1790 -0.2811
  740TMC3    C410987   3.546   4.279  14.516  0.3643 -0.2655  0.0970
  740TMC3    C510988   3.673   4.230  14.504 -0.4144  0.1653 -0.4652
  740TMC3    C610989   3.723   4.176  14.620 -0.1683  0.1311  0.1723
  740TMC3     C10990   3.344   4.324  14.615  0.0867  0.5828  0.4972
  740TMC3     O10991   3.320   4.387  14.517 -0.2787  0.2550 -0.0750
  740TMC3     H10992   3.464   4.190  14.837  0.6858 -2.2630 -0.8308
  740TMC3    H110993   3.516   4.342  14.433  0.4176  0.7660  0.8556
  740TMC3    H210994   3.825   4.138  14.626 -0.1850 -0.2001 -1.6437
  740TMC3    C710995   3.726   4.180  14.383  0.9084 -0.6393 -0.0983
  740TMC3    C810996   3.714   4.105  14.857 -0.6638 -0.2552  0.3900
  740TMC3    O110997   3.792   4.080  14.396  0.8593  0.7338  0.2588
  740TMC3    O210998   3.833   4.129  14.859  0.3013 -0.0822 -0.0079
  741TMC3    C110999   2.828   3.820  14.171 -0.3378  0.3764 -0.5205
  741TMC3    C211000   2.723   3.753  14.212 -0.2940 -0.2528  0.2556
  741TMC3    C311001   2.742   3.646  14.299  0.0576  0.0562  0.3543
  741TMC3    C411002   2.956   3.764  14.190 -0.7597 -0.0773  0.1845
  741TMC3    C511003   2.966   3.653  14.267 -0.2787  0.6109  0.0814
  741TMC3    C611004   2.860   3.599  14.334  0.0564 -0.6174  0.3736
  741TMC3     C11005   2.811   3.946  14.124 -0.2670 -0.2184  0.5013
  741TMC3     O11006   2.718   4.012  14.173  0.8285  0.3302 -0.4019
  741TMC3     H11007   2.626   3.798  14.192 -0.8688 -0.4645  2.5366
  741TMC3    H111008   3.046   3.813  14.154  0.4612 -0.4139  2.8404
  741TMC3    H211009   2.866   3.517  14.404 -1.8132  1.5918  3.1090
  741TMC3    C711010   3.104   3.614  14.296 -0.0758 -0.0406  0.0126
  741TMC3    C811011   2.629   3.555  14.322 -0.5532  0.3462 -0.8161
  741TMC3    O111012   3.184   3.608  14.207 -0.0530  0.3150  0.5087
  741TMC3    O211013   2.515   3.597  14.305  0.4519  0.3358 -0.0236
  742TMC3    C111014   2.609   1.901  15.481 -0.1750 -0.0371  0.2839
  742TMC3    C211015   2.611   1.919  15.347 -0.5196 -0.1759  0.3639
  742TMC3    C311016   2.693   2.017  15.303  0.0304  0.3229  0.5096
  742TMC3    C411017   2.696   1.959  15.568  0.1948  0.3386 -0.6334
  742TMC3    C511018   2.789   2.045  15.522 -0.4155 -0.0847 -0.1761
  742TMC3    C611019   2.779   2.085  15.389  0.1847 -0.0127  0.1682
  742TMC3     C11020   2.560   1.769  15.510 -0.1736  0.2752 -0.3476
  742TMC3     O11021   2.541   1.691  15.420  0.2683  0.2065 -0.4665
  742TMC3     H11022   2.536   1.874  15.283  0.2853  0.2613 -0.8817
  742TMC3    H111023   2.703   1.922  15.670 -1.4666  2.6067  0.2814
  742TMC3    H211024   2.851   2.161  15.362 -1.0073  1.3938  0.9663
  742TMC3    C711025   2.919   2.058  15.583 -1.0208  0.2354 -0.3315
  742TMC3    C811026   2.704   2.023  15.157  0.1272 -0.8408 -0.2299
  742TMC3    O111027   3.014   2.096  15.513  0.1936 -0.2263 -0.0605
  742TMC3    O211028   2.639   1.940  15.095 -0.3830  0.3118 -0.0185
  743MPD2     C11029   4.395   3.560   1.335 -0.6230 -0.4217  0.2970
  743MPD2    C111030   4.478   3.485   1.268  0.3329  0.8402 -0.1253
  743MPD2    C211031   4.612   3.492   1.293  0.0505 -0.3534 -0.0761
  743MPD2    C311032   4.667   3.587   1.374  0.2178 -0.4716 -0.1022
  743MPD2    C411033   4.583   3.662   1.448 -0.9564  0.1448 -0.2338
  743MPD2    C511034   4.448   3.638   1.434 -0.2510 -0.4600 -0.0544
  743MPD2     H11035   4.687   3.432   1.243 -0.7930 -0.3156 -1.3957
  743MPD2    H111036   4.616   3.738   1.517 -2.6308  0.2886  0.4021
  743MPD2    H211037   4.287   3.550   1.336 -0.4274 -2.6121 -0.4531
  743MPD2    H311038   4.385   3.703   1.494 -0.1038  0.4705 -0.8960
  743MPD2     N11039   0.069   3.590   1.389 -0.1460  0.0104 -0.1420
  743MPD2    H511040   0.126   3.526   1.335  2.2290  2.0899 -0.1218
  743MPD2    N111041   4.425   3.392   1.173 -0.4111 -0.2699  0.0773
  743MPD2    H711042   4.325   3.376   1.170 -0.4908  0.3767 -0.8578
  744TMC3    C111043   4.413   3.245   0.996  0.3702 -0.0408  0.1370
  744TMC3    C211044   4.287   3.289   0.957 -0.1376 -0.6700 -0.2626
  744TMC3    C311045   4.241   3.236   0.839  0.2930  0.0229  0.6668
  744TMC3    C411046   4.483   3.151   0.929  0.6093  0.5300 -0.1148
  744TMC3    C511047   4.428   3.096   0.814  0.0270 -0.2646 -0.2982
  744TMC3    C611048   4.308   3.140   0.766  0.1473 -0.4641 -0.4541
  744TMC3     C11049   4.494   3.319   1.086  0.0140  0.3362 -0.5254
  744TMC3     O11050   4.612   3.313   1.076 -0.7332  0.5466  0.3869
  744TMC3     H11051   4.237   3.372   1.006  0.8494  1.6785 -3.2189
  744TMC3    H111052   4.581   3.125   0.968 -0.4577 -1.7740  0.9971
  744TMC3    H211053   4.275   3.113   0.667 -2.0237  0.9565 -0.1071
  744TMC3    C711054   4.524   3.051   0.715 -0.1184 -0.1106  0.5187
  744TMC3    C811055   4.146   3.331   0.775 -0.6661  0.0352  0.3674
  744TMC3    O111056   4.637   3.093   0.741  0.2894 -0.6656  0.2822
  744TMC3    O211057   4.115   3.438   0.829 -0.5721 -0.0728  0.1817
  745TMC3    C111058   3.502   1.644  13.350 -0.4936  0.0499  0.1953
  745TMC3    C211059   3.409   1.718  13.414 -0.2852 -0.5592  0.6170
  745TMC3    C311060   3.278   1.700  13.371  0.4311 -0.0842  0.2948
  745TMC3    C411061   3.470   1.550  13.262  0.1780  0.1278 -0.1645
  745TMC3    C511062   3.342   1.543  13.212  0.0134 -0.7021  0.1438
  745TMC3    C611063   3.242   1.616  13.273 -0.9537  0.4786 -0.0034
  745TMC3     C11064   3.639   1.697  13.313 -0.2499 -0.3600 -1.0020
  745TMC3     O11065   3.683   1.673  13.200  0.1957 -0.7369  0.3911
  745TMC3     H11066   3.430   1.815  13.458  1.9626 -1.0004  0.5399
  745TMC3    H111067   3.549   1.488  13.222  1.0682  2.3793 -1.9435
  745TMC3    H211068   3.140   1.621  13.236 -1.4606  0.4356  1.3671
  745TMC3    C711069   3.323   1.545  13.069  0.3681 -0.2039  0.0396
  745TMC3    C811070   3.176   1.781  13.431 -0.1099 -0.3847  0.1111
  745TMC3    O111071   3.223   1.494  13.025  0.2892  0.5188 -0.2136
  745TMC3    O211072   3.065   1.769  13.374 -0.7938  0.2739  0.3688
  746TMC3    C111073   0.949   3.490  11.226 -0.4248 -0.6902  0.5578
  746TMC3    C211074   1.029   3.462  11.121  0.1597 -0.3642 -0.6115
  746TMC3    C311075   1.049   3.336  11.074  0.0741  0.7225 -0.3512
  746TMC3    C411076   0.909   3.385  11.303  0.2615  0.4538 -0.0308
  746TMC3    C511077   0.925   3.255  11.253  1.0977 -0.0555 -0.6719
  746TMC3    C611078   0.998   3.233  11.143  0.7030 -0.4579  0.7178
  746TMC3     C11079   0.911   3.629  11.274  0.5875  0.0342 -0.5168
  746TMC3     O11080   0.851   3.638  11.378  0.1748 -0.0334 -0.3082
  746TMC3     H11081   1.061   3.540  11.053 -0.5911 -1.5275 -2.3191
  746TMC3    H111082   0.843   3.399  11.387  1.9584 -1.0750  1.5549
  746TMC3    H211083   0.983   3.136  11.096 -2.6599 -0.3049  1.5169
  746TMC3    C711084   0.802   3.171  11.252 -0.7626  0.1780 -0.4659
  746TMC3    C811085   1.074   3.309  10.934 -0.1110  0.1313  0.2422
  746TMC3    O111086   0.746   3.153  11.145 -0.6460 -0.1569 -0.1779
  746TMC3    O211087   1.133   3.202  10.909 -0.0824  0.5127 -0.7243
  747TMC3    C111088   3.224   3.737  10.943  0.0922 -0.1537  1.0626
  747TMC3    C211089   3.146   3.645  11.006 -0.5240 -0.6792  1.8263
  747TMC3    C311090   3.119   3.654  11.140  0.7195  0.0823  0.9458
  747TMC3    C411091   3.288   3.841  11.004 -0.1090  0.0141  0.2441
  747TMC3    C511092   3.263   3.855  11.142  0.3825  0.2085 -0.2842
  747TMC3    C611093   3.190   3.753  11.208  0.1614 -0.4392 -0.4093
  747TMC3     C11094   3.252   3.719  10.798 -0.1848 -0.1351  0.5627
  747TMC3     O11095   3.286   3.827  10.749 -0.2841 -0.1198  0.7681
  747TMC3     H11096   3.106   3.564  10.946  1.1850  0.2798 -0.6191
  747TMC3    H111097   3.356   3.904  10.947 -1.3500  3.1580  2.2532
  747TMC3    H211098   3.187   3.747  11.317  1.2765  1.1183 -0.2846
  747TMC3    C711099   3.344   3.936  11.227  0.0099  1.0858 -0.3761
  747TMC3    C811100   3.081   3.536  11.214 -0.5724  0.9392 -0.2446
  747TMC3    O111101   3.362   3.905  11.345 -0.3509 -0.0396  0.4834
  747TMC3    O211102   3.120   3.428  11.171  0.2739  0.0364 -0.6155
  748MPD2     C11103   4.599   0.020   2.127  0.0546  0.5441 -0.0228
  748MPD2    C111104   4.581   4.623   2.141 -1.5343 -0.0561 -0.4760
  748MPD2    C211105   4.657   4.539   2.060  0.3437 -0.6693  1.0557
  748MPD2    C311106   0.012   4.593   1.969  0.8144  0.6317  0.2538
  748MPD2    C411107   0.025   4.731   1.957 -0.2134  0.1862  0.0391
  748MPD2    C511108   4.691   0.080   2.043 -0.3184 -0.0114 -0.8962
  748MPD2     H11109   4.645   4.432   2.064 -2.9028 -0.1930  3.3174
  748MPD2    H111110   0.074   0.036   1.870 -1.1477  0.1536 -0.5019
  748MPD2    H211111   4.541   0.080   2.196  0.2436 -1.7452  2.1236
  748MPD2    H311112   4.701   0.187   2.054  2.2362 -0.7427  3.8231
  748MPD2     N11113   0.083   4.502   1.891  0.3718 -0.3389  0.7683
  748MPD2    H511114   0.082   4.403   1.912  1.9397 -0.0534  2.2704
  748MPD2    N111115   4.475   4.582   2.224 -0.1742 -0.3241  0.8439
  748MPD2    H711116   4.417   4.659   2.257 -0.8762 -0.4850 -0.0184
  749TMC3    C111117   0.180   4.411   1.700  0.6242  0.0224 -0.6903
  749TMC3    C211118   0.282   4.329   1.734  0.5297  0.6218 -0.2894
  749TMC3    C311119   0.362   4.269   1.643  0.1401  0.0006 -0.4962
  749TMC3    C411120   0.161   4.435   1.568  0.2402  0.0726  0.3691
  749TMC3    C511121   0.241   4.374   1.475  0.3485 -0.3029  0.9571
  749TMC3    C611122   0.344   4.291   1.511  0.4294  0.1958  1.1151
  749TMC3     C11123   0.168   4.528   1.781  0.3267  1.1886 -0.6889
  749TMC3     O11124   0.199   4.631   1.723 -0.3229 -0.0140  0.0295
  749TMC3     H11125   0.317   4.328   1.837  1.0051 -1.1066 -0.4769
  749TMC3    H111126   0.111   4.527   1.540 -1.7709 -0.8494  0.9300
  749TMC3    H211127   0.403   4.248   1.430 -1.3040  0.9878 -0.5805
  749TMC3    C711128   0.205   4.401   1.335 -0.3277  0.0683  0.1300
  749TMC3    C811129   0.477   4.209   1.695 -0.0236  0.0786 -0.0590
  749TMC3    O111130   0.124   4.490   1.307  0.0281  0.2791 -0.1082
  749TMC3    O211131   0.507   4.228   1.817  0.4735 -0.3686 -0.4281
  750MPD2     C11132   1.050   0.872  11.516 -0.0483 -0.1527 -0.2156
  750MPD2    C111133   1.004   0.782  11.604 -0.1714 -0.4112  0.1766
  750MPD2    C211134   1.039   0.649  11.598 -0.3289 -0.2520 -0.4610
  750MPD2    C311135   1.139   0.616  11.502 -0.8335  0.4047 -0.6676
  750MPD2    C411136   1.185   0.708  11.413  0.2564 -0.6288  0.6366
  750MPD2    C511137   1.137   0.836  11.416 -0.4621  0.1618 -0.0290
  750MPD2     H11138   0.986   0.580  11.662  2.4889 -1.8995  0.0928
  750MPD2    H111139   1.252   0.684  11.332 -0.2104  1.6086 -0.4079
  750MPD2    H211140   1.021   0.975  11.531 -0.5528 -0.2622 -0.4707
  750MPD2    H311141   1.162   0.912  11.344  1.5160 -2.0012 -1.6417
  750MPD2     N11142   1.185   0.482  11.478  0.2594 -0.0690  0.6833
  750MPD2    H511143   1.253   0.469  11.404 -0.3868 -0.2987  0.1290
  750MPD2    N111144   0.923   0.835  11.704 -0.0772 -0.4022 -0.0856
  750MPD2    H711145   0.881   0.927  11.695 -1.7883 -1.0939  0.8367
  751TMC3    C111146   1.192   0.259  11.484 -0.3174 -0.1509 -0.6377
  751TMC3    C211147   1.179   0.158  11.578 -0.5209 -0.4962  0.8488
  751TMC3    C311148   1.171   0.030  11.538 -0.0352 -0.6662 -0.2838
  751TMC3    C411149   1.206   0.235  11.350  0.4063  0.5836 -0.5786
  751TMC3    C511150   1.189   0.103  11.311 -0.4925  0.2140 -0.1848
  751TMC3    C611151   1.174   4.737  11.404 -0.1066  0.1090  0.1431
  751TMC3     C11152   1.154   0.375  11.548  0.1321 -0.1658 -0.1897
  751TMC3     O11153   1.095   0.371  11.655  0.4648 -0.2643  0.2078
  751TMC3     H11154   1.199   0.186  11.680  0.0128 -0.4396  0.7281
  751TMC3    H111155   1.204   0.318  11.281  2.8501  0.5481 -0.6973
  751TMC3    H211156   1.179   4.635  11.369 -0.5074  0.0392  0.2914
  751TMC3    C711157   1.194   0.076  11.172 -0.6415  0.7853 -0.1436
  751TMC3    C811158   1.056   4.695  11.588  0.7316  0.6513  0.3176
  751TMC3    O111159   1.253   0.155  11.102 -0.2957 -0.1664  0.7353
  751TMC3    O211160   1.049   4.578  11.548  0.3123 -0.3680  0.1494
  752TMC3    C111161   4.111   0.283  16.740  0.2949 -0.4151 -0.1724
  752TMC3    C211162   4.217   0.237  16.815  0.3320  0.5000  0.4267
  752TMC3    C311163   4.212   0.228  16.951  0.5412  0.2020  1.5862
  752TMC3    C411164   3.989   0.323  16.802 -1.1215 -0.1416  0.5816
  752TMC3    C511165   3.983   0.298  16.937 -0.2566  0.4714  0.5236
  752TMC3    C611166   4.089   0.244  17.009 -0.6290  0.4293 -0.3271
  752TMC3     C11167   4.133   0.311  16.594 -0.0774  0.1310 -0.6872
  752TMC3     O11168   4.241   0.287  16.547  0.0924  0.0118  0.1272
  752TMC3     H11169   4.318   0.236  16.776 -0.4219 -3.1416 -1.4203
  752TMC3    H111170   3.913   0.378  16.748  0.3271  2.6125  1.3398
  752TMC3    H211171   4.076   0.212  17.112 -3.1600 -1.9903 -1.4084
  752TMC3    C711172   3.856   0.331  17.012  0.7182  1.4141  0.7267
  752TMC3    C811173   4.298   0.145  17.025 -0.4554  0.4207 -0.0621
  752TMC3    O111174   3.767   0.378  16.940  0.2042 -0.1806  0.0364
  752TMC3    O211175   4.312   0.153  17.146 -0.6829 -0.6948  0.1607
  753TMC3    C111176   1.817   1.355  13.445 -0.8043 -0.2032  0.0844
  753TMC3    C211177   1.934   1.417  13.493  0.2551 -0.6542 -0.7949
  753TMC3    C311178   2.046   1.339  13.499  0.0349 -0.7215  0.4046
  753TMC3    C411179   1.816   1.228  13.395  0.4446 -0.2466  0.4681
  753TMC3    C511180   1.934   1.155  13.396  0.2155  0.1878  0.3528
  753TMC3    C611181   2.052   1.214  13.446 -0.0635 -0.2376  0.3524
  753TMC3     C11182   1.697   1.442  13.446 -0.4919 -0.4786 -0.3296
  753TMC3     O11183   1.718   1.560  13.472  0.0240 -0.0946  0.1405
  753TMC3     H11184   1.926   1.517  13.533 -2.4028 -1.7062  1.3120
  753TMC3    H111185   1.722   1.178  13.371  0.0008  0.1545  1.3947
  753TMC3    H211186   2.143   1.158  13.459  0.4259  0.5258  0.1749
  753TMC3    C711187   1.912   1.009  13.397  0.0392  0.1745 -0.0587
  753TMC3    C811188   2.156   1.385  13.581 -0.3203  0.0611  0.0912
  753TMC3    O111189   1.839   0.971  13.309 -0.3596  0.2465 -0.0476
  753TMC3    O211190   2.221   1.306  13.641 -0.1389  0.7096 -0.9238
  754MPD2     C11191   0.922   0.347  13.439  0.3752 -0.4208 -0.0575
  754MPD2    C111192   0.865   0.220  13.440 -0.5359 -0.1396  0.0983
  754MPD2    C211193   0.727   0.214  13.418  1.0632 -0.9851 -0.0405
  754MPD2    C311194   0.648   0.326  13.399  0.1864  0.0011 -0.1025
  754MPD2    C411195   0.716   0.449  13.399  0.8475 -0.7659  0.0991
  754MPD2    C511196   0.848   0.461  13.422 -0.0778  0.3517 -0.4125
  754MPD2     H11197   0.676   0.119  13.410  0.6724 -0.7979  0.1961
  754MPD2    H111198   0.658   0.540  13.382  0.9919 -0.7969 -0.5543
  754MPD2    H211199   1.028   0.356  13.463  0.1697 -0.9554  1.0541
  754MPD2    H311200   0.893   0.559  13.415 -3.9228  2.3363  2.2506
  754MPD2     N11201   0.507   0.326  13.390 -0.2716  0.1770  0.4095
  754MPD2    H511202   0.467   0.412  13.356 -2.4687 -0.9674  0.1222
  754MPD2    N111203   0.944   0.106  13.453 -0.6651 -0.8604 -0.0112
  754MPD2    H711204   1.042   0.133  13.453 -0.2023 -2.5395 -0.6607
  755MPD2     C11205   0.103   0.975  13.133 -0.4211  0.0548 -0.1458
  755MPD2    C111206   4.727   0.905  13.156 -0.3111  0.1244  0.8027
  755MPD2    C211207   0.005   0.781  13.210  0.2933  0.1283 -0.3670
  755MPD2    C311208   0.126   0.724  13.242  0.3128  0.1069 -0.0880
  755MPD2    C411209   0.244   0.795  13.205  0.1215  0.3604  0.1267
  755MPD2    C511210   0.229   0.921  13.156 -0.4770 -0.2315 -0.4364
  755MPD2     H11211   4.648   0.734  13.232 -0.3956  1.9048  0.4477
  755MPD2    H111212   0.343   0.764  13.236 -0.6293  1.7695  3.9170
  755MPD2    H211213   0.116   1.072  13.087 -3.0305 -0.3111 -1.6841
  755MPD2    H311214   0.314   0.988  13.153 -0.0186 -0.7222  1.5747
  755MPD2     N11215   0.145   0.596  13.292 -0.0196 -0.0064  0.3098
  755MPD2    H511216   0.241   0.563  13.289  0.8679  2.5828  0.8396
  755MPD2    N111217   4.601   0.959  13.135 -0.2831 -0.6341 -0.9559
  755MPD2    H711218   4.526   0.905  13.176  0.1365  1.0479  2.0539
  756MPD2     C11219   0.992   1.626   9.907 -0.3546 -0.1505 -0.7431
  756MPD2    C111220   0.900   1.520   9.913 -0.4313 -0.2120 -0.2379
  756MPD2    C211221   0.783   1.520   9.845  0.2243 -0.4384 -0.7914
  756MPD2    C311222   0.759   1.619   9.755 -0.0120  0.2783  0.1479
  756MPD2    C411223   0.851   1.719   9.738 -0.4277  0.3878 -0.1820
  756MPD2    C511224   0.964   1.731   9.824 -0.3385 -0.0351  0.0438
  756MPD2     H11225   0.718   1.435   9.862 -0.4997  0.0828 -0.9625
  756MPD2    H111226   0.842   1.802   9.668 -1.0707  0.8777  0.4815
  756MPD2    H211227   1.078   1.641   9.970 -0.3934 -0.0108 -0.7243
  756MPD2    H311228   1.037   1.809   9.807  0.1490 -0.0067  2.1791
  756MPD2     N11229   0.644   1.631   9.679 -0.4584 -0.1627 -0.1810
  756MPD2    H511230   0.632   1.722   9.635 -2.7543 -0.8915 -1.0833
  756MPD2    N111231   0.909   1.420  10.008  0.6939  0.0956  0.2307
  756MPD2    H711232   0.822   1.372  10.025  0.7644 -0.2012 -0.2542
  757MPD2     C11233   4.631   1.010   9.697  0.1107 -0.3507  0.2734
  757MPD2    C111234   0.011   1.017   9.762 -0.2606 -0.1618  0.3034
  757MPD2    C211235   0.084   1.135   9.745  0.3263  0.1544 -0.0392
  757MPD2    C311236   0.042   1.229   9.650 -0.0559 -0.8029 -0.1975
  757MPD2    C411237   4.660   1.210   9.576 -0.4106 -0.5317  0.4619
  757MPD2    C511238   4.586   1.101   9.603 -0.0611  0.6811  0.3544
  757MPD2     H11239   0.173   1.154   9.805  0.4084 -0.2079 -0.0491
  757MPD2    H111240   4.600   1.288   9.531  1.8634  1.3525  0.7035
  757MPD2    H211241   4.569   0.922   9.707 -0.9897  0.4209  0.3029
  757MPD2    H311242   4.491   1.085   9.553  0.8420  1.8495 -1.7564
  757MPD2     N11243   0.124   1.340   9.631 -0.1999  0.5576  0.0724
  757MPD2    H511244   0.198   1.348   9.700 -0.0276 -0.3254 -0.0213
  757MPD2    N111245   0.035   0.917   9.856  0.5321  0.1838  0.4547
  757MPD2    H711246   4.699   0.847   9.852  0.5008  0.3117 -1.4218
  758MPD2     C11247   0.438   0.274  15.873  0.8185 -0.2505  0.3376
  758MPD2    C111248   0.439   0.183  15.967  0.4704 -0.4075  0.6193
  758MPD2    C211249   0.362   0.209  16.084 -1.0081  0.1932 -0.5200
  758MPD2    C311250   0.316   0.338  16.116  0.6968 -0.4135 -0.6985
  758MPD2    C411251   0.329   0.430  16.016  0.3097  0.0225 -0.7136
  758MPD2    C511252   0.386   0.402  15.898  0.1878 -0.0542 -0.7312
  758MPD2     H11253   0.347   0.122  16.147 -0.4688 -1.5013 -2.7141
  758MPD2    H111254   0.293   0.530  16.035 -0.3272 -0.1950 -0.7871
  758MPD2    H211255   0.477   0.249  15.775 -0.0572 -0.4819  0.0492
  758MPD2    H311256   0.392   0.475  15.818  0.9392  0.5126 -0.1580
  758MPD2     N11257   0.254   0.369  16.237  0.1679  0.1645  0.4358
  758MPD2    H511258   0.233   0.467  16.251  0.7981  0.6082 -1.6992
  758MPD2    N111259   0.495   0.055  15.935  0.1419  0.8797  0.1713
  758MPD2    H711260   0.532   0.043  15.841 -1.2731  0.6935 -0.3606
  759MPD2     C11261   4.360   3.006  11.028 -0.4685  0.4212  0.4594
  759MPD2    C111262   4.290   3.069  11.127  0.2664 -0.9430  0.3401
  759MPD2    C211263   4.313   3.209  11.138  0.2768  0.4177 -0.0665
  759MPD2    C311264   4.392   3.284  11.046 -0.1569  1.0372 -0.0004
  759MPD2    C411265   4.464   3.207  10.949  0.2859  0.3235  0.8637
  759MPD2    C511266   4.450   3.074  10.952 -0.4049 -0.1279 -0.1435
  759MPD2     H11267   4.256   3.259  11.215 -1.3919  0.1776 -1.1416
  759MPD2    H111268   4.529   3.253  10.874 -0.0825 -0.3219  0.1515
  759MPD2    H211269   4.365   2.900  11.006 -0.6137  0.5471 -0.1696
  759MPD2    H311270   4.512   3.025  10.878 -0.4644  2.0068 -1.5931
  759MPD2     N11271   4.394   3.426  11.046  0.0494 -0.5021  0.3995
  759MPD2    H511272   4.348   3.465  11.128 -1.8689 -2.5682  0.3323
  759MPD2    N111273   4.194   3.008  11.203 -0.8761 -0.7514 -0.6145
  759MPD2    H711274   4.137   3.068  11.263 -1.6918 -1.6116 -0.5348
  760MPD2     C11275   3.736   0.257  12.098  0.2164 -0.1304 -0.5299
  760MPD2    C111276   3.864   0.219  12.110 -0.2046  0.4047 -0.1075
  760MPD2    C211277   3.904   0.128  12.207  0.4362  0.1144 -0.2074
  760MPD2    C311278   3.815   0.079  12.300  0.4665  0.3780 -0.7136
  760MPD2    C411279   3.681   0.111  12.289 -0.3248 -0.2010  0.4244
  760MPD2    C511280   3.645   0.195  12.185 -0.4645  0.3045  0.5985
  760MPD2     H11281   4.006   0.092  12.197  0.6332  0.1287  1.5937
  760MPD2    H111282   3.608   0.080  12.363  2.3189 -0.6686  2.8445
  760MPD2    H211283   3.698   0.328  12.026  0.9704  1.1191  0.3170
  760MPD2    H311284   3.541   0.226  12.181 -0.3581  0.8867  2.2276
  760MPD2     N11285   3.856   4.732  12.410  0.5611  0.4579  0.1142
  760MPD2    H511286   3.792   4.692  12.478 -2.3275  0.9302 -2.3224
  760MPD2    N111287   3.962   0.280  12.026  0.4296 -0.5338 -0.1143
  760MPD2    H711288   4.061   0.276  12.049  0.1389 -0.5750  1.1338
  761MPD2     C11289   0.635   4.659  11.870  0.2840  0.7840  0.0388
  761MPD2    C111290   0.673   4.589  11.761  0.5567 -0.4188 -0.8333
  761MPD2    C211291   0.787   4.632  11.699  0.9531 -0.0734 -0.0794
  761MPD2    C311292   0.862   4.736  11.745  0.6696  0.0145  0.2073
  761MPD2    C411293   0.823   0.066  11.860 -0.7837  0.1609  0.0186
  761MPD2    C511294   0.709   0.024  11.915 -0.3504 -0.6855  0.7711
  761MPD2     H11295   0.823   4.576  11.613  3.4054 -0.2922  1.0715
  761MPD2    H111296   0.881   0.150  11.898 -2.5937  1.9789 -1.2554
  761MPD2    H211297   0.541   4.642  11.921  0.1599 -0.5288 -0.6330
  761MPD2    H311298   0.682   0.062  12.013 -0.3738 -0.0193  0.5084
  761MPD2     N11299   0.986   0.031  11.686 -0.1692 -0.3820 -0.2985
  761MPD2    H511300   1.028   0.120  11.710 -2.5968  1.1998 -1.9233
  761MPD2    N111301   0.592   4.487  11.705  0.3837  0.3145 -0.5282
  761MPD2    H711302   0.525   4.444  11.768  0.7405  0.7805  0.1661
  762MPD2     C11303   0.519   3.758  11.137 -0.4039  0.2196  0.4490
  762MPD2    C111304   0.580   3.882  11.137  0.1885  0.4604  0.8145
  762MPD2    C211305   0.636   3.933  11.015 -0.0466  0.1893  1.1870
  762MPD2    C311306   0.649   3.857  10.902 -0.4227  0.0630  0.5035
  762MPD2    C411307   0.581   3.731  10.909  0.6519  0.6129  0.1729
  762MPD2    C511308   0.518   3.690  11.017  0.5130 -0.0869 -0.0606
  762MPD2     H11309   0.682   4.031  11.026 -0.1773  0.3275  0.4784
  762MPD2    H111310   0.577   3.661  10.826  0.2678  1.2282 -0.3294
  762MPD2    H211311   0.460   3.716  11.218  1.2199 -1.0015  0.9772
  762MPD2    H311312   0.477   3.590  11.019 -0.8783  0.4620 -2.0310
  762MPD2     N11313   0.723   3.903  10.791 -0.3100  0.3685  0.0986
  762MPD2    H511314   0.749   4.000  10.803 -0.6578  0.6253 -1.2211
  762MPD2    N111315   0.568   3.959  11.256  0.3131  0.3897  0.9410
  762MPD2    H711316   0.517   3.910  11.329  0.4010 -0.1976  0.6119
  763MPD2     C11317   2.036   0.303  16.230  0.1448  0.0343  0.6216
  763MPD2    C111318   2.127   0.283  16.127  0.8016  0.0908  0.7752
  763MPD2    C211319   2.215   0.384  16.091  0.1121 -0.1968  0.0168
  763MPD2    C311320   2.217   0.499  16.173 -0.3432 -0.0695 -0.5740
  763MPD2    C411321   2.132   0.509  16.284 -0.0301  0.3762 -0.0139
  763MPD2    C511322   2.038   0.413  16.313  0.1509  0.0442 -0.3055
  763MPD2     H11323   2.271   0.374  15.998 -1.8720  0.7362 -1.2802
  763MPD2    H111324   2.135   0.597  16.346  0.8478  1.2410 -1.2894
  763MPD2    H211325   1.951   0.239  16.247 -0.7030  1.4184  1.5839
  763MPD2    H311326   1.953   0.436  16.376 -1.1841 -0.8158 -1.8031
  763MPD2     N11327   2.317   0.606  16.162  0.9727  0.3839 -0.5534
  763MPD2    H511328   2.308   0.677  16.234  1.3979 -0.4016  0.2694
  763MPD2    N111329   2.109   0.180  16.027  0.2730 -0.2327  0.3699
  763MPD2    H711330   2.164   0.180  15.941 -1.0311 -2.4839 -0.4713
  764MPD2     C11331   4.470   1.380  17.459 -0.2446 -0.3716  0.0776
  764MPD2    C111332   4.358   1.458  17.471  0.1089  0.3644 -0.3222
  764MPD2    C211333   4.293   1.471  17.590 -0.2434 -0.0505  0.0364
  764MPD2    C311334   4.347   1.403  17.698 -0.1325  0.7511 -0.7084
  764MPD2    C411335   4.459   1.326  17.687  0.5692  0.1518 -0.0364
  764MPD2    C511336   4.513   1.303  17.564 -0.2249 -0.3190 -0.1105
  764MPD2     H11337   4.207   1.536  17.603 -0.4127 -0.2831  0.0925
  764MPD2    H111338   4.512   1.284   0.023 -0.4628  1.0929  1.0631
  764MPD2    H211339   4.513   1.353  17.363 -0.0788  3.8077 -1.0287
  764MPD2    H311340   4.602   1.243  17.551 -0.0893 -0.0999 -0.1916
  764MPD2     N11341   4.290   1.433   0.075 -0.4888  0.1280 -0.2593
  764MPD2    H511342   4.230   1.515   0.082 -0.9152 -0.2428  0.4305
  764MPD2    N111343   4.316   1.509  17.343  0.7288  0.1874  0.7502
  764MPD2    H711344   4.370   1.481  17.263 -0.1742  1.0876 -0.1788
  765MPD2     C11345   0.095   4.229  15.676 -0.4979  0.3285 -0.1183
  765MPD2    C111346   0.166   4.295  15.774 -0.9313  0.3052  0.2304
  765MPD2    C211347   0.298   4.263  15.798  0.7779 -0.1496  0.3526
  765MPD2    C311348   0.357   4.158  15.742  0.4747  0.5456 -0.2091
  765MPD2    C411349   0.291   4.093  15.644  0.1877  0.0197 -0.6112
  765MPD2    C511350   0.159   4.128  15.613 -0.3049 -0.6273  1.0606
  765MPD2     H11351   0.360   4.322  15.866  0.8104  1.5216 -1.1319
  765MPD2    H111352   0.340   4.011  15.593 -2.2112 -0.8768 -1.4625
  765MPD2    H211353   4.734   4.258  15.643 -1.3475 -1.0172  1.2036
  765MPD2    H311354   0.103   4.065  15.545 -0.2558  0.5637 -0.0869
  765MPD2     N11355   0.482   4.114  15.794  0.3517 -0.0636 -0.2467
  765MPD2    H511356   0.523   4.158  15.876  2.7673  1.5403 -2.3227
  765MPD2    N111357   0.115   4.417  15.826 -0.3908  0.0229  0.3449
  765MPD2    H711358   0.021   4.445  15.801  0.5431  1.9639 -1.0093
  766MPD2     C11359   4.216   4.738  15.644  0.4208  0.0141  0.8006
  766MPD2    C111360   4.332   4.660  15.658 -0.3513 -0.2543 -0.7251
  766MPD2    C211361   4.376   4.584  15.555 -0.5585 -0.0401 -0.0533
  766MPD2    C311362   4.304   4.568  15.433  0.4350 -1.1176 -0.5320
  766MPD2    C411363   4.191   4.648  15.416  0.2039  0.3534 -0.3782
  766MPD2    C511364   4.141   4.729  15.520  0.0593  0.2946 -0.4131
  766MPD2     H11365   4.460   4.521  15.581 -0.3805 -0.5292 -1.8196
  766MPD2    H111366   4.132   4.645  15.325 -1.8397  0.6718  0.9145
  766MPD2    H211367   4.182   0.057  15.729 -0.1542 -0.2432  0.7401
  766MPD2    H311368   4.051   0.051  15.507 -0.4352 -0.4727 -0.4766
  766MPD2     N11369   4.343   4.485  15.324 -0.4297  0.2040 -0.6870
  766MPD2    H511370   4.312   4.519  15.233 -1.1474 -1.3205 -1.0071
  766MPD2    N111371   4.397   4.678  15.778  0.0783 -0.0864 -0.6001
  766MPD2    H711372   4.367   0.020  15.832  0.6165  1.3276 -2.3932
  767MPD2     C11373   4.104   4.727  15.098  0.1233 -0.2004 -0.1396
  767MPD2    C111374   4.231   4.687  15.059  0.1670  0.3316  0.3292
  767MPD2    C211375   4.255   4.583  14.968 -0.1210 -0.0547 -0.6371
  767MPD2    C311376   4.141   4.515  14.920  0.1418 -0.0438  0.3829
  767MPD2    C411377   4.015   4.556  14.958 -0.6349 -0.4036 -0.0484
  767MPD2    C511378   3.998   4.659  15.050  0.2168  0.0839 -0.4858
  767MPD2     H11379   4.348   4.551  14.922  0.1964  0.5575 -0.4174
  767MPD2    H111380   3.930   4.503  14.917 -1.5298 -0.1210  1.4342
  767MPD2    H211381   4.087   0.078  15.158  0.9286  0.0430 -0.2729
  767MPD2    H311382   3.894   4.683  15.069 -0.3965 -1.7121 -1.5473
  767MPD2     N11383   4.154   4.423  14.812  0.2477 -0.4964 -0.0418
  767MPD2    H511384   4.246   4.382  14.800 -0.7123 -2.2909 -1.3322
  767MPD2    N111385   4.336   0.021  15.120 -1.0333 -0.3582  0.4175
  767MPD2    H711386   4.309   0.089  15.191 -0.4920  0.8209 -0.4930
  768MPD2     C11387   0.537   2.878  10.678  0.4383  0.6549 -0.1056
  768MPD2    C111388   0.514   2.837  10.809 -0.8255 -0.1685 -0.7412
  768MPD2    C211389   0.623   2.787  10.877 -0.1697  0.0083  0.6868
  768MPD2    C311390   0.751   2.807  10.832  0.2163  0.5863 -0.0789
  768MPD2    C411391   0.769   2.867  10.712  0.0519  0.1149 -0.6604
  768MPD2    C511392   0.661   2.897  10.628 -0.2476 -0.0100 -0.6647
  768MPD2     H11393   0.605   2.735  10.970 -1.9667  0.2475  0.4763
  768MPD2    H111394   0.863   2.878  10.658  0.7715  3.9444  1.3803
  768MPD2    H211395   0.463   2.922  10.613 -2.7009 -2.0096  1.6909
  768MPD2    H311396   0.680   2.939  10.529  2.3877 -0.9530 -0.5666
  768MPD2     N11397   0.870   2.775  10.901  0.1970 -0.1537  0.0580
  768MPD2    H511398   0.950   2.830  10.872  0.7282 -2.0936 -2.2357
  768MPD2    N111399   0.389   2.829  10.872 -0.2144  0.3309  1.0100
  768MPD2    H711400   0.390   2.793  10.966  0.8725  2.8420  1.9546
  769MPD2     C11401   1.723   0.812  14.668  0.2415 -0.0770  0.2972
  769MPD2    C111402   1.624   0.772  14.757 -0.2647  0.3600 -0.5066
  769MPD2    C211403   1.635   0.832  14.881  0.2487  0.5962 -0.2918
  769MPD2    C311404   1.713   0.936  14.922  0.1465 -0.5504 -0.6584
  769MPD2    C411405   1.798   0.978  14.828 -0.6713 -0.3220  0.4126
  769MPD2    C511406   1.809   0.915  14.706 -0.6973 -0.1664 -0.1048
  769MPD2     H11407   1.553   0.792  14.942  1.7566 -1.0308  0.6786
  769MPD2    H111408   1.872   1.053  14.853  0.3358 -1.0448 -0.4000
  769MPD2    H211409   1.736   0.778  14.566  0.7003  1.4220 -0.1489
  769MPD2    H311410   1.878   0.957  14.634  1.2154  0.5115  2.1331
  769MPD2     N11411   1.693   0.986  15.055 -0.4475  0.3531 -0.7631
  769MPD2    H511412   1.625   0.947  15.119  0.1726 -0.7443 -0.7757
  769MPD2    N111413   1.529   0.679  14.719  0.3287  0.5334 -0.0106
  769MPD2    H711414   1.457   0.656  14.787  0.7364  0.6117  0.4506
  770MPD2     C11415   0.808   0.152  15.101 -0.6124  0.3587  0.2455
  770MPD2    C111416   0.842   0.079  14.989 -0.0854 -0.1145  0.1771
  770MPD2    C211417   0.919   0.136  14.893  0.8101  0.0924 -0.0185
  770MPD2    C311418   0.983   0.252  14.917 -0.7441  0.2104  0.4932
  770MPD2    C411419   0.963   0.319  15.036  0.0222 -0.5038 -0.1648
  770MPD2    C511420   0.867   0.277  15.118  0.0689 -1.3912 -1.0537
  770MPD2     H11421   0.946   0.088  14.800  1.2515  1.2383 -0.4865
  770MPD2    H111422   1.006   0.417  15.050  2.0112 -1.4691  0.4322
  770MPD2    H211423   0.761   0.110  15.189 -1.4428 -0.7623 -0.7570
  770MPD2    H311424   0.849   0.333  15.210 -1.0137  0.6723 -2.5082
  770MPD2     N11425   1.073   0.298  14.826 -0.1901 -0.1360 -0.0276
  770MPD2    H511426   1.076   0.257  14.733  4.1860 -0.1011  0.1202
  770MPD2    N111427   0.804   4.679  14.980 -0.2702  0.3766  0.0132
  770MPD2    H711428   0.752   4.644  15.060  1.9805  0.3222  1.4485
  771MPD2     C11429   2.166   3.907  14.176  0.1342  0.3835 -0.6464
  771MPD2    C111430   2.085   3.976  14.087  0.7163 -0.2299  0.0096
  771MPD2    C211431   2.020   3.898  13.991  0.5500  0.0710  0.2603
  771MPD2    C311432   2.049   3.767  13.962 -0.3060  0.4272  0.0318
  771MPD2    C411433   2.139   3.711  14.047  0.2291  0.5614  0.4726
  771MPD2    C511434   2.198   3.781  14.149 -0.1347 -0.7061 -0.0588
  771MPD2     H11435   1.944   3.945  13.930  0.2694  0.7994  1.1805
  771MPD2    H111436   2.157   3.605  14.034  1.0740  0.9233 -1.3357
  771MPD2    H211437   2.208   3.958  14.262  0.3203 -1.2867  0.2674
  771MPD2    H311438   2.263   3.742  14.227  0.9496  1.8162  0.2821
  771MPD2     N11439   1.987   3.703  13.850  0.1053  0.4210 -0.2421
  771MPD2    H511440   1.910   3.747  13.801 -0.7134 -0.3367  0.3722
  771MPD2    N111441   2.055   4.111  14.094 -0.0481  0.1899  0.2067
  771MPD2    H711442   1.993   4.145  14.021 -0.0343 -0.1675  0.0266
  772MPD2     C11443   1.619   4.506  13.778  0.4762 -0.3274  0.2330
  772MPD2    C111444   1.641   4.457  13.907 -0.3903  0.6384 -0.6030
  772MPD2    C211445   1.537   4.392  13.973  0.2364  0.1805  0.0266
  772MPD2    C311446   1.410   4.374  13.921  0.5947 -0.5273  0.1505
  772MPD2    C411447   1.398   4.422  13.791  0.2181 -0.3973 -0.6953
  772MPD2    C511448   1.499   4.485  13.721 -0.2978  0.5828  0.4208
  772MPD2     H11449   1.568   4.359  14.071 -1.8681 -2.1288 -0.0836
  772MPD2    H111450   1.305   4.407  13.738  0.7076 -1.3735 -1.2853
  772MPD2    H211451   1.702   4.544  13.720 -0.6506 -0.5673 -1.5115
  772MPD2    H311452   1.475   4.538  13.630 -0.8072  1.3367  0.9896
  772MPD2     N11453   1.311   4.316  13.994  0.5723  1.0021 -0.1008
  772MPD2    H511454   1.227   4.285  13.947 -0.4329  1.2931  1.5171
  772MPD2    N111455   1.770   4.459  13.965 -0.3222  0.5633 -0.7199
  772MPD2    H711456   1.769   4.427  14.061 -0.7623 -5.0912 -2.6098
  773MPD2     C11457   0.465   0.379   0.494  0.7324  0.0552 -0.1133
  773MPD2    C111458   0.499   0.301   0.384  0.8305 -0.1136  0.1801
  773MPD2    C211459   0.593   0.203   0.405  0.5967 -0.1436  0.6328
  773MPD2    C311460   0.654   0.183   0.525 -0.2645  0.0778  0.4152
  773MPD2    C411461   0.626   0.270   0.629 -0.8628  0.3317  0.9189
  773MPD2    C511462   0.520   0.352   0.617 -0.8382  0.4388  0.0966
  773MPD2     H11463   0.624   0.154   0.313  1.6937 -0.6833  1.2865
  773MPD2    H111464   0.659   0.250   0.730  0.9337  1.0652  0.4708
  773MPD2    H211465   0.398   0.464   0.485 -0.9170 -1.2512 -0.1774
  773MPD2    H311466   0.494   0.413   0.702  0.1640  0.6946  0.2180
  773MPD2     N11467   0.755   0.086   0.527 -0.0913 -0.2900 -0.1319
  773MPD2    H511468   0.766   0.027   0.445  2.3797  2.7465 -2.0002
  773MPD2    N111469   0.450   0.323   0.250  0.1497 -0.1941 -0.2936
  773MPD2    H711470   0.482   0.256   0.181 -1.5219 -0.2798 -0.9891
  774MPD2     C11471   0.331   3.919  13.568 -0.0431  0.3919 -0.1715
  774MPD2    C111472   0.324   3.993  13.686 -0.0911  0.2235 -0.8008
  774MPD2    C211473   0.404   4.104  13.685  0.8510  0.0910 -0.2351
  774MPD2    C311474   0.499   4.147  13.591 -0.4746  0.0391  0.0021
  774MPD2    C411475   0.503   4.069  13.480 -0.7384 -0.3192 -0.6368
  774MPD2    C511476   0.429   3.951  13.471  0.4052  0.4515 -0.3254
  774MPD2     H11477   0.401   4.170  13.771 -0.0413 -0.2683  0.0083
  774MPD2    H111478   0.565   4.090  13.394  0.1426  1.6875  0.4936
  774MPD2    H211479   0.298   3.817  13.553 -0.2567  0.0495  2.5917
  774MPD2    H311480   0.435   3.889  13.383 -2.7674  1.2431 -1.1309
  774MPD2     N11481   0.575   4.269  13.612  1.0339  0.7832  0.9958
  774MPD2    H511482   0.547   4.316  13.697 -3.3170 -0.4339  0.2353
  774MPD2    N111483   0.254   3.936  13.797 -0.2354 -0.0339 -0.5561
  774MPD2    H711484   0.198   3.853  13.780 -0.7965  0.4223 -0.9307
  775MPD2     C11485   1.834   0.808  15.576 -0.6637 -0.7769  0.7146
  775MPD2    C111486   1.848   0.922  15.661  0.4845  0.5184 -0.2850
  775MPD2    C211487   1.933   1.031  15.623 -0.1291 -0.1910 -0.1256
  775MPD2    C311488   1.993   1.031  15.502  0.2878  0.4551  0.0037
  775MPD2    C411489   1.978   0.924  15.416  0.6155  0.2682 -0.0442
  775MPD2    C511490   1.902   0.819  15.457  0.3649 -0.4319 -0.0192
  775MPD2     H11491   1.936   1.109  15.698  1.4284 -2.8508  2.5577
  775MPD2    H111492   2.034   0.920  15.324  1.0976  0.1301  0.2566
  775MPD2    H211493   1.777   0.718  15.597  1.5492 -2.4261 -0.3444
  775MPD2    H311494   1.893   0.745  15.378  0.5703  0.1314 -0.5732
  775MPD2     N11495   2.066   1.142  15.447 -0.3085 -0.7056  0.7509
  775MPD2    H511496   2.095   1.133  15.350  1.4055  0.5447  1.1346
  775MPD2    N111497   1.770   0.939  15.772  0.5198 -0.5941 -0.7186
  775MPD2    H711498   1.758   1.033  15.809  0.8970 -1.4324  1.5696
  776MPD2     C11499   0.294   1.304  11.778  0.8126  0.2414 -0.5854
  776MPD2    C111500   0.427   1.286  11.779  0.1255  0.1099  0.1434
  776MPD2    C211501   0.505   1.367  11.698  0.1087 -0.0886 -0.1195
  776MPD2    C311502   0.453   1.473  11.622  0.1346  0.3080  0.5463
  776MPD2    C411503   0.316   1.491  11.621  0.3595 -0.2524  0.9773
  776MPD2    C511504   0.238   1.410  11.700 -0.0975  0.2994  0.6012
  776MPD2     H11505   0.611   1.345  11.688  0.4809  2.4078 -1.7808
  776MPD2    H111506   0.270   1.570  11.564 -1.9187 -1.5820  0.9784
  776MPD2    H211507   0.231   1.253  11.851  1.2229 -1.4362 -1.4250
  776MPD2    H311508   0.130   1.420  11.700 -0.0711  0.5745  0.6281
  776MPD2     N11509   0.542   1.563  11.561  0.4972 -0.0808 -0.1243
  776MPD2    H511510   0.496   1.630  11.500  1.0093 -0.6513 -1.1325
  776MPD2    N111511   0.485   1.191  11.867 -0.1717 -0.5271  0.2844
  776MPD2    H711512   0.423   1.136  11.927  0.2019 -1.4045 -0.1318
  777MPD2     C11513   0.557   3.676   0.727  0.3321 -1.1417  0.4265
  777MPD2    C111514   0.670   3.596   0.742  0.4264 -0.2806  0.8384
  777MPD2    C211515   0.680   3.476   0.675 -0.4488  0.4529  0.4661
  777MPD2    C311516   0.566   3.431   0.611  0.6735 -0.2567 -0.5835
  777MPD2    C411517   0.457   3.518   0.585  0.0527 -0.6606 -0.7929
  777MPD2    C511518   0.453   3.639   0.647  0.4341  0.2495 -0.3211
  777MPD2     H11519   0.767   3.413   0.691 -1.2387 -0.2355  2.0099
  777MPD2    H111520   0.376   3.483   0.522  1.2609 -0.4412 -2.4636
  777MPD2    H211521   0.544   3.780   0.758  0.9898 -0.6511 -0.9572
  777MPD2    H311522   0.383   3.718   0.624  0.3089  0.2770  0.1442
  777MPD2     N11523   0.551   3.302   0.561  0.2218 -0.4252 -0.0286
  777MPD2    H511524   0.462   3.276   0.519  0.1892 -2.0991  1.0799
  777MPD2    N111525   0.760   3.650   0.840 -0.6688 -0.4840  0.0063
  777MPD2    H711526   0.746   3.740   0.886  1.5270 -0.8592  1.4406
  778MPD2     C11527   2.193   4.068  15.243  0.0120  0.4761 -0.3426
  778MPD2    C111528   2.193   3.954  15.161  0.0063 -0.5177  0.4202
  778MPD2    C211529   2.238   3.960  15.035  0.0497 -0.1930 -0.3636
  778MPD2    C311530   2.310   4.065  14.983  0.4608 -0.2146  0.6432
  778MPD2    C411531   2.322   4.180  15.064 -0.2033 -0.2006 -1.1596
  778MPD2    C511532   2.265   4.180  15.196  0.4092  0.6994 -0.7591
  778MPD2     H11533   2.235   3.876  14.965  0.7995 -1.0161  0.5812
  778MPD2    H111534   2.368   4.272  15.028  1.0947 -0.4464 -0.1546
  778MPD2    H211535   2.149   4.077  15.342 -0.5361 -1.5610 -0.3994
  778MPD2    H311536   2.273   4.271  15.254  1.0334 -0.4468  0.9462
  778MPD2     N11537   2.376   4.052  14.860  0.0506  0.6866  0.3936
  778MPD2    H511538   2.381   3.960  14.817 -0.2630  1.1478 -0.6305
  778MPD2    N111539   2.140   3.830  15.207  0.3794  0.1830 -0.2557
  778MPD2    H711540   2.124   3.759  15.136  0.7299 -0.3543  0.2055
  779MPD2     C11541   1.752   2.596  13.938  1.0092 -0.8021 -0.5152
  779MPD2    C111542   1.885   2.627  13.962  0.5089 -0.2562  0.0361
  779MPD2    C211543   1.926   2.757  13.981 -0.0053  0.4608  0.2560
  779MPD2    C311544   1.842   2.868  13.958  0.0962 -0.0075  0.6869
  779MPD2    C411545   1.707   2.838  13.922  0.4100 -0.5540  0.2828
  779MPD2    C511546   1.665   2.704  13.927  0.6681  0.2372 -0.3265
  779MPD2     H11547   2.026   2.774  14.018 -0.6005  1.9667  1.1538
  779MPD2    H111548   1.632   2.915  13.911  0.0135 -1.3481 -2.4702
  779MPD2    H211549   1.705   2.498  13.938 -1.1779  0.2420 -0.1121
  779MPD2    H311550   1.561   2.682  13.902  0.3482  1.5387 -0.1137
  779MPD2     N11551   1.899   2.995  13.993  0.0313 -0.2126 -0.0225
  779MPD2    H511552   1.990   3.001  14.037  0.2756 -4.6901  0.0289
  779MPD2    N111553   1.982   2.522  13.968  0.2750 -0.3534  0.4930
  779MPD2    H711554   2.071   2.543  14.011 -0.2599  1.2042  0.8565
  780MPD2     C11555   1.403   2.430   0.589  0.2414 -0.2541  0.4979
  780MPD2    C111556   1.330   2.545   0.622  0.3845 -0.3261  0.5811
  780MPD2    C211557   1.295   2.629   0.518 -0.2442  0.2537  0.5081
  780MPD2    C311558   1.326   2.597   0.384  0.0543  0.5637 -0.5869
  780MPD2    C411559   1.403   2.482   0.355  0.4682  0.5198 -0.2027
  780MPD2    C511560   1.433   2.399   0.455 -0.1188 -0.1615 -0.1551
  780MPD2     H11561   1.252   2.727   0.537  0.0895  0.6696 -0.8734
  780MPD2    H111562   1.441   2.455   0.257 -0.5243  1.2849 -0.8007
  780MPD2    H211563   1.430   2.349   0.656 -2.0457 -1.3287  0.1506
  780MPD2    H311564   1.493   2.312   0.432 -1.6122 -1.7954  2.1538
  780MPD2     N11565   1.283   2.687   0.288  0.5664 -0.2033  0.7782
  780MPD2    H511566   1.234   2.770   0.319  1.6331  1.1544 -1.1543
  780MPD2    N111567   1.272   2.549   0.753  0.6080 -0.1954 -0.7008
  780MPD2    H711568   1.302   2.481   0.823 -0.5935 -0.4209 -0.4026
  781MPD2     C11569   3.290   4.564  12.385  0.0268  0.0704  0.2465
  781MPD2    C111570   3.274   4.436  12.332 -0.0257 -0.0730  1.0015
  781MPD2    C211571   3.330   4.396  12.213  0.0247  0.2450 -0.2750
  781MPD2    C311572   3.417   4.482  12.153 -0.4343 -0.0606  0.2089
  781MPD2    C411573   3.426   4.615  12.193 -0.5146 -0.1314  0.6991
  781MPD2    C511574   3.355   4.655  12.304  0.4396 -1.2679  0.0708
  781MPD2     H11575   3.305   4.294  12.190  0.1933  0.4217 -1.2152
  781MPD2    H111576   3.481   4.691  12.139 -0.9730 -0.6111 -0.4397
  781MPD2    H211577   3.249   4.597  12.479 -0.4321  2.3378 -0.7556
  781MPD2    H311578   3.358   0.022  12.331  1.9980 -1.6161  1.2766
  781MPD2     N11579   3.508   4.435  12.058  1.0660  0.3377 -0.1252
  781MPD2    H511580   3.566   4.507  12.016  0.6244  1.0143  0.4156
  781MPD2    N111581   3.197   4.336  12.394 -0.1741  0.5254  0.1848
  781MPD2    H711582   3.206   4.242  12.356 -1.0471  0.3719  0.3395
  782MPD2     C11583   0.962   0.516  10.683  0.5122 -0.3217  0.1136
  782MPD2    C111584   1.083   0.519  10.620 -0.0948 -1.1054  0.4130
  782MPD2    C211585   1.176   0.608  10.671 -0.5669  0.5560  0.2388
  782MPD2    C311586   1.151   0.686  10.780 -0.1581  0.0305 -0.0964
  782MPD2    C411587   1.029   0.677  10.846 -0.3702  0.3892  0.3882
  782MPD2    C511588   0.938   0.595  10.793  0.0001  0.1645  0.1514
  782MPD2     H11589   1.273   0.617  10.622 -0.0299  2.8823  1.7274
  782MPD2    H111590   1.003   0.750  10.922 -1.4839 -0.4385  0.8085
  782MPD2    H211591   0.883   0.445  10.660 -0.7265  0.8913  0.6510
  782MPD2    H311592   0.837   0.592  10.834 -1.3789  0.2094 -3.2425
  782MPD2     N11593   1.261   0.770  10.825  0.8219 -0.5964  0.1260
  782MPD2    H511594   1.343   0.768  10.766  1.3581 -0.9748  0.8877
  782MPD2    N111595   1.114   0.426  10.520 -0.0556 -0.4075  0.3742
  782MPD2    H711596   1.032   0.372  10.494  1.2892 -2.2343 -0.0544
  783MPD2     C11597   1.005   4.542  10.995  0.5428 -0.0895  0.1032
  783MPD2    C111598   1.097   4.646  11.007  0.1845  0.8591  0.7361
  783MPD2    C211599   1.140   4.713  10.892  0.4725 -0.0244 -0.7941
  783MPD2    C311600   1.107   4.657  10.766  0.3147  0.2404 -0.5572
  783MPD2    C411601   1.036   4.545  10.758 -0.3844 -0.7211 -0.3445
  783MPD2    C511602   0.989   4.485  10.869 -0.1879  0.1627 -0.2449
  783MPD2     H11603   1.195   0.069  10.891 -0.8592  0.7574 -0.9080
  783MPD2    H111604   0.997   4.505  10.665  0.6922 -0.2936 -0.9677
  783MPD2    H211605   0.972   4.495  11.087  0.0264  1.8578  0.9120
  783MPD2    H311606   0.932   4.393  10.860 -0.1918  0.0555  0.8883
  783MPD2     N11607   1.150   4.723  10.648 -0.2611  0.0958  0.3548
  783MPD2    H511608   1.211   0.066  10.660 -1.5451  0.6949  2.7935
  783MPD2    N111609   1.117   4.696  11.136 -0.3606 -0.3821  0.4966
  783MPD2    H711610   1.079   4.654  11.220 -2.9121  0.8267 -0.0602
  784MPD2     C11611   3.426   0.997   0.943 -0.1470 -0.0459 -0.6894
  784MPD2    C111612   3.384   1.093   1.030  0.1350  0.3401 -0.0408
  784MPD2    C211613   3.280   1.171   0.987 -0.6593  0.0885 -1.0265
  784MPD2    C311614   3.242   1.169   0.852 -0.2692 -0.1170  0.0114
  784MPD2    C411615   3.294   1.074   0.767 -0.6335  0.6639  0.0913
  784MPD2    C511616   3.380   0.985   0.818  0.8453 -0.0318 -0.0385
  784MPD2     H11617   3.251   1.256   1.047 -1.1704 -0.1507 -0.9392
  784MPD2    H111618   3.286   1.069   0.659  2.2879  1.6475 -0.1623
  784MPD2    H211619   3.512   0.934   0.963 -0.0270 -0.1022 -1.3664
  784MPD2    H311620   3.418   0.915   0.744 -0.2242  0.0001 -0.6226
  784MPD2     N11621   3.146   1.268   0.804  0.2963 -0.2160  0.1000
  784MPD2    H511622   3.112   1.346   0.861  1.9658 -0.8202  1.9512
  784MPD2    N111623   3.430   1.110   1.164  0.4408  0.4626  0.3306
  784MPD2    H711624   3.384   1.175   1.228 -0.4925  0.3505 -0.2235
  785MPD2     C11625   4.034   3.495  11.554  0.0367  0.5901 -0.3455
  785MPD2    C111626   4.033   3.623  11.505 -0.2816 -0.4659 -0.6103
  785MPD2    C211627   4.041   3.646  11.366 -0.1519  0.2093 -0.2109
  785MPD2    C311628   4.033   3.538  11.279  0.4191  0.0301 -1.2851
  785MPD2    C411629   4.024   3.410  11.330 -0.2682 -0.3277  0.0987
  785MPD2    C511630   4.022   3.388  11.463  0.6250  0.1898  0.6714
  785MPD2     H11631   4.044   3.747  11.328  1.1156  0.9375  1.7977
  785MPD2    H111632   4.015   3.323  11.265  0.1181 -1.3628  1.4201
  785MPD2    H211633   4.038   3.478  11.661  2.0811  1.6883 -0.2546
  785MPD2    H311634   3.999   3.293  11.510 -0.4570 -0.7651 -1.7910
  785MPD2     N11635   4.041   3.561  11.139 -0.5669 -0.4236  0.3985
  785MPD2    H511636   4.050   3.657  11.107  1.6332 -0.8579 -0.2891
  785MPD2    N111637   4.021   3.722  11.605  0.5165 -0.2242 -0.1801
  785MPD2    H711638   4.030   3.690  11.701 -0.0645 -1.1073 -0.4218
  786MPD2     C11639   2.858   2.209  14.709  0.2773 -0.3317 -0.8184
  786MPD2    C111640   2.812   2.081  14.744  0.6129  0.1912  0.4552
  786MPD2    C211641   2.801   2.048  14.873 -0.2542 -0.2342 -0.4447
  786MPD2    C311642   2.824   2.136  14.975  0.0068 -0.7809 -0.7924
  786MPD2    C411643   2.890   2.252  14.949  0.4419  0.1874 -0.3999
  786MPD2    C511644   2.911   2.277  14.815 -0.8497  0.1775 -0.0293
  786MPD2     H11645   2.761   1.950  14.894 -0.1444 -0.2555 -0.3326
  786MPD2    H111646   2.911   2.328  15.024 -1.5038 -0.7545  1.0743
  786MPD2    H211647   2.885   2.233  14.607 -2.0888 -2.6602 -1.9658
  786MPD2    H311648   2.939   2.379  14.794  0.3495 -0.0803  0.3085
  786MPD2     N11649   2.790   2.115  15.108  0.4414 -0.4465  0.3353
  786MPD2    H511650   2.831   2.180  15.174  2.9073 -0.2309 -1.3876
  786MPD2    N111651   2.779   1.977  14.654  0.3044  0.3401  0.6776
  786MPD2    H711652   2.764   1.888  14.700 -2.0634  0.3861  0.0059
  787MPD2     C11653   2.996   1.443  14.836  0.0150 -0.1155  0.2389
  787MPD2    C111654   3.001   1.424  14.700 -0.0463 -0.8049 -0.4186
  787MPD2    C211655   3.057   1.309  14.648  0.5238 -0.1602  0.6103
  787MPD2    C311656   3.102   1.209  14.736 -0.3559 -0.0540 -0.5110
  787MPD2    C411657   3.094   1.232  14.870 -0.2130  0.9958  0.6188
  787MPD2    C511658   3.045   1.346  14.919 -0.2666  0.3877 -0.0221
  787MPD2     H11659   3.073   1.294  14.542 -1.0537 -0.1201  0.3611
  787MPD2    H111660   3.128   1.162  14.946 -1.9784 -2.7731 -2.0874
  787MPD2    H211661   2.964   1.536  14.882  1.0838  0.3554  0.0246
  787MPD2    H311662   3.032   1.366  15.025  0.8379 -0.3754  0.2546
  787MPD2     N11663   3.157   1.083  14.690 -0.2330 -0.4354 -0.1359
  787MPD2    H511664   3.170   1.072  14.590  1.3463 -1.8931  0.2327
  787MPD2    N111665   2.944   1.517  14.612  0.0098  0.0510 -0.2610
  787MPD2    H711666   2.905   1.602  14.652  0.3964 -0.2767  0.7940
  788MPD2     C11667   4.011   0.843   0.544 -0.4457  0.3146 -0.2472
  788MPD2    C111668   4.113   0.826   0.454  0.6005 -0.2956 -0.2824
  788MPD2    C211669   4.106   0.894   0.328  0.4362 -0.5998  0.0882
  788MPD2    C311670   3.993   0.976   0.296  0.2468  0.1131 -0.6779
  788MPD2    C411671   3.903   0.989   0.396  0.3814  0.4574 -0.5192
  788MPD2    C511672   3.920   0.930   0.513  0.0492  0.3373  0.0226
  788MPD2     H11673   4.174   0.865   0.249  2.0692 -1.9997  1.9891
  788MPD2    H111674   3.806   1.035   0.386 -0.4513 -0.7818  1.6316
  788MPD2    H211675   4.023   0.803   0.644  0.0800  4.4417  1.3439
  788MPD2    H311676   3.839   0.937   0.585  1.7436  0.1187  1.9542
  788MPD2     N11677   3.963   1.035   0.169  0.0773  0.3184 -0.1352
  788MPD2    H511678   3.868   1.067   0.153  0.4410  0.7501 -1.4394
  788MPD2    N111679   4.230   0.738   0.480  0.1240 -0.2739 -0.0342
  788MPD2    H711680   4.315   0.754   0.426 -0.5012 -1.8814 -1.4988
  789MPD2     C11681   3.990   4.646  17.557 -0.5006 -0.2591  0.4819
  789MPD2    C111682   3.935   4.555  17.472 -0.4016  0.1863  0.2509
  789MPD2    C211683   3.849   4.607  17.372  0.6676 -0.2865  0.7626
  789MPD2    C311684   3.790   4.734  17.373 -0.4557 -0.5261  0.1722
  789MPD2    C411685   3.826   0.073  17.478  0.4406 -0.7096 -0.1820
  789MPD2    C511686   3.924   0.037  17.567 -0.3651  0.5130 -0.3602
  789MPD2     H11687   3.809   4.534  17.303 -0.7423  0.1103  1.1626
  789MPD2    H111688   3.797   0.177  17.464 -0.2609 -0.7296  1.1335
  789MPD2    H211689   4.078   4.621  17.616 -1.1686 -4.2573 -0.2056
  789MPD2    H311690   3.951   0.112  17.641  2.3400 -0.8885  0.0532
  789MPD2     N11691   3.701   0.055  17.274  0.2850  0.3969 -0.1512
  789MPD2    H511692   3.687   0.155  17.283 -1.5499  0.3038 -1.9939
  789MPD2    N111693   3.978   4.425  17.451  0.3891 -0.1459  0.6228
  789MPD2    H711694   3.942   4.371  17.373  1.0256 -1.5889  1.3196
  790MPD2     C11695   0.875   1.796  13.479 -0.3125 -0.2130 -0.0884
  790MPD2    C111696   0.969   1.698  13.507 -0.3665 -0.0219 -0.1325
  790MPD2    C211697   0.972   1.588  13.425  0.2180 -0.1342  0.1105
  790MPD2    C311698   0.886   1.576  13.320 -0.6310 -0.3204 -0.0483
  790MPD2    C411699   0.790   1.676  13.295  0.5240 -0.1276  0.3286
  790MPD2    C511700   0.778   1.778  13.380  0.2345 -0.5589 -0.0101
  790MPD2     H11701   1.055   1.519  13.429 -0.3448 -0.8938 -1.1573
  790MPD2    H111702   0.708   1.662  13.225 -0.3210 -3.5816  2.0084
  790MPD2    H211703   0.872   1.880  13.547  3.2961 -0.6280  0.6121
  790MPD2    H311704   0.700   1.853  13.375  3.1737  2.5962  0.8084
  790MPD2     N11705   0.893   1.456  13.241 -0.1738  0.0592 -0.7323
  790MPD2    H511706   0.952   1.377  13.265 -0.1160  0.9534  2.0941
  790MPD2    N111707   1.051   1.709  13.621 -0.8758 -0.4247  0.0986
  790MPD2    H711708   1.035   1.787  13.685 -0.2107  0.1176 -0.3981
  791MPD2     C11709   0.387   1.204  12.672 -0.6434  0.2993 -0.7551
  791MPD2    C111710   0.416   1.126  12.784  0.1099  0.7449 -0.4738
  791MPD2    C211711   0.331   1.022  12.812  0.4556 -0.3025 -0.1363
  791MPD2    C311712   0.217   0.990  12.742  1.4509 -1.1738 -0.1321
  791MPD2    C411713   0.182   1.069  12.637 -0.4025 -0.0178  0.0338
  791MPD2    C511714   0.271   1.176  12.601 -1.3136  0.4769  0.5305
  791MPD2     H11715   0.363   0.958  12.893  0.8352 -0.4523 -0.4001
  791MPD2    H111716   0.091   1.049  12.581 -1.1263 -0.8390  1.4850
  791MPD2    H211717   0.451   1.281  12.631  0.6313 -1.2296 -1.6970
  791MPD2    H311718   0.252   1.242  12.517 -1.7497  1.1403  1.1573
  791MPD2     N11719   0.134   0.888  12.799  0.1657  0.7999 -0.6621
  791MPD2    H511720   0.174   0.834  12.875 -0.6246  1.8208  0.4530
  791MPD2    N111721   0.533   1.149  12.855  0.5634 -0.0776  0.6925
  791MPD2    H711722   0.592   1.231  12.841  0.3892 -0.2698 -1.2287
  792MPD2     C11723   1.400   1.369  11.328  0.3438 -0.3915 -0.3532
  792MPD2    C111724   1.324   1.439  11.239  0.3314 -0.6162  0.3547
  792MPD2    C211725   1.189   1.446  11.262 -0.2909 -0.2150 -0.0230
  792MPD2    C311726   1.125   1.361  11.356  0.1333 -0.5708  0.5220
  792MPD2    C411727   1.206   1.290  11.446  0.1913  0.5463  0.0597
  792MPD2    C511728   1.340   1.304  11.434  0.1601  0.0564 -0.1718
  792MPD2     H11729   1.122   1.494  11.191 -0.5409 -0.0955  0.2966
  792MPD2    H111730   1.162   1.232  11.526 -0.1375  0.1035 -0.4439
  792MPD2    H211731   1.507   1.357  11.314  0.5623  0.0559  0.8903
  792MPD2    H311732   1.402   1.244  11.500  1.0208  0.5749 -0.5101
  792MPD2     N11733   0.982   1.350  11.380 -0.5449 -0.3010 -0.6318
  792MPD2    H511734   0.956   1.301  11.465  0.2707 -0.3758 -0.4211
  792MPD2    N111735   1.387   1.520  11.142 -0.5907  0.5463  0.3624
  792MPD2    H711736   1.488   1.509  11.145 -0.6761 -0.9029 -1.8214
  793MPD2     C11737   0.462   1.265  10.593  0.1069 -0.4866  0.5596
  793MPD2    C111738   0.586   1.312  10.640  0.2841 -0.2981  0.0785
  793MPD2    C211739   0.602   1.340  10.779  0.6689 -0.1380 -0.5409
  793MPD2    C311740   0.504   1.309  10.872  0.0307  0.1317  0.3146
  793MPD2    C411741   0.383   1.265  10.821  0.3821  0.4015 -0.3695
  793MPD2    C511742   0.356   1.245  10.689 -0.7571 -0.0119 -0.6817
  793MPD2     H11743   0.700   1.366  10.819  0.3055 -0.7590  0.7354
  793MPD2    H111744   0.295   1.247  10.882  1.3596 -0.5645  0.7651
  793MPD2    H211745   0.436   1.231  10.493  0.8338  1.2990 -0.2338
  793MPD2    H311746   0.255   1.206  10.680 -1.3332  1.2008  0.4788
  793MPD2     N11747   0.538   1.319  11.010 -0.2882 -0.1558 -0.1544
  793MPD2    H511748   0.636   1.337  11.031 -0.4954 -1.0971  1.5799
  793MPD2    N111749   0.689   1.325  10.551  0.0497  0.4396  0.1995
  793MPD2    H711750   0.775   1.357  10.594  1.1847  0.4528 -2.0764
  794MPD2     C11751   0.032   0.875  17.442  0.5212 -0.2579 -0.3148
  794MPD2    C111752   0.081   0.758  17.381 -0.2924 -0.9891 -0.4113
  794MPD2    C211753   0.076   0.760  17.241  0.0015 -0.1365 -0.1365
  794MPD2    C311754   0.010   0.859  17.172  0.1756 -0.5443 -0.0512
  794MPD2    C411755   4.686   0.964  17.236  0.3055 -0.3846  0.0037
  794MPD2    C511756   4.704   0.970  17.372  0.2140  0.9214 -0.4355
  794MPD2     H11757   0.112   0.671  17.190 -0.3664 -0.8627  0.8856
  794MPD2    H111758   4.634   1.042  17.182  2.4548  0.3530 -1.0142
  794MPD2    H211759   0.027   0.888  17.549  1.8203 -1.6680 -0.0752
  794MPD2    H311760   4.655   1.045  17.433 -0.7123  1.1701 -1.4878
  794MPD2     N11761   0.006   0.878  17.033 -0.0653  0.5769  0.3528
  794MPD2    H511762   4.684   0.954  17.002  0.5366  0.6536 -0.6324
  794MPD2    N111763   0.128   0.645  17.453 -0.0978 -0.7671 -0.2266
  794MPD2    H711764   0.155   0.561  17.403  0.3450 -1.0235  0.4439
  795MPD2     C11765   3.138   2.876  13.549 -0.4034  1.0473  0.2631
  795MPD2    C111766   3.168   2.790  13.446  0.9036  0.1744  0.0025
  795MPD2    C211767   3.282   2.710  13.463 -0.6132  0.9125  0.5214
  795MPD2    C311768   3.365   2.730  13.569  0.0097  0.3309  0.0008
  795MPD2    C411769   3.326   2.814  13.677 -0.4339 -0.1631  0.5397
  795MPD2    C511770   3.208   2.887  13.662 -0.5751  0.1256 -0.4124
  795MPD2     H11771   3.311   2.642  13.383  2.5752  1.4462  1.2239
  795MPD2    H111772   3.381   2.823  13.770 -1.3530  0.0486  1.0599
  795MPD2    H211773   3.054   2.943  13.557  0.2906  1.6752  2.2966
  795MPD2    H311774   3.182   2.967  13.731  2.3936 -0.1219  0.9946
  795MPD2     N11775   3.487   2.660  13.582 -0.1044  1.0712 -0.8235
  795MPD2    H511776   3.491   2.579  13.521  0.1838  2.4677 -2.6881
  795MPD2    N111777   3.080   2.774  13.338 -0.3019 -0.6035 -0.1116
  795MPD2    H711778   3.102   2.701  13.272 -0.4951  1.0206 -1.9718
  796MPD2     C11779   2.784   4.284  15.717 -0.2622  0.1017  0.1070
  796MPD2    C111780   2.755   4.367  15.813  0.1931 -0.1583  0.2430
  796MPD2    C211781   2.705   4.491  15.784 -0.0481  0.6429  0.6656
  796MPD2    C311782   2.708   4.546  15.655 -0.2836 -0.3158 -0.4793
  796MPD2    C411783   2.760   4.460  15.556 -0.1157  0.0345 -0.2077
  796MPD2    C511784   2.795   4.332  15.590 -0.4766 -0.4340  0.1646
  796MPD2     H11785   2.684   4.556  15.868 -0.4090 -0.5965  1.5370
  796MPD2    H111786   2.767   4.484  15.450  2.4238  2.4298  0.4859
  796MPD2    H211787   2.805   4.179  15.734 -0.8140 -0.1603 -0.8578
  796MPD2    H311788   2.817   4.260  15.512 -2.3204 -1.1147  0.2818
  796MPD2     N11789   2.639   4.668  15.633  0.1068 -0.1417  0.4362
  796MPD2    H511790   2.600   4.717  15.713  0.3331  2.1252 -0.8251
  796MPD2    N111791   2.765   4.319  15.947 -0.0151 -0.1322 -0.1702
  796MPD2    H711792   2.802   4.224  15.946  0.8628  0.2058 -0.2617
  797MPD2     C11793   3.830   4.218  17.737 -0.3658  0.7810 -0.2364
  797MPD2    C111794   3.762   4.335  17.734  0.3757 -0.3511 -0.5343
  797MPD2    C211795   3.680   4.354  17.631  0.8278 -0.8032  0.3810
  797MPD2    C311796   3.672   4.267  17.520  0.2389 -0.1688  0.3224
  797MPD2    C411797   3.759   4.162  17.518 -0.1558 -0.3771  0.2921
  797MPD2    C511798   3.834   4.137  17.628  0.0437 -0.0605  0.0517
  797MPD2     H11799   3.624   4.447  17.635  1.9169 -0.1446  0.1602
  797MPD2    H111800   3.765   4.099  17.430 -0.3353  1.2830 -0.8903
  797MPD2    H211801   3.890   4.183   0.071 -2.0227  1.8763  1.4215
  797MPD2    H311802   3.899   4.051  17.619 -0.8453 -0.4460 -2.7990
  797MPD2     N11803   3.582   4.288  17.408 -0.3718  0.9621  0.4132
  797MPD2    H511804   3.574   4.223  17.331  2.1614 -1.2582  2.0293
  797MPD2    N111805   3.773   4.443   0.073  0.0757 -0.3274  0.1736
  797MPD2    H711806   3.705   4.517   0.060 -0.2239 -0.6144  0.0988
  798MPD2     C11807   3.401   0.190  17.468  0.0664  0.2481  0.0299
  798MPD2    C111808   3.417   0.060  17.498 -0.6556  0.0968 -0.1638
  798MPD2    C211809   3.500   0.022  17.607  0.3040  0.3281  0.5505
  798MPD2    C311810   3.573   0.119  17.671  0.2806 -0.9127  0.1954
  798MPD2    C411811   3.566   0.249  17.628  0.2221 -0.0754 -0.1177
  798MPD2    C511812   3.471   0.282  17.534  0.2424 -0.7402 -0.2403
  798MPD2     H11813   3.507   4.656  17.639 -0.7878  0.0854  0.0123
  798MPD2    H111814   3.617   0.330  17.678 -0.8019  1.6699 -1.8776
  798MPD2    H211815   3.332   0.230  17.394 -1.2041  0.4597  1.3279
  798MPD2    H311816   3.450   0.382  17.498 -0.2684 -0.4432  0.9052
  798MPD2     N11817   3.648   0.082   0.035 -1.0552 -0.2515 -0.2528
  798MPD2    H511818   3.637   4.730   0.081  0.1115 -1.1480 -1.7198
  798MPD2    N111819   3.348   4.695  17.431 -0.4997  0.2945  0.1000
  798MPD2    H711820   3.359   4.600  17.467  0.7092  1.2064  2.1504
  799MPD2     C11821   2.793   0.877  14.706 -0.4887 -0.4230  0.1070
  799MPD2    C111822   2.746   0.819  14.591  0.0862 -0.4634  0.8222
  799MPD2    C211823   2.704   0.889  14.480 -0.7789 -0.3553  0.1772
  799MPD2    C311824   2.711   1.030  14.483 -0.3430  0.2589  0.0763
  799MPD2    C411825   2.757   1.089  14.598  0.4323  0.4380 -0.6434
  799MPD2    C511826   2.795   1.016  14.706 -0.4120  0.3752 -0.2883
  799MPD2     H11827   2.669   0.828  14.397 -0.0747 -0.9620  0.3249
  799MPD2    H111828   2.771   1.196  14.610  0.8028  0.2437  0.5840
  799MPD2    H211829   2.829   0.833  14.798  1.3048  0.4276 -0.1819
  799MPD2    H311830   2.830   1.080  14.786  1.7718 -2.5441  1.0862
  799MPD2     N11831   2.689   1.116  14.374  0.6990 -0.5689 -0.5019
  799MPD2    H511832   2.653   1.209  14.391  0.7309 -0.5628 -0.4695
  799MPD2    N111833   2.733   0.674  14.593  0.0923  0.0499  0.3114
  799MPD2    H711834   2.701   0.628  14.509 -0.5547  2.1931 -0.6112
  800MPD2     C11835   3.073   2.154  13.767  0.0239  0.4402 -0.0328
  800MPD2    C111836   3.184   2.081  13.807 -1.3447  0.5130 -0.2153
  800MPD2    C211837   3.221   1.972  13.731  0.1440 -0.0403  0.0321
  800MPD2    C311838   3.151   1.929  13.626  0.3998 -0.2465  0.3252
  800MPD2    C411839   3.041   2.001  13.587 -1.2625  0.1305 -0.1448
  800MPD2    C511840   3.004   2.114  13.657  0.3724 -0.2662 -0.0952
  800MPD2     H11841   3.323   1.934  13.735  0.4287  0.7980  0.6666
  800MPD2    H111842   2.981   1.962  13.505 -0.6705 -0.2641 -0.3870
  800MPD2    H211843   3.023   2.236  13.817 -0.4870 -0.6712  1.2411
  800MPD2    H311844   2.921   2.176  13.624  1.3087 -0.2901 -2.4399
  800MPD2     N11845   3.214   1.828  13.551  0.1391  0.5350  0.2347
  800MPD2    H511846   3.293   1.787  13.600  0.2410  0.7649  0.2623
  800MPD2    N111847   3.261   2.129  13.917  0.1078  0.3888  0.2775
  800MPD2    H711848   3.222   2.211  13.963  0.4403  0.2445  0.8182
  801MPD2     C11849   3.317   2.727  14.166 -0.2897  0.4098 -0.3779
  801MPD2    C111850   3.302   2.616  14.249 -0.2291 -0.2472 -0.0082
  801MPD2    C211851   3.209   2.616  14.352 -0.1149  0.0238 -0.0404
  801MPD2    C311852   3.126   2.734  14.370 -0.3103 -0.0254 -0.0329
  801MPD2    C411853   3.140   2.841  14.281 -0.5912 -0.2705 -0.5823
  801MPD2    C511854   3.243   2.841  14.188  0.0618 -0.3121 -0.7216
  801MPD2     H11855   3.199   2.531  14.419  0.3628  0.7766  0.9883
  801MPD2    H111856   3.077   2.929  14.282 -0.6817 -0.3317 -0.8508
  801MPD2    H211857   3.401   2.714  14.098  0.5276  0.0693  0.6860
  801MPD2    H311858   3.288   2.932  14.149  0.2670 -0.8457 -1.7503
  801MPD2     N11859   3.016   2.733  14.462 -0.0997  0.5794 -0.2899
  801MPD2    H511860   2.948   2.807  14.446 -1.1862 -1.2133 -4.0006
  801MPD2    N111861   3.369   2.500  14.214 -0.6125  0.6516  0.1254
  801MPD2    H711862   3.404   2.496  14.119 -0.6626  1.7514  0.0561
  802MPD2     C11863   2.131   2.834   0.485 -0.2254 -0.0235 -0.4202
  802MPD2    C111864   2.171   2.942   0.407  0.2857  0.1676  0.1595
  802MPD2    C211865   2.251   2.922   0.297  0.5887 -0.7380  0.0856
  802MPD2    C311866   2.277   2.797   0.249 -0.4063  0.7740  0.2723
  802MPD2    C411867   2.230   2.690   0.326  0.4492  0.5230  0.0797
  802MPD2    C511868   2.151   2.714   0.432 -0.3832 -0.0666  0.0794
  802MPD2     H11869   2.274   3.011   0.240 -1.0765 -0.7741 -0.6386
  802MPD2    H111870   2.240   2.585   0.303  0.2280  0.5496 -0.1344
  802MPD2    H211871   2.060   2.840   0.567 -0.4578  0.1222 -0.6307
  802MPD2    H311872   2.098   2.635   0.483  0.1040 -0.4157  0.0386
  802MPD2     N11873   2.345   2.783   0.126 -0.1975 -0.9491 -0.2832
  802MPD2    H511874   2.368   2.866   0.073 -1.8119  1.7215  3.1451
  802MPD2    N111875   2.146   3.081   0.424  0.3917  0.0226 -0.0557
  802MPD2    H711876   2.183   3.146   0.355 -0.5476  0.8906  0.2624
  803MPD2     C11877   3.926   0.753  11.814 -0.3133  0.2534  0.2516
  803MPD2    C111878   4.003   0.765  11.931  1.1070 -0.1055 -0.5077
  803MPD2    C211879   3.948   0.717  12.051  0.1426  0.3227 -0.0708
  803MPD2    C311880   3.821   0.658  12.055 -0.2813  0.2739  0.2422
  803MPD2    C411881   3.745   0.644  11.941  0.0127 -0.1802  0.4406
  803MPD2    C511882   3.799   0.696  11.824 -0.0321 -0.1277  0.3554
  803MPD2     H11883   4.006   0.736  12.141  2.8144 -0.1791 -1.6723
  803MPD2    H111884   3.649   0.594  11.944 -0.3783  0.5112 -0.4597
  803MPD2    H211885   3.967   0.785  11.719 -1.3463 -1.5735 -0.8222
  803MPD2    H311886   3.744   0.688  11.731 -0.9203  0.6253  0.8158
  803MPD2     N11887   3.763   0.612  12.175 -0.3990  0.9068  0.5031
  803MPD2    H511888   3.663   0.600  12.185 -0.2028 -0.3593  0.9083
  803MPD2    N111889   4.122   0.841  11.934  0.6738  0.6177 -0.3355
  803MPD2    H711890   4.150   0.860  12.030 -0.6845 -0.0937  0.1963
  804MPD2     C11891   3.302   2.904  16.766 -0.2769 -0.3612  0.9934
  804MPD2    C111892   3.235   2.932  16.880 -0.2310  0.0668 -0.2807
  804MPD2    C211893   3.282   3.038  16.955 -0.6660  0.0353 -0.3642
  804MPD2    C311894   3.377   3.125  16.894 -0.1387 -0.1426 -0.4272
  804MPD2    C411895   3.425   3.101  16.771  0.3812  0.0074 -0.2351
  804MPD2    C511896   3.391   2.985  16.709 -0.2224  0.3088 -0.0123
  804MPD2     H11897   3.250   3.064  17.056  0.4921  0.4874 -0.1106
  804MPD2    H111898   3.481   3.175  16.715  0.1642 -0.7053 -1.4075
  804MPD2    H211899   3.288   2.812  16.710  2.0467  1.1852 -2.1632
  804MPD2    H311900   3.437   2.964  16.613  0.4382 -0.7886  0.5374
  804MPD2     N11901   3.436   3.222  16.981  0.6190  0.0886  0.4723
  804MPD2    H511902   3.402   3.248  17.073 -1.7303  0.8200 -0.6007
  804MPD2    N111903   3.115   2.874  16.926  0.0497 -0.0024  0.0143
  804MPD2    H711904   3.071   2.901  17.013 -1.7185  2.4981 -1.6455
  805MPD2     C11905   2.344   0.942  15.551  0.7353 -0.8951  0.3983
  805MPD2    C111906   2.448   0.945  15.459  0.0231  0.9064  0.0640
  805MPD2    C211907   2.548   1.038  15.487  0.6718  0.2659 -0.0919
  805MPD2    C311908   2.540   1.126  15.595  0.0595  0.0218  0.4797
  805MPD2    C411909   2.428   1.123  15.676  0.7258 -0.0677  0.0307
  805MPD2    C511910   2.335   1.029  15.656 -0.2073  0.3335  0.3939
  805MPD2     H11911   2.633   1.040  15.420 -0.2610 -0.6151 -1.2961
  805MPD2    H111912   2.415   1.194  15.757  0.7893  1.6938 -1.4832
  805MPD2    H211913   2.272   0.862  15.541  1.6371 -1.6636  0.0435
  805MPD2    H311914   2.241   1.030  15.710 -0.3727 -0.9717  0.1437
  805MPD2     N11915   2.633   1.229  15.602 -0.2642  0.3598 -0.2073
  805MPD2    H511916   2.703   1.242  15.529 -0.7955 -1.5897 -1.0499
  805MPD2    N111917   2.462   0.854  15.348  0.1175 -0.0328 -0.2381
  805MPD2    H711918   2.549   0.851  15.296  0.6043 -0.4842  0.5947
  806MPD2     C11919   3.073   0.232   1.219  0.5723 -0.4781  1.0077
  806MPD2    C111920   3.009   0.337   1.278  0.7468 -0.1660  1.1141
  806MPD2    C211921   2.964   0.433   1.187 -0.4328  0.1420  0.2047
  806MPD2    C311922   2.994   0.439   1.052  0.0761  0.1975  0.1869
  806MPD2    C411923   3.061   0.337   1.003  0.8958  0.3742 -0.1596
  806MPD2    C511924   3.085   0.227   1.080  0.1261  0.5885 -0.1199
  806MPD2     H11925   2.911   0.519   1.226  0.6855  1.3586 -0.9587
  806MPD2    H111926   3.088   0.314   0.900 -1.4280 -1.6342 -0.3140
  806MPD2    H211927   3.122   0.151   1.272  1.7327  0.3549  1.1997
  806MPD2    H311928   3.143   0.145   1.040  1.3726  1.4684 -0.1321
  806MPD2     N11929   2.938   0.541   0.971  1.1765 -0.1893 -0.6888
  806MPD2    H511930   2.892   0.623   1.010 -0.2767 -1.0929 -0.5219
  806MPD2    N111931   2.988   0.335   1.423  0.0015 -0.5872  0.7905
  806MPD2    H711932   3.036   0.260   1.472 -0.8210 -1.4720  0.2553
  807MPD2     C11933   3.143   4.612   1.907  0.8155  0.0774 -0.1548
  807MPD2    C111934   3.020   4.666   1.874  0.1114  0.2863  0.5701
  807MPD2    C211935   2.914   4.577   1.875 -0.0520 -0.4345 -0.3161
  807MPD2    C311936   2.926   4.442   1.884 -0.1770 -0.3207 -0.6017
  807MPD2    C411937   3.051   4.397   1.928  0.3512  0.5358  0.2296
  807MPD2    C511938   3.161   4.478   1.935 -0.2137 -0.6801  0.1420
  807MPD2     H11939   2.818   4.610   1.836 -0.5995 -0.5203  0.9711
  807MPD2    H111940   3.064   4.290   1.940 -0.0278  0.6686  1.8041
  807MPD2    H211941   3.230   4.678   1.908 -0.3853  1.6782 -1.3679
  807MPD2    H311942   3.261   4.439   1.950 -0.4200 -1.1107  0.4095
  807MPD2     N11943   2.814   4.360   1.866 -0.4980  0.4513  0.0272
  807MPD2    H511944   2.723   4.405   1.877 -0.4695  0.4944  0.0795
  807MPD2    N111945   2.996   0.060   1.841 -0.5426  0.6250  0.5727
  807MPD2    H711946   2.899   0.084   1.822 -0.3456  0.9044 -0.0789
  808MPD2     C11947   3.689   1.787  10.133 -0.3961 -0.3192 -0.5954
  808MPD2    C111948   3.593   1.837  10.227 -0.0882  0.4083  0.9653
  808MPD2    C211949   3.613   1.962  10.282 -1.0107  0.1659 -0.0923
  808MPD2    C311950   3.713   2.043  10.234 -0.1150  0.0842  0.9720
  808MPD2    C411951   3.796   2.003  10.127 -0.2697 -0.3526 -0.0255
  808MPD2    C511952   3.792   1.869  10.088  0.3579  0.3383 -0.4235
  808MPD2     H11953   3.554   1.991  10.368  0.2771  0.5290  0.6787
  808MPD2    H111954   3.874   2.065  10.086 -0.2726 -0.0557  0.4127
  808MPD2    H211955   3.687   1.683  10.100  0.4641  0.4335 -3.0103
  808MPD2    H311956   3.863   1.835  10.014  0.9047 -1.6615  1.0234
  808MPD2     N11957   3.737   2.170  10.285 -0.5408 -0.5099  0.0114
  808MPD2    H511958   3.808   2.226  10.238 -0.9791  0.3562  0.3894
  808MPD2    N111959   3.492   1.751  10.284 -0.2436  0.1895  0.2544
  808MPD2    H711960   3.450   1.774  10.374  2.5356 -0.2609  1.6748
  809MPD2     C11961   4.339   2.814   9.976 -0.3412 -0.3429 -0.0415
  809MPD2    C111962   4.342   2.682  10.012  0.0340 -0.6196  0.1529
  809MPD2    C211963   4.245   2.638  10.106 -0.4198  0.0295 -0.8040
  809MPD2    C311964   4.150   2.719  10.162 -0.0576  0.6073  0.0678
  809MPD2    C411965   4.161   2.856  10.138 -1.0042 -0.6514  0.4034
  809MPD2    C511966   4.249   2.899  10.036 -0.6002 -0.3810  0.3851
  809MPD2     H11967   4.249   2.534  10.140 -1.1266  0.6855  1.2918
  809MPD2    H111968   4.087   2.922  10.181 -0.1434 -0.6378  1.8797
  809MPD2    H211969   4.403   2.856   9.898 -1.9702 -0.5986 -1.5033
  809MPD2    H311970   4.245   2.996   9.988  0.4550 -0.9709 -0.8901
  809MPD2     N11971   4.048   2.672  10.252  0.3903  0.4363  0.1802
  809MPD2    H511972   3.989   2.748  10.285  0.1553  0.8421 -1.1783
  809MPD2    N111973   4.436   2.582   9.961  0.7131 -0.0308  0.6788
  809MPD2    H711974   4.438   2.501  10.021 -0.7245 -0.4656  0.1515
  810MPD2     C11975   3.018   1.238  11.039  0.8942  0.5809  0.0703
  810MPD2    C111976   3.012   1.228  10.901  0.0153 -0.1277 -0.5693
  810MPD2    C211977   3.012   1.340  10.821  0.8433  0.7030  0.2105
  810MPD2    C311978   3.049   1.462  10.880  0.0057  0.1585  1.5362
  810MPD2    C411979   3.079   1.466  11.014 -0.4316  0.2161 -0.8830
  810MPD2    C511980   3.059   1.356  11.090  0.4038  0.4213 -0.2369
  810MPD2     H11981   2.989   1.339  10.715  0.6665 -0.5159  0.2572
  810MPD2    H111982   3.114   1.563  11.047  0.3140 -0.3985  0.1322
  810MPD2    H211983   3.003   1.149  11.099 -1.9868  1.7135  1.0396
  810MPD2    H311984   3.067   1.368  11.198  2.0124  1.0913 -0.4313
  810MPD2     N11985   3.048   1.575  10.798  0.5473  0.5674 -0.2288
  810MPD2    H511986   3.075   1.662  10.842  1.8335  0.1545 -0.1877
  810MPD2    N111987   2.969   1.111  10.843  0.4689  0.3401  0.1387
  810MPD2    H711988   2.937   1.037  10.906  1.5503 -0.5662 -0.3803
  811MPD2     C11989   2.407   0.979  10.141 -0.2154  0.7242  0.2294
  811MPD2    C111990   2.530   1.023  10.199 -0.5188 -0.1111  1.5007
  811MPD2    C211991   2.592   1.139  10.152 -0.9958 -0.1090 -0.8522
  811MPD2    C311992   2.540   1.206  10.042  0.0139  0.9801 -0.4156
  811MPD2    C411993   2.425   1.162   9.989  0.5634  0.0439 -0.2307
  811MPD2    C511994   2.361   1.045  10.028 -0.4081  0.1171 -0.2347
  811MPD2     H11995   2.686   1.177  10.191 -0.3275 -2.1516 -0.4428
  811MPD2    H111996   2.379   1.212   9.905  1.0109  2.2670  0.8629
  811MPD2    H211997   2.361   0.887  10.175  1.5274 -0.5509 -0.8969
  811MPD2    H311998   2.278   1.007   9.970  0.9755 -4.7344  0.9587
  811MPD2     N11999   2.596   1.327  10.003 -0.4094 -0.4114 -0.0543
  811MPD2    H512000   2.670   1.362  10.064  0.5362 -2.1767 -0.2021
  811MPD2    N112001   2.568   0.946  10.314  0.0490  0.5502 -0.4817
  811MPD2    H712002   2.515   0.867  10.349  2.6753 -1.3510 -0.8033
  812MPD2     C12003   1.544   0.908  12.338 -0.2181 -0.6107 -0.0865
  812MPD2    C112004   1.603   1.019  12.394  0.0280  0.1668 -0.7289
  812MPD2    C212005   1.672   1.019  12.514 -0.8326  0.7301  0.3403
  812MPD2    C312006   1.687   0.896  12.573  0.2576  0.0723 -0.7696
  812MPD2    C412007   1.619   0.787  12.519 -0.5615  0.0668  0.0875
  812MPD2    C512008   1.553   0.793  12.406  0.4799  0.3264 -0.4919
  812MPD2     H12009   1.706   1.108  12.565 -1.9914  1.2376  0.2329
  812MPD2    H112010   1.630   0.689  12.564  0.8083  1.3427  2.5131
  812MPD2    H212011   1.483   0.911  12.248 -1.0870 -0.5236  0.5035
  812MPD2    H312012   1.499   0.702  12.380 -0.4135  0.6083  0.3690
  812MPD2     N12013   1.772   0.887  12.683 -0.0393 -0.2243  0.2427
  812MPD2    H512014   1.819   0.975  12.704 -1.8515  1.1280 -1.4002
  812MPD2    N112015   1.593   1.135  12.313 -0.0389 -0.3935 -0.5553
  812MPD2    H712016   1.555   1.122  12.220  1.4154  0.4390 -1.2786
  813MPD2     C12017   1.317   2.487  13.155 -0.3083  0.2165  0.2784
  813MPD2    C112018   1.257   2.606  13.118  0.7966 -0.5778  0.0983
  813MPD2    C212019   1.133   2.633  13.179 -0.2127 -0.4395 -0.1123
  813MPD2    C312020   1.071   2.546  13.257  0.0083 -0.4828  0.4294
  813MPD2    C412021   1.115   2.420  13.264 -0.1313  0.2966  0.3782
  813MPD2    C512022   1.243   2.391  13.219  0.0173 -0.8358  0.1897
  813MPD2     H12023   1.076   2.725  13.180  0.8227  0.2387 -3.2142
  813MPD2    H112024   1.067   2.343  13.323 -0.1661  0.9346  1.1863
  813MPD2    H212025   1.416   2.455  13.122 -2.3129 -0.9361 -4.7039
  813MPD2    H312026   1.291   2.297  13.244  1.3927  0.3634  2.0388
  813MPD2     N12027   0.954   2.594  13.318  0.6348  0.2735  0.3714
  813MPD2    H512028   0.926   2.688  13.294 -0.5367 -0.2260 -0.1890
  813MPD2    N112029   1.332   2.703  13.049 -0.3119  0.0986  0.4003
  813MPD2    H712030   1.428   2.679  13.025  0.4835  2.4338  1.2749
  814MPD2     C12031   1.348   3.972  12.731  0.4872 -0.1793 -0.3904
  814MPD2    C112032   1.372   4.035  12.610  0.5704  0.6977 -0.1736
  814MPD2    C212033   1.456   4.144  12.614 -0.3266 -0.7656 -1.1268
  814MPD2    C312034   1.503   4.199  12.738 -0.0530  0.4395 -0.1228
  814MPD2    C412035   1.480   4.123  12.850  0.2075 -0.8131  0.6986
  814MPD2    C512036   1.398   4.023  12.851 -0.2715 -0.4686  0.4586
  814MPD2     H12037   1.472   4.190  12.517  1.0271  0.5791 -0.2684
  814MPD2    H112038   1.513   4.149  12.950 -2.5679  3.4165  0.5338
  814MPD2    H212039   1.286   3.885  12.749  0.4086 -0.0072  0.1715
  814MPD2    H312040   1.390   3.974  12.947 -0.0178  0.8837  1.1708
  814MPD2     N12041   1.576   4.321  12.728 -0.7972 -0.0507 -0.3406
  814MPD2    H512042   1.607   4.350  12.635  1.7917  0.6926  0.7595
  814MPD2    N112043   1.322   3.991  12.487 -0.3082 -0.0388  0.0630
  814MPD2    H712044   1.347   4.036  12.399  0.5402 -0.7232 -0.0363
  815MPD2     C12045   2.019   3.199  11.407 -0.0790  0.9505  0.0769
  815MPD2    C112046   2.056   3.068  11.445  0.7825 -0.3497 -0.5095
  815MPD2    C212047   1.997   3.016  11.557  0.2526 -0.4444  0.2020
  815MPD2    C312048   1.915   3.088  11.637 -0.6475 -0.0216  0.9053
  815MPD2    C412049   1.890   3.224  11.604 -0.4196 -0.2085 -0.1816
  815MPD2    C512050   1.940   3.272  11.492  0.2826 -0.1387  1.5706
  815MPD2     H12051   2.006   2.914  11.593  1.9164 -0.4804 -0.3208
  815MPD2    H112052   1.825   3.279  11.671 -2.8365 -1.0493 -1.8300
  815MPD2    H212053   2.057   3.241  11.314  0.9487 -1.0157 -0.3834
  815MPD2    H312054   1.914   3.374  11.466 -0.9970 -0.8399  0.0878
  815MPD2     N12055   1.859   3.017  11.743 -0.0903  0.3169  0.2465
  815MPD2    H512056   1.883   2.920  11.761  0.9093  0.2711 -1.3954
  815MPD2    N112057   2.156   2.999  11.370 -0.4275 -0.2784  0.2495
  815MPD2    H712058   2.178   3.040  11.280  1.2358  0.2922  0.9113
  816MPD2     C12059   1.587   2.308  17.418  0.3884 -0.5020  0.3211
  816MPD2    C112060   1.554   2.360  17.296 -0.3950 -0.3457  0.3927
  816MPD2    C212061   1.619   2.304  17.180  0.2487 -0.2108 -0.0992
  816MPD2    C312062   1.720   2.202  17.194  0.6652  0.1119 -0.2241
  816MPD2    C412063   1.740   2.143  17.319 -0.0288  0.1467  0.8791
  816MPD2    C512064   1.675   2.205  17.428  0.7473 -0.5095  0.2112
  816MPD2     H12065   1.614   2.340  17.078 -2.3533 -1.3042 -0.3491
  816MPD2    H112066   1.809   2.060  17.331  0.2958  0.2444 -0.2482
  816MPD2    H212067   1.537   2.353  17.503 -0.4848 -0.3407 -0.2697
  816MPD2    H312068   1.687   2.159  17.525  2.7977 -0.3821  0.0070
  816MPD2     N12069   1.795   2.169  17.083  0.0330  0.0142  0.2583
  816MPD2    H512070   1.768   2.221  17.000 -0.8845 -1.0834 -0.1151
  816MPD2    N112071   1.470   2.473  17.286 -0.2750  0.8098  0.1152
  816MPD2    H712072   1.445   2.516  17.375 -1.6655  1.2223 -0.4684
  817MPD2     C12073   1.825   4.068  10.049 -0.4154 -0.2954  0.1197
  817MPD2    C112074   1.872   4.127   9.935 -1.5489 -0.6105 -0.4353
  817MPD2    C212075   1.787   4.207   9.868 -0.7571  0.2072 -0.5987
  817MPD2    C312076   1.656   4.232   9.919  0.1066  0.2276 -0.5915
  817MPD2    C412077   1.612   4.172  10.037 -0.4211 -0.3368 -0.3464
  817MPD2    C512078   1.696   4.084  10.100  0.2991 -0.1820 -0.3112
  817MPD2     H12079   1.819   4.246   9.772 -1.3069  0.7161 -0.5742
  817MPD2    H112080   1.512   4.181  10.078 -0.2958 -1.9636  0.3172
  817MPD2    H212081   1.888   3.996  10.101  1.4887  0.3811 -1.2399
  817MPD2    H312082   1.658   4.045  10.193 -0.4591 -1.4471 -1.1540
  817MPD2     N12083   1.568   4.309   9.845 -0.1151  0.0716 -0.7215
  817MPD2    H512084   1.599   4.344   9.755 -0.2755 -1.7221 -1.4878
  817MPD2    N112085   2.004   4.097   9.896 -0.0916 -0.3114 -0.3168
  817MPD2    H712086   2.037   4.153   9.818 -1.2773  0.6160 -0.1536
  818MPD2     C12087   0.477   3.833  10.273 -0.1594  0.2831  0.1251
  818MPD2    C112088   0.412   3.769  10.371  0.3875 -0.1294  0.2244
  818MPD2    C212089   0.367   3.644  10.356 -0.6642 -0.4820 -0.2208
  818MPD2    C312090   0.408   3.563  10.258 -0.3988  0.0029  0.5138
  818MPD2    C412091   0.490   3.615  10.165 -0.4521 -0.0057  0.3310
  818MPD2    C512092   0.516   3.752  10.171  0.4312  0.2013 -0.6887
  818MPD2     H12093   0.302   3.603  10.433  1.3371 -2.0291  0.6490
  818MPD2    H112094   0.527   3.560  10.080 -2.7570  0.6920 -1.1068
  818MPD2    H212095   0.511   3.936  10.279 -0.5748  0.4953 -1.2450
  818MPD2    H312096   0.559   3.798  10.083  0.2935 -1.6189 -1.7075
  818MPD2     N12097   0.377   3.428  10.255 -0.5797 -0.2586 -0.1869
  818MPD2    H512098   0.423   3.367  10.189 -1.6543 -1.2844  0.0092
  818MPD2    N112099   0.370   3.826  10.491 -0.0648 -0.4121 -0.6465
  818MPD2    H712100   0.297   3.784  10.548 -0.1400 -0.7698 -1.0084
  819MPD2     C12101   2.952   0.370  15.531 -0.0363  0.3107 -0.0102
  819MPD2    C112102   3.053   0.297  15.474  0.4119 -0.2217 -0.2534
  819MPD2    C212103   3.180   0.306  15.522 -0.1695 -0.5014  0.4371
  819MPD2    C312104   3.210   0.385  15.626  0.0247  0.1425 -0.7863
  819MPD2    C412105   3.108   0.461  15.689  0.7409 -0.2977 -0.3221
  819MPD2    C512106   2.983   0.449  15.638 -0.2864 -0.4061 -0.2654
  819MPD2     H12107   3.257   0.246  15.474 -2.6645 -1.0927 -2.8224
  819MPD2    H112108   3.119   0.525  15.776 -0.0645 -0.2651 -0.2497
  819MPD2    H212109   2.847   0.360  15.506 -0.2103 -1.1357  1.3323
  819MPD2    H312110   2.912   0.511  15.691  1.5626  1.9298 -0.5263
  819MPD2     N12111   3.343   0.372  15.672  0.5027  0.1983 -0.3559
  819MPD2    H512112   3.395   0.293  15.635 -1.4822 -1.2732 -0.0009
  819MPD2    N112113   3.016   0.208  15.366 -0.3763  1.0317 -0.8517
  819MPD2    H712114   2.923   0.222  15.328 -0.4974  2.8255  0.0565
  820MPD2     C12115   2.401   0.203  14.802 -0.4223 -0.1489  0.7781
  820MPD2    C112116   2.510   0.270  14.858 -0.9470  0.4646  0.7497
  820MPD2    C212117   2.623   0.199  14.882  0.5646  0.0344 -0.4643
  820MPD2    C312118   2.634   0.066  14.869  0.5251  0.2737 -0.1366
  820MPD2    C412119   2.532   4.735  14.816  0.2838 -0.3269 -0.9111
  820MPD2    C512120   2.422   0.067  14.774 -0.6177  0.6103  0.4912
  820MPD2     H12121   2.709   0.254  14.917 -0.2776  0.8972  0.2543
  820MPD2    H112122   2.540   4.628  14.799 -0.5610 -0.2354 -1.9161
  820MPD2    H212123   2.315   0.254  14.761  0.5871 -0.2752 -1.5167
  820MPD2    H312124   2.338   0.011  14.735 -0.0640  2.1179 -2.8866
  820MPD2     N12125   2.750   4.734  14.910  0.4088  0.2942 -0.0507
  820MPD2    H512126   2.750   4.633  14.920 -0.2577  0.4044  1.0117
  820MPD2    N112127   2.483   0.407  14.893  0.3155  0.4931 -0.0695
  820MPD2    H712128   2.387   0.434  14.873  0.6417  1.9083  0.3196
  821MPD2     C12129   3.371   1.642  12.770  0.3023  0.4348  0.4964
  821MPD2    C112130   3.462   1.643  12.870  0.3651  0.2378 -0.5900
  821MPD2    C212131   3.584   1.685  12.845  0.3559 -0.8844  0.2475
  821MPD2    C312132   3.621   1.722  12.717  0.0973 -0.3324 -0.1812
  821MPD2    C412133   3.524   1.718  12.611 -0.3297 -0.0135 -0.2931
  821MPD2    C512134   3.402   1.679  12.642 -0.2713 -0.4704 -0.8597
  821MPD2     H12135   3.652   1.698  12.929 -1.3385  1.4098  1.2693
  821MPD2    H112136   3.552   1.750  12.512  2.0389 -1.0934  0.0369
  821MPD2    H212137   3.274   1.602  12.794  0.7651 -1.7019 -1.1622
  821MPD2    H312138   3.327   1.671  12.564  0.5583  1.1465 -1.8462
  821MPD2     N12139   3.753   1.768  12.691  0.2914  0.1960 -0.9120
  821MPD2    H512140   3.792   1.789  12.600  1.4604  0.8945 -0.2490
  821MPD2    N112141   3.433   1.614  13.008  0.4860  0.2183 -0.4073
  821MPD2    H712142   3.517   1.636  13.061  0.8609  0.1121 -0.9591
  822MPD2     C12143   3.895   2.058  15.773  0.3313  0.1644  0.3390
  822MPD2    C112144   3.835   2.023  15.894  0.2100  0.3204 -0.8502
  822MPD2    C212145   3.752   2.109  15.954 -0.2582  0.7185 -1.1428
  822MPD2    C312146   3.738   2.239  15.917  0.2765 -0.1779 -0.2316
  822MPD2    C412147   3.793   2.277  15.798  0.9179  0.0950  0.6039
  822MPD2    C512148   3.870   2.185  15.727 -0.3167  0.6103 -0.0918
  822MPD2     H12149   3.718   2.088  16.055 -1.1584  1.1141 -1.3625
  822MPD2    H112150   3.786   2.376  15.753  0.1377 -0.2953 -0.1346
  822MPD2    H212151   3.969   1.995  15.724 -0.2877 -2.3195  2.6793
  822MPD2    H312152   3.908   2.210  15.629 -1.0120  2.9347  0.2171
  822MPD2     N12153   3.672   2.324  16.011 -0.1405  0.2655 -0.3419
  822MPD2    H512154   3.647   2.288  16.102  3.6519 -0.9668  0.1942
  822MPD2    N112155   3.861   1.903  15.972 -0.5651 -0.6334  0.6332
  822MPD2    H712156   3.807   1.888  16.056 -0.6025 -1.3620  0.4748
  823MPD2     C12157   3.291   2.438  16.746 -0.2306 -0.8471  0.2562
  823MPD2    C112158   3.355   2.366  16.640 -1.1291 -0.5701 -0.2694
  823MPD2    C212159   3.378   2.230  16.655  0.4919 -0.5416  1.1313
  823MPD2    C312160   3.355   2.168  16.777 -0.5012 -0.1681 -0.3830
  823MPD2    C412161   3.301   2.236  16.881  0.0036 -0.7347 -0.9385
  823MPD2    C512162   3.261   2.372  16.861 -0.3297  0.0539  0.0289
  823MPD2     H12163   3.426   2.182  16.571  0.4480 -0.3616  1.0041
  823MPD2    H112164   3.285   2.191  16.978 -1.8698  1.1676 -0.3480
  823MPD2    H212165   3.269   2.544  16.740 -2.0003 -0.9967  3.7308
  823MPD2    H312166   3.223   2.431  16.944 -3.5901 -1.3413 -0.4922
  823MPD2     N12167   3.377   2.031  16.795 -0.1489  0.6870  0.1808
  823MPD2    H512168   3.325   1.987  16.870  0.6712 -1.0337 -0.2443
  823MPD2    N112169   3.382   2.438  16.519  0.0061  0.2546  0.1639
  823MPD2    H712170   3.364   2.537  16.528  0.0695  0.5609 -3.2719
  824MPD2     C12171   4.103   1.105  15.943 -0.3206 -0.5519 -0.4763
  824MPD2    C112172   4.181   1.217  15.921 -0.6057 -0.1851  0.0183
  824MPD2    C212173   4.300   1.203  15.851  0.2748  0.1068 -0.8955
  824MPD2    C312174   4.347   1.079  15.801  0.0250  0.0472 -0.4556
  824MPD2    C412175   4.269   0.968  15.823  0.1935 -0.1028  0.5555
  824MPD2    C512176   4.150   0.983  15.893 -0.4839  1.1885 -0.4359
  824MPD2     H12177   4.362   1.290  15.832  0.5679  0.7621  2.9658
  824MPD2    H112178   4.280   0.866  15.786  0.5832  0.3846 -0.6630
  824MPD2    H212179   4.014   1.100  16.004  1.5248  0.1546  2.2907
  824MPD2    H312180   4.081   0.900  15.901  0.6540  0.1413 -1.4341
  824MPD2     N12181   4.465   1.075  15.729 -0.2132 -0.1709 -0.8059
  824MPD2    H512182   4.531   1.153  15.725  2.4420 -2.2487  2.4968
  824MPD2    N112183   4.144   1.342  15.971  0.6989  0.4425 -0.7472
  824MPD2    H712184   4.191   1.426  15.939  3.6063 -1.2297 -0.8415
  825MPD2     C12185   0.251   1.351  15.110 -0.5948  0.6613  0.7678
  825MPD2    C112186   0.200   1.365  15.236 -0.7503 -0.3362 -0.3664
  825MPD2    C212187   0.187   1.498  15.292  0.8048 -0.1953  0.1878
  825MPD2    C312188   0.223   1.603  15.213 -0.0837  0.1898 -0.0697
  825MPD2    C412189   0.262   1.583  15.080 -1.7526  0.3619  0.0978
  825MPD2    C512190   0.273   1.453  15.030  0.4351  0.1250 -0.4953
  825MPD2     H12191   0.144   1.514  15.390  0.5699  0.3143 -0.0003
  825MPD2    H112192   0.262   1.670  15.015 -1.6237  1.9774  2.2745
  825MPD2    H212193   0.236   1.254  15.063  0.1752  0.9607 -0.0803
  825MPD2    H312194   0.292   1.435  14.925 -0.6433 -1.0369 -0.4923
  825MPD2     N12195   0.209   1.738  15.259 -0.3968  0.2229  1.3497
  825MPD2    H512196   0.209   1.814  15.192 -1.5922 -1.6542 -0.7644
  825MPD2    N112197   0.161   1.247  15.299  0.2613  0.1360  0.6266
  825MPD2    H712198   0.175   1.158  15.253  0.5364 -0.6714  2.2694
  826MPD2     C12199   0.163   1.026  13.951 -0.5063  0.0359  0.9372
  826MPD2    C112200   0.171   1.032  13.812 -0.4508  0.2761  0.2042
  826MPD2    C212201   0.069   1.086  13.745 -0.2126 -0.1798  0.5620
  826MPD2    C312202   4.688   1.127  13.805 -0.4904  0.6502 -0.4282
  826MPD2    C412203   4.689   1.135  13.941  0.1094  0.4551 -0.2064
  826MPD2    C512204   0.051   1.085  14.010 -0.3835 -0.0073  0.2133
  826MPD2     H12205   0.073   1.097  13.637 -0.3152 -0.8800  0.4887
  826MPD2    H112206   4.597   1.164  13.991 -0.3761  0.3883 -1.0570
  826MPD2    H212207   0.237   0.978  14.013  1.1717  0.7639 -0.4878
  826MPD2    H312208   0.056   1.068  14.117 -0.8199  1.6840  0.5096
  826MPD2     N12209   4.575   1.174  13.730  0.0396 -0.4422 -0.9717
  826MPD2    H512210   4.504   1.227  13.780 -0.2297  0.1013 -1.9449
  826MPD2    N112211   0.286   0.987  13.748  0.0466 -0.1835  0.0772
  826MPD2    H712212   0.356   0.944  13.808 -1.6242 -1.7955  0.8781
  827MPD2     C12213   0.993   2.443  10.149 -0.5853  0.1785  0.4323
  827MPD2    C112214   0.977   2.347  10.246  0.0863 -0.5605  0.0115
  827MPD2    C212215   0.856   2.276  10.243  0.0154  0.3107 -0.4988
  827MPD2    C312216   0.757   2.302  10.147 -0.8468 -0.2225 -0.2460
  827MPD2    C412217   0.782   2.401  10.054 -0.1453  0.9068 -0.7092
  827MPD2    C512218   0.897   2.475  10.059  0.2668  0.3593  0.3955
  827MPD2     H12219   0.836   2.193  10.310  1.1126 -0.5871 -1.2925
  827MPD2    H112220   0.710   2.426   9.976  0.9233  1.9733 -1.3465
  827MPD2    H212221   1.089   2.490  10.135 -1.5431  1.7324 -0.9653
  827MPD2    H312222   0.922   2.555   9.991 -1.9019  0.6109 -0.0925
  827MPD2     N12223   0.636   2.228  10.155 -0.2331 -0.2867 -0.5802
  827MPD2    H512224   0.647   2.148  10.216 -2.6321 -0.8186 -0.8618
  827MPD2    N112225   1.082   2.330  10.340  0.0769 -0.1903 -0.9598
  827MPD2    H712226   1.159   2.395  10.337 -1.8034  2.0050 -1.4937
  828MPD2     C12227   4.604   2.230  11.955 -0.1476 -0.2014 -0.5293
  828MPD2    C112228   4.524   2.118  11.944 -0.1048 -0.7834 -0.6486
  828MPD2    C212229   4.536   2.034  11.838 -0.1210  0.5977 -0.2101
  828MPD2    C312230   4.644   2.055  11.747  0.0550  0.0885 -0.4515
  828MPD2    C412231   4.726   2.165  11.764 -0.3579  0.1106  0.1513
  828MPD2    C512232   4.702   2.250  11.861 -0.1121 -0.9861  0.2882
  828MPD2     H12233   4.465   1.953  11.826  4.5626 -3.3266 -1.5803
  828MPD2    H112234   0.072   2.188  11.699 -1.8969 -0.4101 -2.0278
  828MPD2    H212235   4.599   2.308  12.031  2.4410  1.9250 -2.5395
  828MPD2    H312236   0.035   2.332  11.864 -1.1049 -0.0793 -1.2438
  828MPD2     N12237   4.672   1.965  11.645  0.0308  0.3195 -0.4704
  828MPD2    H512238   0.007   1.989  11.580 -0.2453  3.7951  0.5391
  828MPD2    N112239   4.427   2.096  12.036 -0.0485  0.4767  0.3904
  828MPD2    H712240   4.375   2.010  12.023  1.6409 -0.0208 -3.0455
  829MPD2     C12241   3.536   2.007  11.773  0.1832  0.2946 -0.6228
  829MPD2    C112242   3.520   2.050  11.901 -0.7680  0.6440  0.2050
  829MPD2    C212243   3.624   2.033  11.993 -0.3203  0.8852 -0.8429
  829MPD2    C312244   3.751   1.986  11.950 -0.8032  0.2478  0.5578
  829MPD2    C412245   3.770   1.953  11.821  0.4035 -0.2106 -0.4387
  829MPD2    C512246   3.660   1.960  11.731  0.0395 -0.4062  0.3400
  829MPD2     H12247   3.603   2.058  12.096 -0.6496  1.5364 -1.0735
  829MPD2    H112248   3.864   1.921  11.780 -0.1591 -1.4702 -0.7504
  829MPD2    H212249   3.444   2.001  11.716 -0.5803  1.1969  0.5200
  829MPD2    H312250   3.669   1.941  11.625 -0.6510 -0.6635  0.3220
  829MPD2     N12251   3.852   1.988  12.053  0.2323  0.6441 -0.1311
  829MPD2    H512252   3.825   2.026  12.143  1.0684  1.2833 -0.1574
  829MPD2    N112253   3.390   2.080  11.939 -0.4283 -0.4882 -0.1799
  829MPD2    H712254   3.323   2.102  11.866  0.9405 -2.0189 -1.8971
  830MPD2     C12255   4.200   0.314  15.794  0.0010 -0.6303  0.1517
  830MPD2    C112256   4.076   0.326  15.728  0.0303 -0.2507  0.0918
  830MPD2    C212257   4.066   0.413  15.620  0.3528  0.1543 -0.9219
  830MPD2    C312258   4.179   0.491  15.578 -0.5002 -0.5147 -0.1751
  830MPD2    C412259   4.303   0.468  15.642 -1.3809  0.0738 -0.4418
  830MPD2    C512260   4.315   0.375  15.752 -0.6868  0.2017 -0.2511
  830MPD2     H12261   3.969   0.439  15.579 -0.1910  0.1611  0.3545
  830MPD2    H112262   4.393   0.524  15.618 -1.1224  0.5489  1.6081
  830MPD2    H212263   4.208   0.244  15.877 -3.9217 -0.5229  0.6230
  830MPD2    H312264   4.412   0.377  15.800 -1.3749 -1.1723  1.2112
  830MPD2     N12265   4.170   0.596  15.491 -0.1208 -0.3521  0.3375
  830MPD2    H512266   4.247   0.663  15.492  1.2154 -1.8904  1.9820
  830MPD2    N112267   3.958   0.269  15.777 -0.1346 -0.0146  0.3057
  830MPD2    H712268   3.962   0.238  15.873  1.6771 -0.2009  0.1759
  831MPD2     C12269   3.889   2.364  16.301 -0.1760  0.0387 -0.2871
  831MPD2    C112270   3.918   2.237  16.255  0.1165 -0.0621 -0.1711
  831MPD2    C212271   3.839   2.127  16.287 -0.6797  0.4383  0.4512
  831MPD2    C312272   3.720   2.151  16.358  0.4654  0.3339  0.6928
  831MPD2    C412273   3.700   2.271  16.423  0.4082  0.4213 -0.3622
  831MPD2    C512274   3.783   2.376  16.393  0.3547  0.4371  0.2418
  831MPD2     H12275   3.852   2.026  16.250 -0.1283  0.2667  1.1103
  831MPD2    H112276   3.615   2.284  16.490  0.3120 -0.5886 -0.2993
  831MPD2    H212277   3.951   2.448  16.271  0.1821 -0.2607 -0.3895
  831MPD2    H312278   3.769   2.464  16.454 -0.8179 -0.8247  1.8080
  831MPD2     N12279   3.602   2.067  16.351 -0.0758  0.4137 -0.8349
  831MPD2    H512280   3.521   2.094  16.406  2.0484 -1.3604  3.1433
  831MPD2    N112281   4.021   2.227  16.157 -0.3485  0.3588  0.5250
  831MPD2    H712282   4.043   2.315  16.113  1.3344 -0.8880 -1.0953
  832MPD2     C12283   1.982   3.327  17.099 -0.2180  0.2920 -0.4404
  832MPD2    C112284   2.018   3.457  17.070  0.0785 -0.1451 -0.7125
  832MPD2    C212285   1.930   3.534  17.006 -0.5379 -0.3401 -0.2228
  832MPD2    C312286   1.807   3.488  16.966 -0.2883 -0.4967  1.0066
  832MPD2    C412287   1.773   3.353  16.977  0.7092 -0.1968 -0.6697
  832MPD2    C512288   1.863   3.280  17.051 -0.1452 -0.4027  0.2772
  832MPD2     H12289   1.956   3.638  16.991  0.3677 -0.7899 -1.7683
  832MPD2    H112290   1.682   3.304  16.946 -0.2522  1.3751 -0.3220
  832MPD2    H212291   2.060   3.263  17.138  1.7881  3.0362 -0.0148
  832MPD2    H312292   1.836   3.177  17.070  1.1179 -1.4425 -3.4819
  832MPD2     N12293   1.709   3.574  16.913 -0.5748  0.1103 -0.4200
  832MPD2    H512294   1.616   3.534  16.915 -1.0537  1.3506  1.8414
  832MPD2    N112295   2.139   3.493  17.136  0.1861  0.1955 -0.6682
  832MPD2    H712296   2.172   3.426  17.205  0.3329  0.7266 -0.2211
  833MPD2     C12297   4.593   4.276  13.242 -0.9547  0.2277  0.1364
  833MPD2    C112298   4.624   4.390  13.177 -0.2053 -0.9357 -0.5071
  833MPD2    C212299   0.012   4.402  13.113  0.1864  0.0894  0.1119
  833MPD2    C312300   0.105   4.295  13.119  0.9158  0.0755 -1.0622
  833MPD2    C412301   0.069   4.178  13.187  0.6211  0.0624 -0.2519
  833MPD2    C512302   4.681   4.173  13.252 -0.2819 -0.2369  0.3182
  833MPD2     H12303   0.028   4.484  13.043 -0.5958 -0.6311 -0.9160
  833MPD2    H112304   0.137   4.094  13.199  0.8088  0.2499  0.0020
  833MPD2    H212305   4.496   4.267  13.289 -1.3084  1.7286 -0.3199
  833MPD2    H312306   4.662   4.088  13.318 -2.1329  1.0784  1.4647
  833MPD2     N12307   0.227   4.306  13.057  0.3174 -0.1804 -0.2530
  833MPD2    H512308   0.287   4.224  13.058 -0.8352 -1.0111  1.1844
  833MPD2    N112309   4.528   4.495  13.177  0.3350  0.2077 -0.8983
  833MPD2    H712310   4.438   4.482  13.222  0.2276 -1.0109 -1.4412
  834MPD2     C12311   0.172   3.894  12.276 -0.4045  0.4776 -0.4006
  834MPD2    C112312   0.176   4.015  12.222 -0.1856 -0.2179  0.1337
  834MPD2    C212313   0.230   4.119  12.297 -0.3483  0.0744 -0.1175
  834MPD2    C312314   0.300   4.094  12.413 -0.9447  0.8844 -0.1402
  834MPD2    C412315   0.313   3.963  12.453 -0.0747 -0.6318  0.1123
  834MPD2    C512316   0.246   3.872  12.383  0.5845 -0.2580 -0.7420
  834MPD2     H12317   0.240   4.218  12.252 -2.2798  0.6667  0.7998
  834MPD2    H112318   0.379   3.939  12.535  0.4930  1.2786  0.2128
  834MPD2    H212319   0.135   3.807  12.223  1.2350 -0.4397 -0.0257
  834MPD2    H312320   0.256   3.767  12.410 -0.5792  0.3118  1.8990
  834MPD2     N12321   0.344   4.206  12.488 -0.7778  0.3577 -0.6494
  834MPD2    H512322   0.315   4.296  12.450 -0.3633  1.3100  1.2864
  834MPD2    N112323   0.117   4.024  12.091 -0.0136 -1.3646 -0.0839
  834MPD2    H712324   0.082   3.936  12.055 -1.7690 -2.2215  3.7112
  835MPD2     C12325   0.181   2.282  11.325 -0.4765 -0.2986  0.0547
  835MPD2    C112326   0.137   2.360  11.426  1.1303 -0.8119 -1.1879
  835MPD2    C212327   0.220   2.418  11.514  0.5028  0.4390  0.7137
  835MPD2    C312328   0.360   2.412  11.494 -0.6846 -0.2686 -0.4745
  835MPD2    C412329   0.409   2.340  11.390  1.1347  0.3706 -0.8380
  835MPD2    C512330   0.318   2.275  11.306 -0.1256 -0.2979  0.2027
  835MPD2     H12331   0.181   2.477  11.597 -2.2025 -0.1937 -0.1115
  835MPD2    H112332   0.516   2.326  11.378  0.9935 -2.7349  1.3001
  835MPD2    H212333   0.108   2.227  11.267  0.6545 -1.5211 -0.2048
  835MPD2    H312334   0.348   2.217  11.219 -0.1524 -1.3014  0.8676
  835MPD2     N12335   0.453   2.460  11.586  0.2375  0.2719 -0.4092
  835MPD2    H512336   0.551   2.439  11.567  0.5941  1.4498  0.1297
  835MPD2    N112337   0.001   2.370  11.456 -0.0095 -0.2737 -0.1823
  835MPD2    H712338   4.721   2.446  11.521 -0.8653  0.4456 -1.2556
  836MPD2     C12339   0.846   2.631  12.428 -0.7926 -0.3518  0.7573
  836MPD2    C112340   0.722   2.619  12.370 -0.5433  0.2616 -0.7148
  836MPD2    C212341   0.605   2.603  12.449  0.0213 -0.7146  0.7305
  836MPD2    C312342   0.620   2.611  12.582  0.4428 -0.8705 -0.8601
  836MPD2    C412343   0.749   2.635  12.637 -0.0087  0.2288  0.2181
  836MPD2    C512344   0.855   2.644  12.560  0.4457 -0.4158  0.3073
  836MPD2     H12345   0.512   2.587  12.396 -0.4998 -0.1983  1.4996
  836MPD2    H112346   0.771   2.638  12.743 -3.5192  3.2862  0.8533
  836MPD2    H212347   0.936   2.630  12.367  0.0401 -0.7430  2.0076
  836MPD2    H312348   0.952   2.649  12.607  1.5333 -2.7065 -1.6972
  836MPD2     N12349   0.515   2.595  12.677  0.1060  0.5749 -0.0656
  836MPD2    H512350   0.530   2.622  12.774  2.7265  4.9048 -1.7061
  836MPD2    N112351   0.723   2.601  12.225 -0.0962  0.1671 -0.2093
  836MPD2    H712352   0.816   2.603  12.183  0.9086  1.8590  2.1301
  837MPD2     C12353   3.142   1.882  10.127 -0.4198 -0.2108 -0.2446
  837MPD2    C112354   3.021   1.920  10.065 -0.4651  0.0384 -0.1330
  837MPD2    C212355   2.987   2.057  10.071  0.1187  0.3912 -0.2570
  837MPD2    C312356   3.065   2.156  10.128  0.0967 -0.3112 -0.3750
  837MPD2    C412357   3.175   2.110  10.196 -0.0814 -0.3287 -0.0392
  837MPD2    C512358   3.218   1.982  10.187 -0.0900 -0.4408 -0.3678
  837MPD2     H12359   2.886   2.084  10.041  0.1836 -0.1063 -0.9326
  837MPD2    H112360   3.246   2.173  10.249 -0.9796  0.9967 -0.4009
  837MPD2    H212361   3.189   1.784  10.126  0.0982  0.0442 -2.3646
  837MPD2    H312362   3.308   1.955  10.242 -1.1441  0.0687  1.5920
  837MPD2     N12363   3.008   2.285  10.143  0.1931  0.1390 -0.8661
  837MPD2    H512364   2.920   2.306  10.098  0.2377  3.1801  0.4716
  837MPD2    N112365   2.939   1.834   9.989  0.4904  0.0617  0.5067
  837MPD2    H712366   2.856   1.883   9.958  1.0570  0.9922  0.4777
  838MPD2     C12367   1.544   0.407  12.520  0.7587  0.3853  0.3000
  838MPD2    C112368   1.433   0.404  12.424 -0.4492  0.7149 -0.0259
  838MPD2    C212369   1.306   0.381  12.470 -0.1738  0.2329 -0.3776
  838MPD2    C312370   1.282   0.353  12.605 -0.0827 -0.3078 -0.0756
  838MPD2    C412371   1.390   0.350  12.690 -0.8552 -0.1289 -0.6031
  838MPD2    C512372   1.517   0.385  12.652 -0.3264 -0.1515 -0.1354
  838MPD2     H12373   1.219   0.394  12.406 -1.0675 -0.0456  0.7770
  838MPD2    H112374   1.383   0.321  12.794  0.8537 -0.8773 -0.7083
  838MPD2    H212375   1.645   0.436  12.492  0.5761 -2.2559 -3.0740
  838MPD2    H312376   1.585   0.372  12.735 -1.8627 -1.7928  0.8826
  838MPD2     N12377   1.153   0.309  12.640  0.7014  0.2192  0.1306
  838MPD2    H512378   1.082   0.308  12.568  1.7088 -0.9783 -0.8587
  838MPD2    N112379   1.446   0.422  12.284  0.0263  0.1314  0.1200
  838MPD2    H712380   1.362   0.410  12.228  0.7845 -1.6484 -0.6192
  839MPD2     C12381   0.952   4.623  12.155  0.0931 -0.0127 -0.3403
  839MPD2    C112382   1.015   4.588  12.033 -0.6872  0.2858  0.1048
  839MPD2    C212383   1.114   4.670  11.985 -0.5818 -0.9198  0.5268
  839MPD2    C312384   1.148   0.049  12.058 -0.0886 -0.1662  0.4293
  839MPD2    C412385   1.078   0.085  12.170  0.3518 -0.1172  0.3074
  839MPD2    C512386   0.984   4.736  12.219  0.3499 -0.0293 -0.2360
  839MPD2     H12387   1.160   4.648  11.889 -0.2774 -1.7521  0.8626
  839MPD2    H112388   1.102   0.172  12.230 -0.3408 -0.5238  1.1706
  839MPD2    H212389   0.876   4.557  12.197 -1.0929  1.3370 -0.3389
  839MPD2    H312390   0.926   0.018  12.308  0.1065  0.5015 -0.5120
  839MPD2     N12391   1.245   0.147  12.017 -0.6558  0.0772  0.2796
  839MPD2    H512392   1.252   0.225  12.081  1.0854 -1.4218  1.8918
  839MPD2    N112393   0.986   4.466  11.972  0.4904 -0.0611  1.0051
  839MPD2    H712394   1.056   4.453  11.900 -0.2222  0.2171  0.2635
  840MPD2     C12395   1.637   2.536  10.226  0.0949 -0.1820  0.1606
  840MPD2    C112396   1.626   2.516  10.365 -0.3175  0.4668  0.0571
  840MPD2    C212397   1.669   2.614  10.449 -0.3573 -0.7999  0.1730
  840MPD2    C312398   1.737   2.723  10.411 -0.4878 -0.4870 -0.2307
  840MPD2    C412399   1.776   2.722  10.283 -0.7682  0.2676  0.1365
  840MPD2    C512400   1.724   2.637  10.193  0.2817  0.6731  0.1612
  840MPD2     H12401   1.639   2.600  10.553 -0.1905 -0.5998  0.2479
  840MPD2    H112402   1.848   2.796  10.250 -0.7641 -0.1513 -0.7868
  840MPD2    H212403   1.595   2.464  10.157  2.1190 -0.7337 -0.5102
  840MPD2    H312404   1.746   2.659  10.090  1.4110 -0.0992  0.2409
  840MPD2     N12405   1.783   2.831  10.495  0.8726 -0.5281  0.1138
  840MPD2    H512406   1.840   2.901  10.449 -0.0789 -0.2344 -0.6001
  840MPD2    N112407   1.556   2.398  10.404 -0.1313 -0.3140  0.3407
  840MPD2    H712408   1.519   2.348  10.324 -0.9126 -0.5820  0.8792
  841MPD2     C12409   0.582   2.728  14.971  0.6527  0.2946  0.2234
  841MPD2    C112410   0.641   2.602  14.964 -1.2292  0.6081  0.2040
  841MPD2    C212411   0.773   2.581  14.991  0.6288 -0.2309  0.0209
  841MPD2    C312412   0.863   2.688  15.008 -0.3724 -0.7104  0.1588
  841MPD2    C412413   0.805   2.820  15.008 -0.3924 -0.5824 -0.0455
  841MPD2    C512414   0.670   2.831  14.990 -0.4575 -0.1649 -0.7221
  841MPD2     H12415   0.810   2.479  14.984  0.9043 -0.1147 -0.2285
  841MPD2    H112416   0.854   2.914  15.031  0.4389 -0.5592 -1.9687
  841MPD2    H212417   0.476   2.745  14.961  1.2875  3.3517 -1.4585
  841MPD2    H312418   0.626   2.929  15.003 -1.8411 -0.9258  0.3304
  841MPD2     N12419   1.002   2.662  15.022 -0.3695 -0.0579 -0.6501
  841MPD2    H512420   1.039   2.567  15.018  0.3429  0.2557 -1.4046
  841MPD2    N112421   0.560   2.489  14.936 -0.2257 -0.3844  0.3115
  841MPD2    H712422   0.596   2.394  14.935  0.2921 -0.2030  1.5580
  842MPD2     C12423   1.493   4.089  17.049  0.1726 -0.0555 -0.2523
  842MPD2    C112424   1.399   4.003  17.005  0.1884 -0.3805 -0.0799
  842MPD2    C212425   1.359   3.896  17.087 -0.0110 -0.9512 -0.0101
  842MPD2    C312426   1.399   3.898  17.225 -0.0002 -0.2478 -0.8373
  842MPD2    C412427   1.485   3.992  17.267 -0.7104  0.8921  0.7371
  842MPD2    C512428   1.541   4.076  17.175  0.1044  0.1880  0.1850
  842MPD2     H12429   1.277   3.829  17.065 -2.8142  1.4716  2.9470
  842MPD2    H112430   1.514   4.003  17.371 -1.3429  1.1040  0.8874
  842MPD2    H212431   1.550   4.148  16.978 -2.0665  2.8640  0.3632
  842MPD2    H312432   1.622   4.139  17.209  0.3829 -0.8514  1.4353
  842MPD2     N12433   1.357   3.806  17.322 -0.1738 -0.2071  0.4116
  842MPD2    H512434   1.393   3.808  17.417  2.0469  1.5691 -0.4584
  842MPD2    N112435   1.355   4.031  16.877 -0.3673  0.5035  0.0802
  842MPD2    H712436   1.403   4.111  16.837 -1.4558  0.8450 -0.5345
  843MPD2     C12437   2.997   4.513  17.548  0.0605  0.2125 -0.2325
  843MPD2    C112438   3.073   4.503  17.659  0.2080  0.0609 -0.0803
  843MPD2    C212439   3.133   4.610  17.718  0.1237  0.2308  0.4132
  843MPD2    C312440   3.113   0.004  17.663 -0.2278 -0.0498 -0.4720
  843MPD2    C412441   3.033   0.011  17.554  0.0105 -0.2515  0.1543
  843MPD2    C512442   2.972   4.638  17.493  1.1137 -0.5455 -0.8612
  843MPD2     H12443   3.194   4.579   0.052 -2.1340  0.0896  2.0020
  843MPD2    H112444   3.005   0.100  17.499 -1.8846 -0.7716  0.2490
  843MPD2    H212445   2.950   4.424  17.507  1.9287  0.2660 -2.4840
  843MPD2    H312446   2.898   4.653  17.415 -0.8724 -3.5025  0.4694
  843MPD2     N12447   3.172   0.125  17.708  0.0542  0.1954 -0.4787
  843MPD2    H512448   3.139   0.205  17.655 -0.3520 -0.2768 -0.9425
  843MPD2    N112449   3.086   4.370  17.711 -0.1977  0.0418 -0.0643
  843MPD2    H712450   3.035   4.302  17.655 -4.6838  0.6767  3.2829
  844MPD2     C12451   1.634   3.106  16.498 -0.0577 -0.9317  0.3583
  844MPD2    C112452   1.750   3.025  16.481 -0.5948 -0.5771  0.2408
  844MPD2    C212453   1.859   3.071  16.554  0.0486  0.5789  0.9935
  844MPD2    C312454   1.862   3.198  16.619  0.1643 -0.6183  0.2560
  844MPD2    C412455   1.742   3.266  16.626  0.1891 -0.1389 -0.6644
  844MPD2    C512456   1.631   3.227  16.565 -0.8722  0.5464  0.1141
  844MPD2     H12457   1.944   3.004  16.560 -0.5904 -0.2173  1.1991
  844MPD2    H112458   1.743   3.365  16.670 -2.5082 -0.4032  0.0296
  844MPD2    H212459   1.536   3.086  16.457 -0.5484  0.5730  0.8207
  844MPD2    H312460   1.534   3.273  16.580 -0.2183  1.3507  1.9269
  844MPD2     N12461   1.980   3.234  16.682 -0.0462  0.0678  0.9783
  844MPD2    H512462   2.048   3.163  16.706 -1.0763 -1.0358  0.6226
  844MPD2    N112463   1.748   2.921  16.392 -0.0008 -0.0661 -0.0367
  844MPD2    H712464   1.835   2.872  16.376 -1.1253 -1.9587 -0.2945
  845MPD2     C12465   2.496   4.130  16.642  0.4685 -0.1591  0.3296
  845MPD2    C112466   2.450   4.079  16.763  0.2964  0.1321  0.5671
  845MPD2    C212467   2.425   3.939  16.765 -0.0028  0.4120 -0.3526
  845MPD2    C312468   2.419   3.863  16.655 -0.0437 -0.0140 -0.0770
  845MPD2    C412469   2.429   3.931  16.535 -0.1298  0.3543 -0.8699
  845MPD2    C512470   2.458   4.064  16.532 -1.1245  0.8158  0.0769
  845MPD2     H12471   2.402   3.899  16.863  1.2269 -1.5521 -0.8729
  845MPD2    H112472   2.411   3.884  16.439 -1.2498  1.1812 -1.0656
  845MPD2    H212473   2.534   4.230  16.625  2.6689 -0.7886  1.4886
  845MPD2    H312474   2.471   4.112  16.436  2.7782 -0.8297 -0.2453
  845MPD2     N12475   2.386   3.728  16.662  0.2131 -1.0904  0.2978
  845MPD2    H512476   2.354   3.695  16.572  1.2311 -1.9536  0.2502
  845MPD2    N112477   2.471   4.155  16.878  0.6127  0.2396  0.1517
  845MPD2    H712478   2.518   4.244  16.864  1.4670 -0.9648 -4.7184
  846MPD2     C12479   3.673   4.034  13.901  0.0069  0.9239  0.2037
  846MPD2    C112480   3.685   4.171  13.892 -0.1201 -0.5628 -0.6852
  846MPD2    C212481   3.694   4.236  14.016  0.4961 -0.0015 -0.2875
  846MPD2    C312482   3.683   4.166  14.136  0.1918 -0.6170  0.1770
  846MPD2    C412483   3.681   4.031  14.135  0.5652 -0.5466  0.0767
  846MPD2    C512484   3.680   3.963  14.018  0.4816 -0.1301  0.0760
  846MPD2     H12485   3.706   4.344  14.019  0.6856 -0.0002 -1.3455
  846MPD2    H112486   3.674   3.970  14.224  1.2496  1.8051  1.7533
  846MPD2    H212487   3.648   3.982  13.809 -0.6894  0.1946  0.8013
  846MPD2    H312488   3.683   3.855  14.027 -2.1612 -0.1266  1.0428
  846MPD2     N12489   3.682   4.234  14.263 -0.4125 -0.1765 -0.2502
  846MPD2    H512490   3.653   4.331  14.268 -3.7950 -1.1395 -1.2539
  846MPD2    N112491   3.657   4.247  13.776 -0.2245  0.7888  0.3381
  846MPD2    H712492   3.649   4.347  13.785 -0.1906  0.7371  0.9150
  847MPD2     C12493   4.215   0.153  14.036 -0.2073  0.1581 -0.1169
  847MPD2    C112494   4.284   0.247  14.115 -0.2996  0.6534  0.0339
  847MPD2    C212495   4.315   0.213  14.245  0.2950  0.5852 -0.2939
  847MPD2    C312496   4.276   0.095  14.295 -0.1950  0.2395  0.0936
  847MPD2    C412497   4.219   4.737  14.215  0.1416  0.1811  0.2995
  847MPD2    C512498   4.188   0.031  14.086 -0.3870 -0.3465  0.3823
  847MPD2     H12499   4.367   0.291  14.300 -1.5975  0.7907  1.1804
  847MPD2    H112500   4.191   4.639  14.251  0.2489  0.0824  0.1184
  847MPD2    H212501   4.201   0.167  13.930  1.5830  2.3512 -0.0674
  847MPD2    H312502   4.144   4.692  14.022  0.3627 -1.6629  1.4659
  847MPD2     N12503   4.294   0.080  14.434 -0.2241 -0.1260 -0.8075
  847MPD2    H512504   4.343   0.152  14.486 -1.9795  0.0017  0.6672
  847MPD2    N112505   4.293   0.384  14.077 -0.3455 -0.3577 -0.0749
  847MPD2    H712506   4.341   0.446  14.142  1.2991 -1.1346 -0.5468
  848MPD2     C12507   1.556   3.911  16.216  0.6007  0.4886  0.3418
  848MPD2    C112508   1.650   3.888  16.312  0.0508  0.6099  0.3384
  848MPD2    C212509   1.778   3.940  16.306  0.1050  0.0578  0.3511
  848MPD2    C312510   1.810   4.031  16.208  0.5875  0.2744 -0.0364
  848MPD2    C412511   1.719   4.048  16.111 -0.7343 -0.0056 -0.0618
  848MPD2    C512512   1.592   3.993  16.114 -0.2164  0.1932 -0.4321
  848MPD2     H12513   1.849   3.915  16.383  0.7968  0.5451 -0.1190
  848MPD2    H112514   1.754   4.105  16.026  0.2428  0.3991  0.6227
  848MPD2    H212515   1.453   3.879  16.219  0.0476  2.2034 -0.1743
  848MPD2    H312516   1.524   4.008  16.031  0.0084  1.5548 -0.3676
  848MPD2     N12517   1.939   4.096  16.204  0.1538  0.2454  1.3724
  848MPD2    H512518   1.968   4.149  16.122 -1.2449 -1.1179 -0.0117
  848MPD2    N112519   1.628   3.801  16.425  0.2119  0.3184  0.3093
  848MPD2    H712520   1.705   3.782  16.489 -0.8199  2.4337  2.1714
  849MPD2     C12521   0.891   3.254  14.175 -0.2300 -0.4678 -0.4272
  849MPD2    C112522   1.016   3.318  14.187 -0.5579 -0.0276  0.3461
  849MPD2    C212523   1.046   3.388  14.305  0.5619 -0.2969  0.3510
  849MPD2    C312524   0.944   3.400  14.399 -0.0736  0.8284 -0.2025
  849MPD2    C412525   0.816   3.349  14.375  0.6205 -0.0904 -0.2284
  849MPD2    C512526   0.796   3.273  14.262 -0.1660  0.3413 -0.7942
  849MPD2     H12527   1.141   3.432  14.334  0.5480  1.2974 -2.0765
  849MPD2    H112528   0.737   3.363  14.448 -0.4434  1.8347 -1.7555
  849MPD2    H212529   0.865   3.185  14.096  1.2757 -3.1398  1.4233
  849MPD2    H312530   0.708   3.211  14.247  0.9836 -1.5563  0.3293
  849MPD2     N12531   0.954   3.452  14.527  0.4694 -0.3287 -0.2441
  849MPD2    H512532   0.867   3.457  14.579  0.1735  3.5503 -1.0989
  849MPD2    N112533   1.110   3.291  14.090  0.1445 -0.6066  0.0802
  849MPD2    H712534   1.097   3.207  14.034  0.1908 -0.1516 -0.6226
  850MPD2     C12535   3.704   1.855  15.115  0.5159 -0.5608 -0.2372
  850MPD2    C112536   3.815   1.878  15.192 -0.1585 -0.3071  0.1804
  850MPD2    C212537   3.940   1.872  15.140 -0.1261  0.5801  0.0169
  850MPD2    C312538   3.954   1.828  15.010 -0.6008 -0.0774 -0.2977
  850MPD2    C412539   3.844   1.816  14.926 -0.4621 -1.4490 -0.1749
  850MPD2    C512540   3.718   1.828  14.980 -0.4146  0.3745 -0.4291
  850MPD2     H12541   4.024   1.892  15.205  1.5334  1.0998 -2.2733
  850MPD2    H112542   3.862   1.786  14.824  0.6049 -2.0453  0.1881
  850MPD2    H212543   3.604   1.852  15.157  1.2267 -0.0732  1.5052
  850MPD2    H312544   3.628   1.813  14.921 -0.0529  1.6987 -1.3174
  850MPD2     N12545   4.087   1.799  14.962  0.4495  0.4531  0.1114
  850MPD2    H512546   4.158   1.816  15.032  0.6463  0.7056 -0.1478
  850MPD2    N112547   3.815   1.897  15.329  0.5567 -0.3362 -0.5373
  850MPD2    H712548   3.900   1.871  15.378  0.6802 -0.9900 -1.1000
  851MPD2     C12549   4.195   1.569  15.617 -0.0345  0.0303  0.7302
  851MPD2    C112550   4.073   1.506  15.632  0.1329 -0.1891 -0.0239
  851MPD2    C212551   4.058   1.374  15.602 -0.1959  0.5292  0.9510
  851MPD2    C312552   4.166   1.301  15.552 -0.4403 -0.2230  0.7373
  851MPD2    C412553   4.289   1.363  15.530  0.5900  0.4750 -0.3676
  851MPD2    C512554   4.303   1.499  15.568  0.2301 -0.2303 -0.5520
  851MPD2     H12555   3.962   1.331  15.628 -0.0177  0.2747  1.1717
  851MPD2    H112556   4.376   1.301  15.510 -0.0608 -0.0141 -1.6986
  851MPD2    H212557   4.213   1.672  15.644  1.4405 -0.4148  1.4154
  851MPD2    H312558   4.400   1.546  15.558  0.8846 -1.7450 -1.2476
  851MPD2     N12559   4.135   1.169  15.516  0.0878  0.0794 -0.0757
  851MPD2    H512560   4.040   1.135  15.528  0.5911 -0.2909  3.0021
  851MPD2    N112561   3.970   1.598  15.657 -0.2317 -0.1965  0.5142
  851MPD2    H712562   3.997   1.696  15.653  0.3084 -0.3510  0.4097
  852MPD2     C12563   4.273   3.869  10.407 -0.1601 -0.0117  0.1867
  852MPD2    C112564   4.256   3.900  10.538 -0.2470 -0.1116  0.2187
  852MPD2    C212565   4.304   4.018  10.599  0.2424 -0.5758  0.3154
  852MPD2    C312566   4.393   4.096  10.524 -0.4822  0.2572 -0.2606
  852MPD2    C412567   4.424   4.051  10.400  0.8150  0.0520 -0.1125
  852MPD2    C512568   4.357   3.949  10.342 -0.8403  0.3933  0.1241
  852MPD2     H12569   4.268   4.048  10.697 -1.3758 -1.8740  0.1093
  852MPD2    H112570   4.512   4.081  10.344 -0.5243  4.9373  0.3644
  852MPD2    H212571   4.234   3.781  10.358 -0.7578  2.0762 -3.0721
  852MPD2    H312572   4.390   3.919  10.243  1.6710 -1.3994  1.5080
  852MPD2     N12573   4.439   4.227  10.568  0.0489 -0.5091 -0.0301
  852MPD2    H512574   4.408   4.247  10.663  2.0100 -1.3678  0.7774
  852MPD2    N112575   4.171   3.814  10.608 -0.1314  0.3713  0.2317
  852MPD2    H712576   4.132   3.730  10.568  0.7907 -0.2841  0.7053
  853MPD2     C12577   1.306   3.308  12.548  0.1562  0.1981 -0.3013
  853MPD2    C112578   1.167   3.319  12.542  0.6184 -0.8492  0.0518
  853MPD2    C212579   1.099   3.286  12.427  0.1320 -0.2645 -0.0946
  853MPD2    C312580   1.171   3.269  12.308  0.2527  0.4419 -0.4197
  853MPD2    C412581   1.314   3.271  12.313 -0.7834 -0.2972  0.0990
  853MPD2    C512582   1.376   3.282  12.435 -0.2236 -0.1213 -0.3019
  853MPD2     H12583   0.991   3.293  12.427  0.1007 -0.7928  3.0997
  853MPD2    H112584   1.373   3.256  12.223  0.4962 -0.2466  0.9174
  853MPD2    H212585   1.358   3.321  12.641 -2.0290 -2.1365  1.2584
  853MPD2    H312586   1.485   3.278  12.441 -0.2351  1.0212  0.5697
  853MPD2     N12587   1.108   3.253  12.186 -0.0216  0.2438  0.6115
  853MPD2    H512588   1.163   3.250  12.101 -0.0318  2.2857  0.5389
  853MPD2    N112589   1.099   3.369  12.656  0.4207 -0.1038 -0.1913
  853MPD2    H712590   1.147   3.369  12.746 -0.7643  2.8007  0.4298
  854MPD2     C12591   2.279   3.711  12.698 -0.6520  0.2332 -0.9331
  854MPD2    C112592   2.397   3.777  12.665 -0.8911  0.7860 -0.3894
  854MPD2    C212593   2.510   3.707  12.709 -0.4712  0.2064  0.7124
  854MPD2    C312594   2.505   3.592  12.788 -0.1526 -0.3013  0.0031
  854MPD2    C412595   2.386   3.539  12.825  0.2868  0.0035 -0.6341
  854MPD2    C512596   2.273   3.595  12.773  0.3841  0.5932 -0.3800
  854MPD2     H12597   2.608   3.755  12.706  0.3013 -1.4452 -0.4621
  854MPD2    H112598   2.372   3.451  12.886  2.1452  0.6743  0.7307
  854MPD2    H212599   2.188   3.752  12.656 -1.2667 -2.5415 -2.2780
  854MPD2    H312600   2.177   3.546  12.786  1.6322 -0.9460  2.9922
  854MPD2     N12601   2.619   3.544  12.845  0.1333  0.7893 -0.0989
  854MPD2    H512602   2.611   3.487  12.928 -1.2396  0.6612 -0.3212
  854MPD2    N112603   2.394   3.894  12.586  0.0488  0.2475 -0.1987
  854MPD2    H712604   2.302   3.925  12.555  0.6135  1.2273 -0.8937
  855MPD2     C12605   2.975   3.801  13.537  0.2209  0.2016 -0.5275
  855MPD2    C112606   2.937   3.670  13.552  0.4657  0.6572  0.2941
  855MPD2    C212607   2.925   3.588  13.435 -0.1473 -0.0100  0.0582
  855MPD2    C312608   2.962   3.636  13.314 -0.5443  0.4924 -0.4312
  855MPD2    C412609   2.990   3.770  13.300 -0.1071 -0.2563 -0.0536
  855MPD2    C512610   2.999   3.850  13.413  0.1393  0.3567  0.1201
  855MPD2     H12611   2.899   3.483  13.439  0.4390 -0.1650 -0.1745
  855MPD2    H112612   3.018   3.817  13.206  2.1753  0.5385  1.0254
  855MPD2    H212613   2.982   3.871  13.619 -0.3902 -2.2319  1.6107
  855MPD2    H312614   3.032   3.953  13.405  0.5703  0.0127 -2.8108
  855MPD2     N12615   2.973   3.559  13.193 -0.7448 -0.4048 -0.2030
  855MPD2    H512616   2.998   3.608  13.108 -0.5903  0.0771  0.1234
  855MPD2    N112617   2.918   3.602  13.675 -0.6354 -0.4172 -0.1195
  855MPD2    H712618   2.891   3.504  13.671 -3.3959  0.3321 -0.1818
  856MPD2     C12619   4.620   4.297  14.115  0.6732 -0.3646  0.0576
  856MPD2    C112620   4.714   4.365  14.036 -0.5634 -0.2810  0.2917
  856MPD2    C212621   4.674   4.475  13.957 -0.1116  0.4453 -0.2110
  856MPD2    C312622   4.543   4.523  13.957 -0.3080 -0.6445 -0.1970
  856MPD2    C412623   4.453   4.441  14.012  0.3163 -0.8337  0.0281
  856MPD2    C512624   4.488   4.329  14.092 -0.2625  0.0708  0.6140
  856MPD2     H12625   0.013   4.532  13.907  0.0686  0.2239 -0.1874
  856MPD2    H112626   4.347   4.462  14.019  0.4065  0.5575 -2.7536
  856MPD2    H212627   4.646   4.213  14.178  0.0808 -0.0299  0.7596
  856MPD2    H312628   4.400   4.279  14.131  1.2141 -2.0827  1.1870
  856MPD2     N12629   4.502   4.652  13.909 -0.5463 -0.2900  0.3581
  856MPD2    H512630   4.401   4.657  13.906 -0.5594 -1.6752 -1.3642
  856MPD2    N112631   0.117   4.352  14.053  0.5095 -0.2571 -0.3894
  856MPD2    H712632   0.176   4.380  13.975  0.2863  1.1600 -0.0567
  857MPD2     C12633   1.466   1.813  13.035  0.1017  0.1014 -0.9337
  857MPD2    C112634   1.601   1.813  13.004 -0.2045  0.1502 -0.3804
  857MPD2    C212635   1.665   1.928  13.022 -0.2637 -0.0723 -0.3160
  857MPD2    C312636   1.614   2.042  13.088  0.2535  0.6443  0.7721
  857MPD2    C412637   1.484   2.038  13.126  0.1422  0.0929 -0.6167
  857MPD2    C512638   1.408   1.925  13.096  0.1941  0.3935 -0.6079
  857MPD2     H12639   1.767   1.944  12.990 -0.7941  1.9178 -0.9785
  857MPD2    H112640   1.452   2.129  13.177  0.6775  0.2846 -0.6182
  857MPD2    H212641   1.403   1.729  13.012 -1.0831  0.0387  2.4402
  857MPD2    H312642   1.301   1.929  13.113  0.0086 -2.2244 -1.1660
  857MPD2     N12643   1.700   2.146  13.113  0.5940  0.3487 -0.1620
  857MPD2    H512644   1.792   2.148  13.071  0.4778 -0.8129 -0.4633
  857MPD2    N112645   1.654   1.701  12.931 -0.1419 -0.8243 -0.2226
  857MPD2    H712646   1.588   1.624  12.930 -0.4444 -0.5832  0.8123
  858MPD2     C12647   2.536   1.457  16.111 -0.4323  0.1865 -0.0403
  858MPD2    C112648   2.491   1.341  16.168  0.4954  0.2621  0.7156
  858MPD2    C212649   2.447   1.352  16.296 -0.4410 -0.2812 -0.2756
  858MPD2    C312650   2.429   1.470  16.375 -0.0437  0.6324 -0.3213
  858MPD2    C412651   2.456   1.590  16.305  0.2829 -0.3057  0.3720
  858MPD2    C512652   2.507   1.576  16.179 -0.3159  0.0492 -0.0620
  858MPD2     H12653   2.413   1.256  16.333  0.8881 -0.7380 -0.2509
  858MPD2    H112654   2.455   1.691  16.345 -2.4680  0.7623 -2.3482
  858MPD2    H212655   2.578   1.463  16.011 -0.7457  2.2186 -0.0392
  858MPD2    H312656   2.533   1.665  16.123 -4.6222 -0.2586 -2.5123
  858MPD2     N12657   2.400   1.475  16.510  0.6317  0.2295 -1.0373
  858MPD2    H512658   2.378   1.568  16.544  3.0947  1.4110 -2.7457
  858MPD2    N112659   2.492   1.224  16.093 -0.3456  0.4267  0.2674
  858MPD2    H712660   2.546   1.237  16.008 -0.0964  1.0623  0.5221
  859MPD2     C12661   0.544   2.331  15.312 -0.5064  0.2653  0.0014
  859MPD2    C112662   0.643   2.385  15.386  0.1131 -0.7013  0.0019
  859MPD2    C212663   0.720   2.313  15.477  0.2770 -0.4425 -0.0939
  859MPD2    C312664   0.684   2.180  15.501 -0.7807  0.2667  0.2981
  859MPD2    C412665   0.585   2.124  15.422 -0.1944 -0.0553 -0.0930
  859MPD2    C512666   0.514   2.197  15.332  0.3603  0.5812 -0.5308
  859MPD2     H12667   0.797   2.356  15.540 -1.3073 -0.3541  1.8043
  859MPD2    H112668   0.561   2.019  15.436  0.8328 -0.2293  0.3233
  859MPD2    H212669   0.490   2.386  15.236 -0.0940 -0.1175 -0.5641
  859MPD2    H312670   0.430   2.155  15.276  0.6097 -0.1930 -0.3283
  859MPD2     N12671   0.747   2.100  15.599  0.0111  0.1593 -0.4147
  859MPD2    H512672   0.721   2.002  15.592  0.5840 -0.0984  1.1093
  859MPD2    N112673   0.661   2.526  15.366 -0.4994  0.1742 -0.0657
  859MPD2    H712674   0.591   2.576  15.312  0.1985  2.2485  0.9749
  860MPD2     C12675   3.695   3.791  11.850 -0.2404 -0.1600 -0.6185
  860MPD2    C112676   3.614   3.784  11.959  0.0583  0.0034  0.1486
  860MPD2    C212677   3.519   3.692  11.966 -0.3779 -0.4895 -0.4374
  860MPD2    C312678   3.506   3.592  11.874 -0.9343  0.5214 -0.2859
  860MPD2    C412679   3.587   3.588  11.765 -0.0643  0.6219 -0.2034
  860MPD2    C512680   3.674   3.694  11.756 -0.5187  0.0610  0.0571
  860MPD2     H12681   3.447   3.686  12.046 -0.1070 -0.9390 -0.2301
  860MPD2    H112682   3.579   3.518  11.683  0.3526  0.6603 -0.2765
  860MPD2    H212683   3.768   3.867  11.826  1.1953 -1.6377 -0.9087
  860MPD2    H312684   3.737   3.702  11.668 -1.1617  1.5713 -0.2762
  860MPD2     N12685   3.393   3.511  11.893 -0.3554  0.4060 -0.1811
  860MPD2    H512686   3.334   3.548  11.966 -1.1304 -1.1373 -0.0152
  860MPD2    N112687   3.633   3.858  12.079  0.1356  0.1403 -0.2201
  860MPD2    H712688   3.587   3.835  12.167  0.6123  0.5464  0.1314
  861MPD2     C12689   2.683   1.516  10.853 -0.3452 -0.1048  0.6072
  861MPD2    C112690   2.688   1.645  10.905 -0.3540 -0.2674 -0.0409
  861MPD2    C212691   2.648   1.751  10.822  0.4124 -0.3129 -0.2517
  861MPD2    C312692   2.606   1.732  10.691 -0.1835  0.1248  0.7061
  861MPD2    C412693   2.619   1.604  10.640 -0.5749  0.1914  0.2800
  861MPD2    C512694   2.665   1.503  10.718 -0.1980 -0.5167  0.0404
  861MPD2     H12695   2.654   1.850  10.865 -0.5252 -0.2744 -0.2233
  861MPD2    H112696   2.603   1.577  10.537 -1.0895  1.1930  0.0970
  861MPD2    H212697   2.705   1.427  10.910  2.7833  0.7404  0.7433
  861MPD2    H312698   2.681   1.404  10.678  2.7742 -0.9060  2.2024
  861MPD2     N12699   2.543   1.824  10.599  0.0947  0.5747 -0.1399
  861MPD2    H512700   2.499   1.787  10.516 -2.3464 -0.5615  1.6697
  861MPD2    N112701   2.695   1.676  11.040  0.1316  0.7408 -0.6768
  861MPD2    H712702   2.697   1.773  11.070 -1.2104  1.2312 -2.1728
  862MPD2     C12703   1.934   1.802  10.279  0.5500  0.8217  0.0345
  862MPD2    C112704   2.025   1.790  10.384 -0.5699 -0.1661 -0.7207
  862MPD2    C212705   1.999   1.684  10.473 -0.2647 -0.7981  0.6843
  862MPD2    C312706   1.905   1.582  10.447 -0.6732  0.4683 -0.6998
  862MPD2    C412707   1.813   1.600  10.340  0.3949 -0.2853 -0.4814
  862MPD2    C512708   1.832   1.709  10.261 -0.1408  0.6225 -0.3226
  862MPD2     H12709   2.057   1.689  10.564  1.6133  0.2432 -0.5679
  862MPD2    H112710   1.734   1.528  10.319 -0.7419  0.6222  0.6903
  862MPD2    H212711   1.956   1.873  10.199 -0.5598 -0.6163 -1.5369
  862MPD2    H312712   1.766   1.727  10.178 -0.9566 -1.0740 -0.0508
  862MPD2     N12713   1.888   1.467  10.530 -0.3803  0.9604  0.3424
  862MPD2    H512714   1.806   1.410  10.517 -0.3742  1.5466 -2.2377
  862MPD2    N112715   2.129   1.878  10.411  1.0836 -0.3708 -0.9745
  862MPD2    H712716   2.195   1.843  10.480  0.9011 -0.2742 -0.7517
  863MPD2     C12717   0.262   4.732  16.971  0.0636  0.1235  0.3161
  863MPD2    C112718   0.330   0.101  16.935  0.5739  0.9380 -0.3152
  863MPD2    C212719   0.452   0.132  17.007  0.7524  0.1694  0.4616
  863MPD2    C312720   0.504   0.045  17.107  0.3104  0.5394 -0.5186
  863MPD2    C412721   0.434   4.665  17.128 -0.4654 -0.0680 -0.2337
  863MPD2    C512722   0.319   4.638  17.054  0.1079  0.1071  0.2805
  863MPD2     H12723   0.510   0.221  16.986  2.3501 -0.9355  0.1187
  863MPD2    H112724   0.474   4.585  17.188  0.3011  0.5618  0.1029
  863MPD2    H212725   0.169   4.710  16.921  0.6421  0.8520 -1.0756
  863MPD2    H312726   0.272   4.541  17.067 -0.9737  0.1534 -3.1333
  863MPD2     N12727   0.620   0.060  17.185 -0.0744 -0.0951  0.0683
  863MPD2    H512728   0.635   4.721  17.250 -0.7708 -0.2693  0.0275
  863MPD2    N112729   0.271   0.176  16.837  0.0733 -1.3053 -0.3813
  863MPD2    H712730   0.189   0.137  16.791  1.5166 -2.0320 -2.3491
  864MPD2     C12731   1.257   1.573  17.046  0.2656  0.2842 -0.1659
  864MPD2    C112732   1.348   1.470  17.012  0.1477 -0.0876  0.3703
  864MPD2    C212733   1.436   1.498  16.911 -0.3926 -0.0199 -0.4799
  864MPD2    C312734   1.426   1.612  16.833 -0.7495  0.7442 -0.8233
  864MPD2    C412735   1.342   1.710  16.874  0.1172 -0.4964 -0.1149
  864MPD2    C512736   1.257   1.685  16.975  0.4125  0.4192  0.2042
  864MPD2     H12737   1.508   1.422  16.883 -0.6555 -0.8030  0.9992
  864MPD2    H112738   1.334   1.795  16.806 -3.2494 -0.6319  0.1010
  864MPD2    H212739   1.175   1.571  17.116  1.6123 -1.9798  1.3681
  864MPD2    H312740   1.178   1.755  16.999  0.1165  0.1095  0.1229
  864MPD2     N12741   1.504   1.634  16.716 -0.3301 -0.1736  0.4603
  864MPD2    H512742   1.480   1.717  16.661 -0.3218 -1.3439 -1.3151
  864MPD2    N112743   1.337   1.345  17.074  0.5842 -0.7889 -0.0696
  864MPD2    H712744   1.256   1.335  17.134 -1.0058  1.7189 -1.7963
  865MPD2     C12745   1.469   1.475  15.775 -0.1073  0.4750  0.3901
  865MPD2    C112746   1.456   1.426  15.902  0.4085  0.4308 -0.6114
  865MPD2    C212747   1.447   1.514  16.011 -0.6738 -0.0064 -0.0723
  865MPD2    C312748   1.452   1.649  15.991  0.0500  0.3629 -0.6250
  865MPD2    C412749   1.469   1.691  15.860 -0.3804 -0.4394 -0.2585
  865MPD2    C512750   1.478   1.611  15.750 -0.2654  0.1519  0.6695
  865MPD2     H12751   1.446   1.476  16.113 -0.5392  0.9069  0.2652
  865MPD2    H112752   1.475   1.795  15.829 -0.9083 -0.5496 -0.7283
  865MPD2    H212753   1.451   1.407  15.692  0.5319 -0.5489  1.0925
  865MPD2    H312754   1.486   1.655  15.651  1.0599  0.0326  0.7220
  865MPD2     N12755   1.478   1.733  16.101  0.3286  0.0923  0.2862
  865MPD2    H512756   1.515   1.826  16.083 -0.8768  0.6219  0.5229
  865MPD2    N112757   1.464   1.289  15.912  0.0515 -0.4582  0.4374
  865MPD2    H712758   1.489   1.239  15.828  0.6103 -2.2973  1.7058
  866MPD2     C12759   2.963   2.050  11.589 -0.6335 -0.0745 -0.5769
  866MPD2    C112760   2.964   1.959  11.485 -0.1563 -0.6467  0.9422
  866MPD2    C212761   2.908   1.984  11.359 -0.3906  0.1855 -0.1945
  866MPD2    C312762   2.850   2.111  11.339  0.1407 -0.0423 -0.2344
  866MPD2    C412763   2.857   2.205  11.443  0.2346  0.5691  1.0815
  866MPD2    C512764   2.910   2.172  11.558  0.1950 -0.0874  0.4835
  866MPD2     H12765   2.912   1.917  11.274  1.2234 -0.5293  0.4426
  866MPD2    H112766   2.823   2.308  11.434  1.6919  0.7976 -1.9150
  866MPD2    H212767   3.014   2.043  11.685 -1.3377  0.6103 -0.1529
  866MPD2    H312768   2.907   2.257  11.626 -1.1954  0.4271 -0.2159
  866MPD2     N12769   2.779   2.154  11.223  0.1257 -0.3499 -0.3876
  866MPD2    H512770   2.755   2.252  11.218  0.6008 -0.2679 -1.0270
  866MPD2    N112771   3.027   1.839  11.509 -0.6249  0.1682  0.4872
  866MPD2    H712772   3.055   1.824  11.605 -0.6884 -1.2256  0.2822
  867MPD2     C12773   4.380   1.333  16.432 -0.8431  1.0559  0.1152
  867MPD2    C112774   4.408   1.289  16.561  0.1582 -0.5194  0.1504
  867MPD2    C212775   4.360   1.369  16.661  0.3689  0.0435  0.3496
  867MPD2    C312776   4.276   1.472  16.632  1.1206  0.2229 -0.0592
  867MPD2    C412777   4.262   1.524  16.505  0.1428 -0.2447  0.8708
  867MPD2    C512778   4.315   1.452  16.402 -0.1102  0.0050  0.7774
  867MPD2     H12779   4.403   1.355  16.759 -0.2658  2.1727  0.9465
  867MPD2    H112780   4.222   1.624  16.490 -0.5564 -0.6103  0.2973
  867MPD2    H212781   4.403   1.275  16.343 -0.2734  0.0745  0.9019
  867MPD2    H312782   4.309   1.487  16.299  0.4396 -0.5380  0.5617
  867MPD2     N12783   4.211   1.535  16.736 -0.4143 -0.5333 -0.5073
  867MPD2    H512784   4.187   1.632  16.718  0.8223 -0.1022  0.1201
  867MPD2    N112785   4.484   1.170  16.579 -0.1215  0.2645  0.4539
  867MPD2    H712786   4.506   1.133  16.487 -1.1439  2.1348 -0.5544
  868MPD2     C12787   1.927   4.445  13.113  0.0379 -0.0918  0.0603
  868MPD2    C112788   1.999   4.559  13.140  0.3538 -0.5461 -0.6812
  868MPD2    C212789   1.942   4.670  13.191 -0.2398  0.3883  0.0316
  868MPD2    C312790   1.809   4.663  13.223 -0.8426  0.2421 -0.6418
  868MPD2    C412791   1.734   4.552  13.190 -0.0464 -0.4428  0.2853
  868MPD2    C512792   1.794   4.450  13.135  0.0449 -0.2859 -0.9580
  868MPD2     H12793   1.994   0.021  13.225  4.3833 -2.6351  0.8957
  868MPD2    H112794   1.627   4.549  13.205  0.0300 -1.6646  0.5675
  868MPD2    H212795   1.967   4.363  13.055 -0.1725 -0.3628  0.2993
  868MPD2    H312796   1.733   4.365  13.106  0.5279 -0.8259 -0.4191
  868MPD2     N12797   1.746   0.032  13.298 -0.1254 -0.3495 -0.5676
  868MPD2    H512798   1.814   0.091  13.345 -0.4858  0.3384 -0.9103
  868MPD2    N112799   2.140   4.562  13.127 -0.0157 -0.2695 -0.9340
  868MPD2    H712800   2.189   4.644  13.160  0.5006 -0.8043 -0.3714
  869MPD2     C12801   2.271   3.633   1.056 -0.9147 -0.4808  0.5637
  869MPD2    C112802   2.340   3.721   0.980  0.0328  0.0701 -0.2182
  869MPD2    C212803   2.460   3.758   1.028 -0.1885  0.1530  0.2844
  869MPD2    C312804   2.514   3.709   1.146 -0.0083 -0.0413 -0.2666
  869MPD2    C412805   2.436   3.627   1.223 -0.3645  0.3017  0.1229
  869MPD2    C512806   2.315   3.590   1.174  0.2987 -0.0303  0.5053
  869MPD2     H12807   2.526   3.814   0.962  0.8968  0.9857  2.0647
  869MPD2    H112808   2.465   3.582   1.318 -0.0530 -0.6158 -0.4071
  869MPD2    H212809   2.173   3.596   1.028 -1.0465  0.1061  0.2320
  869MPD2    H312810   2.267   3.511   1.232  1.5956  1.1167  3.1793
  869MPD2     N12811   2.641   3.748   1.195  0.6366 -0.0990 -0.6896
  869MPD2    H512812   2.673   3.718   1.286 -0.5784  0.7000 -0.0128
  869MPD2    N112813   2.289   3.765   0.855  0.1003 -0.3837  0.7004
  869MPD2    H712814   2.197   3.726   0.833  0.4071 -0.0587 -1.1193
  870MPD2     C12815   1.257   2.910   0.981  0.1207 -0.7858 -0.7832
  870MPD2    C112816   1.302   2.852   1.098  0.2211  0.4257  0.1552
  870MPD2    C212817   1.432   2.806   1.112  0.6335  0.3734  0.2739
  870MPD2    C312818   1.508   2.799   1.001  0.0929 -0.3630  0.2339
  870MPD2    C412819   1.469   2.852   0.882 -0.6933 -0.4336 -0.1330
  870MPD2    C512820   1.347   2.917   0.873 -0.4598  0.1286 -1.3091
  870MPD2     H12821   1.459   2.751   1.201 -0.6977  0.5285  0.7688
  870MPD2    H112822   1.532   2.850   0.794 -4.4753  0.8456 -2.8522
  870MPD2    H212823   1.156   2.940   0.958  0.1980 -0.3740 -0.5913
  870MPD2    H312824   1.311   2.947   0.775 -0.7741  0.0300 -1.2257
  870MPD2     N12825   1.629   2.722   1.011 -0.1654  0.3336  0.3789
  870MPD2    H512826   1.644   2.662   1.091  1.2450  2.1983  1.5249
  870MPD2    N112827   1.208   2.850   1.203 -0.6134 -0.3760  0.0580
  870MPD2    H712828   1.114   2.882   1.186 -0.1813  1.4271  1.0938
  871MPD2     C12829   3.655   1.508  16.259  0.3058 -0.4647 -0.7050
  871MPD2    C112830   3.570   1.449  16.341 -0.1184  0.0898  0.1095
  871MPD2    C212831   3.535   1.318  16.310  0.0806 -0.4969 -0.4191
  871MPD2    C312832   3.593   1.256  16.199  0.4216  0.3193  0.3815
  871MPD2    C412833   3.672   1.331  16.115  0.4639 -0.3525 -0.0223
  871MPD2    C512834   3.694   1.456  16.144 -0.3757  0.4452  0.1044
  871MPD2     H12835   3.470   1.260  16.375  0.4455  0.4811  0.8133
  871MPD2    H112836   3.710   1.294  16.020  1.5260  0.3552  0.1268
  871MPD2    H212837   3.681   1.612  16.274 -1.1712 -0.1672 -0.2163
  871MPD2    H312838   3.745   1.516  16.070 -1.1584 -0.7872 -1.4263
  871MPD2     N12839   3.566   1.126  16.169 -0.3381 -0.2883  0.2707
  871MPD2    H512840   3.496   1.084  16.230 -0.5132  1.0063  0.9644
  871MPD2    N112841   3.539   1.519  16.459  0.1899  0.6953 -0.4313
  871MPD2    H712842   3.573   1.614  16.474  0.4391  1.0130 -3.0381
  872MPD2     C12843   4.447   3.488  14.060  0.3418 -0.0004  0.2837
  872MPD2    C112844   4.509   3.556  14.164  0.5923 -0.0726  0.0568
  872MPD2    C212845   4.424   3.585  14.273  0.1225  0.0322 -0.3773
  872MPD2    C312846   4.286   3.573  14.270  0.2655  0.7215 -0.1681
  872MPD2    C412847   4.228   3.512  14.157  0.5891 -0.5944  0.0223
  872MPD2    C512848   4.311   3.467  14.061 -0.8197  0.4514 -0.2507
  872MPD2     H12849   4.467   3.631  14.361 -0.7714  1.1433 -0.5290
  872MPD2    H112850   4.121   3.507  14.140  0.8616  0.2547 -1.9840
  872MPD2    H212851   4.492   3.457  13.966 -0.7154  0.4139 -0.3606
  872MPD2    H312852   4.272   3.424  13.969 -0.8511 -2.4108  1.1004
  872MPD2     N12853   4.204   3.615  14.380  0.3524 -0.6334 -0.3666
  872MPD2    H512854   4.103   3.620  14.373  0.6900  1.9588 -3.2719
  872MPD2    N112855   4.644   3.598  14.170 -0.0202 -0.4188 -0.2804
  872MPD2    H712856   4.666   3.639  14.260 -1.7722 -1.2313  0.4982
  873MPD2     C12857   1.058   3.841   0.475 -0.4498 -0.2531  0.0253
  873MPD2    C112858   1.109   3.811   0.599 -0.4432 -0.6402  0.0420
  873MPD2    C212859   1.140   3.679   0.624 -0.1992  0.7586 -0.5809
  873MPD2    C312860   1.110   3.581   0.533 -0.5789  0.0437  0.2186
  873MPD2    C412861   1.051   3.609   0.415  0.4479 -0.1242  0.1616
  873MPD2    C512862   1.025   3.743   0.381 -0.2282 -0.1771 -0.5247
  873MPD2     H12863   1.180   3.659   0.723  0.5884  0.5539 -0.9340
  873MPD2    H112864   1.028   3.537   0.337 -2.5217  1.7363 -0.6560
  873MPD2    H212865   1.029   3.942   0.450 -1.4585 -0.6806 -0.5070
  873MPD2    H312866   0.986   3.757   0.281  1.0696 -1.3520 -1.2083
  873MPD2     N12867   1.119   3.442   0.556  0.3582  0.5173 -0.5251
  873MPD2    H512868   1.060   3.401   0.484  1.1179 -2.2968  0.4911
  873MPD2    N112869   1.116   3.911   0.698 -0.8270 -0.0451  0.6188
  873MPD2    H712870   1.074   4.002   0.682 -1.2118 -0.2605  0.3927
  874MPD2     C12871   1.491   4.458  16.186  0.2911  0.4827 -0.1284
  874MPD2    C112872   1.536   4.362  16.270  0.5208  0.2686 -0.0076
  874MPD2    C212873   1.671   4.356  16.296 -0.0213  0.6924  0.0462
  874MPD2    C312874   1.761   4.429  16.219  0.2044 -0.1260  0.0182
  874MPD2    C412875   1.716   4.513  16.113 -0.3469  0.0255 -0.6116
  874MPD2    C512876   1.584   4.530  16.108 -0.6615  0.1556  0.1057
  874MPD2     H12877   1.707   4.284  16.369  2.4574 -0.0560 -1.9093
  874MPD2    H112878   1.773   4.580  16.050  0.6540  1.4603  1.8388
  874MPD2    H212879   1.384   4.471  16.169  0.1405  0.4699  0.8200
  874MPD2    H312880   1.552   4.611  16.043 -1.2733  0.3620  0.6686
  874MPD2     N12881   1.899   4.414  16.234  0.0886  0.9803 -0.1659
  874MPD2    H512882   1.927   4.375  16.323  0.1255  0.9684 -0.1828
  874MPD2    N112883   1.450   4.270  16.331 -0.3992  0.3964 -0.3887
  874MPD2    H712884   1.352   4.278  16.303 -0.6989  1.2310  0.8939
  875MPD2     C12885   2.555   2.308  14.396  0.2941  0.3943  0.1604
  875MPD2    C112886   2.420   2.320  14.390  0.2145 -0.1285  0.5388
  875MPD2    C212887   2.350   2.355  14.508  0.3437 -0.2893 -0.6697
  875MPD2    C312888   2.419   2.383  14.624 -0.0872  0.8559 -0.0674
  875MPD2    C412889   2.554   2.352  14.627 -0.7873 -0.1030  0.1425
  875MPD2    C512890   2.617   2.332  14.511 -0.0954 -0.6974 -0.1398
  875MPD2     H12891   2.243   2.368  14.491  0.1084 -0.5097  0.6108
  875MPD2    H112892   2.610   2.371  14.718 -2.3378  1.2624  0.8087
  875MPD2    H212893   2.611   2.280  14.307  0.8836  1.7049  0.1089
  875MPD2    H312894   2.725   2.318  14.514 -0.3808 -2.8857 -0.3477
  875MPD2     N12895   2.355   2.427  14.742 -0.0761  0.4811  0.0687
  875MPD2    H512896   2.406   2.435  14.829 -0.2882 -0.8552  0.3154
  875MPD2    N112897   2.336   2.298  14.276  0.2760 -0.6146 -0.3818
  875MPD2    H712898   2.235   2.311  14.280  0.3327 -0.2397 -0.2141
  876MPD2     C12899   1.253   3.423  16.358 -0.1195  0.4439 -1.0693
  876MPD2    C112900   1.343   3.355  16.278  0.2394  0.0606 -0.5901
  876MPD2    C212901   1.345   3.214  16.292 -0.2760  0.3803 -0.0689
  876MPD2    C312902   1.257   3.147  16.379 -0.9766  0.0136  0.0096
  876MPD2    C412903   1.167   3.220  16.451 -0.6816  0.5636  0.3158
  876MPD2    C512904   1.171   3.357  16.450 -0.0303 -0.4803 -0.2392
  876MPD2     H12905   1.414   3.153  16.236 -0.3380 -1.0443  1.4162
  876MPD2    H112906   1.089   3.168  16.505  0.9887 -1.2212  0.9728
  876MPD2    H212907   1.243   3.530  16.348  0.0407  0.6939  1.4236
  876MPD2    H312908   1.106   3.416  16.512 -0.1190 -0.4762 -0.3354
  876MPD2     N12909   1.251   3.008  16.375 -0.3079 -0.2973  0.3339
  876MPD2    H512910   1.325   2.963  16.323 -0.5472  0.2575 -0.4925
  876MPD2    N112911   1.418   3.437  16.186  0.5834  0.3642 -0.0231
  876MPD2    H712912   1.397   3.536  16.193  1.8245  0.5237  1.4784
  877MPD2     C12913   1.747   3.974  15.657 -0.3086  0.2845 -0.0264
  877MPD2    C112914   1.642   3.905  15.600 -0.8386 -0.0557  0.6344
  877MPD2    C212915   1.633   3.899  15.462  1.0888  0.0064 -0.0248
  877MPD2    C312916   1.727   3.962  15.382  0.0344  0.3330 -0.2105
  877MPD2    C412917   1.839   4.017  15.443  0.2256  0.5802 -0.2048
  877MPD2    C512918   1.843   4.028  15.577  0.1551 -0.1125 -0.1138
  877MPD2     H12919   1.556   3.840  15.415  1.7304 -0.7357 -0.1296
  877MPD2    H112920   1.915   4.067  15.384  0.5977 -0.2649 -0.4370
  877MPD2    H212921   1.756   3.986  15.764 -3.0733  0.5730  0.1723
  877MPD2    H312922   1.926   4.074  15.629 -1.3959  0.5473  1.7447
  877MPD2     N12923   1.712   3.972  15.241  0.3903  0.3413 -0.2158
  877MPD2    H512924   1.789   4.008  15.186  0.1967  0.7017 -0.2475
  877MPD2    N112925   1.562   3.816  15.673 -0.0348 -0.1770 -0.4050
  877MPD2    H712926   1.491   3.759  15.628 -1.3334  0.9663  0.2051
  878MPD2     C12927   1.324   2.695  13.481 -0.5426  0.0674  0.2400
  878MPD2    C112928   1.394   2.810  13.486 -0.0212  0.0330 -0.5774
  878MPD2    C212929   1.397   2.891  13.596  0.8984  0.3515  0.4313
  878MPD2    C312930   1.332   2.849  13.709  0.1352 -0.1134  0.1621
  878MPD2    C412931   1.283   2.720  13.719  0.6061  0.6031 -0.2792
  878MPD2    C512932   1.272   2.644  13.602 -0.5748 -0.3152  0.4176
  878MPD2     H12933   1.455   2.982  13.604 -2.4984  2.5951 -0.5908
  878MPD2    H112934   1.233   2.688  13.809  0.5232  1.5907  0.0283
  878MPD2    H212935   1.308   2.629  13.397 -0.0125 -0.0098  0.1986
  878MPD2    H312936   1.234   2.542  13.607 -1.6526  0.1038  0.6449
  878MPD2     N12937   1.336   2.942  13.812 -0.3738  0.3711  0.7649
  878MPD2    H512938   1.387   3.027  13.791  1.3142 -0.4138  1.7065
  878MPD2    N112939   1.452   2.854  13.363  0.1238  0.0594 -0.2573
  878MPD2    H712940   1.421   2.800  13.282 -0.4211  0.7033 -0.4791
  879MPD2     C12941   1.106   0.360  17.086  0.1079 -0.0247  0.7069
  879MPD2    C112942   1.172   0.267  17.159  0.2144  0.2819 -0.5136
  879MPD2    C212943   1.158   0.138  17.119 -0.4818 -0.0567  0.1774
  879MPD2    C312944   1.070   0.109  17.017  0.0970 -0.3815 -0.2051
  879MPD2    C412945   1.003   0.209  16.952  0.0864  0.2765  0.1175
  879MPD2    C512946   1.025   0.332  16.984 -0.4388 -0.1364  0.2442
  879MPD2     H12947   1.212   0.059  17.168  0.8661  0.8587  0.1776
  879MPD2    H112948   0.934   0.203  16.869 -0.1885 -1.0763  0.4446
  879MPD2    H212949   1.117   0.468  17.094 -1.0102 -0.1007  3.2394
  879MPD2    H312950   0.982   0.414  16.927 -2.0911 -0.9253  0.3744
  879MPD2     N12951   1.062   4.720  16.964  0.1355 -0.0656 -0.0642
  879MPD2    H512952   1.018   4.713  16.873  0.5806  1.1255 -0.3658
  879MPD2    N112953   1.250   0.310  17.271 -0.6295  0.3862  0.1530
  879MPD2    H712954   1.258   0.409  17.292 -1.7949  0.2136  1.3566
  880MPD2     C12955   2.740   1.941   0.070  0.4280  0.4463  0.3501
  880MPD2    C112956   2.787   1.979   0.194 -0.0430  0.1900  0.3813
  880MPD2    C212957   2.842   1.889   0.283 -0.7472 -0.5268 -0.6046
  880MPD2    C312958   2.836   1.758   0.242 -0.2485  0.0970 -0.1758
  880MPD2    C412959   2.763   1.721   0.124 -0.3685  0.1791 -0.9093
  880MPD2    C512960   2.720   1.812   0.034  0.6723  0.9720  0.2239
  880MPD2     H12961   2.879   1.907   0.383 -1.7917  0.1117 -0.3361
  880MPD2    H112962   2.739   1.618   0.099 -0.8995  0.0441  0.1759
  880MPD2    H212963   2.715   2.024   0.006 -1.6829 -1.2724 -1.0816
  880MPD2    H312964   2.657   1.792  17.697  0.8795 -0.7368  0.4748
  880MPD2     N12965   2.885   1.674   0.347  0.7477 -0.2578 -0.3388
  880MPD2    H512966   2.917   1.718   0.432  0.4803 -2.1771  0.7513
  880MPD2    N112967   2.796   2.120   0.219 -0.1975 -0.3023  0.3303
  880MPD2    H712968   2.762   2.172   0.139 -0.4743 -0.8983  0.0569
  881MPD2     C12969   2.840   2.966  17.496  0.5357 -0.0011  0.1878
  881MPD2    C112970   2.805   2.837  17.467  0.1142  0.6347  0.6709
  881MPD2    C212971   2.795   2.748  17.580  0.5958 -0.4781  0.8364
  881MPD2    C312972   2.760   2.803  17.706 -0.1174 -0.5334  0.4590
  881MPD2    C412973   2.777   2.939  17.725  0.3090  0.0187  0.0719
  881MPD2    C512974   2.831   3.016  17.620 -0.4815 -0.2770 -0.3331
  881MPD2     H12975   2.804   2.642  17.563  1.0881 -0.2699 -0.2149
  881MPD2    H112976   2.762   2.986   0.073  1.8137 -0.4973  0.5480
  881MPD2    H212977   2.866   3.032  17.414 -2.2452  1.6207  0.6091
  881MPD2    H312978   2.863   3.118  17.637  2.3792 -1.3843  0.8426
  881MPD2     N12979   2.725   2.719   0.067 -0.6629  0.1871  0.6934
  881MPD2    H512980   2.708   2.770   0.153 -0.2588 -1.2988  1.6321
  881MPD2    N112981   2.826   2.798  17.332 -0.6797  0.5962 -0.3177
  881MPD2    H712982   2.825   2.874  17.265  1.1870  0.8850 -0.0109
  882MPD2     C12983   1.390   3.795  14.400  0.1653 -0.4292 -0.1187
  882MPD2    C112984   1.337   3.859  14.508  0.3124  0.7278  0.6683
  882MPD2    C212985   1.198   3.858  14.531 -0.0765  0.6322  0.0767
  882MPD2    C312986   1.109   3.799  14.439  0.3171 -0.0617 -0.9106
  882MPD2    C412987   1.161   3.734  14.334 -0.5264  0.5324 -0.0164
  882MPD2    C512988   1.298   3.729  14.318 -0.5154  0.5435  0.5918
  882MPD2     H12989   1.162   3.917  14.615 -0.6318  0.7955 -0.2699
  882MPD2    H112990   1.104   3.684  14.257  1.8654 -2.1351 -0.0588
  882MPD2    H212991   1.496   3.775  14.389 -0.1328 -1.2385 -1.5403
  882MPD2    H312992   1.340   3.671  14.237 -0.5521  2.5194 -0.8518
  882MPD2     N12993   0.963   3.805  14.455 -0.4174 -0.5374 -0.2863
  882MPD2    H512994   0.917   3.735  14.399 -0.3437  0.1678 -1.2461
  882MPD2    N112995   1.426   3.905  14.605 -0.0073  0.0755 -0.3050
  882MPD2    H712996   1.526   3.890  14.593  0.2339  1.7814 -0.4798
  883MPD2     C12997   3.191   3.667  16.288 -0.0289  0.0106  1.3367
  883MPD2    C112998   3.250   3.723  16.183 -0.4085  0.2767 -0.0820
  883MPD2    C212999   3.342   3.821  16.208  0.1817  0.1602  0.2234
  883MPD2    C313000   3.373   3.865  16.333  0.2391  0.5907  1.2386
  883MPD2    C413001   3.317   3.799  16.441 -0.1774 -0.3066 -0.3449
  883MPD2    C513002   3.231   3.695  16.419 -0.5164 -0.3511  0.1946
  883MPD2     H13003   3.394   3.863  16.123 -0.0133 -0.8284 -0.3850
  883MPD2    H113004   3.318   3.819  16.548 -1.5706 -1.8845 -0.0288
  883MPD2    H213005   3.095   3.615  16.280  0.0086  0.1206  0.1976
  883MPD2    H313006   3.184   3.649  16.505 -1.8329  1.6407  0.5376
  883MPD2     N13007   3.443   3.988  16.345 -0.6861  0.1696  0.8033
  883MPD2    H513008   3.461   4.036  16.257  0.1989  1.7301  1.8275
  883MPD2    N113009   3.208   3.699  16.054 -0.4003  0.0905  0.5265
  883MPD2    H713010   3.253   3.752  15.980 -0.2702 -1.0016 -0.1838
  884MPD2     C13011   0.481   4.415  15.458  1.0216 -0.4736 -0.0230
  884MPD2    C113012   0.449   4.463  15.331 -0.3836 -0.3900 -0.6320
  884MPD2    C213013   0.335   4.540  15.312 -0.2994 -0.0248  0.3649
  884MPD2    C313014   0.248   4.578  15.407 -0.6321 -0.3227  0.4550
  884MPD2    C413015   0.276   4.522  15.533  0.0298 -0.1999  0.2477
  884MPD2    C513016   0.392   4.453  15.555  0.9715  0.0927 -0.0087
  884MPD2     H13017   0.303   4.577  15.216  0.1219 -2.2110 -0.6198
  884MPD2    H113018   0.213   4.544  15.618  0.4998  2.1353 -0.0053
  884MPD2    H213019   0.575   4.370  15.488 -0.4816 -1.6497  2.9397
  884MPD2    H313020   0.408   4.429  15.659 -0.0330  0.3909  0.2048
  884MPD2     N13021   0.134   4.653  15.370  1.2436  0.2058 -0.6721
  884MPD2    H513022   0.116   4.678  15.273  2.0107  0.5448 -0.7222
  884MPD2    N113023   0.513   4.430  15.214  0.3968  0.9604  0.8702
  884MPD2    H713024   0.477   4.475  15.131 -1.5674  0.5651  1.5211
  885MPD2     C13025   3.293   0.186   0.633 -0.2947 -0.4376 -0.1359
  885MPD2    C113026   3.267   0.325   0.629  0.1148 -0.8496  0.3359
  885MPD2    C213027   3.182   0.385   0.538 -0.0010 -0.4345 -0.5216
  885MPD2    C313028   3.122   0.312   0.446  0.1642  0.0228  0.3820
  885MPD2    C413029   3.147   0.174   0.450  0.0009 -0.3297  0.2598
  885MPD2    C513030   3.231   0.112   0.539 -0.1830  0.1461  0.2785
  885MPD2     H13031   3.167   0.492   0.539  1.9710 -0.1594 -0.3940
  885MPD2    H113032   3.100   0.095   0.393 -1.2167  1.1229 -0.7528
  885MPD2    H213033   3.372   0.149   0.697 -1.4467 -4.9364 -1.2869
  885MPD2    H313034   3.240   0.004   0.544 -0.2487  0.1657  0.8346
  885MPD2     N13035   3.025   0.366   0.356 -0.0982 -0.3464  0.0935
  885MPD2    H513036   3.013   0.467   0.354  4.1331  0.1641  0.6671
  885MPD2    N113037   3.336   0.409   0.726 -0.2945  0.1240 -0.7970
  885MPD2    H713038   3.397   0.362   0.792  0.3327  1.1373 -0.6643
  886MPD2     C13039   4.638   3.303  15.550  0.0089  0.2767  0.2134
  886MPD2    C113040   0.033   3.341  15.563 -0.4131 -0.0875  0.4847
  886MPD2    C213041   0.077   3.467  15.517  0.0735  1.0405 -0.1232
  886MPD2    C313042   4.731   3.541  15.443  0.4020  0.4570 -0.2129
  886MPD2    C413043   4.604   3.501  15.419 -0.0098  0.3678  0.5323
  886MPD2    C513044   4.562   3.382  15.469  0.2743 -0.0229 -0.5416
  886MPD2     H13045   0.182   3.495  15.527  0.0797  0.4919  1.3664
  886MPD2    H113046   4.544   3.553  15.346  2.3214  1.2232 -0.7950
  886MPD2    H213047   4.602   3.203  15.572 -0.0665  0.6531  1.7847
  886MPD2    H313048   4.463   3.346  15.442 -0.4793  1.8328 -0.3337
  886MPD2     N13049   0.023   3.658  15.387  0.5566 -0.3037  0.3018
  886MPD2    H513050   4.702   3.681  15.308 -0.4809 -0.5821  0.9832
  886MPD2    N113051   0.123   3.249  15.624 -0.2247  0.3860  0.3494
  886MPD2    H713052   0.220   3.280  15.616  0.1401 -1.0385 -0.7039
  887MPD2     C13053   0.826   3.224  15.634  0.0899 -0.5808  0.1611
  887MPD2    C113054   0.708   3.275  15.659  1.3294  0.4899  0.4193
  887MPD2    C213055   0.706   3.407  15.703 -0.3071  0.2258 -0.8508
  887MPD2    C313056   0.824   3.483  15.703 -0.7997  0.4206  0.2177
  887MPD2    C413057   0.942   3.423  15.659 -0.5939  0.6062 -0.0080
  887MPD2    C513058   0.945   3.290  15.636 -0.4208 -0.2615  0.0760
  887MPD2     H13059   0.615   3.451  15.741 -1.7963 -2.1621 -1.7341
  887MPD2    H113060   1.037   3.474  15.655 -0.0063 -0.5563 -1.0684
  887MPD2    H213061   0.839   3.118  15.614  1.3806 -0.5828  1.0415
  887MPD2    H313062   1.038   3.236  15.634  0.5467  1.3352  1.6248
  887MPD2     N13063   0.818   3.622  15.735  0.7893  0.0914  0.4907
  887MPD2    H513064   0.730   3.651  15.776  0.8629  1.4882 -0.3166
  887MPD2    N113065   0.592   3.199  15.661  0.8495 -0.0475 -0.2307
  887MPD2    H713066   0.505   3.250  15.671  1.1514  0.1278  1.5211
  888MPD2     C13067   2.173   3.384  15.023 -0.2902  0.7364 -0.5414
  888MPD2    C113068   2.244   3.366  15.140 -0.2391  0.5706  0.3304
  888MPD2    C213069   2.344   3.456  15.174  0.4403 -0.9302  0.0551
  888MPD2    C313070   2.358   3.571  15.094 -0.0737 -0.4854 -0.2976
  888MPD2    C413071   2.280   3.590  14.992 -0.0295 -0.0514 -0.7176
  888MPD2    C513072   2.184   3.502  14.960 -0.7472  0.4742 -0.1577
  888MPD2     H13073   2.412   3.436  15.257  0.2048 -0.1136  0.4462
  888MPD2    H113074   2.284   3.680  14.931  0.7826  1.0010  0.8874
  888MPD2    H213075   2.079   3.338  14.993 -0.0679  0.0124 -0.1275
  888MPD2    H313076   2.109   3.521  14.884 -1.8457 -2.2701  0.2222
  888MPD2     N13077   2.464   3.661  15.120  0.3261 -0.6104  0.0743
  888MPD2    H513078   2.512   3.643  15.208 -0.4457  0.2791  0.6721
  888MPD2    N113079   2.243   3.251  15.224 -0.1269 -0.2009  0.7007
  888MPD2    H713080   2.301   3.247  15.307  1.0774  0.5785 -0.1088
  889MPD2     C13081   2.048   2.962  13.056  0.3968 -0.2883  0.1933
  889MPD2    C113082   1.960   2.905  13.146 -0.4306 -0.3918 -0.1178
  889MPD2    C213083   1.921   2.982  13.253 -0.2986 -0.0595 -0.5381
  889MPD2    C313084   1.970   3.109  13.267  1.0214 -0.4718 -0.3708
  889MPD2    C413085   2.033   3.169  13.160  0.1888  0.3856 -0.5010
  889MPD2    C513086   2.078   3.097  13.056  0.4006 -0.4452 -0.6544
  889MPD2     H13087   1.882   2.932  13.341  1.1451  0.0206  0.1638
  889MPD2    H113088   2.058   3.274  13.155 -0.1672  0.6047  2.9092
  889MPD2    H213089   2.085   2.898  12.977  0.8395 -0.0614  0.2161
  889MPD2    H313090   2.148   3.139  12.985 -0.4802  0.1701 -1.1452
  889MPD2     N13091   1.933   3.177  13.389 -0.1803 -0.6607 -0.4366
  889MPD2    H513092   1.871   3.126  13.451 -0.5210 -1.3588 -1.3485
  889MPD2    N113093   1.954   2.768  13.142 -0.9558 -0.7666 -1.0702
  889MPD2    H713094   2.005   2.707  13.079  1.6765 -0.8692  1.1998
  890MPD2     C13095   1.480   4.526  14.641  0.2661 -0.3362  0.0317
  890MPD2    C113096   1.580   4.615  14.681 -1.0985 -0.4083  0.6727
  890MPD2    C213097   1.649   4.593  14.799  0.8046  0.3210 -0.4245
  890MPD2    C313098   1.614   4.491  14.884  0.0402 -0.4539 -0.1603
  890MPD2    C413099   1.508   4.405  14.838 -0.0592  0.5496  0.3441
  890MPD2    C513100   1.452   4.417  14.715 -0.4308  0.1399 -0.4883
  890MPD2     H13101   1.727   4.662  14.829  0.6120 -0.2117  1.3111
  890MPD2    H113102   1.469   4.327  14.902  0.9106  0.1418  0.4325
  890MPD2    H213103   1.440   4.529  14.540  0.1228 -1.1830  0.0692
  890MPD2    H313104   1.380   4.344  14.679  0.7038 -1.0985 -0.2682
  890MPD2     N13105   1.693   4.460  14.995  0.2435 -0.1717 -0.5517
  890MPD2    H513106   1.784   4.503  15.008  0.1953 -0.1900 -0.1622
  890MPD2    N113107   1.609   4.733  14.607  0.6641 -0.1931  0.1072
  890MPD2    H713108   1.556   4.734  14.520  1.5269 -4.2130 -0.4878
  891MPD2     C13109   4.256   3.548  16.480 -0.0016  0.2832  0.3988
  891MPD2    C113110   4.175   3.502  16.580 -0.2112 -0.3315 -0.1078
  891MPD2    C213111   4.231   3.414  16.677  0.0130 -0.1863 -0.2004
  891MPD2    C313112   4.363   3.360  16.666 -0.2543  0.3582 -0.0480
  891MPD2    C413113   4.433   3.409  16.558  0.6789  0.0157  0.6275
  891MPD2    C513114   4.388   3.509  16.481 -0.2786  0.7092 -0.8483
  891MPD2     H13115   4.168   3.397  16.763 -1.2877 -0.2307 -1.1706
  891MPD2    H113116   4.535   3.377  16.539 -0.0047 -0.5391 -2.1003
  891MPD2    H213117   4.224   3.623  16.408 -0.6094  0.3043  0.6903
  891MPD2    H313118   4.457   3.559  16.415  2.4293 -0.7046  0.9275
  891MPD2     N13119   4.410   3.263  16.764 -0.4383 -0.2080 -0.2584
  891MPD2    H513120   4.343   3.236  16.836  0.9932  1.2733  1.6315
  891MPD2    N113121   4.034   3.528  16.556  0.0647  0.4418 -0.2389
  891MPD2    H713122   4.004   3.573  16.470  1.8033 -1.9912 -2.1270
  892MPD2     C13123   0.352   4.086  15.282  0.1276  0.0945  0.3279
  892MPD2    C113124   0.318   4.131  15.151  0.0293 -0.3234 -0.8680
  892MPD2    C213125   0.393   4.106  15.043 -0.1502  0.4616 -0.0468
  892MPD2    C313126   0.501   4.024  15.058 -0.6077 -0.1741  0.7662
  892MPD2    C413127   0.548   3.998  15.187  0.2241 -0.3160  0.3545
  892MPD2    C513128   0.470   4.020  15.294 -0.7811  0.5712 -0.7202
  892MPD2     H13129   0.363   4.133  14.942 -1.1155 -2.4977 -0.5578
  892MPD2    H113130   0.645   3.950  15.197 -0.0913 -0.4737  2.6794
  892MPD2    H213131   0.303   4.113  15.374  0.6514  2.0359  0.0337
  892MPD2    H313132   0.504   3.983  15.390  0.7118 -0.9441 -1.8171
  892MPD2     N13133   0.573   3.967  14.945  0.1604  0.1480 -0.3036
  892MPD2    H513134   0.659   3.916  14.960  1.3112  1.2980 -3.0645
  892MPD2    N113135   0.195   4.199  15.125  0.1840 -0.5317  0.0469
  892MPD2    H713136   0.187   4.236  15.031 -0.9378  1.0807  0.7757
  893MPD2     C13137   1.220   3.301   1.509  0.2250 -0.6814  0.3260
  893MPD2    C113138   1.210   3.265   1.374  0.1853 -0.1627  0.2449
  893MPD2    C213139   1.092   3.201   1.331  0.2880  0.7681 -0.5355
  893MPD2    C313140   0.981   3.190   1.417 -0.4188 -0.3264  0.3585
  893MPD2    C413141   0.992   3.245   1.544 -0.0590 -0.8048 -0.3744
  893MPD2    C513142   1.109   3.292   1.587 -0.3106  0.7506  0.6618
  893MPD2     H13143   1.082   3.158   1.232 -1.1461  0.8422 -0.4202
  893MPD2    H113144   0.908   3.232   1.612 -0.4268  1.7153 -0.3596
  893MPD2    H213145   1.309   3.342   1.556  0.9799 -2.0809  0.1034
  893MPD2    H313146   1.107   3.326   1.690 -1.2488 -3.0352  1.8921
  893MPD2     N13147   0.863   3.128   1.369 -0.0667  0.4780 -0.2753
  893MPD2    H513148   0.791   3.135   1.440  3.2593  0.0845  3.1003
  893MPD2    N113149   1.316   3.278   1.274 -0.5616 -0.5635 -0.5324
  893MPD2    H713150   1.411   3.285   1.306 -1.1586  0.5804  0.9902
  894MPD2     C13151   4.158   0.072   1.652 -0.4959 -0.3557  0.0127
  894MPD2    C113152   4.077   0.180   1.659  0.5387  0.6107 -0.1175
  894MPD2    C213153   4.084   0.284   1.565 -0.2656 -0.1778  0.0463
  894MPD2    C313154   4.192   0.283   1.484 -0.4293  0.4114 -0.8842
  894MPD2    C413155   4.274   0.174   1.480 -0.0101  0.2317 -0.4469
  894MPD2    C513156   4.255   0.072   1.564 -0.2903  0.2053 -0.6414
  894MPD2     H13157   4.012   0.365   1.566 -0.7990 -0.6401 -0.8697
  894MPD2    H113158   4.355   0.168   1.408 -0.4717 -1.4719 -0.8173
  894MPD2    H213159   4.151   4.724   1.718 -0.4756  1.4092  2.3324
  894MPD2    H313160   4.314   4.719   1.556 -1.8025 -0.7433 -1.1289
  894MPD2     N13161   4.217   0.400   1.412 -0.3158  0.2389 -0.5826
  894MPD2    H513162   4.150   0.475   1.425  0.6731  0.9690  0.2967
  894MPD2    N113163   3.974   0.195   1.757 -0.2481  0.3832 -0.1528
  894MPD2    H713164   3.899   0.263   1.746 -1.1936 -1.1364 -3.1057
  895MPD2     C13165   4.304   3.680  13.826  1.0056 -0.1399 -0.2451
  895MPD2    C113166   4.205   3.641  13.735 -0.0305 -0.9643 -0.2974
  895MPD2    C213167   4.235   3.568  13.631  0.0570 -0.3269  0.3463
  895MPD2    C313168   4.365   3.551  13.597 -0.3518  0.5416 -0.1831
  895MPD2    C413169   4.466   3.590  13.681 -0.5654 -0.2076  0.1147
  895MPD2    C513170   4.434   3.658  13.795  0.7493  1.0261 -0.0980
  895MPD2     H13171   4.157   3.524  13.569 -1.9011 -0.0961  2.6345
  895MPD2    H113172   4.570   3.567  13.661 -0.1651  0.7437  1.1192
  895MPD2    H213173   4.295   3.740  13.916 -1.6089  0.5341 -0.9464
  895MPD2    H313174   4.507   3.687  13.869  2.9321  0.8052 -2.1952
  895MPD2     N13175   4.392   3.487  13.475  0.1484 -0.3271  1.3770
  895MPD2    H513176   4.313   3.452  13.422  1.7278 -0.9496 -0.6070
  895MPD2    N113177   4.072   3.682  13.751  0.5234  0.2079 -0.0981
  895MPD2    H713178   4.001   3.655  13.683  0.5693  1.5373 -0.6876
  896MPD2     C13179   0.729   1.488   1.595 -0.0827 -0.4451  0.4505
  896MPD2    C113180   0.838   1.472   1.511 -0.1495  0.5463  0.0022
  896MPD2    C213181   0.842   1.347   1.443  0.0261 -0.0507 -0.5488
  896MPD2    C313182   0.738   1.261   1.442 -0.7732 -0.5923  0.4535
  896MPD2    C413183   0.622   1.297   1.504  0.1693 -0.0093  0.0496
  896MPD2    C513184   0.621   1.405   1.587 -1.0219 -1.0081  0.3981
  896MPD2     H13185   0.926   1.332   1.375  1.3096  0.7440  0.8427
  896MPD2    H113186   0.535   1.233   1.493 -0.2181  0.6519 -0.7450
  896MPD2    H213187   0.724   1.589   1.635  0.6696 -0.5622  0.8429
  896MPD2    H313188   0.521   1.426   1.624 -2.3427 -3.5219 -1.7413
  896MPD2     N13189   0.752   1.146   1.355 -0.4124  0.0694 -0.0307
  896MPD2    H513190   0.825   1.143   1.284 -0.8583 -1.2141 -0.4321
  896MPD2    N113191   0.936   1.574   1.505  0.0383 -0.3854  0.2434
  896MPD2    H713192   0.934   1.647   1.576  0.3110 -0.1589  0.0213
  897MPD2     C13193   3.248   2.437  10.792  0.2303  0.2518  0.3779
  897MPD2    C113194   3.207   2.564  10.764  0.0193  0.0376 -0.2994
  897MPD2    C213195   3.105   2.621  10.841  0.1012  0.5884  0.4730
  897MPD2    C313196   3.047   2.546  10.938 -0.2740  0.4143  0.1536
  897MPD2    C413197   3.078   2.413  10.962  0.8303 -0.0509  0.0988
  897MPD2    C513198   3.178   2.361  10.882 -0.0312 -0.2847 -0.4129
  897MPD2     H13199   3.070   2.720  10.814  1.2794  1.3857  1.8536
  897MPD2    H113200   3.034   2.343  11.031  1.2815  0.2478  0.6840
  897MPD2    H213201   3.325   2.378  10.743 -0.6851  0.7881 -1.7149
  897MPD2    H313202   3.214   2.259  10.891  1.3803  0.2097 -0.4194
  897MPD2     N13203   2.943   2.619  11.014 -0.2844 -0.4437 -0.1816
  897MPD2    H513204   2.927   2.714  10.981 -0.3843 -0.5513 -0.4486
  897MPD2    N113205   3.266   2.621  10.645  0.2622 -0.2081  0.2127
  897MPD2    H713206   3.322   2.562  10.584  1.0022  0.2821  0.4142
  898MPD2     C13207   4.206   4.057   0.719  0.4686  0.2058 -0.2090
  898MPD2    C113208   4.287   4.171   0.732  0.4726  0.9006  0.2410
  898MPD2    C213209   4.281   4.261   0.626  0.4083  0.3678 -1.0782
  898MPD2    C313210   4.219   4.226   0.508  0.3516  0.4506 -0.4678
  898MPD2    C413211   4.144   4.107   0.499 -0.7418 -0.5342 -0.2116
  898MPD2    C513212   4.131   4.025   0.609 -0.4895 -0.6843  0.0431
  898MPD2     H13213   4.338   4.352   0.632 -1.3485  1.2508  1.8957
  898MPD2    H113214   4.098   4.073   0.406  1.9240 -1.0035 -1.3514
  898MPD2    H213215   4.194   3.980   0.795  0.7244 -0.5943 -0.9775
  898MPD2    H313216   4.078   3.931   0.603  1.1241 -1.5294 -1.0938
  898MPD2     N13217   4.236   4.310   0.387  0.1388  0.4373 -0.0100
  898MPD2    H513218   4.197   4.268   0.303  0.1556  1.4962 -0.5558
  898MPD2    N113219   4.362   4.198   0.851  0.0965 -0.1554 -0.7945
  898MPD2    H713220   4.402   4.291   0.863 -0.6583  0.2838 -1.7162
  899MPD2     C13221   0.790   4.306  17.423 -0.5911  0.2367 -0.1790
  899MPD2    C113222   0.791   4.402  17.522 -0.4185  0.1604 -0.0899
  899MPD2    C213223   0.758   4.372  17.652 -1.0658  0.0342 -1.0784
  899MPD2    C313224   0.707   4.246  17.672 -0.0003 -0.1161 -0.5793
  899MPD2    C413225   0.698   4.149  17.566  0.3243  0.0043  0.4056
  899MPD2    C513226   0.758   4.176  17.447  0.3409 -0.7925  0.8210
  899MPD2     H13227   0.765   4.434  17.740 -1.6839  1.7400 -2.2300
  899MPD2    H113228   0.663   4.048  17.582 -0.7109 -0.0521 -2.3564
  899MPD2    H213229   0.814   4.332  17.321  0.2011  0.9192  0.1811
  899MPD2    H313230   0.763   4.108  17.363  4.4334  0.1259  0.3274
  899MPD2     N13231   0.641   4.198   0.042 -0.3199  0.0094 -0.5856
  899MPD2    H513232   0.605   4.103   0.042 -1.2080  0.3461 -0.6550
  899MPD2    N113233   0.833   4.530  17.487  0.0207  0.1524  0.7331
  899MPD2    H713234   0.848   4.543  17.388  0.8681 -1.1917  0.6915
  900MPD2     C13235   0.985   0.809  12.723  0.6406 -0.7138 -0.2400
  900MPD2    C113236   0.882   0.722  12.749 -0.0549 -0.6631  0.1976
  900MPD2    C213237   0.768   0.731  12.666 -0.4215  0.6586 -0.3291
  900MPD2    C313238   0.743   0.839  12.581  0.2753 -0.1680 -0.0578
  900MPD2    C413239   0.850   0.922  12.554 -0.5530 -0.0801 -1.0208
  900MPD2    C513240   0.966   0.905  12.623 -0.0171 -0.3612  0.4898
  900MPD2     H13241   0.690   0.656  12.673  1.4642 -1.5461 -3.0433
  900MPD2    H113242   0.839   1.001  12.480  1.0219  1.9020  0.8618
  900MPD2    H213243   1.083   0.796  12.769  1.0355  3.0736 -0.0835
  900MPD2    H313244   1.056   0.956  12.590 -1.3755  0.8647 -1.3286
  900MPD2     N13245   0.615   0.842  12.522  0.0995  0.8169 -0.3365
  900MPD2    H513246   0.551   0.775  12.563 -2.3037  0.3128 -5.0384
  900MPD2    N113247   0.899   0.627  12.852 -0.2285 -0.4408  0.5878
  900MPD2    H713248   0.991   0.627  12.894  0.0616  0.8881 -0.0337
  901MPD2     C13249   0.548   4.381  13.192  0.5438  0.0660 -0.2032
  901MPD2    C113250   0.668   4.379  13.128  0.4904 -0.0656 -0.7317
  901MPD2    C213251   0.735   4.499  13.114 -0.7020  0.4603  0.3997
  901MPD2    C313252   0.678   4.624  13.135 -0.1083 -0.0219 -0.3108
  901MPD2    C413253   0.554   4.617  13.192  1.1407 -0.4708 -0.1254
  901MPD2    C513254   0.493   4.499  13.224 -0.4840  0.0475  0.2711
  901MPD2     H13255   0.830   4.501  13.062 -1.9933 -1.7024 -2.0493
  901MPD2    H113256   0.510   4.714  13.208  0.6371 -0.7147 -0.0418
  901MPD2    H213257   0.500   4.290  13.226  0.9239  0.0572  0.3166
  901MPD2    H313258   0.405   4.507  13.286 -2.1307 -0.5515 -2.0049
  901MPD2     N13259   0.747   0.012  13.112  0.8443 -0.1058  0.3978
  901MPD2    H513260   0.845   4.736  13.088  1.0399 -0.1155  1.1998
  901MPD2    N113261   0.736   4.262  13.096 -0.1265  0.1920  0.0193
  901MPD2    H713262   0.834   4.270  13.075 -0.7795  0.5396 -2.8932
  902MPD2     C13263   4.465   4.029  13.949  0.2778 -0.5764 -0.1596
  902MPD2    C113264   4.347   4.045  13.879 -0.2925  0.0523  0.3640
  902MPD2    C213265   4.346   4.026  13.742  0.2912  0.5780 -0.0191
  902MPD2    C313266   4.465   3.998  13.680  0.4122  0.1925  0.3875
  902MPD2    C413267   4.584   3.993  13.754  0.7151 -0.9583 -1.0271
  902MPD2    C513268   4.580   4.006  13.887 -0.3749 -0.1178  0.7947
  902MPD2     H13269   4.252   4.022  13.688  0.6419  1.8901 -0.7314
  902MPD2    H113270   4.672   3.949  13.709  1.7879  0.2645 -0.1592
  902MPD2    H213271   4.467   4.038  14.057  1.9726 -0.0046 -0.2361
  902MPD2    H313272   4.666   3.979  13.946 -0.8316  0.0243  1.5276
  902MPD2     N13273   4.459   3.965  13.544  0.7306  0.8393 -0.8056
  902MPD2    H513274   4.545   3.920  13.514  0.0886 -1.1011  0.2719
  902MPD2    N113275   4.233   4.073  13.952 -0.1562  0.4401  0.0269
  902MPD2    H713276   4.250   4.059  14.051 -0.3660 -0.4456 -0.0604
  903MPD2     C13277   4.452   4.129  12.662 -0.9236 -0.3999  0.3654
  903MPD2    C113278   4.350   4.080  12.744 -0.3568  0.0124  0.4908
  903MPD2    C213279   4.221   4.072  12.693  0.2397 -0.4469 -0.7381
  903MPD2    C313280   4.192   4.137  12.573  0.5030  0.4765 -0.6314
  903MPD2    C413281   4.293   4.200  12.508 -0.0440 -0.4072  0.1544
  903MPD2    C513282   4.422   4.199  12.552 -0.4304  0.5610  0.6933
  903MPD2     H13283   4.146   4.034  12.762  0.3197 -0.3393 -0.5933
  903MPD2    H113284   4.267   4.251  12.416  0.7655 -0.3653 -0.0536
  903MPD2    H213285   4.556   4.139  12.692 -0.4007 -0.3653 -1.4587
  903MPD2    H313286   4.495   4.255  12.495  0.4131 -0.8390  0.3959
  903MPD2     N13287   4.064   4.115  12.524 -0.1419 -0.3284  0.7336
  903MPD2    H513288   4.005   4.050  12.574 -0.4187 -1.1985 -0.7384
  903MPD2    N113289   4.395   4.019  12.867  0.0532 -0.5669 -0.2435
  903MPD2    H713290   4.496   4.018  12.879 -0.0137 -4.8507  0.0534
  904MPD2     C13291   4.208   2.606  14.128  0.1236 -0.6432 -0.3165
  904MPD2    C113292   4.243   2.735  14.152  0.0112  0.7301  0.1575
  904MPD2    C213293   4.365   2.765  14.215 -0.0577 -0.2557 -0.0713
  904MPD2    C313294   4.455   2.664  14.244  0.6551 -0.0145 -0.1572
  904MPD2    C413295   4.417   2.537  14.215  0.1870  0.7631 -0.0830
  904MPD2    C513296   4.293   2.509  14.166  1.0516 -0.7585  0.3150
  904MPD2     H13297   4.401   2.866  14.234 -2.6316  0.8507 -1.1334
  904MPD2    H113298   4.474   2.448  14.239 -3.0803 -1.0690  0.9475
  904MPD2    H213299   4.109   2.574  14.095 -1.5587  1.7701  2.4344
  904MPD2    H313300   4.258   2.407  14.153 -3.1184  0.7205  0.0105
  904MPD2     N13301   4.585   2.704  14.296  0.4594 -0.1421 -0.5907
  904MPD2    H513302   4.605   2.801  14.318 -0.5880 -0.2908  1.0102
  904MPD2    N113303   4.154   2.845  14.123 -0.3668  0.1565 -0.0447
  904MPD2    H713304   4.177   2.935  14.165  0.4349  1.0479 -2.3688
  905MPD2     C13305   3.806   2.973  13.439 -0.6493 -0.3469 -0.1964
  905MPD2    C113306   3.882   3.068  13.501  0.3132  0.4478  1.0490
  905MPD2    C213307   3.982   3.135  13.431  0.9174  0.6966 -0.2250
  905MPD2    C313308   4.005   3.100  13.300 -0.5727 -0.1193  0.4253
  905MPD2    C413309   3.930   2.997  13.242  0.3834 -0.3849  0.4277
  905MPD2    C513310   3.833   2.935  13.309 -0.2867 -0.6282 -0.1351
  905MPD2     H13311   4.042   3.213  13.477 -0.9319  1.3681  1.0458
  905MPD2    H113312   3.951   2.964  13.141 -1.8988 -1.1680  0.2206
  905MPD2    H213313   3.734   2.920  13.500 -3.2470  1.1158 -2.0047
  905MPD2    H313314   3.771   2.853  13.274 -0.4484 -1.7077  2.5872
  905MPD2     N13315   4.103   3.171  13.223  0.0388 -0.4526  0.2826
  905MPD2    H513316   4.124   3.124  13.135 -0.9039  0.4160 -0.4073
  905MPD2    N113317   3.875   3.082  13.644  0.3611  0.1419 -0.1644
  905MPD2    H713318   3.811   3.017  13.689  1.5548  0.0352  1.3734
  906MPD2     C13319   1.826   2.865  11.305  0.2679  0.9817  0.1173
  906MPD2    C113320   1.883   2.807  11.195  0.7971  0.1511  0.0160
  906MPD2    C213321   1.922   2.674  11.208  0.7918  0.4732  0.5858
  906MPD2    C313322   1.892   2.603  11.329 -0.0623 -0.7816  0.7267
  906MPD2    C413323   1.831   2.668  11.438  0.1149  0.1305 -0.0851
  906MPD2    C513324   1.789   2.801  11.418 -0.5162  0.4564  0.0672
  906MPD2     H13325   1.980   2.634  11.125 -0.0224  0.5416 -0.0092
  906MPD2    H113326   1.825   2.622  11.536 -0.6678  0.5278  0.0545
  906MPD2    H213327   1.796   2.968  11.293 -0.2883  0.9843  1.5099
  906MPD2    H313328   1.744   2.858  11.498  0.9941  3.4707 -1.2513
  906MPD2     N13329   1.934   2.468  11.350 -0.0100  0.2054 -0.6945
  906MPD2    H513330   1.917   2.423  11.439  1.8649  2.2746  0.7036
  906MPD2    N113331   1.910   2.879  11.074  0.3477 -0.0278  0.3933
  906MPD2    H713332   1.942   2.823  10.996 -1.4777 -0.5134  0.0032
  907MPD2     C13333   4.676   2.086  16.006  0.3057 -0.9516  0.7011
  907MPD2    C113334   0.033   2.002  15.950 -0.6243 -0.4048 -0.9889
  907MPD2    C213335   0.112   1.935  16.045 -0.5455  0.0201 -0.1909
  907MPD2    C313336   0.114   1.966  16.178 -0.4710 -0.1347  1.0145
  907MPD2    C413337   0.018   2.056  16.229  0.5293 -0.0711  0.3710
  907MPD2    C513338   4.661   2.104  16.142  0.1423  0.3457  0.3013
  907MPD2     H13339   0.196   1.876  16.008  0.4499 -0.3666  2.7000
  907MPD2    H113340   0.010   2.083  16.333 -4.0228  0.1090 -0.0265
  907MPD2    H213341   4.606   2.141  15.945  1.6378  1.6857  1.5512
  907MPD2    H313342   4.580   2.167  16.179 -0.3188 -0.5493  0.8024
  907MPD2     N13343   0.228   1.915  16.248 -0.2118  0.2633 -0.6626
  907MPD2    H513344   0.295   1.859  16.197  0.7998 -0.0663  1.0262
  907MPD2    N113345   0.064   1.995  15.813  0.3153  0.1100 -0.4713
  907MPD2    H713346   0.139   1.932  15.788  0.4152  0.3045 -0.6577
  908MPD2     C13347   3.680   2.306   9.973  0.5747  0.3795  0.4012
  908MPD2    C113348   3.545   2.281   9.990  0.1418  0.2729 -0.3106
  908MPD2    C213349   3.472   2.381  10.057 -0.3913 -0.2193 -0.1005
  908MPD2    C313350   3.539   2.500  10.099  0.2577  0.0210 -0.3508
  908MPD2    C413351   3.662   2.528  10.050 -0.5243 -1.4269 -0.5438
  908MPD2    C513352   3.733   2.428   9.994 -0.5830 -0.7627  0.1289
  908MPD2     H13353   3.370   2.355  10.087 -0.1442  1.6716  2.3401
  908MPD2    H113354   3.707   2.626  10.045 -1.6355 -0.9098 -0.3617
  908MPD2    H213355   3.741   2.225   9.936  1.2253  0.4170  1.4021
  908MPD2    H313356   3.833   2.451   9.958 -1.3356  1.5667 -0.4978
  908MPD2     N13357   3.463   2.596  10.159  0.1054 -0.7915 -0.2167
  908MPD2    H513358   3.378   2.562  10.202  0.1040  0.4632  0.7711
  908MPD2    N113359   3.490   2.157   9.954 -0.7638 -0.3416 -0.4478
  908MPD2    H713360   3.554   2.085   9.923  0.4368 -1.0030  3.7226
  909MPD2     C13361   3.409   0.313  11.723 -0.7113  0.2823 -0.1125
  909MPD2    C113362   3.373   0.432  11.679  0.2657  0.4193 -0.6083
  909MPD2    C213363   3.327   0.534  11.767  0.2663  0.2395 -0.1038
  909MPD2    C313364   3.337   0.514  11.910  0.3778 -0.0161  0.6236
  909MPD2    C413365   3.377   0.390  11.953  1.0279 -0.6191  0.6602
  909MPD2    C513366   3.411   0.300  11.858  0.3761 -0.0952 -0.0093
  909MPD2     H13367   3.277   0.621  11.726  0.3865  0.2308 -0.2673
  909MPD2    H113368   3.371   0.358  12.057 -2.4424  0.0693  0.6690
  909MPD2    H213369   3.437   0.233  11.656  1.5148  1.4497 -0.5442
  909MPD2    H313370   3.447   0.210  11.906  2.0936  0.0310 -1.0656
  909MPD2     N13371   3.300   0.618  11.996  0.2826  0.0024  0.2655
  909MPD2    H513372   3.274   0.708  11.957 -0.4892 -0.2609  0.1752
  909MPD2    N113373   3.402   0.465  11.546  0.2402  0.0410  0.1970
  909MPD2    H713374   3.377   0.556  11.508 -0.2570 -0.1432  0.0793
  910MPD2     C13375   4.356   2.907  16.628 -0.0776  0.3470  0.0259
  910MPD2    C113376   4.399   2.807  16.540 -0.2236 -0.5072  0.0179
  910MPD2    C213377   4.375   2.830  16.403  0.1199  0.0100 -0.0809
  910MPD2    C313378   4.296   2.934  16.357  0.4789  0.4207  0.2525
  910MPD2    C413379   4.259   3.026  16.449 -0.3617  0.7699  0.5668
  910MPD2    C513380   4.285   3.016  16.583  0.2903  0.3904 -0.3361
  910MPD2     H13381   4.406   2.759  16.326  0.3105 -1.8555  1.7096
  910MPD2    H113382   4.203   3.114  16.419  1.7073  1.2423 -1.9477
  910MPD2    H213383   4.368   2.896  16.735  0.5043 -3.3413 -0.4189
  910MPD2    H313384   4.250   3.079  16.664 -2.0152 -1.7662  0.3374
  910MPD2     N13385   4.263   2.965  16.224 -0.2386 -0.3748  0.2459
  910MPD2    H513386   4.215   3.053  16.210 -1.3514 -0.9030  0.7587
  910MPD2    N113387   4.448   2.683  16.580  0.4033 -0.2190  0.6938
  910MPD2    H713388   4.490   2.621  16.512  0.3520  1.9934 -1.3650
  911MPD2     C13389   2.224   3.096  16.409 -0.4824 -0.1142 -0.7060
  911MPD2    C113390   2.312   3.199  16.446  0.2820 -0.2467  0.2014
  911MPD2    C213391   2.275   3.335  16.428 -0.0302 -0.4036  0.5720
  911MPD2    C313392   2.156   3.365  16.367  0.3474  0.2760 -0.7685
  911MPD2    C413393   2.069   3.259  16.323 -0.2844  0.5678  0.3187
  911MPD2    C513394   2.109   3.129  16.343 -0.1325 -0.0585 -0.2172
  911MPD2     H13395   2.339   3.415  16.462  0.7421 -1.2860  1.2079
  911MPD2    H113396   1.973   3.279  16.277 -0.3098  0.8223  0.4831
  911MPD2    H213397   2.251   2.995  16.438 -1.4609  0.1386  1.1143
  911MPD2    H313398   2.056   3.051  16.289 -1.4660  1.0644 -0.5540
  911MPD2     N13399   2.111   3.500  16.348 -0.2838 -0.5937 -0.0713
  911MPD2    H513400   2.021   3.517  16.305  0.3990 -2.0007 -2.0533
  911MPD2    N113401   2.432   3.157  16.496 -0.1283 -0.2487 -0.1138
  911MPD2    H713402   2.434   3.058  16.518  0.2012 -0.1502  0.3077
  912MPD2     C13403   1.814   3.457  15.726 -0.1588 -0.5428 -0.2285
  912MPD2    C113404   1.839   3.442  15.858  0.2400 -0.2211  0.4096
  912MPD2    C213405   1.815   3.317  15.918  1.0663 -0.0660 -0.2449
  912MPD2    C313406   1.777   3.209  15.837 -0.4363 -0.1084  0.3506
  912MPD2    C413407   1.763   3.226  15.703 -0.1098  0.8768 -0.3449
  912MPD2    C513408   1.771   3.347  15.647 -1.5058  0.0732 -0.1231
  912MPD2     H13409   1.840   3.302  16.022  0.6573 -0.3140 -0.1827
  912MPD2    H113410   1.744   3.141  15.639 -2.9342  1.7652 -0.6982
  912MPD2    H213411   1.835   3.552  15.678 -0.6675 -0.6909 -0.7410
  912MPD2    H313412   1.765   3.362  15.540 -1.2779 -1.5785 -0.3755
  912MPD2     N13413   1.755   3.092  15.912  0.4625 -0.2239 -0.6587
  912MPD2    H513414   1.764   3.096  16.013  0.4748 -2.5246 -0.5665
  912MPD2    N113415   1.881   3.559  15.933  0.4873 -0.0823 -0.3558
  912MPD2    H713416   1.888   3.645  15.879 -0.4724 -0.3595 -0.9185
  913MPD2     C13417   2.116   4.232  10.453  0.6784 -0.5926 -0.1430
  913MPD2    C113418   2.219   4.319  10.482 -0.7293 -1.1209  0.3451
  913MPD2    C213419   2.274   4.402  10.383  1.3126 -0.4171 -0.7819
  913MPD2    C313420   2.210   4.417  10.260  0.6135  0.3244 -0.5799
  913MPD2    C413421   2.106   4.324  10.232 -0.0940 -0.5206 -0.4081
  913MPD2    C513422   2.061   4.238  10.325 -0.4130  0.2247  0.1610
  913MPD2     H13423   2.359   4.467  10.401  2.3453 -2.2274  0.9730
  913MPD2    H113424   2.058   4.322  10.135  0.7050 -1.2177 -0.7936
  913MPD2    H213425   2.077   4.153  10.515 -2.5263  0.5956 -0.6259
  913MPD2    H313426   1.986   4.167  10.292  0.2253 -0.3899  0.0323
  913MPD2     N13427   2.250   4.509  10.161 -0.4265  0.4044  0.0627
  913MPD2    H513428   2.212   4.501  10.067 -1.5676 -0.8257  0.6316
  913MPD2    N113429   2.276   4.300  10.611  0.6716  0.2367 -0.3307
  913MPD2    H713430   2.222   4.246  10.678  2.6625 -1.6544 -0.2518
  914MPD2     C13431   0.720   4.416  12.428 -0.4494  0.5609  0.7099
  914MPD2    C113432   0.750   4.452  12.560  0.3986  0.4271  0.1506
  914MPD2    C213433   0.760   4.351  12.652 -0.2330  0.1066 -0.6344
  914MPD2    C313434   0.740   4.224  12.617 -0.4435  0.6330 -0.3521
  914MPD2    C413435   0.695   4.191  12.490  0.5468  0.6277  0.0287
  914MPD2    C513436   0.696   4.290  12.394 -0.7482  0.7611 -0.2826
  914MPD2     H13437   0.774   4.374  12.757 -0.1623 -2.0490 -0.1649
  914MPD2    H113438   0.658   4.094  12.460 -1.0028  0.4181  2.5998
  914MPD2    H213439   0.714   4.494  12.353 -2.8753 -1.7976 -1.5701
  914MPD2    H313440   0.673   4.267  12.290  0.5619  1.7662 -0.7943
  914MPD2     N13441   0.743   4.119  12.712 -0.4506  0.1755  0.1610
  914MPD2    H513442   0.760   4.147  12.808  3.7663 -0.4401 -0.3788
  914MPD2    N113443   0.785   4.583  12.583 -0.2748 -0.5602 -0.7213
  914MPD2    H713444   0.750   4.654  12.520  0.0281  1.0861  0.9398
  915MPD2     C13445   3.475   4.643  15.773  0.1391 -0.6134  0.2359
  915MPD2    C113446   3.396   4.709  15.676  0.2642 -0.4355  0.3762
  915MPD2    C213447   3.282   0.044  15.712 -0.6544  0.1071  0.4023
  915MPD2    C313448   3.261   0.063  15.846 -0.1289 -0.1774 -0.2392
  915MPD2    C413449   3.343   0.008  15.935 -0.3866  0.0551  0.0377
  915MPD2    C513450   3.444   4.657  15.905  0.5465  0.0857  0.6838
  915MPD2     H13451   3.213   0.076  15.635 -0.0570  1.5333  0.4660
  915MPD2    H113452   3.334   0.025  16.041 -0.6483 -0.3474  0.0834
  915MPD2    H213453   3.568   4.591  15.755 -0.2061 -0.8969 -0.6856
  915MPD2    H313454   3.511   4.622  15.983 -0.1598 -0.4773  1.0405
  915MPD2     N13455   3.148   0.148  15.884  0.3591 -0.0323  0.1609
  915MPD2    H513456   3.074   0.176  15.820 -0.4294  0.5943  1.3568
  915MPD2    N113457   3.426   4.711  15.534  0.0004  0.0525  0.3080
  915MPD2    H713458   3.389   0.047  15.475  1.0593 -0.7927 -1.4450
  916MPD2     C13459   1.376   2.811  15.833 -0.4574 -0.5605  0.1005
  916MPD2    C113460   1.410   2.702  15.905  0.2632  0.0809 -0.2027
  916MPD2    C213461   1.499   2.606  15.850  0.2041 -0.3559 -0.2798
  916MPD2    C313462   1.552   2.624  15.724  0.5394  0.2689 -0.1116
  916MPD2    C413463   1.526   2.740  15.659 -0.1585 -0.0983  0.3784
  916MPD2    C513464   1.434   2.826  15.708  0.9775  0.3607 -0.3882
  916MPD2     H13465   1.525   2.517  15.905  0.1725  0.9772  1.9012
  916MPD2    H113466   1.566   2.770  15.564 -1.0615 -0.9614 -0.2772
  916MPD2    H213467   1.301   2.878  15.872 -0.2969 -1.2433  1.5591
  916MPD2    H313468   1.419   2.920  15.656 -2.6636 -0.8142 -1.4011
  916MPD2     N13469   1.643   2.532  15.674 -0.7594 -0.2898 -0.2086
  916MPD2    H513470   1.659   2.452  15.734  2.1143 -0.3347 -1.0087
  916MPD2    N113471   1.344   2.690  16.029 -0.1295 -0.2477  0.0295
  916MPD2    H713472   1.285   2.770  16.049 -1.0520 -1.6671  2.9734
  917MPD2     C13473   1.728   0.212  11.512 -0.4477  0.2019 -0.1109
  917MPD2    C113474   1.810   0.217  11.624  0.1586  0.3872  0.6232
  917MPD2    C213475   1.925   0.292  11.605 -0.1152  0.3908 -0.0210
  917MPD2    C313476   1.960   0.352  11.488  1.0157 -0.0981 -0.1018
  917MPD2    C413477   1.863   0.364  11.391  0.2290 -0.2317  0.4694
  917MPD2    C513478   1.749   0.281  11.401 -1.1706 -0.4244  0.3133
  917MPD2     H13479   1.999   0.290  11.684  0.4830  3.1873 -0.5298
  917MPD2    H113480   1.880   0.431  11.308  2.0686  1.1052  1.9165
  917MPD2    H213481   1.637   0.154  11.522 -0.1686 -0.4651 -1.4826
  917MPD2    H313482   1.670   0.279  11.327  0.3761  0.1530 -1.3632
  917MPD2     N13483   2.081   0.422  11.469  0.1744 -0.2242 -0.7128
  917MPD2    H513484   2.088   0.460  11.376 -2.4321 -0.8524 -1.1916
  917MPD2    N113485   1.779   0.146  11.743  0.2354  0.1695  0.0150
  917MPD2    H713486   1.689   0.098  11.736 -0.6560  1.5214  2.2510
  918MPD2     C13487   1.977   0.455  12.661  0.1120 -0.3355 -0.1139
  918MPD2    C113488   2.064   0.437  12.557 -0.2018  0.8994  0.2304
  918MPD2    C213489   2.025   0.351  12.458  0.0392 -0.5399  0.0239
  918MPD2    C313490   1.915   0.270  12.459  0.8604  0.7789  0.2572
  918MPD2    C413491   1.833   0.283  12.571 -1.1153 -0.0639 -0.2861
  918MPD2    C513492   1.866   0.376  12.671 -0.8370 -0.3424  0.6446
  918MPD2     H13493   2.082   0.354  12.365 -0.9504  0.3901 -0.5589
  918MPD2    H113494   1.745   0.222  12.588 -1.4482  1.1138  2.1587
  918MPD2    H213495   1.981   0.537  12.731 -2.2433 -0.3312  0.0292
  918MPD2    H313496   1.788   0.399  12.743  0.3313  2.5033  1.0225
  918MPD2     N13497   1.891   0.179  12.351  0.2903 -0.2876  0.6604
  918MPD2    H513498   1.954   0.169  12.271  1.4185 -0.7924  1.6066
  918MPD2    N113499   2.188   0.501  12.551 -0.1050  0.3872  0.4927
  918MPD2    H713500   2.241   0.486  12.466  0.6057 -0.1364  1.0303
  919MPD2     C13501   2.644   4.259  11.880  0.7341 -0.1362 -0.3110
  919MPD2    C113502   2.545   4.167  11.861  0.2731 -0.1478  0.2028
  919MPD2    C213503   2.455   4.191  11.759 -0.7446  0.2628 -0.8690
  919MPD2    C313504   2.460   4.309  11.688  0.1460 -0.4138  0.5226
  919MPD2    C413505   2.560   4.402  11.707 -0.0048  0.2680  0.2113
  919MPD2    C513506   2.657   4.373  11.802  0.0817  0.1535 -0.2173
  919MPD2     H13507   2.374   4.119  11.749  0.3319 -0.7137 -2.5974
  919MPD2    H113508   2.576   4.492  11.649  0.2828  1.0674  1.5317
  919MPD2    H213509   2.725   4.234  11.947 -1.5224  0.6175  2.6990
  919MPD2    H313510   2.723   4.457  11.823  2.0560 -0.7687 -2.6659
  919MPD2     N13511   2.369   4.332  11.580  0.1518  0.0037 -0.0959
  919MPD2    H513512   2.393   4.405  11.513  1.7152 -0.7228 -0.3197
  919MPD2    N113513   2.540   4.041  11.923  0.9130  0.3218 -0.2122
  919MPD2    H713514   2.460   3.984  11.897  1.3978  0.2386 -1.5643
  920MPD2     C13515   2.213   4.669  10.655 -0.5065  0.2180  0.1159
  920MPD2    C113516   2.091   4.601  10.681 -0.8416  0.5972 -0.0178
  920MPD2    C213517   2.069   4.554  10.809 -0.1725  0.7196 -0.0992
  920MPD2    C313518   2.172   4.562  10.901 -0.1893 -0.0139  0.0047
  920MPD2    C413519   2.293   4.623  10.877  0.0171  0.3730 -0.1003
  920MPD2    C513520   2.313   4.676  10.752 -0.6374 -0.2617  0.0457
  920MPD2     H13521   1.978   4.505  10.838  0.5410 -0.2511  0.4849
  920MPD2    H113522   2.378   4.610  10.942  0.8572 -2.6754 -1.8006
  920MPD2    H213523   2.230   4.711  10.556  0.7458  0.0359  0.2511
  920MPD2    H313524   2.407   4.719  10.720  0.6656 -2.7142  0.5130
  920MPD2     N13525   2.155   4.491  11.023  0.4405 -0.1551 -0.1062
  920MPD2    H513526   2.068   4.439  11.013 -0.1428  0.6966  0.4958
  920MPD2    N113527   1.982   4.586  10.591 -0.1152  0.5236  0.1565
  920MPD2    H713528   1.904   4.525  10.612 -0.2165  0.7028  0.3011
  921MPD2     C13529   3.247   3.521  16.930 -0.4051  0.2983  0.9339
  921MPD2    C113530   3.254   3.459  16.813  0.0374  0.1751  0.6357
  921MPD2    C213531   3.143   3.387  16.777  0.2444  0.5161 -0.2538
  921MPD2    C313532   3.047   3.348  16.875  0.1985 -0.8192  0.2007
  921MPD2    C413533   3.051   3.400  16.998 -0.2282  0.1737 -0.6729
  921MPD2    C513534   3.144   3.499  17.024  0.1961  0.2063  0.2500
  921MPD2     H13535   3.126   3.374  16.671 -3.2451  0.6626  0.3025
  921MPD2    H113536   2.980   3.374  17.076 -0.2682  2.4949  0.0808
  921MPD2    H213537   3.327   3.587  16.961 -0.3803  0.6305  0.1623
  921MPD2    H313538   3.145   3.551  17.119  2.3209 -1.8596  1.3348
  921MPD2     N13539   2.937   3.268  16.840  0.2210 -0.5665  0.4745
  921MPD2    H513540   2.852   3.260  16.896 -1.4603 -0.5156 -2.0389
  921MPD2    N113541   3.355   3.482  16.717  0.0617  0.5122 -0.2123
  921MPD2    H713542   3.349   3.432  16.629 -0.2344 -0.0320  0.1158
  922MPD2     C13543   2.815   1.049  17.432 -0.2340 -0.0600 -0.4200
  922MPD2    C113544   2.913   1.060  17.339  0.2583 -0.0435  0.0325
  922MPD2    C213545   2.907   0.987  17.226  0.2555 -0.3554 -0.1101
  922MPD2    C313546   2.811   0.897  17.205 -0.6668 -0.0444  0.3661
  922MPD2    C413547   2.714   0.877  17.303  0.4834 -0.1239 -0.7917
  922MPD2    C513548   2.718   0.953  17.415 -0.1227  0.1594  0.0828
  922MPD2     H13549   2.991   1.005  17.160 -1.2175  0.0562 -1.8898
  922MPD2    H113550   2.640   0.798  17.299 -1.9654  2.0734  0.6731
  922MPD2    H213551   2.813   1.113  17.520  2.7825  0.3665 -0.6770
  922MPD2    H313552   2.656   0.944  17.504  0.7152  4.0144  1.0381
  922MPD2     N13553   2.802   0.840  17.076  0.2884 -0.4593  0.0592
  922MPD2    H513554   2.883   0.854  17.017  0.2319  1.4802  0.4292
  922MPD2    N113555   3.017   1.153  17.347  0.5512 -0.2640  0.2907
  922MPD2    H713556   3.077   1.156  17.266 -0.8997  1.4419 -0.7024
  923MPD2     C13557   0.249   3.241   9.969  0.1961  0.2035  0.7919
  923MPD2    C113558   0.292   3.354   9.901 -0.6815  0.2193  0.2385
  923MPD2    C213559   0.378   3.336   9.789 -0.5027  0.0027 -0.2488
  923MPD2    C313560   0.424   3.212   9.747  0.4507  0.2753  0.2531
  923MPD2    C413561   0.382   3.110   9.834  0.5879  0.0249  0.0801
  923MPD2    C513562   0.293   3.117   9.934  0.4150  0.4802 -0.0258
  923MPD2     H13563   0.416   3.422   9.735  1.3346 -1.9439 -2.0472
  923MPD2    H113564   0.409   3.007   9.815 -0.7345 -0.4967  1.0610
  923MPD2    H213565   0.179   3.237  10.051  0.9911  0.8460  1.4993
  923MPD2    H313566   0.260   3.036   9.998  1.9052  0.4600  0.7235
  923MPD2     N13567   0.500   3.189   9.631 -0.2396 -0.6133 -0.2902
  923MPD2    H513568   0.546   3.098   9.631  1.0158  0.0123 -1.0593
  923MPD2    N113569   0.234   3.477   9.942 -0.3528  0.4143  0.5241
  923MPD2    H713570   0.161   3.465  10.011  0.4293 -1.9498  0.9264
  924MPD2     C13571   0.751   1.311  16.478 -0.1449 -0.3669  0.4598
  924MPD2    C113572   0.637   1.378  16.438  0.6559  0.6465 -0.6188
  924MPD2    C213573   0.646   1.502  16.385  0.4651  0.3766 -0.2365
  924MPD2    C313574   0.768   1.563  16.359 -0.1774 -0.3647 -0.9592
  924MPD2    C413575   0.877   1.490  16.394 -0.2201  0.8005  0.6922
  924MPD2    C513576   0.874   1.364  16.452  0.3089  0.3662  0.0670
  924MPD2     H13577   0.556   1.560  16.371 -0.1880 -0.9869 -1.6626
  924MPD2    H113578   0.969   1.548  16.386 -0.0086  0.1318 -1.6542
  924MPD2    H213579   0.742   1.211  16.518  0.0114 -1.1611 -1.4632
  924MPD2    H313580   0.963   1.318  16.494 -0.5469 -1.5758 -0.2386
  924MPD2     N13581   0.783   1.696  16.306 -0.6684 -0.3830  0.7874
  924MPD2    H513582   0.879   1.707  16.274 -1.3067 -1.0359 -1.3668
  924MPD2    N113583   0.512   1.323  16.470 -0.9555 -0.4046  0.3443
  924MPD2    H713584   0.499   1.234  16.517 -0.5417 -1.3612 -1.3820
  925MPD2     C13585   4.293   4.035  15.090 -0.9486 -0.4740  0.2094
  925MPD2    C113586   4.168   4.084  15.047  0.1813 -0.2549 -0.2386
  925MPD2    C213587   4.084   4.152  15.129 -0.1659 -0.7039  0.2585
  925MPD2    C313588   4.127   4.165  15.259 -0.5004 -0.2079  0.2987
  925MPD2    C413589   4.247   4.119  15.300  0.3523 -0.7140  0.9037
  925MPD2    C513590   4.333   4.050  15.220 -0.3769  0.3788 -0.2448
  925MPD2     H13591   3.985   4.187  15.104 -0.5030 -1.3607  0.6625
  925MPD2    H113592   4.265   4.129  15.407  0.5667  0.3515  0.7674
  925MPD2    H213593   4.348   3.972  15.022  1.2408 -0.3816  1.9078
  925MPD2    H313594   4.431   4.021  15.255  0.1422  1.6504 -0.6381
  925MPD2     N13595   4.057   4.241  15.355 -0.3088  0.3397  0.8761
  925MPD2    H513596   4.107   4.256  15.441  1.5765  0.4871 -0.2437
  925MPD2    N113597   4.106   4.043  14.923  0.3060  0.4610 -0.0575
  925MPD2    H713598   4.006   4.058  14.909 -0.1735 -0.3610  2.4948
  926MPD2     C13599   2.576   2.084  13.216 -0.3687 -0.9854  0.3002
  926MPD2    C113600   2.652   2.192  13.252 -0.7030  0.1981 -0.0318
  926MPD2    C213601   2.767   2.217  13.179 -0.2211  0.3721  0.0399
  926MPD2    C313602   2.810   2.140  13.077  0.4895  1.0442 -0.4119
  926MPD2    C413603   2.737   2.022  13.048 -0.3809  0.0285  0.5150
  926MPD2    C513604   2.619   2.001  13.116  0.7198 -0.0387 -0.4292
  926MPD2     H13605   2.827   2.305  13.198 -1.3874  0.7578  1.9771
  926MPD2    H113606   2.764   1.945  12.977 -0.6242  0.0900  0.3583
  926MPD2    H213607   2.482   2.058  13.263 -0.5637  0.0535  0.4721
  926MPD2    H313608   2.561   1.916  13.082  2.9367 -1.3773 -0.8580
  926MPD2     N13609   2.934   2.156  13.007  0.6193 -0.1745  0.7508
  926MPD2    H513610   2.949   2.086  12.935 -0.3847 -0.0823  0.4502
  926MPD2    N113611   2.618   2.287  13.346  0.9381  0.9157  0.2808
  926MPD2    H713612   2.678   2.367  13.365  1.7563  0.2823  0.3433
  927MPD2     C13613   2.411   4.591   0.617  0.3604  0.4803  0.9214
  927MPD2    C113614   2.380   4.713   0.561 -0.3395  0.8247  0.8654
  927MPD2    C213615   2.434   0.013   0.439 -0.1089  0.2943  0.6610
  927MPD2    C313616   2.521   4.664   0.383 -0.0105  1.1475  0.2455
  927MPD2    C413617   2.558   4.545   0.443 -0.8836 -0.2608 -0.4995
  927MPD2    C513618   2.499   4.508   0.555  0.6862  0.4944  0.3146
  927MPD2     H13619   2.406   0.100   0.380  2.2988  0.1570 -0.6874
  927MPD2    H113620   2.633   4.480   0.400 -0.5285  0.3781 -0.8453
  927MPD2    H213621   2.373   4.561   0.714 -0.3951 -0.1569  0.4292
  927MPD2    H313622   2.510   4.412   0.604 -0.7679 -1.0728 -2.4514
  927MPD2     N13623   2.577   4.706   0.257 -0.0182 -0.1250 -0.0280
  927MPD2    H513624   2.530   0.050   0.218  1.8355  0.1998 -1.5451
  927MPD2    N113625   2.292   0.057   0.637 -0.1568  0.1090 -0.6749
  927MPD2    H713626   2.257   0.025   0.727 -2.7929  2.5451 -0.8312
  928MPD2     C13627   4.522   2.772   0.485 -0.8971  0.9860  0.2753
  928MPD2    C113628   4.571   2.881   0.555  0.3809  0.3884 -0.4287
  928MPD2    C213629   4.704   2.925   0.523  0.0010 -0.3005  0.2244
  928MPD2    C313630   0.051   2.844   0.451  0.2797 -0.4759  0.6613
  928MPD2    C413631   4.737   2.734   0.384 -0.8692 -0.4011 -0.3967
  928MPD2    C513632   4.606   2.702   0.400 -0.0800 -0.3792 -0.6741
  928MPD2     H13633   0.007   3.014   0.569 -0.3865  0.9884 -1.9338
  928MPD2    H113634   0.061   2.668   0.323 -0.9075  0.8309 -1.7576
  928MPD2    H213635   4.420   2.737   0.494 -0.1972 -1.3681 -1.0508
  928MPD2    H313636   4.564   2.613   0.356  0.9335 -0.8383 -0.6981
  928MPD2     N13637   0.189   2.870   0.433 -0.5859  0.0725  0.3512
  928MPD2    H513638   0.236   2.812   0.364 -1.1829 -1.9320  1.6074
  928MPD2    N113639   4.478   2.948   0.637  0.1866 -0.1173  0.4445
  928MPD2    H713640   4.384   2.915   0.652  0.1151 -0.2799 -0.3752
  929MPD2     C13641   0.970   2.849  10.179  0.4736  0.2140  0.4424
  929MPD2    C113642   0.879   2.787  10.260 -0.5344  0.5016  0.7759
  929MPD2    C213643   0.747   2.832  10.277 -0.8436 -0.0126  0.4478
  929MPD2    C313644   0.698   2.937  10.200  0.4339 -0.3188 -1.0466
  929MPD2    C413645   0.791   3.004  10.119 -0.2412  0.0100 -0.1462
  929MPD2    C513646   0.917   2.954  10.101 -0.2998  0.3179 -0.3323
  929MPD2     H13647   0.687   2.814  10.366  0.1658 -2.8906  0.5631
  929MPD2    H113648   0.772   3.092  10.058 -0.8559  0.3182  0.4946
  929MPD2    H213649   1.075   2.822  10.175  0.0185 -1.1198 -2.8232
  929MPD2    H313650   0.992   3.014  10.051  1.6110 -0.4701  1.5742
  929MPD2     N13651   0.569   2.999  10.225 -0.3192  0.1974  0.9175
  929MPD2    H513652   0.548   3.083  10.172 -1.3937  0.7699  2.2534
  929MPD2    N113653   0.925   2.697  10.360  0.8391 -0.0594  0.0438
  929MPD2    H713654   1.026   2.692  10.368  0.9624 -0.8104 -1.8662
  930MPD2     C13655   2.472   0.692  14.136 -0.4304 -0.1090  0.2308
  930MPD2    C113656   2.543   0.686  14.016 -0.3670  0.8495  0.3359
  930MPD2    C213657   2.516   0.573  13.940 -0.3369  0.1731  0.0273
  930MPD2    C313658   2.418   0.482  13.972 -0.1020 -0.7897  0.1329
  930MPD2    C413659   2.343   0.500  14.083 -0.1280  0.3389 -0.0357
  930MPD2    C513660   2.370   0.604  14.169  0.4659  0.5856  0.1790
  930MPD2     H13661   2.568   0.563  13.846 -3.7667  0.3716 -1.9226
  930MPD2    H113662   2.261   0.430  14.096 -0.2965  0.5265 -0.0999
  930MPD2    H213663   2.496   0.767  14.211  1.7280 -1.1996  0.6303
  930MPD2    H313664   2.318   0.618  14.263  2.1778 -1.0424  1.4009
  930MPD2     N13665   2.389   0.369  13.892 -0.3343 -0.1258 -0.4571
  930MPD2    H513666   2.294   0.334  13.896  0.0792 -1.3394 -1.2697
  930MPD2    N113667   2.634   0.790  13.973  0.0685  0.6778 -0.3832
  930MPD2    H713668   2.665   0.857  14.042  0.2070 -0.0733  0.2800
  931MPD2     C13669   1.644   0.242   1.188 -0.7299  0.2372 -0.3500
  931MPD2    C113670   1.763   0.183   1.147 -0.0667 -0.1879  0.6116
  931MPD2    C213671   1.829   0.086   1.235  0.4168 -0.7884 -0.0685
  931MPD2    C313672   1.759   0.032   1.344 -0.1562 -0.3301  0.6751
  931MPD2    C413673   1.629   0.084   1.364  0.6254 -0.4033 -0.3399
  931MPD2    C513674   1.575   0.180   1.285  0.4634  0.3831  0.5473
  931MPD2     H13675   1.919   0.031   1.209  0.4803 -0.8433  0.2676
  931MPD2    H113676   1.560   0.046   1.439  1.8854  0.9712  1.5315
  931MPD2    H213677   1.600   0.326   1.134 -1.1169  0.9885  1.1424
  931MPD2    H313678   1.478   0.220   1.311  0.6916  1.8976 -0.9707
  931MPD2     N13679   1.805   4.671   1.435  0.7623 -0.1981 -0.0987
  931MPD2    H513680   1.739   4.650   1.509  2.1010  2.3082  1.7903
  931MPD2    N113681   1.827   0.237   1.036 -0.0754  0.0872  0.5582
  931MPD2    H713682   1.781   0.310   0.984 -0.1231 -1.0983 -1.0739
  932MPD2     C13683   0.019   3.553  11.746  0.3292 -0.4295 -0.3109
  932MPD2    C113684   4.704   3.610  11.866  0.3479 -1.0681  0.2069
  932MPD2    C213685   4.703   3.534  11.978  0.4918 -0.5410 -0.0898
  932MPD2    C313686   0.022   3.413  11.985  0.5283  0.3264  0.4827
  932MPD2    C413687   0.081   3.367  11.872  0.0179 -0.3432 -0.0216
  932MPD2    C513688   0.077   3.431  11.753 -0.2765  0.0845 -0.1665
  932MPD2     H13689   4.661   3.576  12.069  2.0314  0.5899  0.1100
  932MPD2    H113690   0.130   3.270  11.873 -0.8847 -0.8087 -0.4614
  932MPD2    H213691   0.032   3.610  11.656 -0.8323  1.9874  1.0570
  932MPD2    H313692   0.131   3.387  11.669  0.3953  1.0504 -0.2353
  932MPD2     N13693   0.020   3.328  12.098 -0.6181  0.0204  0.0386
  932MPD2    H513694   0.085   3.250  12.101 -2.7292 -1.8039 -1.5635
  932MPD2    N113695   4.651   3.742  11.872 -0.5265 -0.5338  0.5417
  932MPD2    H713696   4.620   3.781  11.961 -0.4273 -0.6758  0.6372
  933MPD2     C13697   3.982   3.308   0.451  0.6643  0.8803  0.5380
  933MPD2    C113698   4.017   3.371   0.567 -0.0584  0.2624 -0.3123
  933MPD2    C213699   3.951   3.486   0.599 -0.0773 -0.4443  0.7348
  933MPD2    C313700   3.846   3.536   0.534  0.6258 -0.4738 -0.2116
  933MPD2    C413701   3.803   3.469   0.420  0.3553  0.0017 -0.0697
  933MPD2    C513702   3.880   3.366   0.372 -0.1147 -0.6814  1.0365
  933MPD2     H13703   3.964   3.537   0.693  1.2420  2.6508 -1.1121
  933MPD2    H113704   3.717   3.497   0.360  0.7070 -0.6017 -0.8609
  933MPD2    H213705   4.025   3.218   0.409 -1.4837 -0.0209  0.2492
  933MPD2    H313706   3.848   3.321   0.278  0.2990 -1.2530  1.1713
  933MPD2     N13707   3.792   3.660   0.583  0.0619 -0.6517  0.0599
  933MPD2    H513708   3.832   3.691   0.670 -0.4374 -0.7751  0.3354
  933MPD2    N113709   4.114   3.298   0.648 -0.2315  0.3057 -0.2489
  933MPD2    H713710   4.154   3.219   0.599 -2.4964 -0.1179 -1.4386
  934MPD2     C13711   0.987   0.810   2.233  0.0551 -0.5706  0.0053
  934MPD2    C113712   0.952   0.896   2.132 -0.8673  0.4802  0.3704
  934MPD2    C213713   0.881   0.846   2.026  0.1669  0.3682 -0.5253
  934MPD2    C313714   0.848   0.711   2.017  0.2437  0.0900 -0.0961
  934MPD2    C413715   0.893   0.626   2.120  0.6123 -0.5016 -0.0111
  934MPD2    C513716   0.952   0.682   2.228 -0.2491  0.2313 -0.4296
  934MPD2     H13717   0.849   0.909   1.945 -1.9473 -1.6805 -1.2964
  934MPD2    H113718   0.872   0.520   2.109 -0.0630 -0.1053 -2.6435
  934MPD2    H213719   1.030   0.841   2.327  2.6344  4.3155 -2.8079
  934MPD2    H313720   0.984   0.621   2.311  0.3073  1.9789  0.6503
  934MPD2     N13721   0.785   0.648   1.913  0.0016  0.5062  0.2105
  934MPD2    H513722   0.783   0.546   1.914  0.0278  0.5144  1.0574
  934MPD2    N113723   0.985   1.033   2.135  0.4206 -0.4088  0.4588
  934MPD2    H713724   0.986   1.087   2.050 -0.1383  0.2011  0.8386
  935MPD2     C13725   1.013   4.626   1.644  0.2545 -1.0140  0.4769
  935MPD2    C113726   0.951   4.671   1.535 -0.0360  0.6251  0.3295
  935MPD2    C213727   0.870   0.045   1.539  0.2439  0.3909  0.2917
  935MPD2    C313728   0.845   0.098   1.662  0.0226  0.3255  0.1579
  935MPD2    C413729   0.897   0.042   1.783 -0.4342  0.3763  0.3216
  935MPD2    C513730   0.992   4.685   1.769 -0.3085 -0.0851  0.2340
  935MPD2     H13731   0.812   0.074   1.452  2.0543  1.3180 -0.5928
  935MPD2    H113732   0.878   0.078   1.883  0.3531  0.9102  0.2834
  935MPD2    H213733   1.069   4.534   1.646 -0.6571 -1.6050 -2.0168
  935MPD2    H313734   1.049   4.648   1.853  0.7562  1.1408  0.0546
  935MPD2     N13735   0.755   0.209   1.686 -0.4065 -0.1655 -0.4357
  935MPD2    H513736   0.758   0.250   1.779 -0.6950  1.4312 -1.1239
  935MPD2    N113737   0.984   4.618   1.405 -0.1578 -0.0126  0.1039
  935MPD2    H713738   0.939   4.656   1.323 -0.5133 -0.0814  0.2660
  936MPD2     C13739   0.476   2.272  12.848  0.1961 -0.0555 -0.0595
  936MPD2    C113740   0.534   2.195  12.756 -0.4565  0.5210  0.7600
  936MPD2    C213741   0.666   2.179  12.747  0.7172  0.3867 -0.6546
  936MPD2    C313742   0.752   2.237  12.834  0.4456 -0.2821 -0.1122
  936MPD2    C413743   0.695   2.317  12.936  0.2315 -0.0262 -0.0438
  936MPD2    C513744   0.558   2.329  12.945  0.3570 -0.1779 -0.0604
  936MPD2     H13745   0.707   2.112  12.672 -0.4986 -1.4622  0.3333
  936MPD2    H113746   0.746   2.366  13.018  2.9169 -1.1149 -1.0666
  936MPD2    H213747   0.370   2.262  12.865  0.3174  0.2060  0.8742
  936MPD2    H313748   0.509   2.384  13.025  0.3556 -1.3906  0.7746
  936MPD2     N13749   0.890   2.229  12.818 -0.3494  0.2107  0.2272
  936MPD2    H513750   0.925   2.170  12.743  1.9286 -2.5772  3.4711
  936MPD2    N113751   0.472   2.132  12.648  0.6870  0.3748 -0.5565
  936MPD2    H713752   0.541   2.086  12.589  0.5336  2.1687 -2.1243
  937MPD2     C13753   2.829   3.365  11.612  0.6379 -0.5642 -0.0902
  937MPD2    C113754   2.837   3.500  11.629  0.6331  0.1263 -0.0390
  937MPD2    C213755   2.872   3.571  11.513  0.0326  0.3306 -0.6383
  937MPD2    C313756   2.936   3.500  11.410 -0.2453 -0.4043 -0.0931
  937MPD2    C413757   2.931   3.369  11.404 -0.1104  0.2988  0.0947
  937MPD2    C513758   2.860   3.300  11.497  0.0589 -1.2490  0.1691
  937MPD2     H13759   2.881   3.678  11.505 -1.2758  0.4365 -0.7561
  937MPD2    H113760   2.987   3.323  11.323 -0.9606  0.9089 -0.8333
  937MPD2    H213761   2.777   3.304  11.685 -0.3076  2.5192  1.7824
  937MPD2    H313762   2.839   3.194  11.487 -0.0206 -1.1729 -0.4607
  937MPD2     N13763   2.990   3.578  11.310  0.7440  0.7213  0.3531
  937MPD2    H513764   2.971   3.677  11.302  1.5038  0.8901  0.6328
  937MPD2    N113765   2.765   3.570  11.731 -0.1133  0.3749 -0.5637
  937MPD2    H713766   2.738   3.665  11.710  0.2191 -0.0835 -3.0538
  938MPD2     C13767   0.208   4.339   0.818  0.5842 -0.2680 -0.6951
  938MPD2    C113768   0.157   4.432   0.905 -0.9889 -0.1915  0.1347
  938MPD2    C213769   0.186   4.429   1.043 -0.0896 -1.0959  0.1964
  938MPD2    C313770   0.254   4.321   1.102 -0.1788  0.8624 -0.6994
  938MPD2    C413771   0.296   4.221   1.009  0.4675 -0.4250 -0.1289
  938MPD2    C513772   0.274   4.237   0.877  0.2296  0.6362 -0.2436
  938MPD2     H13773   0.158   4.517   1.099 -0.4930 -0.5935 -0.7896
  938MPD2    H113774   0.349   4.133   1.043 -0.9962 -0.6369  1.6109
  938MPD2    H213775   0.192   4.342   0.711  1.6654 -0.4659 -0.8626
  938MPD2    H313776   0.302   4.150   0.819  1.9214  0.1873  1.2494
  938MPD2     N13777   0.262   4.306   1.246  0.0794 -0.2301 -0.0902
  938MPD2    H513778   0.297   4.218   1.284  0.1513 -0.0404  0.2777
  938MPD2    N113779   0.095   4.543   0.853 -0.0464 -0.3856  0.5271
  938MPD2    H713780   0.097   4.616   0.923  2.1908  0.5350 -0.4748
  939MPD2     C13781   1.669   1.546   0.766  0.1740 -0.1169 -0.1186
  939MPD2    C113782   1.798   1.585   0.802  0.1741  0.0983  0.9320
  939MPD2    C213783   1.908   1.543   0.721 -0.2120 -0.0114  0.2498
  939MPD2    C313784   1.885   1.458   0.607  0.0678  0.1329  0.6506
  939MPD2    C413785   1.755   1.413   0.586  0.3157  0.0206 -0.0612
  939MPD2    C513786   1.656   1.452   0.668  1.0100 -0.0599  0.6854
  939MPD2     H13787   2.011   1.572   0.740  0.0485 -0.5945 -0.2870
  939MPD2    H113788   1.730   1.347   0.504  0.4080  2.6135 -2.1550
  939MPD2    H213789   1.588   1.577   0.830 -0.1401 -2.3994  0.6011
  939MPD2    H313790   1.554   1.417   0.655  0.6454  0.3218  2.5617
  939MPD2     N13791   1.991   1.427   0.524 -0.9595  0.4119 -0.0915
  939MPD2    H513792   2.082   1.465   0.549 -0.7347 -0.4984  0.5045
  939MPD2    N113793   1.805   1.666   0.912 -0.3500 -0.1089 -0.1388
  939MPD2    H713794   1.716   1.673   0.959 -1.0957  0.6130 -1.6714
  940MPD2     C13795   0.040   2.141  13.156  0.1349 -0.0129 -0.5419
  940MPD2    C113796   0.137   2.136  13.253  0.1265 -0.5948  1.0495
  940MPD2    C213797   0.269   2.107  13.226  0.8604  0.4403 -0.0827
  940MPD2    C313798   0.294   2.074  13.092  0.2254 -0.5885  0.2894
  940MPD2    C413799   0.198   2.069  12.998  0.7839  0.6800 -0.4784
  940MPD2    C513800   0.072   2.107  13.031  0.3460 -0.4600 -0.4421
  940MPD2     H13801   0.350   2.127  13.295 -0.2292  1.0288  1.0170
  940MPD2    H113802   0.222   2.032  12.900 -0.3597 -0.7208 -0.2188
  940MPD2    H213803   4.674   2.165  13.177  0.4265 -0.0708  1.0046
  940MPD2    H313804   4.732   2.115  12.956  0.9602  2.2608 -0.7832
  940MPD2     N13805   0.423   2.046  13.046 -0.0682  0.4290  0.2594
  940MPD2    H513806   0.435   2.038  12.945 -0.5128  3.0368 -0.0011
  940MPD2    N113807   0.110   2.169  13.385  0.6905  0.4471 -0.0715
  940MPD2    H713808   0.192   2.158  13.445  1.3885  1.0677 -0.9158
  941MPD2     C13809   4.560   1.183  10.043 -0.1006 -0.3240 -0.7118
  941MPD2    C113810   4.655   1.151  10.130 -0.1590 -0.5124 -0.2536
  941MPD2    C213811   4.621   1.057  10.227  0.8281  0.6649 -0.1677
  941MPD2    C313812   4.495   0.997  10.232 -0.3145  0.8485  0.1771
  941MPD2    C413813   4.403   1.037  10.136  0.9709  0.2127  0.2863
  941MPD2    C513814   4.434   1.129  10.043  0.2253 -0.1033  0.3057
  941MPD2     H13815   4.682   1.050  10.316  0.2266 -2.2727  0.0056
  941MPD2    H113816   4.299   1.005  10.141  1.0455 -0.4467 -2.3243
  941MPD2    H213817   4.573   1.259   9.967  1.6571 -0.8858 -0.9652
  941MPD2    H313818   4.363   1.173   9.974  0.0923  2.0786  1.8400
  941MPD2     N13819   4.456   0.901  10.331  0.2553 -0.0339  0.4696
  941MPD2    H513820   4.365   0.863  10.307  0.2828  1.8170 -2.4775
  941MPD2    N113821   0.046   1.221  10.133  0.0269 -0.0752  0.7960
  941MPD2    H713822   0.106   1.183  10.206  0.3946 -1.6676 -0.3610
  942MPD2     C13823   0.072   2.640  10.229 -0.6987  0.2358  0.8892
  942MPD2    C113824   4.688   2.705  10.222 -0.2953 -0.2999 -0.6449
  942MPD2    C213825   4.680   2.813  10.127  0.6695  0.1087 -0.8420
  942MPD2    C313826   0.050   2.845  10.042 -0.1093  0.8305  0.0066
  942MPD2    C413827   0.165   2.770  10.064 -0.7854  0.5227  0.3684
  942MPD2    C513828   0.177   2.670  10.148 -0.6708  0.0585  0.5278
  942MPD2     H13829   4.583   2.862  10.132  0.4782 -0.1944 -1.6306
  942MPD2    H113830   0.255   2.777  10.004 -1.2083  0.4000 -0.2827
  942MPD2    H213831   0.091   2.574  10.313 -0.7180  0.4559  1.0670
  942MPD2    H313832   0.277   2.629  10.155 -0.6701  0.2656  1.7038
  942MPD2     N13833   0.039   2.939   9.938  0.0260  0.0337 -0.1137
  942MPD2    H513834   0.116   2.934   9.872 -1.5634  3.1114 -2.1834
  942MPD2    N113835   4.565   2.660  10.283 -0.8486  0.5231  0.2619
  942MPD2    H713836   4.486   2.719  10.260  0.4677  2.3259  0.3279
  943MPD2     C13837   3.467   1.264   9.918  0.5680  0.0908  0.3990
  943MPD2    C113838   3.416   1.149   9.976 -0.3885  0.4334 -0.7066
  943MPD2    C213839   3.466   1.119  10.101 -0.4015  0.4244 -0.1805
  943MPD2    C313840   3.548   1.201  10.172 -0.5980  0.0561  0.5161
  943MPD2    C413841   3.596   1.319  10.107  0.4062 -0.5603  0.8369
  943MPD2    C513842   3.562   1.349   9.979  0.0307  0.0256  0.1527
  943MPD2     H13843   3.423   1.035  10.154  1.9157 -2.1160 -2.3180
  943MPD2    H113844   3.649   1.397  10.159 -1.7629  1.5564 -0.1308
  943MPD2    H213845   3.432   1.289   9.819 -1.5023  0.1237  1.1298
  943MPD2    H313846   3.595   1.433   9.920 -0.7699 -0.0955 -0.4681
  943MPD2     N13847   3.585   1.184  10.310 -0.4008 -0.1727  0.0681
  943MPD2    H513848   3.624   1.270  10.347 -0.8261 -0.6287  1.6194
  943MPD2    N113849   3.328   1.064   9.901  0.1692  1.0302  0.6051
  943MPD2    H713850   3.301   1.095   9.808 -3.0425 -1.9886  0.5520
  944MPD2     C13851   3.195   0.353  11.123  0.8539  0.2298  0.3786
  944MPD2    C113852   3.177   0.309  11.246 -0.1926  0.3695  0.2774
  944MPD2    C213853   3.123   0.396  11.346 -0.3222  0.2877  0.2401
  944MPD2    C313854   3.090   0.526  11.317 -1.0912  0.3223  0.6362
  944MPD2    C413855   3.109   0.574  11.186 -0.0663 -0.1700 -0.1107
  944MPD2    C513856   3.160   0.486  11.098 -0.5578 -0.7102 -0.3468
  944MPD2     H13857   3.098   0.365  11.447 -0.2971  2.0625  0.8014
  944MPD2    H113858   3.107   0.677  11.153 -2.4211 -0.0939  0.3135
  944MPD2    H213859   3.242   0.294  11.045  0.1731  0.4505 -0.1961
  944MPD2    H313860   3.187   0.534  11.004  3.2191  1.1050  1.6887
  944MPD2     N13861   3.019   0.597  11.413 -0.2626 -0.0125  0.5054
  944MPD2    H513862   2.995   0.553  11.502 -1.2127  0.2895  0.4032
  944MPD2    N113863   3.231   0.181  11.280  0.2857  0.1575 -0.0596
  944MPD2    H713864   3.288   0.136  11.210  2.2965  1.3164  0.8564
    1TMC1    C113865   0.706   0.665  14.829  0.2744  0.0238 -0.3287
    1TMC1    C213866   0.669   0.540  14.872  0.1704 -0.5288  0.9834
    1TMC1    C313867   0.533   0.528  14.884 -0.0991  0.0044 -0.1613
    1TMC1    C413868   0.617   0.768  14.822 -1.0800  0.3830  0.5034
    1TMC1    C513869   0.482   0.749  14.831  0.7211 -0.1257  0.0942
    1TMC1    C613870   0.435   0.622  14.866 -0.4675  0.6748  0.4133
    1TMC1     C13871   0.846   0.698  14.817 -0.2175  0.6905  0.5185
    1TMC1     O13872   0.910   0.625  14.888  0.0884  0.2602 -0.2889
    1TMC1     H13873   0.737   0.456  14.863  0.0673 -0.5113  0.0428
    1TMC1    H113874   0.650   0.868  14.795 -0.2966  0.3291  1.2616
    1TMC1    H213875   0.333   0.598  14.895 -0.4668  2.9787  2.2861
    1TMC1    C713876   0.404   0.855  14.900  0.2845  0.6926  0.3844
    1TMC1    C813877   0.491   0.403  14.932 -0.0087 -0.5161 -0.0420
    1TMC1    O113878   0.449   0.917  14.998  0.2281 -0.0321 -0.5439
    1TMC1    O213879   0.385   0.353  14.892 -0.0676  0.2945 -0.2111
    1TMC1    O313880   0.271   0.862  14.875 -0.3240 -0.3981  0.3151
    1TMC1    H313881   0.243   0.806  14.799  1.5904 -2.4466  1.0990
    1TMC1    O513882   0.543   0.403  15.054 -0.1646  0.5007  0.3338
    1TMC1    H513883   0.624   0.457  15.068  1.2947 -1.0813 -2.0805
    2MPD2     C13884   1.265   0.947  14.685  0.1805  0.2133  0.1352
    2MPD2    C113885   1.164   0.983  14.601 -0.4985  0.3366  0.7304
    2MPD2    C213886   1.031   0.946  14.634 -0.0348  0.3775  0.1976
    2MPD2    C313887   1.018   0.848  14.725  0.7537 -0.1487 -0.1915
    2MPD2    C413888   1.121   0.814  14.812  0.1917 -0.4783 -0.0634
    2MPD2    C513889   1.242   0.872  14.794  0.2817 -0.2934  0.1715
    2MPD2     H13890   0.943   0.967  14.574  0.5733 -0.5995 -1.0270
    2MPD2    H113891   1.111   0.740  14.891 -1.2725 -2.2102 -1.8558
    2MPD2    H213892   1.368   0.976  14.670  0.3728 -0.6528 -0.1934
    2MPD2    H313893   1.328   0.854  14.858  0.1286 -0.7225  0.2577
    2MPD2     N13894   0.880   0.801  14.738 -0.0818 -0.3749  0.0187
    2MPD2    H513895   0.810   0.835  14.674 -2.1860 -0.7311  2.1553
    2MPD2    N113896   1.200   1.065  14.492 -0.4403  0.4731  0.1153
    2MPD2    H713897   1.300   1.076  14.477 -0.4429  1.5649  0.8902
    3TMC2    C113898   1.201   1.211  14.313  1.1612 -0.0424  0.2485
    3TMC2    C213899   1.332   1.248  14.331 -0.3269 -0.0368 -0.1338
    3TMC2    C313900   1.394   1.325  14.241 -0.0370  0.3737 -0.2955
    3TMC2    C413901   1.139   1.240  14.198 -0.1850  0.1903 -0.0704
    3TMC2    C513902   1.207   1.312  14.104  0.1899  0.0917 -0.3536
    3TMC2    C613903   1.330   1.372  14.125  0.2213 -0.2907 -0.1668
    3TMC2     C13904   1.118   1.130  14.403 -0.8424  0.1947 -0.6263
    3TMC2     O13905   0.994   1.131  14.392 -0.2692  0.0605  0.0513
    3TMC2     H13906   1.377   1.225  14.427  0.9018  1.0089 -0.4581
    3TMC2    H113907   1.045   1.192  14.175 -0.8168  0.9659  0.9373
    3TMC2    H213908   1.379   1.448  14.067 -0.5695  0.0305 -0.4095
    3TMC2    C713909   1.122   1.408  14.033  0.0265 -0.0205  0.4566
    3TMC2    C813910   1.507   1.393  14.296 -0.4994  0.2695 -0.2641
    3TMC2    O113911   1.146   1.527  14.041  0.1645  0.1005  0.3171
    3TMC2    O213912   1.513   1.438  14.407  0.2413  0.2676 -0.1942
    3TMC2    O513913   1.611   1.356  14.220 -0.3379  0.0973  0.1434
    3TMC2    H513914   1.597   1.282  14.157  2.4528  0.2768 -0.6932
    4TMC2    C113915   0.723   2.132  13.771 -0.0573  0.7243 -0.4471
    4TMC2    C213916   0.757   2.226  13.862 -0.8995  0.0503 -0.1755
    4TMC2    C313917   0.785   2.172  13.987  0.2086 -0.2079  0.1074
    4TMC2    C413918   0.737   1.998  13.792  0.5088 -0.0095  0.2660
    4TMC2    C513919   0.754   1.953  13.917 -0.5569 -0.0842  0.0849
    4TMC2    C613920   0.779   2.039  14.013  0.3462 -0.3317 -0.1747
    4TMC2     C13921   0.680   2.172  13.639  1.1448 -0.0884  0.2765
    4TMC2     O13922   0.700   2.091  13.552 -0.3472 -0.2083 -0.1234
    4TMC2     H13923   0.753   2.333  13.846  1.3948 -0.0442 -1.3892
    4TMC2    H113924   0.697   1.933  13.715 -1.1355  0.7995  0.4466
    4TMC2    H213925   0.809   2.013  14.113  0.7797 -0.8698 -0.4455
    4TMC2    C713926   0.771   1.813  13.949  0.5687 -0.6780 -0.9643
    4TMC2    C813927   0.854   2.253  14.086  0.2070 -0.2490  0.4359
    4TMC2    O113928   0.822   1.794  14.056  0.3874  0.5422 -0.3234
    4TMC2    O213929   0.835   2.243  14.206  0.5205 -0.4985 -0.4250
    4TMC2    O513930   0.965   2.287  14.024  0.1643 -0.0258 -0.5448
    4TMC2    H513931   0.986   2.231  13.946 -0.8415  1.5523 -1.9465
    5MPD2     C13932   0.386   2.443  13.332  0.0411  0.4848  0.3344
    5MPD2    C113933   0.351   2.475  13.459 -0.1483 -0.6841 -1.2614
    5MPD2    C213934   0.394   2.397  13.565  0.2987  0.0394  0.1047
    5MPD2    C313935   0.506   2.320  13.544  0.9406 -0.1004 -0.8456
    5MPD2    C413936   0.548   2.297  13.414 -0.4723 -0.0151 -0.6499
    5MPD2    C513937   0.485   2.354  13.315  0.3733  0.5488  0.1290
    5MPD2     H13938   0.371   2.422  13.668  0.5394  2.5105 -0.4416
    5MPD2    H113939   0.617   2.218  13.383  0.8413  1.6213 -1.8793
    5MPD2    H213940   0.348   2.493  13.244 -0.8922 -3.3714 -1.4408
    5MPD2    H313941   0.505   2.321  13.214  0.1936  0.3950  0.1450
    5MPD2     N13942   0.572   2.254  13.650 -0.1037  0.5594 -0.7251
    5MPD2    H513943   0.555   2.285  13.745  1.8805  3.3825 -1.2738
    5MPD2    N113944   0.254   2.570  13.469 -0.0140 -0.6042 -0.0146
    5MPD2    H713945   0.244   2.626  13.385  1.4634 -1.4420 -0.7437
    6MPD1     C13946   0.859   4.334  13.934  0.1042 -0.0848 -0.3734
    6MPD1    C113947   0.932   4.262  13.848 -0.1299  0.4276 -0.3698
    6MPD1    C213948   0.879   4.131  13.820  0.1005  0.0633 -0.2788
    6MPD1    C313949   0.757   4.086  13.859  0.3681  0.0295 -0.6781
    6MPD1    C413950   0.682   4.173  13.933 -0.3073 -0.0014 -0.2530
    6MPD1    C513951   0.736   4.293  13.975  0.1841 -0.8651 -0.3610
    6MPD1     H13952   0.947   4.069  13.763 -0.9162 -0.2898 -1.0935
    6MPD1    H113953   0.586   4.143  13.972  0.8750 -0.1453  2.5568
    6MPD1    H213954   0.887   4.428  13.979  1.5852 -0.3461 -0.7641
    6MPD1    H313955   0.678   4.357  14.040  0.6471  1.7944 -2.5890
    6MPD1     N13956   0.694   3.957  13.844 -0.0407  0.6505 -0.6824
    6MPD1    H513957   0.604   3.939  13.886 -0.0240 -2.2385 -1.9080
    6MPD1    N113958   1.061   4.303  13.817 -0.8371  0.4567  0.0614
    6MPD1    H613959   1.094   4.257  13.732 -0.9734  0.4757 -0.0012
    6MPD1    H713960   1.065   4.400  13.786  1.8409 -0.5024 -2.6473
    7MPD2     C13961   0.193   3.351  14.030 -0.3389 -0.1186  0.0930
    7MPD2    C113962   0.226   3.356  13.898 -0.0266  0.8444  0.5525
    7MPD2    C213963   0.160   3.270  13.811  0.0179  0.4087 -0.3661
    7MPD2    C313964   0.080   3.165  13.855 -0.0270  0.9013  0.1893
    7MPD2    C413965   0.044   3.164  13.993 -0.1385 -0.7903 -0.5893
    7MPD2    C513966   0.104   3.254  14.077 -0.8293 -1.1133  0.7217
    7MPD2     H13967   0.181   3.271  13.705 -1.9438 -2.8289 -0.7712
    7MPD2    H113968   4.716   3.092  14.039 -0.2003 -0.9817 -0.9762
    7MPD2    H213969   0.238   3.420  14.101 -0.4728  0.5341 -0.4568
    7MPD2    H313970   0.073   3.263  14.181 -0.2024  0.7832  0.7573
    7MPD2     N13971   0.040   3.076  13.762 -0.3162 -0.6316 -0.0583
    7MPD2    H513972   0.062   3.100  13.666  0.1208 -1.0929 -0.0709
    7MPD2    N113973   0.312   3.448  13.834  0.0600  0.0469 -0.7167
    7MPD2    H713974   0.329   3.423  13.737  0.5221 -0.8886 -0.3964
    8TMC3    C113975   4.708   2.885  13.648  0.2497  0.1600  0.1005
    8TMC3    C213976   0.025   2.766  13.656  0.4846  0.5245  0.0611
    8TMC3    C313977   0.114   2.724  13.557 -0.7398 -0.5548 -0.2901
    8TMC3    C413978   4.724   2.962  13.536 -0.5375 -0.3578  0.2481
    8TMC3    C513979   0.082   2.933  13.449  0.2461 -0.1582  0.0819
    8TMC3    C613980   0.149   2.815  13.462  0.1265 -0.0329 -0.4099
    8TMC3     C13981   4.705   2.962  13.772 -0.1022 -0.1662 -0.3932
    8TMC3     O13982   4.656   2.912  13.873 -0.1098 -0.4506  0.4465
    8TMC3     H13983   0.008   2.710  13.747  0.5659 -0.2970 -0.4243
    8TMC3    H113984   4.674   3.058  13.523  1.6121  0.7619  0.2374
    8TMC3    H213985   0.232   2.782  13.401  1.1156 -0.2062  1.0005
    8TMC3    C713986   0.162   3.050  13.414 -0.6861  0.1312 -0.4183
    8TMC3    C813987   0.185   2.601  13.580 -0.1988  0.2662 -0.0032
    8TMC3    O113988   0.142   3.151  13.481 -0.1660  0.2500 -0.6034
    8TMC3    O213989   0.177   2.552  13.688 -0.7738 -0.0734 -0.5814
    9TMC3    C113990   0.666   3.741  13.744  0.7304 -0.1670  0.0275
    9TMC3    C213991   0.672   3.688  13.620  0.4689 -0.9112 -0.3608
    9TMC3    C313992   0.577   3.605  13.576 -0.4961  0.3603 -0.3582
    9TMC3    C413993   0.553   3.712  13.820  0.4011  0.0391  0.1673
    9TMC3    C513994   0.465   3.622  13.782 -0.2052  0.0232  0.7696
    9TMC3    C613995   0.476   3.565  13.654  0.0228 -0.1564 -0.2978
    9TMC3     C13996   0.754   3.855  13.773 -0.2318  0.6012  0.4771
    9TMC3     O13997   0.847   3.870  13.696  0.7834 -0.3277 -0.6792
    9TMC3     H13998   0.748   3.711  13.546 -2.7729  3.4095 -2.3683
    9TMC3    H113999   0.531   3.760  13.915 -0.0608 -0.3150  0.2325
    9TMC3    H214000   0.393   3.508  13.613 -1.1526  0.2150  1.5673
    9TMC3    C714001   0.380   3.555  13.890  0.2522 -0.9953 -0.3509
    9TMC3    C814002   0.597   3.530  13.451  0.0078  0.2082 -0.2548
    9TMC3    O114003   0.369   3.602  14.004  0.3139  0.2865  0.4249
    9TMC3    O214004   0.674   3.574  13.365  0.7918 -0.0510  0.6778
   10MPD2     C14005   0.406   3.132  13.156  0.3326 -1.0693 -0.2290
   10MPD2    C114006   0.359   3.129  13.286  0.2801  0.1765  0.2836
   10MPD2    C214007   0.404   3.220  13.381  0.3602  0.1854  0.2130
   10MPD2    C314008   0.491   3.321  13.349 -0.1377  0.1912  0.4311
   10MPD2    C414009   0.530   3.332  13.220 -0.4848  0.8232 -0.2051
   10MPD2    C514010   0.495   3.235  13.131  0.2079 -0.4919  0.3458
   10MPD2     H14011   0.373   3.200  13.483 -1.2695  1.1821 -0.0858
   10MPD2    H114012   0.600   3.413  13.202 -0.4017  0.5406 -1.1645
   10MPD2    H214013   0.385   3.058  13.079 -2.1711  0.6869 -1.2175
   10MPD2    H314014   0.558   3.222  13.044 -2.9628 -1.3120 -1.8243
   10MPD2     N14015   0.531   3.410  13.456  0.5838  0.1143  0.2273
   10MPD2    H514016   0.495   3.381  13.546 -0.9773 -2.0783 -1.0757
   10MPD2    N114017   0.257   3.031  13.315  0.0511 -0.0024  0.2563
   10MPD2    H714018   0.252   2.946  13.260 -1.2039  0.0917  0.2175
   11MPD2     C14019   0.845   1.330  13.807  0.6720 -0.0708  0.0629
   11MPD2    C114020   0.913   1.408  13.892 -0.1515 -0.6496  0.0398
   11MPD2    C214021   0.865   1.533  13.918 -0.0639 -0.4919 -0.1490
   11MPD2    C314022   0.759   1.590  13.844 -0.0557  0.4245 -0.4210
   11MPD2    C414023   0.700   1.514  13.744  0.7369 -0.6164 -0.2132
   11MPD2    C514024   0.738   1.383  13.727  0.3116  0.0676 -0.2120
   11MPD2     H14025   0.918   1.593  13.991  1.7728 -1.8887 -0.3132
   11MPD2    H114026   0.623   1.542  13.674  0.6524  1.5666  0.7578
   11MPD2    H214027   0.875   1.228  13.788  4.7358  1.4153 -1.6014
   11MPD2    H314028   0.705   1.331  13.639  0.8427 -2.3962  1.0439
   11MPD2     N14029   0.725   1.725  13.849 -0.0213 -0.2497 -0.0415
   11MPD2    H514030   0.656   1.768  13.788 -0.9866 -1.5047  0.1785
   11MPD2    N114031   1.026   1.341  13.959  0.5509  0.0305 -0.9499
   11MPD2    H714032   1.044   1.242  13.945 -0.5248 -0.3942  0.5988
    1MPD1     C14033   3.670   3.779  17.578  0.2042  0.0750 -0.4702
    1MPD1    C114034   3.804   3.744  17.591 -0.1347 -0.2205 -0.0798
    1MPD1    C214035   3.880   3.728  17.479 -0.0633 -0.9862  0.2661
    1MPD1    C314036   3.833   3.770  17.359 -0.2005 -0.0309 -0.0258
    1MPD1    C414037   3.702   3.812  17.344 -0.0873  0.2363 -0.1495
    1MPD1    C514038   3.623   3.811  17.453  0.3991  0.1398  0.4031
    1MPD1     H14039   3.984   3.700  17.490 -0.2155 -1.3901  0.6834
    1MPD1    H114040   3.662   3.852  17.251 -0.0509 -1.4331 -0.8830
    1MPD1    H214041   3.602   3.794  17.661 -1.8666  0.2113 -2.1845
    1MPD1    H314042   3.533   3.868  17.436  0.0356 -0.4181  0.4673
    1MPD1     N14043   3.908   3.761  17.238 -0.6221  0.1769 -0.0424
    1MPD1    H514044   3.864   3.788  17.151 -0.9862 -0.2066  0.0197
    1MPD1    N114045   3.845   3.696  17.714  0.0622  0.3074  0.2028
    1MPD1    H614046   3.945   3.688  17.730  0.2938 -1.6578 -2.3299
    1MPD1    H714047   3.794   3.721   0.049  0.3759 -0.6629  0.6737
    2MPD1     C14048   3.847   3.963  16.265 -0.1575 -0.3746  0.2650
    2MPD1    C114049   3.970   4.010  16.301 -0.6226  0.1082 -0.3565
    2MPD1    C214050   4.030   3.971  16.420 -0.3044 -0.5422 -0.4124
    2MPD1    C314051   3.946   3.913  16.520  0.3381 -0.7871 -0.3752
    2MPD1    C414052   3.824   3.871  16.487 -0.3276 -0.0123 -0.3786
    2MPD1    C514053   3.777   3.883  16.360 -0.7085 -0.9208 -0.3450
    2MPD1     H14054   4.136   3.988  16.431 -0.1943 -1.3364 -0.2887
    2MPD1    H114055   3.760   3.825  16.561  2.1594 -1.4705  0.8807
    2MPD1    H214056   3.798   3.982  16.170 -1.7297 -0.3239  1.0915
    2MPD1    H314057   3.675   3.860  16.332 -0.6211 -1.3653 -0.3066
    2MPD1     N14058   4.003   3.872  16.639 -0.0392 -0.3688  0.5152
    2MPD1    H514059   4.101   3.895  16.651 -0.2109 -0.3781  2.0309
    2MPD1    N114060   4.039   4.080  16.193  0.5746 -0.3768  1.3101
    2MPD1    H614061   4.119   4.133  16.226  0.3843  0.7707 -0.0874
    2MPD1    H714062   3.975   4.141  16.141  3.3082  0.6638 -0.8104
    3TMC3    C114063   4.021   3.801  16.859 -0.1652 -1.0442 -0.0629
    3TMC3    C214064   4.147   3.758  16.830  0.7047 -0.2839  0.1843
    3TMC3    C314065   4.231   3.707  16.924  0.6157 -0.5207  0.0951
    3TMC3    C414066   3.976   3.798  16.992  0.0420 -0.0553 -0.2060
    3TMC3    C514067   4.069   3.752  17.086  0.4602 -0.4482 -0.1102
    3TMC3    C614068   4.195   3.708  17.053  0.3163  0.4802 -0.8602
    3TMC3     C14069   3.936   3.839  16.755 -0.0559 -0.3550  0.5910
    3TMC3     O14070   3.815   3.843  16.777 -0.1641 -0.0857  0.4053
    3TMC3     H14071   4.172   3.726  16.729  0.9897  0.4420  0.0257
    3TMC3    H114072   3.891   3.857  17.023 -1.5265 -2.4146 -0.0497
    3TMC3    H214073   4.270   3.698  17.130 -0.2639 -1.2701 -0.5255
    3TMC3    C714074   4.036   3.730  17.224  0.6782 -0.7968  0.1897
    3TMC3    C814075   4.360   3.666  16.882  0.0163 -0.2543  0.4703
    3TMC3    O114076   4.122   3.693  17.306  0.1844 -0.1622 -0.3064
    3TMC3    O214077   4.397   3.733  16.786  0.5119  0.1865 -0.1314
    4MPD1     C14078   0.088   3.480  16.896 -0.4847  0.2842 -0.5169
    4MPD1    C114079   0.028   3.450  17.021 -0.2352 -0.8314 -0.3666
    4MPD1    C214080   4.635   3.494  17.045 -0.0631 -0.3179 -0.1342
    4MPD1    C314081   4.560   3.540  16.939 -0.3714  0.1846  0.4465
    4MPD1    C414082   4.611   3.543  16.809 -0.1968  0.4711  0.0246
    4MPD1    C514083   0.006   3.521  16.794  0.0241 -0.8686 -0.3435
    4MPD1     H14084   4.589   3.494  17.143 -1.5480  1.9397 -0.8554
    4MPD1    H114085   4.553   3.563  16.719 -1.5035 -1.5261  0.4235
    4MPD1    H214086   0.192   3.462  16.872 -0.4355 -0.4953  0.2519
    4MPD1    H314087   0.053   3.531  16.696  0.6289  0.1520  0.0510
    4MPD1     N14088   4.427   3.580  16.965  0.0643 -0.0685  0.0233
    4MPD1    H514089   4.392   3.559  17.058  1.6461 -0.2777  0.5675
    4MPD1    N114090   0.102   3.401  17.129  0.1529  0.2441 -0.6222
    4MPD1    H614091   0.178   3.339  17.101  0.0299 -0.3796  0.4257
    4MPD1    H714092   0.038   3.357  17.195  0.3361  0.7804 -0.0877
    1TCq1    O114093   0.065   2.573  11.878  0.2033  0.1288  0.3460
    1TCq1    C114094   0.024   2.651  11.774  0.3297  0.1292  0.0837
    1TCq1    O214095   4.704   2.619  11.667 -0.1891 -0.5015  0.3515
    1TCq1    C214096   0.100   2.775  11.793  0.1611 -0.0431 -0.2232
    1TCq1    C314097   0.139   2.819  11.917 -0.2968  0.1213 -0.5736
    1TCq1    C414098   0.206   2.940  11.932  0.0863  0.4697  0.0040
    1TCq1    C514099   0.218   3.021  11.825 -0.8304 -0.6900  0.3206
    1TCq1    C614100   0.174   2.973  11.697 -0.6164 -0.4296  0.1762
    1TCq1    C714101   0.117   2.852  11.680 -0.1357 -0.0544 -0.1657
    1TCq1    C814102   0.183   3.069  11.581  0.0532 -0.8206 -0.0931
    1TCq1    O414103   0.112   3.047  11.482  0.2172 -0.6188 -0.1090
    1TCq1    C914104   0.199   2.996  12.061 -0.2642 -0.4751 -0.0082
    1TCq1    O514105   0.212   3.120  12.077 -0.6101  0.2765 -0.2745
    1TCq1    O614106   0.193   2.917  12.161 -0.6882 -0.3807 -0.1680
    1TCq1    H114107   0.138   2.609  11.932 -0.1929 -0.3606  1.2107
    1TCq1    H214108   0.101   2.778  12.010 -0.9302  1.5237 -0.2102
    1TCq1    H314109   0.253   3.121  11.847 -2.0724  0.0624 -1.0966
    1TCq1    H414110   0.086   2.817  11.582 -1.9664 -0.3890  0.5406
    2MPD1     C14111   0.452   3.410  11.321  0.4411 -0.4039 -0.5289
    2MPD1    C114112   0.493   3.415  11.449  0.1913  0.6109 -0.1797
    2MPD1    C214113   0.428   3.332  11.542  0.0837 -0.8023  0.3462
    2MPD1    C314114   0.329   3.252  11.506 -0.2690  0.0326 -0.2157
    2MPD1    C414115   0.287   3.249  11.376 -0.3451 -0.3899 -0.2603
    2MPD1    C514116   0.349   3.322  11.282  0.1915  0.3831  0.6482
    2MPD1     H14117   0.459   3.332  11.646 -1.8761  2.3284  0.9615
    2MPD1    H114118   0.210   3.184  11.337 -0.3808 -1.7463  2.0643
    2MPD1    H214119   0.500   3.465  11.241 -0.5077  0.9571 -0.1462
    2MPD1    H314120   0.323   3.314  11.177  1.9711  1.2897  0.1336
    2MPD1     N14121   0.280   3.161  11.603  0.9075 -0.0560  0.2600
    2MPD1    H514122   0.324   3.153  11.694  2.0263 -1.0245 -0.3560
    2MPD1    N114123   0.585   3.508  11.489  0.0796 -0.6932  0.0868
    2MPD1    H614124   0.652   3.532  11.416  0.8614 -0.9938  0.7058
    2MPD1    H714125   0.626   3.481  11.578  1.3242 -0.5159 -0.4282
    1TMC1    C114126   2.517   0.807   0.659 -0.0044 -0.0682  0.0086
    1TMC1    C214127   2.412   0.796   0.751  0.4617 -0.0810 -0.1024
    1TMC1    C314128   2.371   0.671   0.775 -0.5010  0.7175 -0.1762
    1TMC1    C414129   2.565   0.704   0.593  0.1056  0.2348  0.7086
    1TMC1    C514130   2.498   0.588   0.608 -0.2414  0.3065  0.5089
    1TMC1    C614131   2.401   0.564   0.692  0.0790  0.0533 -0.1719
    1TMC1     C14132   2.546   0.936   0.602  0.5718 -0.5574  0.2003
    1TMC1     O14133   2.652   0.945   0.538 -0.2218 -0.5795  0.1541
    1TMC1     H14134   2.378   0.881   0.810 -1.0848 -0.1586 -0.8664
    1TMC1    H114135   2.643   0.714   0.519 -1.7826 -2.1520 -1.6126
    1TMC1    H214136   2.362   0.463   0.699 -0.6770  0.3932  0.4532
    1TMC1    C714137   2.548   0.465   0.550  0.3264  0.1593 -0.1238
    1TMC1    C814138   2.272   0.638   0.874 -0.0488  0.4790  0.0864
    1TMC1    O114139   2.532   0.359   0.602  0.5470  0.5406 -0.1400
    1TMC1    O214140   2.174   0.708   0.898  0.1976  0.4986 -0.0607
    1TMC1    O314141   2.632   0.490   0.443  0.3110  0.4149 -0.6973
    1TMC1    H314142   2.633   0.580   0.404  0.1930  1.6609  2.2398
    1TMC1    O514143   2.327   0.549   0.954  0.3540  1.0051  0.0470
    1TMC1    H514144   2.412   0.519   0.916  1.7695  2.8659  1.7757
    2MPD1     C14145   2.460   1.433   0.503 -0.2697  0.1474 -0.2196
    2MPD1    C114146   2.366   1.388   0.596 -0.6737  0.0090  0.3746
    2MPD1    C214147   2.359   1.252   0.619 -0.2333  0.1428  0.2589
    2MPD1    C314148   2.461   1.166   0.579 -0.0566 -0.2548 -0.3971
    2MPD1    C414149   2.568   1.216   0.512  0.4728  0.3267  0.2978
    2MPD1    C514150   2.565   1.346   0.469 -0.3067 -0.5758  0.0256
    2MPD1     H14151   2.276   1.213   0.678  3.3230 -2.9908  3.2480
    2MPD1    H114152   2.655   1.161   0.479  1.1489  2.0448 -0.7710
    2MPD1    H214153   2.488   1.536   0.483 -2.3163  1.2239  2.4610
    2MPD1    H314154   2.647   1.384   0.410  0.1701 -0.2690  0.8871
    2MPD1     N14155   2.444   1.029   0.616 -0.9138  0.2774  0.0335
    2MPD1    H514156   2.352   1.004   0.651 -0.1158 -2.6426  0.0975
    2MPD1    N114157   2.261   1.476   0.640 -0.1519  0.9220  0.2702
    2MPD1    H614158   2.226   1.444   0.730  1.0723 -2.8827 -0.6076
    2MPD1    H714159   2.296   1.571   0.653 -1.1378  1.4422 -0.8774
    1MPD1     C14160   1.930   2.750  12.405 -0.1941 -0.4298 -0.0499
    1MPD1    C114161   1.829   2.848  12.385 -0.3511  0.3833  0.5105
    1MPD1    C214162   1.854   2.957  12.299  1.2162  0.0185 -0.5186
    1MPD1    C314163   1.965   2.964  12.216  0.0474 -0.1614 -0.6025
    1MPD1    C414164   2.051   2.858  12.225 -0.7695 -0.0893 -0.0840
    1MPD1    C514165   2.032   2.754  12.315  0.1692 -0.9463  0.8204
    1MPD1     H14166   1.786   3.041  12.304 -0.5158 -1.4658  0.7397
    1MPD1    H114167   2.124   2.837  12.148  0.4095  2.3172  0.3680
    1MPD1    H214168   1.923   2.671  12.478  1.9448 -0.4814  0.0788
    1MPD1    H314169   2.079   2.656  12.308  1.9092  0.0879 -1.6975
    1MPD1     N14170   1.967   3.074  12.124  0.3970 -0.2770 -0.5875
    1MPD1    H514171   1.902   3.150  12.139 -1.5924 -2.4751  2.0029
    1MPD1    N114172   1.723   2.857  12.479 -0.5369 -0.6248 -0.1262
    1MPD1    H614173   1.646   2.906  12.432  1.1730  2.0075 -0.1777
    1MPD1    H714174   1.693   2.766  12.511  0.0021 -0.6979  0.1660
    2MPD1     C14175   1.271   3.632  11.382  1.0840  0.0434 -0.4145
    2MPD1    C114176   1.273   3.681  11.248  0.3925  0.0648  0.2199
    2MPD1    C214177   1.337   3.602  11.149  0.6297  0.0991  0.4535
    2MPD1    C314178   1.374   3.471  11.178  0.1954  0.0433  0.3771
    2MPD1    C414179   1.367   3.424  11.311 -0.6862 -0.3415  0.2590
    2MPD1    C514180   1.301   3.496  11.408 -0.2074 -0.2679 -0.5137
    2MPD1     H14181   1.359   3.648  11.054  3.9073  0.1647  1.2247
    2MPD1    H114182   1.398   3.324  11.338 -1.2681 -0.0329  2.0570
    2MPD1    H214183   1.232   3.693  11.463  2.4873  0.5934 -0.1534
    2MPD1    H314184   1.283   3.441  11.499 -2.4055  1.4959  0.1072
    2MPD1     N14185   1.421   3.375  11.083 -0.0931  0.3317 -0.6323
    2MPD1    H514186   1.474   3.301  11.128 -3.1891 -0.3404  1.8800
    2MPD1    N114187   1.261   3.816  11.225 -0.8248  0.4859 -0.0758
    2MPD1    H614188   1.200   3.854  11.297 -1.8690  1.4551 -1.4655
    2MPD1    H714189   1.231   3.836  11.130 -0.0881 -1.4846 -0.7205
    3MPD1     C14190   1.616   2.409  11.125 -0.4047  0.2947 -0.1382
    3MPD1    C114191   1.631   2.428  10.986  1.0615  0.2703 -0.2636
    3MPD1    C214192   1.609   2.555  10.932 -0.4253 -0.1980  0.2255
    3MPD1    C314193   1.585   2.667  11.005  0.5058  0.5194 -0.5044
    3MPD1    C414194   1.576   2.652  11.142 -0.1256  0.1269  0.1077
    3MPD1    C514195   1.594   2.524  11.199  0.6965  0.0496 -0.2271
    3MPD1     H14196   1.621   2.562  10.824  1.8034 -2.4057  0.3285
    3MPD1    H114197   1.558   2.732  11.213 -1.3197 -0.4956  0.5028
    3MPD1    H214198   1.639   2.313  11.169 -1.4608  0.4396  0.7048
    3MPD1    H314199   1.576   2.515  11.306 -0.2852 -2.0140 -0.5555
    3MPD1     N14200   1.563   2.797  10.937 -0.3066 -0.0736  0.1602
    3MPD1    H514201   1.575   2.803  10.836  0.0140  0.3769  0.2248
    3MPD1    N114202   1.640   2.313  10.908  0.1363  0.0542  0.0375
    3MPD1    H614203   1.670   2.338  10.814  1.3916 -3.7763 -0.5481
    3MPD1    H714204   1.696   2.232  10.932  1.0215  1.1775  1.7852
    4MPD2     C14205   1.694   3.598  11.739 -0.4736  0.3482 -0.5196
    4MPD2    C114206   1.834   3.589  11.709  0.0170  0.0487 -1.1581
    4MPD2    C214207   1.879   3.602  11.575  0.2993 -0.2757  0.0658
    4MPD2    C314208   1.792   3.641  11.474  0.8099  0.0569 -0.8329
    4MPD2    C414209   1.662   3.677  11.506 -0.5157 -0.2636 -0.4418
    4MPD2    C514210   1.616   3.651  11.637 -0.3996 -0.3669 -0.0306
    4MPD2     H14211   1.985   3.585  11.563  0.2803  0.5381 -1.1613
    4MPD2    H114212   1.597   3.714  11.428  1.1630 -0.2872 -1.8460
    4MPD2    H214213   1.653   3.573  11.837  0.3026 -1.2579 -0.6064
    4MPD2    H314214   1.512   3.664  11.662 -0.0249  1.9558  0.3946
    4MPD2     N14215   1.835   3.674  11.346  0.2116 -0.2991 -0.4465
    4MPD2    H514216   1.762   3.701  11.281 -1.6205 -0.3812  1.5560
    4MPD2    N114217   1.940   3.560  11.803  0.5144 -0.1049  0.1026
    4MPD2    H714218   2.029   3.540  11.758 -0.6846 -1.8076 -1.4975
    5TMC3    C114219   2.047   3.453  11.975 -0.2455 -0.8708 -0.1724
    5TMC3    C214220   2.012   3.335  12.029 -0.3139  0.4276 -0.8036
    5TMC3    C314221   2.082   3.232  11.971 -0.0438  0.0288  0.1500
    5TMC3    C414222   2.149   3.478  11.891  0.7383  0.1770  0.0637
    5TMC3    C514223   2.228   3.375  11.847  0.1618  0.5446 -0.1231
    5TMC3    C614224   2.178   3.254  11.880 -0.0834  0.3239 -0.0478
    5TMC3     C14225   1.923   3.511  11.933 -0.4634  0.3070  0.1905
    5TMC3     O14226   1.814   3.486  11.991 -0.7044  0.1353  0.0413
    5TMC3     H14227   1.935   3.328  12.105  0.9689  2.1545  0.6686
    5TMC3    H114228   2.163   3.585  11.880  0.3830  0.1931 -0.2391
    5TMC3    H214229   2.211   3.162  11.833  1.9403  0.1378  1.7459
    5TMC3    C714230   2.273   3.416  11.713 -0.5064  0.2653  0.1543
    5TMC3    C814231   2.075   3.099  12.039  0.4276  0.1381  0.8683
    5TMC3    O114232   2.218   3.518  11.668  0.1271  0.3799 -0.6080
    5TMC3    O214233   2.168   3.017  12.017  0.5749 -0.0857  0.2111
    6TMC3    C114234   1.465   3.266  10.894  0.5358  0.4614  0.1293
    6TMC3    C214235   1.488   3.150  10.973  0.1007  0.6133  0.0092
    6TMC3    C314236   1.496   3.035  10.907  1.2834  0.3091  1.0795
    6TMC3    C414237   1.469   3.263  10.759 -0.3734  0.0501 -0.2161
    6TMC3    C514238   1.493   3.144  10.701  0.2833 -0.4495 -0.1073
    6TMC3    C614239   1.501   3.028  10.767 -0.2396 -0.4823 -0.6022
    6TMC3     C14240   1.415   3.388  10.948  0.7284 -0.0879  0.1851
    6TMC3     O14241   1.387   3.481  10.875  0.6187 -0.4733  0.4132
    6TMC3     H14242   1.504   3.155  11.080  1.9191 -2.0142 -0.1725
    6TMC3    H114243   1.448   3.347  10.694 -0.9378 -1.4773 -2.0191
    6TMC3    H214244   1.491   2.934  10.713 -0.8089 -1.5111  1.2719
    6TMC3    C714245   1.487   3.134  10.557  0.0776 -0.3790 -0.4680
    6TMC3    C814246   1.529   2.919  10.996 -1.0109 -0.1729  0.1267
    6TMC3    O114247   1.436   3.032  10.522  0.0518 -0.5209  0.1085
    6TMC3    O214248   1.525   2.940  11.117 -0.4749 -0.5333  0.4948
    7MPD2     C14249   2.434   3.315  11.251  0.4680  0.5429 -0.0184
    7MPD2    C114250   2.326   3.386  11.296  0.5268  0.1915 -0.3350
    7MPD2    C214251   2.299   3.389  11.426  0.0745 -0.3594  0.8939
    7MPD2    C314252   2.379   3.322  11.518 -0.1224 -0.8823 -0.0245
    7MPD2    C414253   2.486   3.240  11.471 -0.1097  0.0956  0.4144
    7MPD2    C514254   2.516   3.245  11.337  0.2123 -0.5195 -0.4007
    7MPD2     H14255   2.217   3.452  11.456 -1.3765  0.1889 -4.1999
    7MPD2    H114256   2.550   3.197  11.547  1.1494  0.1624 -0.6215
    7MPD2    H214257   2.452   3.304  11.145  1.1797  0.0698  0.1577
    7MPD2    H314258   2.594   3.185  11.292  0.4146  1.4330 -2.6521
    7MPD2     N14259   2.358   3.327  11.656  0.3793 -1.1753 -0.3900
    7MPD2    H514260   2.410   3.265  11.718  0.1239 -2.5286 -1.5167
    7MPD2    N114261   2.246   3.454  11.207 -0.0327 -0.6420 -0.3261
    7MPD2    H714262   2.168   3.504  11.247 -0.3876 -0.2373 -1.5385
    8TMC3    C114263   2.154   3.550  11.029  0.1179  0.0449 -0.8687
    8TMC3    C214264   2.067   3.484  10.946  0.2302 -0.1480  0.5259
    8TMC3    C314265   1.934   3.505  10.965 -0.0729 -0.5473  1.1667
    8TMC3    C414266   2.114   3.643  11.127 -0.0299  0.2481  0.2263
    8TMC3    C514267   1.979   3.649  11.151  0.2137 -0.4216  0.1547
    8TMC3    C614268   1.893   3.575  11.076  0.2913 -0.0550 -0.2223
    8TMC3     C14269   2.263   3.472  11.069  0.1210 -0.7116 -0.0570
    8TMC3     O14270   2.333   3.407  10.987  0.5970  0.5107  0.1333
    8TMC3     H14271   2.107   3.415  10.872 -0.9636 -1.8392  1.4657
    8TMC3    H114272   2.185   3.701  11.185 -1.8849  0.5418  2.1962
    8TMC3    H214273   1.787   3.573  11.095  0.3925  1.8286  0.5958
    8TMC3    C714274   1.952   3.626  11.289 -0.1463  0.9721  0.0065
    8TMC3    C814275   1.843   3.434  10.875 -0.4694  0.3188  0.2965
    8TMC3    O114276   2.047   3.575  11.340 -0.5880 -0.0283 -0.0903
    8TMC3    O214277   1.724   3.416  10.900  0.6686  0.2756  0.1398
    9MPD2     C14278   1.867   3.506  10.527 -0.5793  0.3894  0.3455
    9MPD2    C114279   1.826   3.435  10.632  0.7554  0.0869 -0.0277
    9MPD2    C214280   1.726   3.340  10.620  0.4451  0.0320  0.0626
    9MPD2    C314281   1.661   3.316  10.500 -0.0815  0.8375 -0.4542
    9MPD2    C414282   1.711   3.390  10.392 -0.4667 -0.1111 -0.0172
    9MPD2    C514283   1.820   3.473  10.405 -0.0321 -0.2252  0.4799
    9MPD2     H14284   1.709   3.274  10.704 -1.7652  1.3998  0.6872
    9MPD2    H114285   1.653   3.402  10.302  0.2723  0.4386 -0.4266
    9MPD2    H214286   1.935   3.591  10.528  0.0990 -0.1549  0.9737
    9MPD2    H314287   1.843   3.550  10.332 -0.2776 -1.9468 -1.3984
    9MPD2     N14288   1.554   3.223  10.469 -0.0859  0.3441 -0.0288
    9MPD2    H514289   1.533   3.219  10.370 -1.1312  3.0449  0.0796
    9MPD2    N114290   1.889   3.465  10.751 -0.0953 -0.1757  0.9055
    9MPD2    H714291   1.968   3.529  10.742 -0.3113  0.3105  2.4277
    1MPD1     C14292   1.472   2.890  16.740 -0.5429 -1.4096  0.2523
    1MPD1    C114293   1.594   2.830  16.723 -0.1524 -0.5659 -0.2214
    1MPD1    C214294   1.598   2.707  16.659 -0.0049  0.2418 -0.0129
    1MPD1    C314295   1.481   2.637  16.630  0.6219 -0.1477  0.1817
    1MPD1    C414296   1.362   2.699  16.655 -0.2311 -0.6352  0.0971
    1MPD1    C514297   1.358   2.832  16.699 -0.2334  0.0968 -0.5262
    1MPD1     H14298   1.694   2.662  16.638  0.2679  0.1501  1.4676
    1MPD1    H114299   1.273   2.640  16.633 -0.7312  0.3778 -0.5820
    1MPD1    H214300   1.465   2.990  16.782 -0.1493 -1.3939  0.2836
    1MPD1    H314301   1.266   2.887  16.712  0.4107  1.4921 -1.8495
    1MPD1     N14302   1.480   2.506  16.578  0.3802  0.3061  0.6306
    1MPD1    H514303   1.399   2.448  16.597  0.3087 -0.1114 -0.9788
    1MPD1    N114304   1.714   2.897  16.761  0.0575 -0.4526  0.5357
    1MPD1    H614305   1.798   2.843  16.745  1.4338  2.2926 -1.4473
    1MPD1    H714306   1.718   2.995  16.733 -0.7997 -0.3550  0.7309
    2TMC2    C114307   1.533   2.152  16.277 -0.2418 -0.0304 -0.6133
    2TMC2    C214308   1.454   2.073  16.363  0.1153  0.4816 -0.1269
    2TMC2    C314309   1.420   2.124  16.481 -0.6884 -0.1919 -0.6917
    2TMC2    C414310   1.576   2.274  16.322 -0.6524  0.0392  0.8231
    2TMC2    C514311   1.543   2.320  16.445 -0.1688 -0.0294 -0.2033
    2TMC2    C614312   1.465   2.244  16.525  0.3544 -0.7211 -0.0393
    2TMC2     C14313   1.550   2.115  16.144 -0.0281 -0.0924 -0.2478
    2TMC2     O14314   1.556   1.997  16.129  0.4779 -0.0921 -0.3673
    2TMC2     H14315   1.401   1.993  16.313 -0.6393  0.8412  0.1006
    2TMC2    H114316   1.629   2.342  16.255 -0.4544  0.7440  1.7026
    2TMC2    H214317   1.448   2.266  16.630 -0.0728  0.4925 -0.3601
    2TMC2    C714318   1.572   2.458  16.486 -0.7366 -0.0240  0.0099
    2TMC2    C814319   1.342   2.042  16.567  0.5654  0.8306  0.0786
    2TMC2    O114320   1.646   2.526  16.414 -0.3875 -0.4570  0.0172
    2TMC2    O214321   1.365   1.923  16.582  0.2287  0.2193  0.0319
    2TMC2    O514322   1.221   2.113  16.592 -0.2985 -0.8602  0.2444
    2TMC2    H514323   1.219   2.200  16.547 -2.5632 -1.1106 -0.1552
    3MPD1     C14324   1.472   2.162  15.645  0.0513  0.4114  0.4520
    3MPD1    C114325   1.428   2.277  15.697 -0.3095 -0.4712  0.0471
    3MPD1    C214326   1.430   2.285  15.835  0.0150 -0.9986  0.6081
    3MPD1    C314327   1.495   2.192  15.913 -0.4004  0.2100  0.2316
    3MPD1    C414328   1.558   2.085  15.851  0.1927  0.2568 -0.2401
    3MPD1    C514329   1.537   2.066  15.713 -0.0221 -0.9842  0.0965
    3MPD1     H14330   1.374   2.363  15.886 -1.2531 -0.5395 -1.4677
    3MPD1    H114331   1.622   2.015  15.902  0.8703  0.0891 -1.3139
    3MPD1    H214332   1.449   2.144  15.541  1.8108 -1.7328  0.4359
    3MPD1    H314333   1.578   1.976  15.669 -0.4001 -1.9153  1.6781
    3MPD1     N14334   1.519   2.216  16.053 -0.1589 -0.5877  0.9894
    3MPD1    H514335   1.477   2.302  16.088 -0.4554  0.6252 -2.3972
    3MPD1    N114336   1.358   2.369  15.615  0.3229  0.5015  0.1317
    3MPD1    H614337   1.388   2.359  15.519 -1.2239  0.2961 -0.3231
    3MPD1    H714338   1.380   2.467  15.634  1.1430  0.4373 -0.5392
    1TMC1    C114339   0.086   1.427  13.403 -0.5647  0.0362 -0.5172
    1TMC1    C214340   0.185   1.329  13.426 -0.3906  0.1423  0.3239
    1TMC1    C314341   0.262   1.286  13.320 -0.4094  0.1606  0.0969
    1TMC1    C414342   0.064   1.475  13.271  0.2593 -0.1705 -0.3613
    1TMC1    C514343   0.142   1.419  13.177  0.5466 -0.6175  0.1134
    1TMC1    C614344   0.246   1.332  13.195  0.7109 -0.5249  0.1252
    1TMC1     C14345   0.002   1.482  13.510 -0.0019 -0.6815  0.0076
    1TMC1     O14346   4.670   1.582  13.492 -0.1727 -0.3665 -0.0969
    1TMC1     H14347   0.201   1.290  13.525  1.4657  1.3108  0.4953
    1TMC1    H114348   4.724   1.549  13.254  0.8563  0.3437 -0.8278
    1TMC1    H214349   0.307   1.299  13.111 -1.0860  0.0888 -1.4103
    1TMC1    C714350   0.118   1.456  13.042  0.0201  0.2334  0.5972
    1TMC1    C814351   0.392   1.219  13.335  0.2590  1.1534  0.4876
    1TMC1    O114352   0.206   1.431  12.959  0.3579  0.0868 -0.2835
    1TMC1    O214353   0.470   1.196  13.244  0.1637 -0.1302  0.5962
    1TMC1    O314354   4.721   1.469  13.027 -0.3256  0.3273 -0.1055
    1TMC1    H314355   4.678   1.459  13.114  0.2531 -0.6420  0.0643
    1TMC1    O514356   0.443   1.263  13.451 -0.1449 -0.3790  0.1369
    1TMC1    H514357   0.383   1.312  13.511  1.9015  1.1845  0.8801
    2MPD2     C14358   4.593   1.494  13.764  0.0059 -1.1926  0.3886
    2MPD2    C114359   4.728   1.461  13.757  0.0541  0.9133  0.1220
    2MPD2    C214360   0.066   1.441  13.865  0.3423  0.5319 -0.1138
    2MPD2    C314361   4.736   1.445  13.986 -0.3149 -0.6200  0.0761
    2MPD2    C414362   4.603   1.468  14.002  0.0775 -0.2275 -0.2097
    2MPD2    C514363   4.530   1.496  13.890 -0.1923 -0.6567  0.0869
    2MPD2     H14364   0.172   1.419  13.859  0.1448 -0.4476 -0.0229
    2MPD2    H114365   4.558   1.471  14.101  0.5828  1.0918 -0.0178
    2MPD2    H214366   4.538   1.524  13.676 -3.2309 -0.0319  2.8146
    2MPD2    H314367   4.426   1.524  13.901  0.3300  0.7325  1.4441
    2MPD2     N14368   0.084   1.427  14.100 -0.0683 -0.7432 -0.0942
    2MPD2    H514369   0.184   1.414  14.088  0.1336  1.0424 -0.3911
    2MPD2    N114370   0.045   1.438  13.628 -0.1087  0.4442 -0.0130
    2MPD2    H714371   0.143   1.411  13.630  0.3791  2.1523 -1.6395
    3TCq1    O114372   0.472   1.087  14.392  0.2176  0.5105  0.1239
    3TCq1    C114373   0.348   1.064  14.342 -0.2867 -0.2462  0.4437
    3TCq1    O214374   0.323   0.999  14.243  0.3728  0.0122 -0.0458
    3TCq1    C214375   0.289   1.190  14.381  1.1163 -0.8733  0.8815
    3TCq1    C314376   0.276   1.220  14.517 -0.1109 -0.3286 -0.2205
    3TCq1    C414377   0.195   1.326  14.545  1.0617  0.1792 -0.4473
    3TCq1    C514378   0.143   1.408  14.450  0.0743  0.3527  0.0833
    3TCq1    C614379   0.152   1.368  14.318  0.0946 -0.1620  0.1021
    3TCq1    C714380   0.218   1.257  14.277 -0.0192 -0.0845  0.5766
    3TCq1    C814381   0.045   1.428  14.235  0.3608 -0.4204  0.4108
    3TCq1    O414382   4.672   1.448  14.283 -0.3038  0.4075 -0.4269
    3TCq1    C914383   0.161   1.347  14.684 -0.4586 -0.5411  0.3018
    3TCq1    O514384   0.085   1.445  14.720  0.0198 -0.2118  0.3083
    3TCq1    O614385   0.181   1.243  14.755  0.3057  0.2988  0.0118
    3TCq1    H114386   0.474   1.157  14.460  2.6869  0.2339  0.3260
    3TCq1    H214387   0.311   1.158  14.599 -1.0174  0.7008  0.9365
    3TCq1    H314388   0.071   1.482  14.483  2.9818  3.1077  0.2388
    3TCq1    H414389   0.227   1.217  14.177  0.8259 -1.4627  1.2100
    1MPD2     C14390   4.185   2.953  15.133  0.1362 -0.1119 -0.0598
    1MPD2    C114391   4.180   2.898  15.009 -0.4936  0.2148 -0.1875
    1MPD2    C214392   4.245   2.779  14.985 -0.6088 -0.4113 -0.4599
    1MPD2    C314393   4.324   2.713  15.075  0.2542  0.2759  0.6900
    1MPD2    C414394   4.319   2.768  15.201  0.0499 -0.1257  0.6193
    1MPD2    C514395   4.245   2.883  15.233 -0.5453 -0.2277  0.0689
    1MPD2     H14396   4.234   2.731  14.889  1.8100  0.6173 -1.2641
    1MPD2    H114397   4.372   2.717  15.281 -1.1207 -2.3216 -0.0149
    1MPD2    H214398   4.134   3.046  15.154 -1.7657 -1.6056  2.0424
    1MPD2    H314399   4.233   2.914  15.336  1.5269 -0.2209  0.3083
    1MPD2     N14400   4.381   2.589  15.049  0.3676 -0.4309  0.6411
    1MPD2    H514401   4.437   2.547  15.123 -1.8825  0.5349  2.8891
    1MPD2    N114402   4.096   2.955  14.912  0.0762 -0.1045  0.1639
    1MPD2    H714403   4.047   3.038  14.945  0.3332  0.8152 -1.7911
    2TMC3    C114404   3.992   2.992  14.706  0.4200  0.2449  1.0322
    2TMC3    C214405   4.009   2.974  14.569  0.1627  0.0909  0.2370
    2TMC3    C314406   3.900   2.958  14.482 -0.9868  0.3104  0.3641
    2TMC3    C414407   3.876   3.023  14.757 -0.0847 -0.4291  0.2443
    2TMC3    C514408   3.773   3.026  14.668  0.3928 -0.2500 -0.9499
    2TMC3    C614409   3.785   3.001  14.531  0.2524 -0.0793  0.1710
    2TMC3     C14410   4.090   2.917  14.783  0.6316 -0.1437 -0.0517
    2TMC3     O14411   4.170   2.850  14.721 -0.0490  0.6104 -0.0806
    2TMC3     H14412   4.110   2.959  14.532 -0.1158  0.3790 -0.6391
    2TMC3    H114413   3.848   3.003  14.860  2.0170  0.6397  1.0166
    2TMC3    H214414   3.695   2.998  14.470  1.0758 -3.1009 -0.8553
    2TMC3    C714415   3.653   3.096  14.712  0.1581 -0.7174 -0.4967
    2TMC3    C814416   3.897   2.827  14.427  0.3071  0.5731 -0.0367
    2TMC3    O114417   3.550   3.103  14.642 -0.4608  1.0582 -0.1681
    2TMC3    O214418   3.816   2.803  14.337 -0.5130  0.0680 -0.1398
    3TCq1    O114419   3.434   3.687  15.643  0.3635  0.1940 -0.5431
    3TCq1    C114420   3.455   3.558  15.662 -0.0769  0.2707 -0.3666
    3TCq1    O214421   3.389   3.484  15.738  0.3104  0.1366 -0.1303
    3TCq1    C214422   3.591   3.532  15.614 -0.3113  0.4441  0.0174
    3TCq1    C314423   3.670   3.463  15.697  0.4001 -0.3385  0.0872
    3TCq1    C414424   3.768   3.382  15.645  0.2456  0.1739  0.4399
    3TCq1    C514425   3.781   3.373  15.509  0.7075 -0.6403  0.3521
    3TCq1    C614426   3.700   3.448  15.434 -0.1960 -0.2601  0.6018
    3TCq1    C714427   3.598   3.527  15.476 -0.6530 -0.9336 -0.3683
    3TCq1    C814428   3.697   3.414  15.293 -0.2453  0.1483  0.0129
    3TCq1    O414429   3.804   3.415  15.234 -0.4461  0.3996  0.1568
    3TCq1    C914430   3.861   3.313  15.735  0.6522 -0.5872 -0.5474
    3TCq1    O514431   3.942   3.237  15.670 -0.0004 -0.6976  0.4479
    3TCq1    O614432   3.833   3.297  15.859 -0.3782 -0.4140 -0.0205
    3TCq1    H114433   3.503   3.726  15.585 -0.2123 -0.6047 -1.7698
    3TCq1    H214434   3.645   3.449  15.801  1.9867  2.2392  0.8164
    3TCq1    H314435   3.845   3.303  15.457 -0.0347 -0.4311 -0.8456
    3TCq1    H414436   3.519   3.576  15.419  0.0154  1.2453  0.5696
    4MPD2     C14437   3.389   3.299  15.114 -0.1619  0.0116 -0.4119
    4MPD2    C114438   3.522   3.317  15.133 -0.5505 -0.1269  0.5820
    4MPD2    C214439   3.610   3.267  15.042 -0.3305  0.3335  0.2845
    4MPD2    C314440   3.571   3.207  14.923  0.5048 -0.2691  0.3154
    4MPD2    C414441   3.442   3.199  14.899 -0.2119 -0.0845 -0.0105
    4MPD2    C514442   3.349   3.245  14.995  0.2342  0.5894 -0.5603
    4MPD2     H14443   3.716   3.272  15.065  0.1776  1.1432 -2.2391
    4MPD2    H114444   3.394   3.150  14.816 -1.5645 -1.6310  1.6787
    4MPD2    H214445   3.307   3.328  15.179 -1.2921 -0.4828 -1.6240
    4MPD2    H314446   3.245   3.224  14.974 -0.5320  2.4383  1.3653
    4MPD2     N14447   3.675   3.157  14.841 -0.1028 -0.3183 -0.2615
    4MPD2    H514448   3.770   3.172  14.876 -0.1347 -0.9869  0.1117
    4MPD2    N114449   3.567   3.380  15.254  0.3392 -0.1246  0.2960
    4MPD2    H714450   3.489   3.377  15.319  0.5196  1.0066  0.5661
    5TMC2    C114451   4.308   2.220  14.796 -0.7874  0.7540 -0.5881
    5TMC2    C214452   4.252   2.153  14.907  0.1010  0.2846 -0.3039
    5TMC2    C314453   4.283   2.202  15.029  0.2585 -0.4614  0.3147
    5TMC2    C414454   4.390   2.328  14.818  0.9879 -0.5850 -0.0515
    5TMC2    C514455   4.403   2.380  14.944  0.0927  0.0976  0.5515
    5TMC2    C614456   4.356   2.310  15.055  0.4289 -0.2088  0.5344
    5TMC2     C14457   4.219   2.233  14.680 -0.3101 -0.7505  0.3933
    5TMC2     O14458   4.157   2.132  14.647  0.1154  0.0415 -0.2787
    5TMC2     H14459   4.196   2.061  14.899 -2.1477  1.6945 -1.0579
    5TMC2    H114460   4.439   2.376  14.735  0.3839 -0.5348 -0.3788
    5TMC2    H214461   4.386   2.345  15.153  0.3257 -0.6337  0.7155
    5TMC2    C714462   4.387   2.528  14.929  0.1322  0.6418 -0.1979
    5TMC2    C814463   4.266   2.110  15.141 -1.0003 -0.1202 -0.2823
    5TMC2    O114464   4.357   2.568  14.819 -0.4756  0.1911  0.6704
    5TMC2    O214465   4.245   1.988  15.133  0.1991  0.0291  0.0436
    5TMC2    O514466   4.216   2.190  15.240 -0.5709  0.0677 -0.3143
    5TMC2    H514467   4.208   2.282  15.208  2.6004  0.9936  1.5234
    6MPD2     C14468   3.934   2.542  14.371 -0.1085 -1.0003  0.3933
    6MPD2    C114469   4.014   2.616  14.457  0.4177  0.2012 -0.9588
    6MPD2    C214470   4.109   2.549  14.532  0.0545  0.0702 -0.1631
    6MPD2    C314471   4.127   2.412  14.533 -0.1309  0.3760 -0.5824
    6MPD2    C414472   4.047   2.339  14.451 -0.3438 -0.2631 -0.2025
    6MPD2    C514473   3.954   2.402  14.370  0.2497 -0.1089  0.0480
    6MPD2     H14474   4.168   2.608  14.602 -0.3223 -1.8539  1.7632
    6MPD2    H114475   4.054   2.231  14.440 -0.1557 -0.1979 -0.7352
    6MPD2    H214476   3.854   2.584  14.311 -1.7715 -1.1752  2.5005
    6MPD2    H314477   3.905   2.336  14.300 -2.3877  3.0747 -1.0965
    6MPD2     N14478   4.218   2.358  14.625  0.6645  0.0570 -0.0128
    6MPD2    H514479   4.280   2.428  14.664  1.0311 -0.5381  0.4908
    6MPD2    N114480   3.993   2.752  14.483 -0.4043 -0.3168  0.9519
    6MPD2    H714481   4.064   2.796  14.541  1.2416 -2.6940  0.7622
  945NH3     N114482   0.920   1.379  17.520  0.6951  0.2914  0.2028
  945NH3     H214483   0.991   1.442  17.555  1.8052 -0.1045 -1.3290
  945NH3     H314484   0.973   1.310  17.468 -0.5627 -0.4351 -0.1067
  945NH3     H414485   0.881   1.323  17.595  0.7571 -0.2707 -0.1844
  946SOD     NA14486   3.967   4.339   7.151 -0.4073 -0.0488 -0.5108
  947SOD     NA14487   4.044   3.932  11.894  0.0298  0.1335  0.4902
  948SOD     NA14488   2.472   0.562  17.134  0.2683 -0.0357 -0.0326
  949SOD     NA14489   1.223   4.175  13.255  0.3140 -0.3629 -0.3016
  950SOD     NA14490   1.376   4.139   4.890 -0.3641  0.0899  0.2942
  951SOD     NA14491   3.542   1.145   6.284 -0.4396  0.0939  0.0983
  952SOD     NA14492   4.264   1.136  14.362  0.3457  0.5564 -0.0810
  953SOD     NA14493   0.970   2.430  15.766  0.1503 -0.1501 -0.2527
  954SOL     OW14494   4.652   3.134   2.368 -0.7811 -0.2526 -0.0648
  954SOL    HW114495   4.636   3.055   2.420  0.8371  0.0168  0.8472
  954SOL    HW214496   4.569   3.181   2.378 -0.8203 -0.5939  1.1920
  955SOL     OW14497   4.159   0.392   3.725  0.9442 -0.5955  0.0224
  955SOL    HW114498   4.231   0.331   3.741  0.3324 -1.5884 -0.9164
  955SOL    HW214499   4.086   0.357   3.777 -0.9301  1.5075 -1.1858
  956SOL     OW14500   4.241   0.635   6.502  0.1808 -0.5876 -0.0506
  956SOL    HW114501   4.312   0.579   6.533  0.6632 -0.2655 -0.5741
  956SOL    HW214502   4.168   0.589   6.542  1.0719 -2.8087 -0.9506
  957SOL     OW14503   4.096   1.051   4.548 -0.1470 -0.0322 -0.5275
  957SOL    HW114504   4.101   1.042   4.453  1.7331  0.0092 -0.4395
  957SOL    HW214505   4.188   1.042   4.573 -1.0563 -1.7907  2.2434
  958SOL     OW14506   3.284   3.533  15.348 -0.8356 -0.3021  0.0961
  958SOL    HW114507   3.248   3.475  15.415 -1.7776  0.4731  0.2648
  958SOL    HW214508   3.223   3.527  15.275  0.5879  0.9109 -1.2071
  959SOL     OW14509   4.684   3.056   4.574 -0.8933  0.2422  0.3057
  959SOL    HW114510   4.597   3.060   4.615 -1.4529 -1.2819 -0.7666
  959SOL    HW214511   4.665   3.040   4.482  0.8337  0.3417 -0.0502
  960SOL     OW14512   0.758   1.657  14.481  0.5642 -0.1755 -0.0723
  960SOL    HW114513   0.834   1.711  14.458 -0.3142 -0.9111 -4.7902
  960SOL    HW214514   0.798   1.570  14.479 -1.8533 -1.3302  1.5865
  961SOL     OW14515   3.775   1.183   8.958 -0.1070 -0.2376  0.0692
  961SOL    HW114516   3.723   1.198   9.037 -0.2783 -0.7165  0.0485
  961SOL    HW214517   3.753   1.268   8.921  0.9225  0.0556  0.1223
  962SOL     OW14518   2.324   3.583   2.849  0.0716  0.4704 -0.0258
  962SOL    HW114519   2.376   3.654   2.812 -1.7138  2.3639  1.1269
  962SOL    HW214520   2.380   3.550   2.920  0.3045  0.5047 -0.1929
  963SOL     OW14521   4.519   3.278   9.377  0.2610  0.4920  0.2510
  963SOL    HW114522   4.439   3.237   9.347 -0.3749  2.1552 -0.3217
  963SOL    HW214523   4.571   3.248   9.302 -0.2361 -0.3890  0.2658
  964SOL     OW14524   2.444   0.520   8.462 -0.4090  0.2709  0.2199
  964SOL    HW114525   2.484   0.487   8.543  2.3163  1.1137 -0.8030
  964SOL    HW214526   2.499   0.596   8.447  1.1977 -0.6703  1.3053
  965SOL     OW14527   0.625   2.126  17.709 -0.1607 -0.2587 -0.1330
  965SOL    HW114528   0.584   2.055  17.659 -0.9124  1.0878 -1.4431
  965SOL    HW214529   0.545   2.149   0.006 -1.6719 -2.1877 -1.8156
  966SOL     OW14530   2.276   3.509   9.771 -0.1200 -0.2562  0.3927
  966SOL    HW114531   2.257   3.585   9.825 -0.8793  0.3988 -0.7931
  966SOL    HW214532   2.305   3.439   9.830 -0.1718 -0.1180  0.5831
  967SOL     OW14533   1.776   0.645   9.170  0.2000 -0.4407 -0.3671
  967SOL    HW114534   1.840   0.585   9.209 -0.5603 -0.9588  0.0727
  967SOL    HW214535   1.786   0.649   9.075 -0.8494 -2.4297 -0.5676
  968SOL     OW14536   1.732   2.190   5.325 -0.2644  0.1916  0.0285
  968SOL    HW114537   1.703   2.263   5.380  0.9745  0.0230  0.8977
  968SOL    HW214538   1.825   2.210   5.320  0.2096 -2.2161 -0.8318
  969SOL     OW14539   1.147   3.041   6.038  0.4749 -0.0424  0.0173
  969SOL    HW114540   1.163   3.014   5.948 -1.5621  0.6919 -0.5598
  969SOL    HW214541   1.064   3.088   6.032  0.0174 -0.6281  1.7716
  970SOL     OW14542   0.244   3.392   9.188 -0.0346 -0.6060  0.1515
  970SOL    HW114543   0.173   3.402   9.124  0.5572 -1.5622 -0.6575
  970SOL    HW214544   0.205   3.350   9.265  1.9637  1.1235  2.0916
  971SOL     OW14545   0.610   2.714  12.923  0.4658  0.3223 -0.0493
  971SOL    HW114546   0.700   2.698  12.954  0.1605 -0.6073  0.3603
  971SOL    HW214547   0.612   2.806  12.899 -1.0250  0.7093  1.3295
  972SOL     OW14548   3.773   2.703  12.070 -0.1131  0.3245 -0.3622
  972SOL    HW114549   3.803   2.650  12.144 -1.4457 -1.1168 -0.8497
  972SOL    HW214550   3.725   2.638  12.019  1.4182  0.2152 -1.6568
  973SOL     OW14551   4.410   0.330   7.596 -0.1145 -0.2340 -0.1245
  973SOL    HW114552   4.359   0.359   7.672  1.8562  1.2899  0.6262
  973SOL    HW214553   4.340   0.342   7.532 -0.1348 -0.8256 -0.2113
  974SOL     OW14554   1.755   3.492   7.005  0.6190  0.5525  0.2905
  974SOL    HW114555   1.732   3.510   7.096  0.2557  0.7162  0.1676
  974SOL    HW214556   1.831   3.548   6.990  1.1237 -0.3738 -0.6301
  975SOL     OW14557   2.468   0.237   8.338 -0.2973 -0.1049  0.2237
  975SOL    HW114558   2.436   0.323   8.363 -0.3234 -0.5913  1.8790
  975SOL    HW214559   2.513   0.206   8.417 -0.0020  0.3930  0.2532
  976SOL     OW14560   1.223   1.329   5.853 -0.0070  0.0556 -0.3938
  976SOL    HW114561   1.306   1.375   5.845  0.4285 -0.4858  0.9213
  976SOL    HW214562   1.158   1.400   5.851 -0.2751 -0.1311  1.3460
  977SOL     OW14563   3.778   3.401   9.844  0.0799 -0.4513 -0.3057
  977SOL    HW114564   3.830   3.343   9.900 -0.7186 -2.9394 -2.1548
  977SOL    HW214565   3.756   3.468   9.909 -1.2794 -1.1585 -0.0438
  978SOL     OW14566   1.761   0.951   6.241 -0.3161 -0.6922  0.0181
  978SOL    HW114567   1.667   0.943   6.258 -0.5868  0.3305 -1.0380
  978SOL    HW214568   1.762   0.907   6.156 -1.1539  0.0657 -0.3808
  979SOL     OW14569   4.064   2.028   0.141  0.6410  0.5073 -0.6090
  979SOL    HW114570   4.073   2.023   0.046  0.9201 -0.5680 -0.5348
  979SOL    HW214571   4.129   2.091   0.173  1.2061 -0.8568  0.9323
  980SOL     OW14572   2.208   2.680   9.299  0.4475 -0.1387  0.1935
  980SOL    HW114573   2.117   2.682   9.328 -0.5274 -0.9296 -2.8666
  980SOL    HW214574   2.220   2.585   9.305  0.7575  0.0318  2.2102
  981SOL     OW14575   4.637   0.704   5.743 -0.2042 -0.3555  0.0325
  981SOL    HW114576   4.571   0.684   5.677  1.6754 -0.7625 -1.7242
  981SOL    HW214577   4.719   0.681   5.699 -0.8062 -0.7880 -0.8616
  982SOL     OW14578   0.648   0.621   3.579  0.2936  0.2465 -0.6615
  982SOL    HW114579   0.645   0.669   3.662  0.5528 -2.5907  0.9836
  982SOL    HW214580   0.602   0.542   3.607  0.3284 -0.2457 -1.9867
  983SOL     OW14581   3.485   2.715   6.113  0.3095 -0.4792 -0.2297
  983SOL    HW114582   3.550   2.746   6.050 -0.0772  0.6899 -0.0609
  983SOL    HW214583   3.404   2.753   6.080  0.4657 -0.8445 -1.0284
  984SOL     OW14584   0.310   2.188   8.112 -0.5447  0.4381  0.2010
  984SOL    HW114585   0.285   2.280   8.119 -1.1532  0.3925 -1.5268
  984SOL    HW214586   0.243   2.154   8.053 -0.7064 -0.1698  0.7298
  985SOL     OW14587   2.777   2.370   8.377 -0.5495 -0.3374 -0.4333
  985SOL    HW114588   2.705   2.423   8.343 -0.5747 -0.7787 -1.0578
  985SOL    HW214589   2.847   2.435   8.372 -1.6901  0.8860 -0.3645
  986SOL     OW14590   0.231   4.249   4.787 -0.0645  0.0065  0.4404
  986SOL    HW114591   0.187   4.164   4.790 -1.0801  0.5135  0.2886
  986SOL    HW214592   0.315   4.241   4.831  0.1013  0.4129  0.1989
  987SOL     OW14593   2.869   0.804   4.799  0.0308 -0.8237  0.7875
  987SOL    HW114594   2.808   0.855   4.745  2.5309  1.3300  0.0049
  987SOL    HW214595   2.825   0.722   4.822 -2.7044 -0.3455 -2.7722
  988SOL     OW14596   0.319   0.928   6.998  0.1348 -0.4362 -0.5497
  988SOL    HW114597   0.310   0.833   6.999 -1.7604 -0.2685 -1.1485
  988SOL    HW214598   0.247   0.951   7.058 -0.2134  0.2455 -1.2221
  989SOL     OW14599   3.254   1.356   1.278 -0.3470 -1.0123 -0.5401
  989SOL    HW114600   3.290   1.390   1.359 -0.5401  0.3019 -1.0101
  989SOL    HW214601   3.212   1.439   1.255 -0.7258 -1.0736 -0.0650
  990SOL     OW14602   2.477   4.222   7.378 -0.0796 -1.0655 -0.0151
  990SOL    HW114603   2.442   4.135   7.396 -0.6450 -0.9075 -0.3662
  990SOL    HW214604   2.461   4.233   7.284 -0.9657 -1.0614  0.1361
  991SOL     OW14605   1.602   0.034   5.156  0.3268  0.3886  0.3078
  991SOL    HW114606   1.577   0.126   5.168 -0.2566  0.3256 -0.4801
  991SOL    HW214607   1.554   4.738   5.231  0.0237 -4.2555 -1.9954
  992SOL     OW14608   1.758   4.203   7.206  0.1227  0.3908 -0.3228
  992SOL    HW114609   1.791   4.285   7.241  1.4833  0.8849 -2.7967
  992SOL    HW214610   1.677   4.237   7.169 -1.7019 -4.0816 -0.5039
  993SOL     OW14611   3.391   4.192   3.171 -0.2298 -0.5603  0.0277
  993SOL    HW114612   3.423   4.191   3.261  1.6596 -0.9904 -0.6650
  993SOL    HW214613   3.314   4.250   3.174  0.2873  0.1347  0.0206
  994SOL     OW14614   2.666   3.186   2.852  0.0162 -0.0597  0.5525
  994SOL    HW114615   2.589   3.230   2.890 -1.0837 -0.3241 -1.3609
  994SOL    HW214616   2.672   3.221   2.763  0.9827 -1.4960  0.0567
  995SOL     OW14617   3.711   0.017   6.949 -0.0025 -0.3930 -0.2230
  995SOL    HW114618   3.662   4.737   7.029  0.4256  1.4839  0.4422
  995SOL    HW214619   3.790   0.048   6.993 -0.6275  1.7796 -0.6412
  996SOL     OW14620   3.840   4.671  15.913 -0.1844  0.2101 -0.0300
  996SOL    HW114621   3.847   4.661  15.818  0.8410 -3.1540  0.4098
  996SOL    HW214622   3.817   4.580  15.932  1.7835  0.2256  2.4497
  997SOL     OW14623   3.551   0.088   3.615  0.3297  0.1920  0.3166
  997SOL    HW114624   3.612   0.128   3.553  0.8413 -0.6785  0.2556
  997SOL    HW214625   3.600   0.034   3.678  0.9926  1.1654  0.6240
  998SOL     OW14626   4.386   2.287   7.514  0.2010  0.3089 -0.2180
  998SOL    HW114627   4.399   2.195   7.490 -1.6735 -0.0095 -0.0929
  998SOL    HW214628   4.359   2.276   7.606  3.2678 -0.7033  0.5545
  999SOL     OW14629   3.179   3.406   1.687  0.8978  0.2256  0.1547
  999SOL    HW114630   3.169   3.370   1.775 -2.2589  0.3851 -0.1399
  999SOL    HW214631   3.159   3.321   1.647  3.1899  0.2859 -1.1729
 1000SOL     OW14632   4.138   3.680   7.164  0.9241  0.3574 -1.1486
 1000SOL    HW114633   4.094   3.700   7.082 -3.0722 -1.3393  0.5859
 1000SOL    HW214634   4.228   3.678   7.133  1.6206 -1.5340  0.9505
 1001SOL     OW14635   2.908   1.675   5.290  0.1731  0.0641  0.0519
 1001SOL    HW114636   2.902   1.592   5.243  1.3977  0.6638 -1.1871
 1001SOL    HW214637   2.911   1.734   5.214 -0.7178  0.0765  0.0305
 1002SOL     OW14638   3.746   1.647   1.319  0.4618  0.8058 -0.0366
 1002SOL    HW114639   3.757   1.658   1.224 -0.8294  0.6620 -0.2117
 1002SOL    HW214640   3.732   1.734   1.356  0.2773  1.4131 -1.5236
 1003SOL     OW14641   0.619   4.510   4.905  0.2672  0.2540  0.9339
 1003SOL    HW114642   0.668   4.460   4.839 -0.8903 -0.1196  0.3680
 1003SOL    HW214643   0.574   4.436   4.945  0.3161 -0.9996 -1.3667
 1004SOL     OW14644   3.733   2.053  13.836 -0.0420  0.2654  0.0340
 1004SOL    HW114645   3.712   2.099  13.755 -0.4808  1.3226  0.7555
 1004SOL    HW214646   3.663   1.988  13.844  0.6340 -0.6803 -1.6869
 1005SOL     OW14647   4.613   0.128   5.482  0.2989 -0.3126 -0.3821
 1005SOL    HW114648   4.586   0.130   5.574 -1.0373  0.5501 -0.7867
 1005SOL    HW214649   4.702   0.094   5.487  1.0112  1.1802 -2.7457
 1006SOL     OW14650   1.416   0.158   3.596  0.8691  0.1220 -0.0910
 1006SOL    HW114651   1.344   0.173   3.535 -0.5468 -0.3361  1.4520
 1006SOL    HW214652   1.359   0.135   3.670  0.4539  1.0292 -0.1240
 1007SOL     OW14653   0.721   3.842   6.494 -0.1694 -0.7167 -0.6297
 1007SOL    HW114654   0.699   3.930   6.465  1.6873  0.0129  0.1413
 1007SOL    HW214655   0.645   3.792   6.464 -1.5244  0.0430  1.5156
 1008SOL     OW14656   4.639   0.241  16.634  0.2809 -0.9037  0.2567
 1008SOL    HW114657   4.688   0.159  16.645  0.8844 -0.3831  1.4842
 1008SOL    HW214658   4.628   0.268  16.725  2.3150  0.2738  0.1634
 1009SOL     OW14659   3.205   4.221  11.539  0.1752  0.1026 -0.8530
 1009SOL    HW114660   3.113   4.224  11.567  0.4391  2.1444 -0.2629
 1009SOL    HW214661   3.205   4.127  11.520 -0.7491  0.1767 -1.2355
 1010SOL     OW14662   0.671   1.696  11.106  0.2231  0.1577  0.4322
 1010SOL    HW114663   0.652   1.683  11.013 -0.6168  2.6418  0.2520
 1010SOL    HW214664   0.760   1.730  11.103  0.5986 -0.8903 -0.3057
 1011SOL     OW14665   0.204   1.600   2.306 -1.0847 -0.2619 -0.0119
 1011SOL    HW114666   0.235   1.580   2.394  0.5467  3.8938  0.3587
 1011SOL    HW214667   0.129   1.542   2.314 -0.2320 -1.3181  0.2953
 1012SOL     OW14668   3.277   0.329   8.752  0.4525  0.2060  0.0669
 1012SOL    HW114669   3.336   0.353   8.681 -1.0177  2.2597 -0.4981
 1012SOL    HW214670   3.261   0.416   8.790 -0.1329 -0.0420  0.3846
 1013SOL     OW14671   4.377   1.150   0.870 -0.8765 -0.1092  1.2066
 1013SOL    HW114672   4.340   1.175   0.786 -2.7797  0.8848  2.3428
 1013SOL    HW214673   4.446   1.215   0.885 -0.2584 -1.1058  2.7647
 1014SOL     OW14674   2.891   3.136   9.373  0.0149 -0.2119 -0.1354
 1014SOL    HW114675   2.797   3.134   9.353 -0.3252 -1.3150  1.5186
 1014SOL    HW214676   2.895   3.071   9.443 -1.6414  0.2805  0.4140
 1015SOL     OW14677   0.514   1.989   4.556  0.3043  0.2451 -0.4592
 1015SOL    HW114678   0.442   1.958   4.502  0.5846 -0.6098 -0.3392
 1015SOL    HW214679   0.513   2.084   4.545  0.4998 -0.0028 -2.6583
 1016SOL     OW14680   0.175   4.615  16.332  0.3622 -0.2471 -0.0915
 1016SOL    HW114681   0.133   4.690  16.290  1.2338  0.7223  0.7668
 1016SOL    HW214682   0.266   4.646  16.333 -0.6131  2.6662  0.1638
 1017SOL     OW14683   3.269   1.567   8.255 -0.0838  0.3044  0.0509
 1017SOL    HW114684   3.342   1.509   8.234 -0.2837  0.0230  0.1478
 1017SOL    HW214685   3.271   1.574   8.351 -0.1825 -0.9372  0.1380
 1018SOL     OW14686   2.572   1.368  13.597  0.3983  0.2530 -0.4450
 1018SOL    HW114687   2.588   1.360  13.503 -1.1116  0.6080 -0.7385
 1018SOL    HW214688   2.561   1.463  13.606 -1.4097  0.1311 -1.3014
 1019SOL     OW14689   0.917   2.747   6.274  0.0644 -0.2860 -0.1463
 1019SOL    HW114690   0.825   2.761   6.298 -0.1860  0.3321 -1.4537
 1019SOL    HW214691   0.904   2.714   6.185 -1.2503  0.1646 -0.1334
 1020SOL     OW14692   2.265   1.787   6.244 -0.1100 -0.3416  0.0230
 1020SOL    HW114693   2.352   1.820   6.219  0.7798 -2.7346  0.0126
 1020SOL    HW214694   2.289   1.696   6.228 -2.1342 -0.6897 -1.0769
 1021SOL     OW14695   1.861   3.164   7.639  0.1129  0.3332  0.4568
 1021SOL    HW114696   1.833   3.248   7.602 -0.8372  0.9374  2.5574
 1021SOL    HW214697   1.782   3.138   7.686  0.8465 -1.5220  0.6537
 1022SOL     OW14698   3.981   2.115   9.833  0.1271  0.2664 -0.1692
 1022SOL    HW114699   4.006   2.201   9.866  0.4635  0.0471  0.1583
 1022SOL    HW214700   4.068   2.094   9.798  0.2159 -0.0008  0.2022
 1023SOL     OW14701   3.588   2.255   8.325  0.1444 -0.5156 -0.2106
 1023SOL    HW114702   3.614   2.234   8.235  0.4175  0.4012 -0.3414
 1023SOL    HW214703   3.493   2.271   8.323 -0.4011 -3.5270  1.1321
 1024SOL     OW14704   4.114   1.738   1.411  0.2752 -0.8948 -0.2057
 1024SOL    HW114705   4.094   1.658   1.459 -0.8687 -2.2057 -2.8675
 1024SOL    HW214706   4.104   1.696   1.326 -1.8684  2.4599 -1.6075
 1025SOL     OW14707   0.553   1.046   2.383  0.3875 -0.8195  0.1976
 1025SOL    HW114708   0.491   1.028   2.312 -1.6054  2.4170  1.1301
 1025SOL    HW214709   0.598   0.961   2.379  3.8311  1.0400 -1.1096
 1026SOL     OW14710   4.046   4.494  10.501  0.2900 -0.0913 -0.0294
 1026SOL    HW114711   3.952   4.503  10.516 -0.0382  0.9232 -2.7708
 1026SOL    HW214712   4.072   4.584  10.518  0.8366  0.0780 -1.7717
 1027SOL     OW14713   2.073   3.384   2.137  0.0796 -0.0567 -0.4507
 1027SOL    HW114714   2.087   3.379   2.232  3.9115  1.7446 -0.9528
 1027SOL    HW214715   2.162   3.382   2.104 -0.0375 -0.7675 -0.7314
 1028SOL     OW14716   2.116   0.854   6.709 -0.3845  0.7017  0.0426
 1028SOL    HW114717   2.070   0.889   6.633 -0.7273  0.0800 -0.0356
 1028SOL    HW214718   2.159   0.931   6.746 -0.0742  0.7036 -0.3246
 1029SOL     OW14719   1.059   1.484   9.590 -0.2064  0.0532  0.6199
 1029SOL    HW114720   1.018   1.566   9.616 -0.1786  0.3523 -0.2798
 1029SOL    HW214721   1.126   1.467   9.656 -0.9643  0.6108  1.5203
 1030SOL     OW14722   2.154   3.361   8.073  0.5940  0.3367  0.1153
 1030SOL    HW114723   2.234   3.318   8.043 -1.9557 -2.6331 -2.3758
 1030SOL    HW214724   2.133   3.411   7.994  0.0590  1.9811  1.2904
 1031SOL     OW14725   4.605   2.376   2.159 -0.1443  0.2414 -0.3002
 1031SOL    HW114726   4.679   2.403   2.105  0.6213 -0.2911  0.4697
 1031SOL    HW214727   4.657   2.326   2.222 -2.0236  0.5772  1.5224
 1032SOL     OW14728   1.472   2.638   1.501 -0.5854  0.0494 -0.2375
 1032SOL    HW114729   1.416   2.708   1.467  0.7308  0.5602 -1.3286
 1032SOL    HW214730   1.509   2.605   1.419 -1.2218 -0.7989 -0.1900
 1033SOL     OW14731   0.920   3.188   6.105  0.5085 -0.8748 -0.4856
 1033SOL    HW114732   0.874   3.272   6.098 -0.5328 -1.2131  2.5861
 1033SOL    HW214733   0.913   3.168   6.198  0.8388 -0.9228 -0.4707
 1034SOL     OW14734   0.352   1.225   7.785 -0.0922  0.2157  0.0764
 1034SOL    HW114735   0.273   1.204   7.736  0.4303  1.4971 -1.3286
 1034SOL    HW214736   0.316   1.272   7.861  1.5937 -1.1455  1.7124
 1035SOL     OW14737   3.591   0.520   7.340 -0.4090 -0.2973 -0.8326
 1035SOL    HW114738   3.650   0.592   7.316  1.2351 -1.2491  0.3350
 1035SOL    HW214739   3.528   0.527   7.269  0.2228  1.7995 -1.1869
 1036SOL     OW14740   2.285   3.423   9.148 -0.1078  0.1362 -0.7361
 1036SOL    HW114741   2.288   3.450   9.056  0.5167  1.1782 -0.4040
 1036SOL    HW214742   2.250   3.498   9.195  1.9393 -0.5415  1.9066
 1037SOL     OW14743   4.542   2.088   1.815  0.6098  0.3140  0.2947
 1037SOL    HW114744   4.488   2.115   1.890 -2.8955 -2.6926 -1.1598
 1037SOL    HW214745   4.543   2.160   1.752 -2.2485  0.9369  0.9511
 1038SOL     OW14746   3.897   3.347   4.672 -0.6868 -0.3667  0.2069
 1038SOL    HW114747   3.814   3.314   4.636 -1.6035  0.7277  1.3202
 1038SOL    HW214748   3.930   3.268   4.714  0.6822 -0.3180 -0.8053
 1039SOL     OW14749   3.581   0.147   9.474  0.0403  0.2671 -0.0611
 1039SOL    HW114750   3.651   0.197   9.432  0.3494 -1.1637 -1.2761
 1039SOL    HW214751   3.538   0.208   9.534  1.2770  0.2150  0.8663
 1040SOL     OW14752   4.166   2.772   7.673 -0.3059 -0.4914  0.4199
 1040SOL    HW114753   4.238   2.833   7.655  0.0357 -0.6440  1.2963
 1040SOL    HW214754   4.132   2.769   7.584 -2.5510 -0.1347  1.2773
 1041SOL     OW14755   4.499   4.199   6.972  0.2649 -0.2030 -0.4956
 1041SOL    HW114756   4.490   4.222   6.879 -0.3681 -1.6970 -0.8039
 1041SOL    HW214757   4.549   4.273   7.005 -0.8109  0.7793 -1.0754
 1042SOL     OW14758   2.433   0.509   9.015 -0.0897 -0.2871 -0.2301
 1042SOL    HW114759   2.455   0.571   9.084  0.6096 -0.4173 -0.3343
 1042SOL    HW214760   2.421   0.565   8.938 -2.3562 -1.4432 -0.7172
 1043SOL     OW14761   3.931   4.489   5.987  0.5865 -0.3801  0.4739
 1043SOL    HW114762   3.931   4.412   5.930 -0.3836  0.0163 -0.0667
 1043SOL    HW214763   4.012   4.465   6.031  1.3435 -1.2978 -1.3816
 1044SOL     OW14764   0.928   2.141  12.144 -0.4857  0.0843 -0.3519
 1044SOL    HW114765   0.843   2.098  12.148 -0.7144  0.7042  1.7877
 1044SOL    HW214766   0.968   2.103  12.066 -3.2088  0.4082 -1.8782
 1045SOL     OW14767   3.590   1.477   6.763 -0.2671  0.4895 -0.6173
 1045SOL    HW114768   3.634   1.543   6.817  1.8929 -1.0729 -0.4818
 1045SOL    HW214769   3.600   1.522   6.679  2.0524  1.3557  0.1071
 1046SOL     OW14770   2.993   3.325  14.957  0.6789  0.2893 -0.5350
 1046SOL    HW114771   2.986   3.384  14.882  0.2267  2.4875  1.2486
 1046SOL    HW214772   3.029   3.396  15.010 -0.2365  0.7617 -0.5366
 1047SOL     OW14773   1.131   1.110   9.429 -0.4760  0.2706 -0.7131
 1047SOL    HW114774   1.135   1.051   9.504  1.3991  0.1712 -0.8905
 1047SOL    HW214775   1.055   1.163   9.453 -0.8304  0.0191 -1.2906
 1048SOL     OW14776   0.932   0.355   5.205 -0.0629  0.4560  0.2409
 1048SOL    HW114777   1.012   0.305   5.220  0.9955  2.2663  0.6505
 1048SOL    HW214778   0.965   0.442   5.227 -0.5751  1.1044 -1.5095
 1049SOL     OW14779   3.152   1.563   6.976  0.1978  0.4696  0.2239
 1049SOL    HW114780   3.137   1.600   7.064 -0.0734 -0.9038  0.7470
 1049SOL    HW214781   3.196   1.480   6.993 -1.0395 -0.4742 -1.2817
 1050SOL     OW14782   2.227   1.030  11.487  0.0552  0.3943 -0.4659
 1050SOL    HW114783   2.220   1.080  11.568 -2.1765  1.2683 -1.1838
 1050SOL    HW214784   2.319   1.005  11.486  0.3202  1.4344 -2.2077
 1051SOL     OW14785   0.072   0.197   8.105  0.3213 -0.0255  0.3953
 1051SOL    HW114786   4.719   0.196   8.137  0.1728 -0.3297 -0.0403
 1051SOL    HW214787   0.097   0.106   8.121  0.7845  0.2032  0.9752
 1052SOL     OW14788   4.471   0.921  12.255 -0.3748 -0.1231 -0.4946
 1052SOL    HW114789   4.388   0.885  12.226 -0.0888  0.0726 -1.5587
 1052SOL    HW214790   4.511   0.850  12.306  1.7615 -0.0570 -2.0606
 1053SOL     OW14791   4.576   4.731   3.195  0.0398 -0.1257 -0.2481
 1053SOL    HW114792   4.632   0.064   3.162  1.4813 -0.4761  1.4413
 1053SOL    HW214793   4.574   4.676   3.117 -2.6114  1.4867 -1.3421
 1054SOL     OW14794   4.737   1.979   5.579 -0.0274  0.2877 -0.3832
 1054SOL    HW114795   0.062   1.980   5.507 -0.5412 -1.3354 -0.8431
 1054SOL    HW214796   4.697   1.893   5.571  0.6603  0.1834 -2.7521
 1055SOL     OW14797   4.192   3.358   9.543 -0.5183  0.1048 -0.2103
 1055SOL    HW114798   4.104   3.378   9.510  0.3540  1.8468 -1.4395
 1055SOL    HW214799   4.233   3.443   9.531 -2.1936  0.4407 -3.3489
 1056SOL     OW14800   3.890   2.502   7.233  0.7843  0.1974 -0.5918
 1056SOL    HW114801   3.812   2.496   7.288 -0.3734 -0.7401 -2.3249
 1056SOL    HW214802   3.959   2.471   7.291 -0.5107 -0.0802  0.7814
 1057SOL     OW14803   0.905   3.872  16.741 -0.8517  0.2617 -0.9072
 1057SOL    HW114804   0.883   3.965  16.748  0.3221  0.6453 -2.2459
 1057SOL    HW214805   0.982   3.862  16.796 -1.4586  0.8893  0.0542
 1058SOL     OW14806   3.734   1.478  14.500 -0.6700  0.0715  0.0523
 1058SOL    HW114807   3.806   1.518  14.548 -1.0657 -0.1185  0.7974
 1058SOL    HW214808   3.668   1.545  14.482 -0.3329  0.4241  0.1380
 1059SOL     OW14809   4.107   1.733   5.869  0.8101  0.1763 -0.4120
 1059SOL    HW114810   4.041   1.752   5.803  0.6375 -0.5556 -0.4523
 1059SOL    HW214811   4.195   1.746   5.833  1.1880 -0.5998  0.2304
 1060SOL     OW14812   1.619   0.453   2.379 -0.1568  0.5874 -0.7460
 1060SOL    HW114813   1.697   0.474   2.432 -0.4705  0.2110 -0.1342
 1060SOL    HW214814   1.555   0.475   2.447 -1.9652 -0.8898 -1.9995
 1061SOL     OW14815   0.754   4.350  11.073 -0.6494  0.2224  0.1757
 1061SOL    HW114816   0.725   4.271  11.118  0.7457 -0.5541 -0.3105
 1061SOL    HW214817   0.788   4.403  11.144  0.2177 -1.5249  1.0610
 1062SOL     OW14818   2.919   3.460   8.384 -0.2881  0.2362  0.0422
 1062SOL    HW114819   2.865   3.538   8.398  1.5590  1.2030  1.5972
 1062SOL    HW214820   2.922   3.450   8.288  2.4067  0.9108  0.0661
 1063SOL     OW14821   0.203   1.503   0.803 -0.3409  0.3919 -0.7895
 1063SOL    HW114822   0.288   1.493   0.846 -0.1317  2.2563 -0.7623
 1063SOL    HW214823   0.224   1.481   0.712  0.8386 -0.6523 -0.2735
 1064SOL     OW14824   1.326   0.376  10.031 -0.0402  0.1009  0.1541
 1064SOL    HW114825   1.261   0.428  10.079  2.4370  1.1365  2.4065
 1064SOL    HW214826   1.347   0.435   9.958  1.0017 -1.0245 -0.4445
 1065SOL     OW14827   4.547   2.852  12.425 -0.4547  0.2820 -0.1690
 1065SOL    HW114828   4.625   2.851  12.370 -1.3766 -0.5840 -1.4378
 1065SOL    HW214829   4.488   2.817  12.359  0.5146  0.7509 -1.2795
 1066SOL     OW14830   1.397   4.375   1.517  0.0920 -0.4067  0.3113
 1066SOL    HW114831   1.373   4.303   1.458  1.8185 -1.1271  0.4944
 1066SOL    HW214832   1.308   4.412   1.520 -0.0129 -0.6595  0.3378
 1067SOL     OW14833   4.042   0.954   3.836 -0.0403  0.6197 -0.4584
 1067SOL    HW114834   4.105   0.892   3.874  1.5293  1.9227 -0.9535
 1067SOL    HW214835   4.040   0.924   3.745 -0.9207  2.1245 -0.9150
 1068SOL     OW14836   4.291   0.268   4.463 -0.2798  0.2626  0.4991
 1068SOL    HW114837   4.235   0.335   4.503  0.3869  1.7319 -1.0296
 1068SOL    HW214838   4.232   0.245   4.391  0.5964  0.7977 -0.3856
 1069SOL     OW14839   2.460   4.371   5.773 -0.9596  0.1106 -0.3316
 1069SOL    HW114840   2.501   4.364   5.687 -0.5469 -1.9563  0.0459
 1069SOL    HW214841   2.452   4.282   5.806  0.0757 -0.1733 -0.8735
 1070SOL     OW14842   2.018   2.240   1.901  0.0635  0.2816 -0.5329
 1070SOL    HW114843   2.026   2.328   1.936  0.4253  0.5287 -1.2385
 1070SOL    HW214844   2.110   2.235   1.876  0.3345 -0.5424  0.5989
 1071SOL     OW14845   0.441   1.014   5.257 -0.2189 -0.7002 -0.6395
 1071SOL    HW114846   0.434   1.083   5.190 -3.2859 -1.7132 -1.3672
 1071SOL    HW214847   0.380   0.951   5.218 -0.9860  0.9743 -2.1635
 1072SOL     OW14848   0.619   1.145   2.916 -0.3999 -0.1924 -0.9856
 1072SOL    HW114849   0.651   1.171   2.829  1.3349 -0.7345 -0.5047
 1072SOL    HW214850   0.581   1.230   2.936 -1.5524 -1.3533  1.7948
 1073SOL     OW14851   4.448   0.200   1.786 -0.0787 -0.1110  0.4626
 1073SOL    HW114852   4.488   0.117   1.760  1.6786  0.3749  1.6067
 1073SOL    HW214853   4.382   0.161   1.843  1.1102 -1.5221  0.8636
 1074SOL     OW14854   1.872   3.028   4.930  0.4913 -0.1018  0.5837
 1074SOL    HW114855   1.880   3.081   5.010 -0.5885  0.3665  0.3875
 1074SOL    HW214856   1.967   3.031   4.919  0.4487  0.8643  0.4461
 1075SOL     OW14857   1.468   0.685   2.053  0.1337  0.3524  0.5353
 1075SOL    HW114858   1.496   0.725   1.971  1.2417 -1.5758 -0.0311
 1075SOL    HW214859   1.402   0.621   2.026 -0.4748 -0.1601  3.1946
 1076SOL     OW14860   3.171   0.034   7.224 -0.3264 -0.0412 -0.1720
 1076SOL    HW114861   3.178   4.678   7.235 -1.0708 -0.1406 -0.5383
 1076SOL    HW214862   3.218   0.048   7.141 -1.5626 -0.0775 -0.8797
 1077SOL     OW14863   3.167   1.941   6.992  0.3785 -0.1221 -0.1022
 1077SOL    HW114864   3.215   1.881   7.049  2.0912  0.0657 -1.3647
 1077SOL    HW214865   3.162   1.904   6.904  2.9532  1.4056 -0.8681
 1078SOL     OW14866   3.836   1.700   6.614 -0.1588 -0.3071 -0.3538
 1078SOL    HW114867   3.793   1.765   6.558 -1.7967  1.8677  3.4230
 1078SOL    HW214868   3.915   1.689   6.562  1.2911 -2.0351  2.2090
 1079SOL     OW14869   0.443   3.062  17.323  0.4328  0.1145  0.2135
 1079SOL    HW114870   0.466   3.120  17.250 -1.2418 -0.4874 -0.7763
 1079SOL    HW214871   0.387   3.117  17.378  2.8616  0.5675  2.2375
 1080SOL     OW14872   1.925   2.336  14.805  0.2957 -0.4294 -0.4870
 1080SOL    HW114873   1.880   2.386  14.873  1.2987  0.6339 -0.6148
 1080SOL    HW214874   1.962   2.410  14.756 -1.6471  1.3533  0.7105
 1081SOL     OW14875   4.220   3.440   7.681 -0.0746 -0.2252 -0.5415
 1081SOL    HW114876   4.274   3.410   7.608 -0.9607 -0.1200 -1.2555
 1081SOL    HW214877   4.208   3.533   7.659 -4.3567 -0.3625  1.1798
 1082SOL     OW14878   4.180   3.458   5.627 -0.2511  0.0196  0.2209
 1082SOL    HW114879   4.237   3.532   5.606  1.5373 -1.3192  0.3589
 1082SOL    HW214880   4.109   3.479   5.566 -1.0734 -1.5364  0.6556
 1083SOL     OW14881   0.051   3.573   7.009  0.4765 -0.5084 -0.1115
 1083SOL    HW114882   0.106   3.494   7.010  0.6481 -0.3616  1.5148
 1083SOL    HW214883   0.106   3.637   7.054 -0.2516  1.8433 -2.5462
 1084SOL     OW14884   3.884   2.886   5.857  0.2681 -0.7547  0.8137
 1084SOL    HW114885   3.973   2.884   5.822  0.8838 -2.1309  2.4476
 1084SOL    HW214886   3.905   2.858   5.946 -0.6891  1.5703  1.7827
 1085SOL     OW14887   0.812   1.769  15.350 -0.1108  0.3070  0.3216
 1085SOL    HW114888   0.822   1.692  15.405 -0.0325  1.9715  2.6630
 1085SOL    HW214889   0.726   1.799  15.380  0.1743  0.9798  0.4873
 1086SOL     OW14890   0.545   4.124   6.311  0.3322  0.4450  0.3868
 1086SOL    HW114891   0.495   4.104   6.390 -0.3321 -0.6842 -0.3083
 1086SOL    HW214892   0.621   4.158   6.358 -0.3767  0.0172  1.8260
 1087SOL     OW14893   1.454   4.258   0.509  0.2372 -0.0469 -1.2041
 1087SOL    HW114894   1.445   4.328   0.444  1.6655  0.4073 -0.9082
 1087SOL    HW214895   1.521   4.202   0.470  0.3060 -1.2002  0.5693
 1088SOL     OW14896   4.364   1.905  13.313 -0.6367  0.0587 -0.5053
 1088SOL    HW114897   4.393   1.990  13.280 -0.4300  0.1750 -0.0240
 1088SOL    HW214898   4.290   1.884  13.256  0.4754 -3.2876 -0.7170
 1089SOL     OW14899   0.741   1.466  17.169  0.1032 -0.0138 -1.2885
 1089SOL    HW114900   0.782   1.380  17.173  1.3136  0.6007 -0.4892
 1089SOL    HW214901   0.733   1.492  17.077  1.6988  0.3390 -1.3201
 1090SOL     OW14902   0.689   1.399   6.451  0.2532  0.2935 -0.3966
 1090SOL    HW114903   0.675   1.319   6.501 -2.2610 -0.2496 -1.9884
 1090SOL    HW214904   0.773   1.379   6.410  0.9447  2.3728 -0.0270
 1091SOL     OW14905   3.305   3.016   4.300 -0.0447 -0.8561 -0.5459
 1091SOL    HW114906   3.212   2.998   4.286 -0.0599 -0.7973 -0.5220
 1091SOL    HW214907   3.332   3.058   4.219  0.8489  2.1776  1.3251
 1092SOL     OW14908   1.577   2.437   8.841 -0.2200  0.3250 -0.1231
 1092SOL    HW114909   1.506   2.489   8.802 -1.3852 -0.6935  0.6167
 1092SOL    HW214910   1.656   2.487   8.824  0.8891 -0.7998  1.7060
 1093SOL     OW14911   0.634   4.236  10.587 -0.5550 -0.2111  0.4096
 1093SOL    HW114912   0.597   4.149  10.574  1.7624 -1.3344  1.3370
 1093SOL    HW214913   0.648   4.266  10.498 -0.1896 -0.9335  0.2257
 1094SOL     OW14914   0.208   0.236   5.928 -0.6020  0.0855  0.0890
 1094SOL    HW114915   0.286   0.220   5.981 -1.5028 -0.8140  1.1231
 1094SOL    HW214916   0.209   0.332   5.930 -0.5960  0.0770  0.4957
 1095SOL     OW14917   0.787   1.014  15.912  0.3998 -0.1606 -0.4769
 1095SOL    HW114918   0.709   1.052  15.952  1.6924 -1.3525  3.1846
 1095SOL    HW214919   0.839   1.095  15.911  1.0877 -0.6026 -1.1307
 1096SOL     OW14920   4.720   1.825   3.738  0.3111 -0.0359 -0.2443
 1096SOL    HW114921   4.639   1.794   3.779 -0.4589  0.8710 -1.0942
 1096SOL    HW214922   4.735   1.775   3.658  2.2701  1.2919 -0.6945
 1097SOL     OW14923   1.378   0.730   6.717  0.1266 -0.7142  0.0974
 1097SOL    HW114924   1.460   0.776   6.702 -0.1820 -0.1433  0.1340
 1097SOL    HW214925   1.342   0.786   6.786  1.4097  2.0461 -1.4851
 1098SOL     OW14926   1.664   4.105   0.449 -0.1298 -0.0113  0.2883
 1098SOL    HW114927   1.710   4.064   0.522 -0.0809 -0.5219 -0.0283
 1098SOL    HW214928   1.731   4.170   0.427  0.4749 -1.4094 -2.0831
 1099SOL     OW14929   0.633   3.279   7.894 -0.5550 -0.1721  0.1959
 1099SOL    HW114930   0.574   3.252   7.964  2.1132 -1.2047  2.0551
 1099SOL    HW214931   0.624   3.374   7.901  1.3629 -0.1151  2.1424
 1100SOL     OW14932   2.676   1.189   6.632 -0.4874 -0.1212 -0.0504
 1100SOL    HW114933   2.602   1.137   6.599 -1.1032 -0.0072  1.1838
 1100SOL    HW214934   2.674   1.173   6.726 -0.3506 -2.0925 -0.3657
 1101SOL     OW14935   1.172   3.578   2.268  0.2067  0.3382  0.1972
 1101SOL    HW114936   1.226   3.521   2.323 -0.6280  0.6546  1.3558
 1101SOL    HW214937   1.084   3.554   2.296  0.1397 -0.4857 -0.7203
 1102SOL     OW14938   1.593   1.454   2.591 -0.1299  0.2609 -0.6063
 1102SOL    HW114939   1.639   1.445   2.675 -0.2087 -1.3688 -0.7388
 1102SOL    HW214940   1.510   1.407   2.601  2.0103 -3.2743  0.7054
 1103SOL     OW14941   2.705   2.629   1.673  0.4169 -0.0246 -0.2765
 1103SOL    HW114942   2.634   2.692   1.660  0.8228  0.0954 -1.8711
 1103SOL    HW214943   2.666   2.543   1.662 -0.4731  0.5041 -1.2534
 1104SOL     OW14944   0.909   4.576   8.477  0.4866  0.4328 -0.1480
 1104SOL    HW114945   0.942   4.516   8.410 -1.4751 -0.7993 -0.0289
 1104SOL    HW214946   0.986   4.575   8.534  0.5900 -1.5478 -0.3233
 1105SOL     OW14947   2.690   2.896  16.909 -0.1547 -0.0907  0.1878
 1105SOL    HW114948   2.611   2.852  16.941 -1.6514  3.5828  1.5053
 1105SOL    HW214949   2.704   2.843  16.831 -2.8199  1.7241 -1.5023
 1106SOL     OW14950   0.972   1.619  17.354 -0.1814  0.8465  0.2722
 1106SOL    HW114951   0.938   1.554  17.416 -1.9984  1.4031 -0.1544
 1106SOL    HW214952   0.893   1.671  17.343 -0.3125 -0.1456 -3.2182
 1107SOL     OW14953   1.004   0.992  10.221 -0.4807 -0.0147  0.2934
 1107SOL    HW114954   0.931   0.931  10.215  0.5533 -1.1895 -0.5147
 1107SOL    HW214955   1.020   1.015  10.129 -1.5547 -0.2434  0.0546
 1108SOL     OW14956   0.163   0.912  11.271 -0.5029 -0.2340  0.1945
 1108SOL    HW114957   0.174   0.984  11.333 -0.0664  0.7504 -1.0309
 1108SOL    HW214958   0.208   0.841  11.316 -1.1441 -0.6676  0.1664
 1109SOL     OW14959   1.207   0.468   6.125  0.3489  0.0364 -1.0174
 1109SOL    HW114960   1.177   0.452   6.036  1.8873 -0.3771 -1.4689
 1109SOL    HW214961   1.139   0.423   6.176  1.1603  1.7159  1.5610
 1110SOL     OW14962   4.108   3.431  15.007 -0.5382 -0.3094 -0.0773
 1110SOL    HW114963   4.024   3.478  15.006  0.0397  0.7511  0.9333
 1110SOL    HW214964   4.123   3.410  15.100  1.2404  0.5205 -0.1881
 1111SOL     OW14965   0.530   4.353   2.926  0.8632 -0.1740  0.0583
 1111SOL    HW114966   0.565   4.333   2.839  0.1116 -1.3156  0.0123
 1111SOL    HW214967   0.582   4.433   2.930 -2.0063  1.7706 -1.7189
 1112SOL     OW14968   0.735   1.350  15.697 -0.1590  0.3566 -0.0032
 1112SOL    HW114969   0.643   1.332  15.716 -0.1955  0.2826 -0.2462
 1112SOL    HW214970   0.780   1.345  15.781  0.7118  1.1147 -0.4241
 1113SOL     OW14971   4.473   2.268   6.888 -0.9199  0.5970 -0.5131
 1113SOL    HW114972   4.428   2.339   6.842  0.1666 -0.2880 -2.9558
 1113SOL    HW214973   4.403   2.207   6.911 -0.0823 -0.6253 -1.2652
 1114SOL     OW14974   1.931   3.275   9.124 -0.3822  0.6545 -0.3471
 1114SOL    HW114975   1.871   3.350   9.127 -1.7737 -0.5060  1.3148
 1114SOL    HW214976   2.008   3.306   9.171  0.4789 -2.7815  0.4497
 1115SOL     OW14977   2.448   3.936   7.114 -0.1433  0.3312 -0.1210
 1115SOL    HW114978   2.473   3.986   7.037  0.3447 -1.4722 -1.1385
 1115SOL    HW214979   2.529   3.886   7.126 -1.3743 -1.4844  0.6257
 1116SOL     OW14980   1.728   3.061   6.591 -0.2511 -1.0104  0.2735
 1116SOL    HW114981   1.644   3.054   6.545 -0.8415  1.0692  1.0433
 1116SOL    HW214982   1.770   3.122   6.529 -1.2245 -0.9230 -0.3080
 1117SOL     OW14983   0.865   2.442   6.070  0.2053 -0.4869  0.6037
 1117SOL    HW114984   0.927   2.403   6.008  1.7260 -0.8624  2.3668
 1117SOL    HW214985   0.846   2.525   6.025 -0.7860  0.3723  2.6203
 1118SOL     OW14986   2.709   3.840  15.468 -0.0345 -0.0413 -0.1918
 1118SOL    HW114987   2.802   3.859  15.482 -0.2326 -0.5092  1.8751
 1118SOL    HW214988   2.681   3.835  15.560  0.9007 -0.4423  0.0712
 1119SOL     OW14989   2.377   3.375   8.530 -0.0303  0.2410  0.0486
 1119SOL    HW114990   2.407   3.413   8.447  1.8755 -0.4244  0.4373
 1119SOL    HW214991   2.356   3.450   8.586  1.9724  0.4380  0.5178
 1120SOL     OW14992   0.205   1.999  16.915 -0.2692  0.1852 -0.0529
 1120SOL    HW114993   0.203   2.043  17.000 -1.3823  0.3455 -0.1583
 1120SOL    HW214994   0.264   1.925  16.927  0.3552  1.0555  2.2493
 1121SOL     OW14995   2.538   1.544  12.335  0.0487  0.0822 -0.2220
 1121SOL    HW114996   2.552   1.624  12.284 -0.4722  1.3974  1.6567
 1121SOL    HW214997   2.614   1.488  12.322  0.4016 -0.0394  2.3486
 1122SOL     OW14998   4.559   0.523   6.074 -0.8105 -0.1810  0.4502
 1122SOL    HW114999   4.474   0.543   6.034 -0.0921  2.0802  0.0677
 1122SOL    HW215000   4.604   0.606   6.083 -0.1575 -0.2257 -2.3503
 1123SOL     OW15001   4.186   3.245   6.465  0.5946 -0.1928  0.0034
 1123SOL    HW115002   4.264   3.212   6.419  0.7308 -2.8119  2.1302
 1123SOL    HW215003   4.179   3.321   6.406  1.4731  0.9098  1.3107
 1124SOL     OW15004   1.934   3.767   9.350  0.7182 -0.9637  0.0973
 1124SOL    HW115005   1.894   3.822   9.417 -0.3410 -1.6978  0.0712
 1124SOL    HW215006   1.899   3.804   9.269  1.6476 -2.7371 -1.1394
 1125SOL     OW15007   4.535   0.680   8.410 -0.2210  0.2534  0.1705
 1125SOL    HW115008   4.493   0.640   8.486  1.8291 -0.9147  0.7258
 1125SOL    HW215009   4.607   0.618   8.391 -0.0064  0.4329  0.4049
 1126SOL     OW15010   4.618   2.096   2.933 -0.6876 -0.1556 -0.7440
 1126SOL    HW115011   4.698   2.044   2.935 -0.2494  0.6529  2.7386
 1126SOL    HW215012   4.609   2.086   2.838 -1.5912  1.7680 -0.8681
 1127SOL     OW15013   1.328   1.059   6.405 -0.4254 -0.3960 -0.1971
 1127SOL    HW115014   1.334   1.154   6.414  0.4999 -0.5236  0.4547
 1127SOL    HW215015   1.279   1.053   6.323 -0.2076 -0.4185 -0.3244
 1128SOL     OW15016   2.413   4.521  11.974 -0.3780 -0.8559  0.3438
 1128SOL    HW115017   2.477   4.548  11.908 -1.5528  2.3239  0.4861
 1128SOL    HW215018   2.350   4.468  11.926  3.9078 -3.0387 -2.8682
 1129SOL     OW15019   3.982   3.099   8.543 -0.3006  0.6285 -0.4568
 1129SOL    HW115020   3.914   3.112   8.610 -2.0796 -1.8812 -1.7870
 1129SOL    HW215021   4.058   3.116   8.600 -0.2997  0.1016 -0.2971
 1130SOL     OW15022   3.572   1.794   7.609  0.4008  0.2523 -0.2538
 1130SOL    HW115023   3.552   1.843   7.528 -0.6028  4.4240  2.5139
 1130SOL    HW215024   3.643   1.743   7.569  0.0212 -1.0464  0.7615
 1131SOL     OW15025   0.306   1.608  11.078 -0.0479  0.0490 -0.4685
 1131SOL    HW115026   0.345   1.634  10.994  1.7439 -0.9829  0.0420
 1131SOL    HW215027   0.251   1.686  11.090  0.8418  0.3946  1.3427
 1132SOL     OW15028   2.073   0.457   6.835  0.0925 -0.1370 -0.2130
 1132SOL    HW115029   2.147   0.502   6.793 -1.1253  1.7981 -0.2830
 1132SOL    HW215030   2.001   0.447   6.773 -0.5261  0.2831  0.4394
 1133SOL     OW15031   1.198   3.050   8.271  0.0609  0.3649 -0.4067
 1133SOL    HW115032   1.179   2.973   8.218 -2.4998 -0.4242  1.6855
 1133SOL    HW215033   1.208   3.126   8.213  2.1804  0.7934  0.5259
 1134SOL     OW15034   3.506   4.406   2.601 -0.3363 -0.0906 -0.5936
 1134SOL    HW115035   3.583   4.351   2.589 -0.3424 -0.7548  2.2584
 1134SOL    HW215036   3.529   4.485   2.551 -1.9629  1.9655  1.8453
 1135SOL     OW15037   2.612   4.425  14.998 -0.0105  0.0277 -0.0298
 1135SOL    HW115038   2.523   4.397  14.980  0.4318 -1.0243 -0.5664
 1135SOL    HW215039   2.606   4.467  15.084 -0.1263 -0.7966  0.3604
 1136SOL     OW15040   1.584   3.445   7.816 -0.1152  0.0603 -0.2048
 1136SOL    HW115041   1.563   3.447   7.909  2.3106 -1.1237  0.3800
 1136SOL    HW215042   1.634   3.363   7.820  1.0524  0.8820  1.9974
 1137SOL     OW15043   1.318   1.852   8.278 -0.1698  0.3669 -0.2442
 1137SOL    HW115044   1.365   1.835   8.197 -0.5188  0.9554 -0.5712
 1137SOL    HW215045   1.349   1.783   8.337 -0.7781 -1.0758 -1.6273
 1138SOL     OW15046   2.016   2.026   9.161 -0.5900  1.1749 -0.0037
 1138SOL    HW115047   2.050   2.018   9.072  0.0875  0.3532  0.3277
 1138SOL    HW215048   2.020   1.934   9.189  0.2517  0.8578 -1.1552
 1139SOL     OW15049   3.543   2.819  14.380  0.1768 -0.5163  1.0856
 1139SOL    HW115050   3.617   2.811  14.320 -0.8410  1.5934 -0.4542
 1139SOL    HW215051   3.475   2.785  14.321 -0.2250  0.6870  0.8610
 1140SOL     OW15052   2.606   2.331   7.121  0.4820 -0.7937 -0.3026
 1140SOL    HW115053   2.608   2.372   7.207 -1.1571 -0.8670 -0.2307
 1140SOL    HW215054   2.546   2.399   7.090  0.8286 -0.1798  0.3783
 1141SOL     OW15055   2.012   1.573   4.296 -0.3634  0.8409 -0.2465
 1141SOL    HW115056   2.086   1.552   4.238 -0.3292 -2.1052  0.9089
 1141SOL    HW215057   2.016   1.668   4.284 -0.4831  1.0874  1.7597
 1142SOL     OW15058   3.306   2.804   8.179  0.1632  0.4130 -0.2997
 1142SOL    HW115059   3.258   2.821   8.098 -0.5121 -1.2058 -0.2379
 1142SOL    HW215060   3.376   2.869   8.175 -1.4702  2.3909  2.8092
 1143SOL     OW15061   2.014   0.464   4.711  0.0167  0.0912  0.0223
 1143SOL    HW115062   2.070   0.530   4.671  1.0798 -0.7270  0.1580
 1143SOL    HW215063   1.952   0.524   4.753 -1.2383 -0.9076 -0.4011
 1144SOL     OW15064   2.784   1.320   2.144  0.2961  0.2221 -0.5883
 1144SOL    HW115065   2.768   1.383   2.074  2.5758 -1.3885 -2.5812
 1144SOL    HW215066   2.698   1.314   2.185  0.9430 -3.2937  0.3084
 1145SOL     OW15067   1.360   4.562   8.538  0.5994  0.1109  0.4861
 1145SOL    HW115068   1.374   4.532   8.448  0.7362 -0.9239  0.8534
 1145SOL    HW215069   1.373   4.656   8.525  3.3062 -0.6673 -2.4294
 1146SOL     OW15070   3.207   2.344   3.317 -0.2429 -0.3446 -0.4448
 1146SOL    HW115071   3.218   2.399   3.239 -0.5576 -1.0272 -0.9734
 1146SOL    HW215072   3.259   2.387   3.384 -2.8059  0.4973  0.9788
 1147SOL     OW15073   0.999   0.135   3.951  0.2797 -0.1070  0.0839
 1147SOL    HW115074   0.904   0.143   3.950  0.4856  2.7585  1.6126
 1147SOL    HW215075   0.999   0.145   4.046 -0.9318 -1.3492  0.2079
 1148SOL     OW15076   3.519   0.777  13.287  0.0885 -0.0447 -0.2309
 1148SOL    HW115077   3.607   0.745  13.308  0.9170  2.6781  0.5813
 1148SOL    HW215078   3.501   0.829  13.366 -1.4909 -1.5511  0.4003
 1149SOL     OW15079   2.709   0.095   7.946  0.2654 -0.8638  0.0312
 1149SOL    HW115080   2.721   0.026   8.011  0.4615  1.0558  2.0338
 1149SOL    HW215081   2.651   0.155   7.993  0.6249 -0.7064  0.2743
 1150SOL     OW15082   0.096   1.670  14.821  0.3763 -0.3011  0.0655
 1150SOL    HW115083   0.055   1.649  14.905  0.3351 -0.2912  0.0483
 1150SOL    HW215084   0.084   1.589  14.772  0.8799  0.8869 -1.9978
 1151SOL     OW15085   1.770   4.236   6.889 -0.3936 -0.2587 -0.7079
 1151SOL    HW115086   1.795   4.317   6.934 -0.2985 -0.8588  0.3230
 1151SOL    HW215087   1.709   4.199   6.953 -0.0479 -0.7410 -0.6569
 1152SOL     OW15088   3.099   1.218   5.715  0.1127  0.0191 -0.4895
 1152SOL    HW115089   3.008   1.196   5.697 -0.0267  1.5259 -1.6054
 1152SOL    HW215090   3.125   1.131   5.748 -1.3349  0.0903  0.8328
 1153SOL     OW15091   4.648   2.421   8.578 -0.0790  0.6872 -0.2999
 1153SOL    HW115092   4.611   2.360   8.514  1.6382 -0.4390 -0.2428
 1153SOL    HW215093   4.721   2.367   8.609 -0.8056  1.4261  2.6751
 1154SOL     OW15094   0.755   2.973  12.973 -0.1475 -0.5591 -0.0715
 1154SOL    HW115095   0.748   2.945  13.064 -0.9520 -1.7785 -0.5115
 1154SOL    HW215096   0.825   3.039  12.976 -0.8426  0.1548  0.6572
 1155SOL     OW15097   0.326   0.053   9.009 -0.2636  0.3235 -0.5458
 1155SOL    HW115098   0.331   0.127   8.948 -1.5150 -0.9846 -2.2600
 1155SOL    HW215099   0.406   0.070   9.058 -1.6543 -0.9093  2.1699
 1156SOL     OW15100   4.052   2.236  10.121 -0.9272 -0.2826  0.4713
 1156SOL    HW115101   4.078   2.265  10.033 -1.9582 -0.1950  0.1965
 1156SOL    HW215102   4.064   2.320  10.165 -0.3502 -0.3601  0.4651
 1157SOL     OW15103   4.369   0.875   0.834  0.0849 -0.7131  0.0685
 1157SOL    HW115104   4.358   0.970   0.826  0.4541 -0.6516  0.2757
 1157SOL    HW215105   4.456   0.874   0.794 -0.3661  0.3922 -0.9543
 1158SOL     OW15106   2.671   2.512   3.032  0.1686  0.1325 -0.2333
 1158SOL    HW115107   2.693   2.427   3.071 -1.0641 -0.3075 -0.4828
 1158SOL    HW215108   2.667   2.561   3.114 -0.5421 -2.0986  1.0708
 1159SOL     OW15109   2.143   2.721   6.289  0.2351  0.4270  0.1540
 1159SOL    HW115110   2.161   2.648   6.348 -2.1144 -1.6905 -1.7508
 1159SOL    HW215111   2.110   2.669   6.216 -2.6476  0.3921  1.4535
 1160SOL     OW15112   0.668   1.012  13.310  0.0142  0.5371 -0.1306
 1160SOL    HW115113   0.642   1.102  13.293 -0.9063 -0.0337 -1.7406
 1160SOL    HW215114   0.624   0.964  13.240 -0.4577  0.2763  0.3451
 1161SOL     OW15115   4.102   4.604   5.506 -0.1196 -0.1099  0.0571
 1161SOL    HW115116   4.025   4.646   5.544  0.0955  0.8507 -0.5903
 1161SOL    HW215117   4.167   4.663   5.545 -0.2338  0.3138 -0.4006
 1162SOL     OW15118   4.286   4.647   5.259 -0.5858 -0.4049 -0.3837
 1162SOL    HW115119   4.345   4.715   5.229 -1.1809  0.3193  0.0938
 1162SOL    HW215120   4.266   4.675   5.349 -0.0654  0.9300 -0.7028
 1163SOL     OW15121   3.241   1.710   6.200 -0.0670 -0.3343  0.2957
 1163SOL    HW115122   3.150   1.700   6.228  0.0396  1.4799  1.3169
 1163SOL    HW215123   3.282   1.676   6.280 -0.5737  0.3639  0.8511
 1164SOL     OW15124   4.213   0.163   7.417 -0.1043 -0.0850 -0.7962
 1164SOL    HW115125   4.225   0.070   7.435  1.3415  0.0799 -0.9296
 1164SOL    HW215126   4.248   0.181   7.329  1.6085 -0.3735 -0.1764
 1165SOL     OW15127   2.553   0.877   5.018  0.3027 -0.0081  0.3916
 1165SOL    HW115128   2.567   0.803   4.960 -2.7135 -0.3546  0.1045
 1165SOL    HW215129   2.539   0.845   5.108  0.0132 -1.5811 -0.2180
 1166SOL     OW15130   1.921   2.259   6.755  0.4593  0.0689 -0.3528
 1166SOL    HW115131   1.902   2.257   6.849  1.6945  1.7475 -0.0779
 1166SOL    HW215132   1.860   2.329   6.732 -0.0255  0.1485  1.1805
 1167SOL     OW15133   2.138   4.468   8.960 -0.1986 -0.6298  0.3422
 1167SOL    HW115134   2.179   4.554   8.971 -0.9112 -0.2207 -0.1994
 1167SOL    HW215135   2.191   4.420   8.897  1.7750  0.5859  1.0525
 1168SOL     OW15136   4.265   4.349  13.313 -0.7799 -0.3401  0.0052
 1168SOL    HW115137   4.247   4.262  13.348 -1.5904 -0.1315  0.1116
 1168SOL    HW215138   4.247   4.334  13.221 -1.0241  0.5235 -0.0942
 1169SOL     OW15139   2.599   3.616   3.644 -0.4518 -0.2157  0.3105
 1169SOL    HW115140   2.586   3.526   3.674  0.6123  0.0780  1.6862
 1169SOL    HW215141   2.691   3.627   3.670 -0.9711 -0.5998  2.2851
 1170SOL     OW15142   3.374   2.212  15.950  0.3738  0.4751  0.7787
 1170SOL    HW115143   3.359   2.120  15.926  0.5170  0.2428  1.5704
 1170SOL    HW215144   3.438   2.240  15.884 -1.5232  1.0733 -0.7985
 1171SOL     OW15145   2.624   0.514   0.923 -0.3263 -0.8561  0.0606
 1171SOL    HW115146   2.673   0.432   0.929 -1.3112 -1.4451 -0.0793
 1171SOL    HW215147   2.679   0.566   0.983 -0.4248 -1.3498  0.5813
 1172SOL     OW15148   4.042   2.583   0.716 -0.5293  0.5237 -0.2705
 1172SOL    HW115149   4.082   2.612   0.634  0.7681  1.9311  0.8674
 1172SOL    HW215150   4.001   2.505   0.677 -1.9108  1.7055 -1.1556
 1173SOL     OW15151   2.952   0.883  11.030  0.0981 -0.1000  0.8096
 1173SOL    HW115152   2.932   0.822  11.101 -0.3649 -0.4297  0.3963
 1173SOL    HW215153   3.038   0.915  11.059  0.1281  0.7708 -0.2627
 1174SOL     OW15154   1.084   1.112   8.383  0.0296 -0.0051  0.2741
 1174SOL    HW115155   0.995   1.148   8.376  0.5346  1.2519  0.3376
 1174SOL    HW215156   1.077   1.087   8.475  2.0913  0.1695  0.4855
 1175SOL     OW15157   3.787   4.614  10.767  0.3251 -0.3767  0.8815
 1175SOL    HW115158   3.833   4.544  10.812 -0.0383  0.1215  2.0341
 1175SOL    HW215159   3.709   4.559  10.758 -1.8089  2.6114  0.8983
 1176SOL     OW15160   0.564   3.262  10.082  0.2885 -0.1745 -0.2043
 1176SOL    HW115161   0.648   3.286  10.121 -0.7953 -1.3395  2.8794
 1176SOL    HW215162   0.566   3.309   9.999  0.3768 -0.6760 -0.4821
 1177SOL     OW15163   1.199   4.716   0.140  0.3065 -0.2864 -0.2202
 1177SOL    HW115164   1.243   4.688   0.220 -1.6827 -0.8163  0.6917
 1177SOL    HW215165   1.268   0.032   0.101  0.2446  0.7369  1.0651
 1178SOL     OW15166   3.305   3.005   2.750 -0.2439  0.2476  0.0269
 1178SOL    HW115167   3.316   3.072   2.817  1.0695  1.0676 -1.0156
 1178SOL    HW215168   3.263   2.938   2.804  1.9433 -0.0690  1.3328
 1179SOL     OW15169   4.149   4.053   6.860  0.3056 -0.1770  0.0468
 1179SOL    HW115170   4.161   4.148   6.851 -0.2592 -0.3156 -2.2193
 1179SOL    HW215171   4.224   4.032   6.915  1.0880  2.3482 -0.0429
 1180SOL     OW15172   1.671   2.421   3.042 -0.1304 -0.0987 -0.3649
 1180SOL    HW115173   1.663   2.430   2.947 -2.3764  0.9863 -0.0793
 1180SOL    HW215174   1.617   2.348   3.071 -0.0333 -0.8282 -2.0319
 1181SOL     OW15175   4.340   3.150   1.803  0.0241  0.1557  0.9340
 1181SOL    HW115176   4.416   3.095   1.787 -0.8511 -0.7082 -0.3116
 1181SOL    HW215177   4.361   3.184   1.889  0.0032  0.0501  0.9808
 1182SOL     OW15178   0.265   1.732   6.968  0.1863 -0.2588  0.2122
 1182SOL    HW115179   0.326   1.705   6.899  1.0383  2.1280  0.0501
 1182SOL    HW215180   0.214   1.651   6.978  0.4672 -0.0061  3.6317
 1183SOL     OW15181   0.384   2.450   3.131 -0.1225  0.2807  0.1239
 1183SOL    HW115182   0.431   2.421   3.209 -0.2084 -0.2019 -0.0086
 1183SOL    HW215183   0.407   2.387   3.062 -0.5658  0.2591 -0.0028
 1184SOL     OW15184   3.168   3.232   0.206  0.0865 -0.1360 -0.0053
 1184SOL    HW115185   3.163   3.138   0.193 -0.4087 -0.2835  1.2161
 1184SOL    HW215186   3.140   3.274   0.124 -0.5385 -1.2822 -0.3865
 1185SOL     OW15187   4.269   1.808  16.695 -0.7948 -0.4306  0.9535
 1185SOL    HW115188   4.253   1.832  16.604 -0.9583  0.4060  1.2073
 1185SOL    HW215189   4.215   1.867  16.748  1.6369  0.4634  2.4035
 1186SOL     OW15190   0.854   1.004   4.438 -0.3360 -0.5392 -0.0093
 1186SOL    HW115191   0.845   0.914   4.467 -1.4213 -0.4167  0.0361
 1186SOL    HW215192   0.876   0.978   4.349  1.6203  1.9132 -0.2557
 1187SOL     OW15193   1.227   2.037   2.365  0.2195 -0.3519  1.3599
 1187SOL    HW115194   1.196   2.125   2.346 -0.3565 -0.1258  3.4142
 1187SOL    HW215195   1.152   1.978   2.363 -0.1262  0.1215 -0.1778
 1188SOL     OW15196   0.720   2.022   2.358 -0.6615  0.6515 -0.2291
 1188SOL    HW115197   0.769   2.104   2.366 -0.0873  0.0947  2.0101
 1188SOL    HW215198   0.796   1.969   2.334 -0.0077  1.3567  0.2797
 1189SOL     OW15199   1.687   1.949   5.732 -0.4520  0.1226 -0.1916
 1189SOL    HW115200   1.708   1.923   5.642 -0.9732  0.2312 -0.3435
 1189SOL    HW215201   1.604   1.989   5.706  0.2931  0.9821 -1.2096
 1190SOL     OW15202   4.312   0.284   2.156 -0.1363  0.0643  0.0210
 1190SOL    HW115203   4.358   0.367   2.141 -2.8722  1.1743 -2.0920
 1190SOL    HW215204   4.299   0.249   2.068 -1.4945  2.3464 -0.6778
 1191SOL     OW15205   3.438   3.891   7.993  0.1685  0.3767 -0.2610
 1191SOL    HW115206   3.465   3.821   7.933  2.1916 -0.5214  1.7003
 1191SOL    HW215207   3.372   3.855   8.053  0.1061 -2.0329 -1.7712
 1192SOL     OW15208   3.339   3.433   4.964 -0.4800 -0.2557 -0.0571
 1192SOL    HW115209   3.247   3.417   4.945 -0.2673 -0.8312 -0.5805
 1192SOL    HW215210   3.337   3.500   5.033 -0.5075  0.6892 -0.9653
 1193SOL     OW15211   2.855   0.874   4.174  0.1350  0.5705 -0.3495
 1193SOL    HW115212   2.886   0.789   4.204  0.5452  1.5982  2.1334
 1193SOL    HW215213   2.934   0.920   4.147  0.7079 -0.6526 -0.7393
 1194SOL     OW15214   1.670   0.026   6.918 -0.3337 -0.2070  0.0545
 1194SOL    HW115215   1.617   0.101   6.945  0.2466  0.5958 -1.0367
 1194SOL    HW215216   1.744   0.069   6.876 -0.2888  0.7952  1.1539
 1195SOL     OW15217   1.847   0.404   4.321  0.0588  0.1955  0.4748
 1195SOL    HW115218   1.762   0.445   4.307 -0.8159 -2.3462 -1.6288
 1195SOL    HW215219   1.876   0.483   4.367 -0.7522  0.5311  0.4025
 1196SOL     OW15220   3.555   3.347   2.368 -0.2781  0.4140  0.0282
 1196SOL    HW115221   3.568   3.289   2.293 -0.2888 -1.0368  1.1391
 1196SOL    HW215222   3.469   3.316   2.396 -0.3493 -0.1562 -0.8390
 1197SOL     OW15223   1.253   3.474   3.225 -0.2868  0.3181 -0.5491
 1197SOL    HW115224   1.257   3.567   3.248  1.1255  0.7935 -2.7390
 1197SOL    HW215225   1.309   3.465   3.148  0.6665 -1.0623  0.3064
 1198SOL     OW15226   0.359   4.694  10.975  0.1869  0.8448  0.1845
 1198SOL    HW115227   0.439   4.641  10.981 -2.5491 -3.3565 -0.4363
 1198SOL    HW215228   0.293   4.630  10.949  0.2055  1.4062 -1.2133
 1199SOL     OW15229   3.227   3.881   1.360 -0.3475  0.3451 -0.3505
 1199SOL    HW115230   3.196   3.817   1.296  0.6370  1.1142 -1.6093
 1199SOL    HW215231   3.192   3.841   1.439  2.5722  0.9435  1.2458
 1200SOL     OW15232   0.916   2.719   6.016  0.2375 -0.3363  0.0150
 1200SOL    HW115233   0.891   2.753   5.931  2.4148 -0.5310 -0.6975
 1200SOL    HW215234   1.010   2.724   6.001  0.1251  1.9797  0.1476
 1201SOL     OW15235   3.877   3.274  12.492 -0.1038 -0.0205 -0.1815
 1201SOL    HW115236   3.899   3.303  12.404  1.6686 -1.9675 -0.3766
 1201SOL    HW215237   3.782   3.285  12.490  0.2097  2.4616 -1.9012
 1202SOL     OW15238   2.632   4.358   4.474  0.3276 -0.2514  0.6614
 1202SOL    HW115239   2.710   4.362   4.418  1.2366 -0.1637  1.9360
 1202SOL    HW215240   2.575   4.307   4.417  0.1530  0.1326  0.4958
 1203SOL     OW15241   1.917   2.914   6.358  0.0764  0.5804  0.3252
 1203SOL    HW115242   1.908   2.921   6.453 -1.9065 -0.3606  0.2274
 1203SOL    HW215243   1.994   2.860   6.343 -0.9784 -0.6794 -0.5838
 1204SOL     OW15244   1.999   0.333  10.049  0.0681  0.1414  0.3570
 1204SOL    HW115245   2.006   0.301  10.139 -0.5596 -1.1279 -0.0515
 1204SOL    HW215246   1.967   0.423  10.056 -0.5725 -0.1184  0.8225
 1205SOL     OW15247   4.410   2.053   7.329 -1.5872 -0.2191 -0.2797
 1205SOL    HW115248   4.499   2.053   7.365 -0.6387 -0.4581 -2.5930
 1205SOL    HW215249   4.376   1.979   7.379 -3.5062  0.9106  0.0842
 1206SOL     OW15250   2.579   1.163  10.642 -0.0025  0.5501  0.4223
 1206SOL    HW115251   2.513   1.126  10.584 -1.2891  0.9282  1.6386
 1206SOL    HW215252   2.656   1.167  10.586  0.6054 -3.1026  0.9885
 1207SOL     OW15253   3.953   0.081   8.839  0.0996 -0.0351 -1.1182
 1207SOL    HW115254   3.952   0.044   8.928 -2.0262 -0.8429 -1.4843
 1207SOL    HW215255   3.958   0.176   8.851  1.2344 -0.2439  0.1262
 1208SOL     OW15256   0.855   0.775  13.191  0.2158  0.2620 -0.0923
 1208SOL    HW115257   0.894   0.809  13.271 -1.3126  0.9301  0.3636
 1208SOL    HW215258   0.918   0.818  13.134 -0.2617 -0.6402 -1.2968
 1209SOL     OW15259   1.509   2.982   6.427  0.0711 -0.2275  0.1048
 1209SOL    HW115260   1.502   3.042   6.353 -1.5438  1.7436  1.8716
 1209SOL    HW215261   1.425   2.969   6.470  0.6931 -1.6233  0.9108
 1210SOL     OW15262   1.143   4.657  14.667 -0.9418  0.2608 -0.5308
 1210SOL    HW115263   1.133   4.575  14.618 -0.5951 -0.5860  0.7829
 1210SOL    HW215264   1.153   4.632  14.759 -1.3933  0.9914 -0.2882
 1211SOL     OW15265   1.499   4.060  17.712 -0.3871  0.3486 -0.5846
 1211SOL    HW115266   1.455   4.145  17.701  1.7817  1.3026 -2.0169
 1211SOL    HW215267   1.553   4.056  17.633  2.8918 -0.4962  1.7240
 1212SOL     OW15268   0.248   4.470  10.847 -0.7600 -0.0952  0.0570
 1212SOL    HW115269   0.262   4.479  10.752  2.2271  0.9146  0.5852
 1212SOL    HW215270   0.303   4.397  10.873  1.7392  0.7345 -2.8869
 1213SOL     OW15271   1.616   3.825   3.239 -0.2202  0.4488 -0.0436
 1213SOL    HW115272   1.624   3.885   3.313 -1.3241  2.2852 -1.4402
 1213SOL    HW215273   1.622   3.739   3.280 -0.7684  0.3719 -0.1272
 1214SOL     OW15274   1.778   1.452  16.930 -0.1574  0.1153 -0.1175
 1214SOL    HW115275   1.726   1.511  16.985  2.2085  2.1638 -0.0699
 1214SOL    HW215276   1.726   1.449  16.850  1.4454 -1.3299 -1.1097
 1215SOL     OW15277   1.232   3.938  13.946  0.4386 -0.9332  0.0104
 1215SOL    HW115278   1.204   3.849  13.926  1.0056 -1.3750  1.1966
 1215SOL    HW215279   1.172   3.952  14.019  0.3489  1.5466 -0.5371
 1216SOL     OW15280   1.369   4.365   5.420  0.2551 -0.6139 -0.2408
 1216SOL    HW115281   1.459   4.332   5.432  0.1513 -0.5711  0.6940
 1216SOL    HW215282   1.383   4.415   5.340 -2.1860  0.8590  0.2705
 1217SOL     OW15283   3.034   3.127   8.820  0.1872  0.1359  0.1592
 1217SOL    HW115284   3.065   3.044   8.856 -0.7387  0.0577  0.7682
 1217SOL    HW215285   3.100   3.137   8.752 -1.2707 -1.5324 -1.5200
 1218SOL     OW15286   3.416   4.677   8.871  0.0994  0.4632  0.4557
 1218SOL    HW115287   3.447   4.691   8.960 -0.2851 -0.6731  0.7793
 1218SOL    HW215288   3.352   0.011   8.868  0.3006  0.7160  1.8625
 1219SOL     OW15289   1.953   3.410   5.297 -0.7220 -0.4000 -0.0956
 1219SOL    HW115290   2.041   3.446   5.312 -0.1990 -1.8167  0.1912
 1219SOL    HW215291   1.920   3.415   5.387  0.1269 -2.5196  0.3409
 1220SOL     OW15292   1.253   4.084   5.671  0.2367  0.1653 -0.5930
 1220SOL    HW115293   1.292   4.101   5.757 -1.5548  2.1715 -0.1610
 1220SOL    HW215294   1.212   3.999   5.689 -0.1452  0.1568 -1.5206
 1221SOL     OW15295   2.669   3.272   3.353 -0.0317  0.0583 -0.3367
 1221SOL    HW115296   2.626   3.353   3.326 -0.3825  0.0927  0.3228
 1221SOL    HW215297   2.758   3.281   3.318  0.4721 -0.5339  0.7953
 1222SOL     OW15298   2.314   4.357   8.194  0.3013 -0.4802 -0.0931
 1222SOL    HW115299   2.339   4.298   8.266  1.0337  0.8647  0.7602
 1222SOL    HW215300   2.220   4.368   8.206  0.3156 -1.0512  0.5112
 1223SOL     OW15301   0.307   0.207  10.940  0.1513 -0.3547 -0.0013
 1223SOL    HW115302   0.315   0.120  10.980  1.1174 -0.2463  0.0415
 1223SOL    HW215303   0.243   0.193  10.870 -0.7152  1.5534  0.3920
 1224SOL     OW15304   3.410   3.254   2.951 -0.1555 -0.5986  0.2376
 1224SOL    HW115305   3.354   3.289   2.882  0.8582  0.5742  0.0148
 1224SOL    HW215306   3.483   3.232   2.894 -0.8446  0.4656 -1.0486
 1225SOL     OW15307   3.192   1.243   3.457  0.7554  0.1450 -0.3290
 1225SOL    HW115308   3.098   1.235   3.439  0.6352 -2.0098  1.2299
 1225SOL    HW215309   3.194   1.338   3.446  1.2165  0.2112  0.3342
 1226SOL     OW15310   2.364   3.299   9.988  0.1303 -0.0266 -0.2034
 1226SOL    HW115311   2.432   3.343  10.040 -0.0995  0.7568 -0.5672
 1226SOL    HW215312   2.407   3.227   9.943 -0.5206 -0.6257  0.1272
 1227SOL     OW15313   3.500   3.640   3.491 -0.5665 -0.6283 -0.1134
 1227SOL    HW115314   3.417   3.687   3.488  0.5201  1.2189 -0.8778
 1227SOL    HW215315   3.478   3.566   3.434 -1.6496  0.2205 -0.7730
 1228SOL     OW15316   4.641   1.123   7.920  0.4263 -0.4230  0.1613
 1228SOL    HW115317   4.710   1.146   7.982  1.1910  1.3294 -1.3429
 1228SOL    HW215318   4.602   1.047   7.963  0.1638  0.3195  1.2180
 1229SOL     OW15319   3.190   3.781  16.753 -0.0417  0.1685 -0.6212
 1229SOL    HW115320   3.138   3.811  16.828  1.9629 -1.5051  1.4289
 1229SOL    HW215321   3.193   3.685  16.757  0.7943  0.2186 -0.2239
 1230SOL     OW15322   3.995   1.778   7.684  0.5151  0.2831  0.3453
 1230SOL    HW115323   4.039   1.859   7.710  1.7764 -0.7371  1.3764
 1230SOL    HW215324   3.921   1.800   7.741  1.3885  1.0474  1.1785
 1231SOL     OW15325   2.828   3.195   7.249  0.2860 -0.1651 -0.1533
 1231SOL    HW115326   2.778   3.266   7.291  1.6960 -0.2300  1.6235
 1231SOL    HW215327   2.826   3.129   7.318  0.4093 -0.9798 -0.9394
 1232SOL     OW15328   1.833   4.149   2.847 -0.0167  0.4990  0.3109
 1232SOL    HW115329   1.877   4.064   2.851 -3.4081 -1.2698 -0.1728
 1232SOL    HW215330   1.742   4.128   2.867  0.3103 -3.5559 -2.4153
 1233SOL     OW15331   4.549   0.555   0.220 -0.9484  1.0134 -0.1880
 1233SOL    HW115332   4.637   0.522   0.239 -1.3431 -1.4067 -2.6133
 1233SOL    HW215333   4.543   0.557   0.125 -0.7097  3.4838 -0.1412
 1234SOL     OW15334   4.213   1.279   6.782  0.4383 -0.0224 -0.4032
 1234SOL    HW115335   4.193   1.367   6.752 -0.2034 -0.3291 -0.8797
 1234SOL    HW215336   4.297   1.302   6.820 -1.0900 -0.7131  3.4165
 1235SOL     OW15337   3.510   0.950   8.690  0.0306 -0.1979 -0.5245
 1235SOL    HW115338   3.605   0.947   8.702 -0.2151 -0.0526  1.3865
 1235SOL    HW215339   3.481   0.977   8.777 -0.8083  0.2282 -0.9291
 1236SOL     OW15340   4.110   2.379   9.881 -0.2674 -0.1367 -0.5453
 1236SOL    HW115341   4.079   2.468   9.867  0.4369  0.6391  2.7684
 1236SOL    HW215342   4.186   2.383   9.822  0.6604 -2.2769  0.5059
 1237SOL     OW15343   3.178   1.358   2.013  0.0533 -0.1355 -0.5975
 1237SOL    HW115344   3.227   1.307   1.948  0.5897 -0.1032 -0.2189
 1237SOL    HW215345   3.197   1.438   1.962 -1.5274 -0.1632 -1.2098
 1238SOL     OW15346   3.494   2.052   3.689 -0.7422  0.2107  0.0848
 1238SOL    HW115347   3.532   1.992   3.624 -1.3634  0.4171 -0.4667
 1238SOL    HW215348   3.575   2.085   3.727 -0.1229 -0.3952 -0.7106
 1239SOL     OW15349   4.160   2.361  17.735  0.1702 -0.5442  0.2725
 1239SOL    HW115350   4.236   2.365   0.043 -0.1273 -0.1828  0.6446
 1239SOL    HW215351   4.139   2.267  17.741  1.7615 -0.9191 -0.1312
 1240SOL     OW15352   0.205   1.041  15.769  0.5890 -0.4781  0.4243
 1240SOL    HW115353   0.189   1.061  15.861  0.7420 -2.5354  0.9121
 1240SOL    HW215354   0.241   0.952  15.775 -1.5674 -1.3591  0.5190
 1241SOL     OW15355   3.913   2.835   1.880 -0.5869  0.6129  0.6658
 1241SOL    HW115356   4.008   2.842   1.884 -0.7691  3.3963  0.0643
 1241SOL    HW215357   3.903   2.787   1.963 -1.3276  0.8070  0.6865
 1242SOL     OW15358   0.955   4.289   9.147 -0.2391  0.6250  0.0670
 1242SOL    HW115359   1.049   4.302   9.147 -0.5739  2.9564 -0.7999
 1242SOL    HW215360   0.936   4.277   9.054  2.5665  2.3686 -0.7136
 1243SOL     OW15361   1.323   1.901   2.580  0.7139 -0.2772  0.1880
 1243SOL    HW115362   1.278   1.955   2.514  0.0407  2.1487  2.6263
 1243SOL    HW215363   1.403   1.953   2.579  1.2097 -1.0289  1.5368
 1244SOL     OW15364   2.471   2.133  12.231 -0.0139 -0.1660  0.2789
 1244SOL    HW115365   2.553   2.176  12.207 -0.2908 -0.3007 -0.9089
 1244SOL    HW215366   2.468   2.058  12.171 -0.0988 -0.2453  0.3829
 1245SOL     OW15367   3.722   0.440  14.458 -0.2703 -0.3332  0.2434
 1245SOL    HW115368   3.647   0.499  14.461 -1.0738 -1.3096 -0.8279
 1245SOL    HW215369   3.687   0.358  14.493  0.0146  0.3756  2.2099
 1246SOL     OW15370   2.780   0.241  12.488  0.2124  0.2763 -0.0062
 1246SOL    HW115371   2.712   0.223  12.552  0.4995 -1.0316 -0.0680
 1246SOL    HW215372   2.862   0.196  12.511  0.7200  0.5228 -1.2932
 1247SOL     OW15373   1.064   0.368   2.043  0.1949  0.0005 -0.3084
 1247SOL    HW115374   1.015   0.336   2.119  0.7299 -1.1753 -0.4622
 1247SOL    HW215375   1.126   0.296   2.038  0.6916  0.3733  0.3878
 1248SOL     OW15376   0.823   4.008  13.452 -0.1957 -0.3236  0.9605
 1248SOL    HW115377   0.830   3.962  13.536  1.0130 -1.2333  0.3776
 1248SOL    HW215378   0.787   4.094  13.471 -0.0340 -0.5486  2.2287
 1249SOL     OW15379   0.624   3.349   2.534  0.2728  0.2193 -0.7402
 1249SOL    HW115380   0.533   3.362   2.508  0.0674 -1.8216 -1.0752
 1249SOL    HW215381   0.646   3.431   2.577 -0.2693 -0.2748  0.5019
 1250SOL     OW15382   0.292   2.646  10.502 -0.1789 -0.4141 -0.1902
 1250SOL    HW115383   0.339   2.724  10.530 -0.3479  0.0286 -1.1787
 1250SOL    HW215384   0.371   2.595  10.484 -0.1261  0.0367 -1.2273
 1251SOL     OW15385   1.663   4.697   2.944  0.2778 -0.0571  0.5306
 1251SOL    HW115386   1.636   0.036   2.892  0.4479  0.7954  1.6984
 1251SOL    HW215387   1.664   0.006   3.027 -0.3567 -0.6769  0.8793
 1252SOL     OW15388   2.038   0.373   7.809 -0.6156 -0.8771  0.1896
 1252SOL    HW115389   2.117   0.321   7.826 -1.2788 -1.7232  0.6755
 1252SOL    HW215390   2.038   0.354   7.715 -2.0083 -0.0436  0.0234
 1253SOL     OW15391   2.303   4.569   0.043 -0.1818 -0.2608 -0.1805
 1253SOL    HW115392   2.362   4.496   0.061 -0.4635 -0.0194  1.7248
 1253SOL    HW215393   2.236   4.551   0.109 -0.1502  2.2466  0.5525
 1254SOL     OW15394   1.859   4.038   6.648 -0.0691 -0.1259  0.2452
 1254SOL    HW115395   1.911   4.006   6.573 -0.8929 -0.8913  0.0024
 1254SOL    HW215396   1.914   4.105   6.688 -0.1020  0.7766 -1.2299
 1255SOL     OW15397   4.197   0.730  12.525 -0.4020 -0.2457 -0.2314
 1255SOL    HW115398   4.126   0.785  12.557 -1.0132 -1.4794  0.4934
 1255SOL    HW215399   4.251   0.717  12.603 -1.3970  1.1570  0.6927
 1256SOL     OW15400   3.894   1.863   6.028 -0.1847  0.3969 -0.9860
 1256SOL    HW115401   3.816   1.833   5.983  0.1090  0.8801 -1.8196
 1256SOL    HW215402   3.964   1.809   5.992  1.1443  0.5564  1.3120
 1257SOL     OW15403   3.181   0.397   7.768 -0.0109  0.1315  0.0789
 1257SOL    HW115404   3.101   0.345   7.762 -0.3341  0.7472 -0.8817
 1257SOL    HW215405   3.237   0.351   7.830  0.1064 -0.5134 -0.4990
 1258SOL     OW15406   1.203   1.756   8.583 -0.0958 -0.1491 -0.3504
 1258SOL    HW115407   1.256   1.699   8.528 -0.3815  0.2657 -1.0583
 1258SOL    HW215408   1.111   1.748   8.555  0.4525 -1.0738 -1.8572
 1259SOL     OW15409   3.397   4.064  17.575  0.3464  0.1680  0.0440
 1259SOL    HW115410   3.459   4.084  17.505  0.6277 -1.3118 -0.1186
 1259SOL    HW215411   3.451   4.062  17.655  1.3043 -0.3175 -0.6187
 1260SOL     OW15412   0.205   3.132   3.585  0.1286 -0.2959 -0.0649
 1260SOL    HW115413   0.264   3.170   3.651  1.5453 -2.9318  0.1751
 1260SOL    HW215414   0.152   3.067   3.629  0.7216 -0.2681  0.6949
 1261SOL     OW15415   4.544   4.106   7.332  0.1019 -0.0160 -0.4757
 1261SOL    HW115416   4.567   4.014   7.349  3.8781  0.7826 -1.3707
 1261SOL    HW215417   4.458   4.112   7.373  0.1579 -1.2897 -0.1718
 1262SOL     OW15418   2.696   0.229   9.723  0.2098  0.0434  0.2569
 1262SOL    HW115419   2.746   0.281   9.660 -0.6592 -1.2642 -1.5074
 1262SOL    HW215420   2.663   0.292   9.788 -0.7118  0.9190 -1.0622
 1263SOL     OW15421   3.726   2.276  12.231  0.2733 -0.5325 -0.2993
 1263SOL    HW115422   3.716   2.359  12.278 -0.9842 -2.0347  2.0733
 1263SOL    HW215423   3.804   2.290  12.178  0.9397 -0.0395  0.8078
 1264SOL     OW15424   0.918   1.644   3.973 -0.0378  0.2918  0.0888
 1264SOL    HW115425   0.857   1.714   3.953 -1.2519 -0.7807  0.0377
 1264SOL    HW215426   0.999   1.686   3.942  0.4189 -0.7225 -0.0912
 1265SOL     OW15427   3.859   4.120   2.838  0.2088 -0.7033  0.1903
 1265SOL    HW115428   3.783   4.090   2.889 -0.5496 -0.1066 -0.5811
 1265SOL    HW215429   3.930   4.064   2.868  1.3005  0.2106 -0.7034
 1266SOL     OW15430   3.277   1.278   3.102 -0.2577 -0.0933  0.2305
 1266SOL    HW115431   3.320   1.224   3.036  1.2504 -1.1384  2.0750
 1266SOL    HW215432   3.204   1.223   3.128  0.5969 -1.3076  0.0356
 1267SOL     OW15433   3.112   4.236  13.383  0.0883  0.0059  0.2419
 1267SOL    HW115434   3.188   4.184  13.409  0.4026 -1.0429 -2.7808
 1267SOL    HW215435   3.148   4.325  13.384 -0.8910  0.3993  1.7524
 1268SOL     OW15436   4.285   4.542   6.430 -0.0577 -0.0617  0.4754
 1268SOL    HW115437   4.350   4.498   6.375  0.1561 -0.3986  0.9917
 1268SOL    HW215438   4.341   4.600   6.483  1.6820  1.6583 -3.2011
 1269SOL     OW15439   2.006   1.329   8.330  0.4674 -0.1764  0.3421
 1269SOL    HW115440   2.061   1.262   8.368  0.7725 -0.6557 -0.9450
 1269SOL    HW215441   1.966   1.271   8.266 -1.2331  0.9202  0.3984
 1270SOL     OW15442   3.807   2.873  12.460  0.2125  0.3418 -0.0200
 1270SOL    HW115443   3.879   2.936  12.455  0.8416 -0.4706 -1.3054
 1270SOL    HW215444   3.844   2.820  12.530  0.3428 -2.0404 -1.8870
 1271SOL     OW15445   3.388   2.977   8.557 -0.0171  0.1257  0.2147
 1271SOL    HW115446   3.456   2.994   8.491 -0.5940  1.1020 -0.1242
 1271SOL    HW215447   3.420   2.891   8.586  1.0116  1.2941  2.5360
 1272SOL     OW15448   0.295   4.454  13.839 -0.3175  0.1921 -0.3659
 1272SOL    HW115449   0.367   4.505  13.801 -0.2931 -0.9208 -1.8156
 1272SOL    HW215450   0.258   4.419  13.758  1.8048  0.8611 -1.6241
 1273SOL     OW15451   4.230   3.348   9.122 -0.3263  0.1408  0.3621
 1273SOL    HW115452   4.263   3.434   9.097 -0.0222 -0.0759  0.0185
 1273SOL    HW215453   4.296   3.305   9.175 -0.5226 -0.0298  0.4681
 1274SOL     OW15454   3.501   2.003   5.472  0.5543  0.5216 -0.2054
 1274SOL    HW115455   3.478   1.912   5.489 -4.0563  1.6567 -0.2396
 1274SOL    HW215456   3.420   2.040   5.437  0.1575  0.4355  0.6229
 1275SOL     OW15457   3.039   3.432   8.846  0.0430 -0.1707  0.0503
 1275SOL    HW115458   3.052   3.338   8.832 -0.6474 -0.0120 -1.6423
 1275SOL    HW215459   3.128   3.465   8.835  0.2919 -1.5384 -2.0470
 1276SOL     OW15460   1.009   2.696   7.708  0.0730 -0.1637  0.0206
 1276SOL    HW115461   1.039   2.645   7.633  1.8880 -0.1626  0.7434
 1276SOL    HW215462   0.922   2.657   7.709  0.2910 -0.7089 -1.7226
 1277SOL     OW15463   4.117   0.972   1.414 -0.0687 -0.1436  0.0934
 1277SOL    HW115464   4.046   1.034   1.427  1.7043  1.8928  0.0665
 1277SOL    HW215465   4.155   1.011   1.336 -1.7559  0.0341 -0.6205
 1278SOL     OW15466   1.885   1.528   2.751  0.8936 -0.3379  0.2162
 1278SOL    HW115467   1.852   1.543   2.839  3.7768 -2.7583  1.7195
 1278SOL    HW215468   1.921   1.614   2.728 -2.1139  1.2077  1.3179
 1279SOL     OW15469   2.017   1.645  14.874  0.2106 -0.3124  0.3439
 1279SOL    HW115470   2.016   1.562  14.922  0.9818 -0.6867 -0.2986
 1279SOL    HW215471   1.994   1.701  14.948 -1.0590  0.4795 -0.6484
 1280SOL     OW15472   0.868   1.555   1.904 -0.0127  0.1267  0.2964
 1280SOL    HW115473   0.807   1.529   1.973  0.3813  0.0617  0.6190
 1280SOL    HW215474   0.886   1.470   1.863 -1.2319 -0.1084  0.2307
 1281SOL     OW15475   4.608   0.189   9.632  0.7538  0.1877  0.2631
 1281SOL    HW115476   4.645   0.136   9.561  0.9485 -1.1924  1.3761
 1281SOL    HW215477   4.671   0.160   9.698  1.4269  2.5727  0.6589
 1282SOL     OW15478   3.973   0.407   3.521 -0.3075  0.4673 -0.5185
 1282SOL    HW115479   3.946   0.499   3.527 -2.5252 -0.3575  2.0111
 1282SOL    HW215480   4.040   0.402   3.589 -1.0998 -2.1931  0.0470
 1283SOL     OW15481   3.542   3.781  11.475 -0.8988 -0.0637 -0.6789
 1283SOL    HW115482   3.474   3.826  11.425 -0.6364 -0.2073 -1.1614
 1283SOL    HW215483   3.548   3.831  11.556 -0.3020 -0.1902 -0.6444
 1284SOL     OW15484   1.514   2.135   7.227  0.3631  0.3528  0.1653
 1284SOL    HW115485   1.591   2.111   7.175 -0.3124 -1.5358  0.0089
 1284SOL    HW215486   1.464   2.053   7.233 -1.6780  1.4547 -1.5566
 1285SOL     OW15487   0.549   2.450  15.959 -0.5079 -0.2505 -1.1834
 1285SOL    HW115488   0.477   2.434  15.898  0.2763 -1.7251 -1.7177
 1285SOL    HW215489   0.500   2.502  16.023  1.1782  0.1044 -0.1798
 1286SOL     OW15490   2.691   2.485   6.208 -0.3460  0.5172 -0.0278
 1286SOL    HW115491   2.704   2.563   6.261 -2.4943 -0.0864  1.4134
 1286SOL    HW215492   2.782   2.466   6.190 -0.2290  1.4052 -0.3757
 1287SOL     OW15493   0.235   2.889   7.889  0.4130 -0.6346 -0.0382
 1287SOL    HW115494   0.281   2.851   7.963  0.0930  1.9819  1.4867
 1287SOL    HW215495   0.236   2.983   7.903 -1.2633 -0.9426  2.0435
 1288SOL     OW15496   3.343   1.857   3.826  0.3010 -0.1792  0.0878
 1288SOL    HW115497   3.376   1.783   3.775 -0.1371  0.5680 -1.3036
 1288SOL    HW215498   3.400   1.918   3.778 -1.0227  2.8015  2.3374
 1289SOL     OW15499   1.286   0.723   5.822 -0.4111  0.0328  0.5761
 1289SOL    HW115500   1.359   0.728   5.882 -0.5008 -3.4054  0.9995
 1289SOL    HW215501   1.218   0.742   5.886 -2.5747 -2.5880 -0.9333
 1290SOL     OW15502   4.051   0.063   4.928  0.2212  0.5176 -0.1152
 1290SOL    HW115503   4.123   0.000   4.920 -0.5155 -0.0859 -1.9307
 1290SOL    HW215504   3.970   0.017   4.946 -0.4200  2.3000  1.6314
 1291SOL     OW15505   1.186   0.051   4.634 -0.2443  0.2216  0.5524
 1291SOL    HW115506   1.170   0.058   4.728  0.7305  1.2868  0.6424
 1291SOL    HW215507   1.182   0.144   4.614 -2.3420 -0.1579 -0.7959
 1292SOL     OW15508   2.377   3.215   8.001  0.1905  0.7261 -0.2098
 1292SOL    HW115509   2.390   3.239   7.909 -0.4307  0.1928 -0.4302
 1292SOL    HW215510   2.457   3.250   8.041 -0.0874  2.3252 -1.0679
 1293SOL     OW15511   0.417   2.725   2.024  0.0001  0.0736  0.2109
 1293SOL    HW115512   0.490   2.700   2.080 -0.2704  0.4617  0.7287
 1293SOL    HW215513   0.443   2.813   1.995 -4.1234  0.2829 -2.9997
 1294SOL     OW15514   4.590   0.647   3.993  0.0307 -0.8259 -0.3894
 1294SOL    HW115515   4.606   0.736   3.960 -2.1464 -0.4676 -0.4679
 1294SOL    HW215516   4.674   0.634   4.037 -0.6691  0.1237  1.2187
 1295SOL     OW15517   0.372   2.223   2.943 -0.7787 -0.1552  0.3616
 1295SOL    HW115518   0.301   2.189   2.998  1.6987 -2.7420  1.9083
 1295SOL    HW215519   0.319   2.254   2.869 -1.1872 -0.7348  0.4030
 1296SOL     OW15520   4.516   2.495   9.396  0.2763  0.7985  0.4265
 1296SOL    HW115521   4.475   2.526   9.477 -0.2690  0.8884  0.1179
 1296SOL    HW215522   4.600   2.539   9.407 -1.2302  3.1576  2.6298
 1297SOL     OW15523   4.174   1.320  14.737  0.2418  0.1460 -0.0387
 1297SOL    HW115524   4.148   1.228  14.750 -1.6436  0.9752  2.1151
 1297SOL    HW215525   4.182   1.328  14.832  1.0648 -3.3590  0.1829
 1298SOL     OW15526   0.111   4.688   5.589 -0.2120 -0.2144 -0.2158
 1298SOL    HW115527   0.192   4.675   5.538 -1.0564 -2.7085 -0.9092
 1298SOL    HW215528   0.089   4.598   5.610 -3.8836  0.7882  0.2323
 1299SOL     OW15529   2.135   0.010  13.741  0.7283  0.0636 -0.0412
 1299SOL    HW115530   2.044   4.719  13.735 -0.7884  5.0479 -0.9366
 1299SOL    HW215531   2.163   0.006  13.650 -1.7108 -0.4918 -0.7632
 1300SOL     OW15532   2.291   0.266   1.890  0.1087  0.2009 -0.5486
 1300SOL    HW115533   2.222   0.215   1.932 -0.1878  0.4429 -0.7372
 1300SOL    HW215534   2.351   0.282   1.963 -0.8277  0.9423  0.0701
 1301SOL     OW15535   2.083   0.445  17.320  0.2371 -0.9764  0.4903
 1301SOL    HW115536   2.026   0.473  17.391  2.0303  0.1765  1.4763
 1301SOL    HW215537   2.153   0.398  17.367 -0.3455 -1.9374  0.4044
 1302SOL     OW15538   4.570   2.474   4.020  0.0127 -0.4734  0.0734
 1302SOL    HW115539   4.601   2.420   3.948  0.4273  1.5441 -1.2587
 1302SOL    HW215540   4.484   2.432   4.033  0.4436 -1.2543  0.4147
 1303SOL     OW15541   3.216   1.002  11.099  0.1797 -0.1913  0.3358
 1303SOL    HW115542   3.239   0.943  11.171 -1.0021  0.2064  1.0349
 1303SOL    HW215543   3.279   0.977  11.031  0.5097 -1.5370  1.1435
 1304SOL     OW15544   2.807   2.076   7.918 -0.2749  0.8198  0.0592
 1304SOL    HW115545   2.722   2.097   7.956 -0.6564 -1.2811  0.3539
 1304SOL    HW215546   2.858   2.066   7.997  0.4431  0.3744 -0.4666
 1305SOL     OW15547   0.962   3.896   3.648 -0.4294  0.5616 -0.3339
 1305SOL    HW115548   0.993   3.822   3.595  0.5432  1.7371 -1.4131
 1305SOL    HW215549   1.043   3.948   3.641  0.6431 -1.2731 -1.5431
 1306SOL     OW15550   0.192   2.201   4.334 -0.1912 -0.7477  0.4695
 1306SOL    HW115551   0.260   2.241   4.280  0.9463 -1.0859  1.6435
 1306SOL    HW215552   0.113   2.228   4.288  1.5001  1.3492 -1.2211
 1307SOL     OW15553   3.485   2.387   2.525 -0.1487 -0.7908 -0.9028
 1307SOL    HW115554   3.571   2.429   2.522  0.2941 -1.5525  0.8100
 1307SOL    HW215555   3.503   2.294   2.531 -0.0526 -0.6443  1.2648
 1308SOL     OW15556   0.173   3.948   8.193 -0.3447 -0.1414  0.0555
 1308SOL    HW115557   0.259   3.948   8.151 -0.2546 -0.9895  0.2544
 1308SOL    HW215558   0.191   3.980   8.281 -0.6522 -0.7819  0.3464
 1309SOL     OW15559   3.002   1.194  14.248 -0.2226  0.0681  0.2567
 1309SOL    HW115560   2.982   1.255  14.177 -0.0272 -0.2909 -0.1053
 1309SOL    HW215561   2.969   1.250  14.319 -1.1367 -1.0167  0.6931
 1310SOL     OW15562   0.689   3.342   8.538 -0.1174  0.5576 -0.2283
 1310SOL    HW115563   0.730   3.343   8.625 -0.6039  2.0551 -0.0133
 1310SOL    HW215564   0.595   3.358   8.549 -0.3376 -0.2902 -0.8802
 1311SOL     OW15565   3.822   0.059   3.146  0.4795  0.1653 -0.5955
 1311SOL    HW115566   3.803   0.112   3.223 -0.2343  1.0789 -1.3981
 1311SOL    HW215567   3.896   0.015   3.188  1.0497 -0.0768 -1.8528
 1312SOL     OW15568   2.765   3.491   1.271 -0.3423  0.3310  0.1925
 1312SOL    HW115569   2.777   3.468   1.363 -0.6899  1.2810  0.4738
 1312SOL    HW215570   2.791   3.406   1.235 -0.1713  0.3030  0.3831
 1313SOL     OW15571   3.302   0.404   9.259 -0.7334  0.0187  0.2136
 1313SOL    HW115572   3.338   0.478   9.308 -0.4053 -0.3186  0.4842
 1313SOL    HW215573   3.356   0.411   9.180  0.2051 -1.1242  0.7580
 1314SOL     OW15574   1.462   3.878   5.270  0.5897  0.5390  0.4119
 1314SOL    HW115575   1.432   3.942   5.335 -0.3312 -1.0633  1.5639
 1314SOL    HW215576   1.416   3.798   5.297  0.2337  0.1922 -1.2231
 1315SOL     OW15577   3.377   1.836   8.850  0.1099  0.2799  0.6009
 1315SOL    HW115578   3.288   1.867   8.867  0.8305  2.0664  1.1191
 1315SOL    HW215579   3.376   1.825   8.755  2.3390 -2.0420  0.8567
 1316SOL     OW15580   0.171   4.320  14.491 -0.3613 -0.1383  0.3455
 1316SOL    HW115581   0.146   4.301  14.400  0.3166  2.2215 -0.3236
 1316SOL    HW215582   0.233   4.248  14.502 -0.6668 -0.4825 -0.1677
 1317SOL     OW15583   1.096   2.914   5.339 -0.0204 -0.2277 -0.3299
 1317SOL    HW115584   1.119   2.899   5.247 -1.8867  0.2220 -0.8911
 1317SOL    HW215585   1.136   3.000   5.351 -0.0842 -0.4012  1.0730
 1318SOL     OW15586   1.551   2.690   8.259 -0.0230  0.0655 -0.0480
 1318SOL    HW115587   1.530   2.626   8.191  0.7621  0.7240 -0.9172
 1318SOL    HW215588   1.630   2.724   8.217 -1.6788  1.7751 -1.7588
 1319SOL     OW15589   0.176   4.372   5.049  0.0175  0.0025 -0.5563
 1319SOL    HW115590   0.115   4.298   5.060  1.6709 -1.8613 -3.9425
 1319SOL    HW215591   0.114   4.436   5.013 -0.4441 -0.7971 -1.2087
 1320SOL     OW15592   3.979   1.538   8.665 -0.1682 -0.6465 -0.0904
 1320SOL    HW115593   3.949   1.625   8.638 -1.5712 -0.6040  1.5824
 1320SOL    HW215594   3.902   1.506   8.713 -1.0981  1.1096 -0.3828
 1321SOL     OW15595   4.264   3.906  14.180 -0.2116  0.3333  0.0990
 1321SOL    HW115596   4.264   3.815  14.150  0.7585  0.9310 -1.7254
 1321SOL    HW215597   4.169   3.912  14.190 -0.3022 -0.5871 -0.1938
 1322SOL     OW15598   2.576   3.781  13.949  0.5321  0.1442  0.4262
 1322SOL    HW115599   2.548   3.870  13.967  1.4627  0.8823 -1.7070
 1322SOL    HW215600   2.618   3.787  13.863 -0.2561 -1.0145 -0.0401
 1323SOL     OW15601   4.189   0.790   5.786  0.0707  0.2932  0.4205
 1323SOL    HW115602   4.166   0.855   5.852  3.1042  2.1926 -0.4025
 1323SOL    HW215603   4.109   0.794   5.734  1.1760 -1.5467 -1.4492
 1324SOL     OW15604   1.254   2.692   7.786  0.0134  0.1918 -0.3224
 1324SOL    HW115605   1.164   2.669   7.762 -0.3508  1.4010 -0.0870
 1324SOL    HW215606   1.255   2.786   7.770  1.3479  0.7526  3.1153
 1325SOL     OW15607   3.743   3.898   5.418 -0.1963  0.1664 -0.3635
 1325SOL    HW115608   3.699   3.813   5.421  0.0660 -0.0046 -1.3688
 1325SOL    HW215609   3.833   3.882   5.390 -0.1303  0.7839 -0.4922
 1326SOL     OW15610   2.988   3.695   2.292 -0.0298  0.7514 -0.3293
 1326SOL    HW115611   2.932   3.676   2.366  1.2184  0.9186  0.6550
 1326SOL    HW215612   3.017   3.784   2.314  0.5910  0.2228  0.9642
 1327SOL     OW15613   0.320   3.346  16.595 -0.0301  0.4966 -0.8145
 1327SOL    HW115614   0.383   3.274  16.597 -1.1242 -0.4044  1.6538
 1327SOL    HW215615   0.254   3.312  16.534 -0.5630 -1.8434  1.0654
 1328SOL     OW15616   0.011   2.985   7.311  0.6317 -0.0590  0.2363
 1328SOL    HW115617   0.049   3.055   7.257  0.5408 -0.5696 -0.4910
 1328SOL    HW215618   4.700   3.049   7.363 -1.1302 -1.3086  0.0852
 1329SOL     OW15619   2.435   1.088   0.973  0.8043 -0.2522 -0.6481
 1329SOL    HW115620   2.464   1.159   0.917 -3.2363  1.7525 -0.2139
 1329SOL    HW215621   2.340   1.101   0.965  0.7111 -1.1970 -1.0804
 1330SOL     OW15622   1.406   2.127   9.725  0.0097 -0.1735 -0.2421
 1330SOL    HW115623   1.474   2.061   9.715  1.6610  1.5068 -0.0395
 1330SOL    HW215624   1.447   2.201   9.681  0.3533  0.2983  0.8860
 1331SOL     OW15625   1.236   0.314   6.444 -0.7579  0.1480  0.5700
 1331SOL    HW115626   1.182   0.278   6.515 -2.0547  0.9170 -0.0093
 1331SOL    HW215627   1.175   0.310   6.370  1.4063 -1.1743 -1.0962
 1332SOL     OW15628   0.794   1.777  15.912  0.1230  0.0948 -0.5076
 1332SOL    HW115629   0.739   1.713  15.957 -0.7603  1.1999  0.0041
 1332SOL    HW215630   0.883   1.748  15.930 -0.6509 -1.6365  0.4560
 1333SOL     OW15631   3.721   3.927   9.005 -0.9209  0.0817 -0.9604
 1333SOL    HW115632   3.690   3.927   8.915  1.6419  0.5259 -1.8543
 1333SOL    HW215633   3.772   4.008   9.003 -0.0529 -0.3895  1.6310
 1334SOL     OW15634   0.749   3.118   1.883 -0.6362 -0.7633  0.3272
 1334SOL    HW115635   0.832   3.072   1.872  0.4125  1.3087 -0.5327
 1334SOL    HW215636   0.763   3.212   1.893  0.9659 -0.9845  0.2258
 1335SOL     OW15637   1.492   2.467  11.556 -0.0296  0.0994 -0.4400
 1335SOL    HW115638   1.431   2.472  11.483  1.1421 -0.1959 -1.4348
 1335SOL    HW215639   1.484   2.561  11.576 -0.3381  0.0277 -0.2349
 1336SOL     OW15640   4.300   3.265   4.583  0.1053 -0.1804 -0.6860
 1336SOL    HW115641   4.331   3.297   4.498  2.8646 -1.0460  0.0034
 1336SOL    HW215642   4.345   3.181   4.587  1.2621  0.4956  0.5640
 1337SOL     OW15643   2.268   3.805  14.706 -0.1471  0.0565  0.1733
 1337SOL    HW115644   2.324   3.797  14.629 -0.5880  2.1058 -0.3437
 1337SOL    HW215645   2.221   3.722  14.714 -0.5526  0.1698 -1.0409
 1338SOL     OW15646   0.884   1.391   4.102 -0.2673 -0.1075 -0.1568
 1338SOL    HW115647   0.789   1.397   4.086 -0.1738 -0.3457 -0.7845
 1338SOL    HW215648   0.911   1.481   4.088 -2.6636  0.5034 -0.8627
 1339SOL     OW15649   0.453   2.823   8.077 -0.5192 -0.2400 -0.0119
 1339SOL    HW115650   0.519   2.870   8.027 -0.0488  0.1391  0.9639
 1339SOL    HW215651   0.467   2.876   8.155 -1.2995  0.1153 -0.1147
 1340SOL     OW15652   1.974   1.368   5.557 -0.0465  0.3439  0.1212
 1340SOL    HW115653   1.914   1.333   5.491  0.9733  0.1479 -0.7190
 1340SOL    HW215654   2.023   1.426   5.499  0.8782  0.3258  0.8895
 1341SOL     OW15655   4.425   1.214   1.330  0.0128  0.2991 -0.5941
 1341SOL    HW115656   4.474   1.140   1.294 -0.8095 -0.3924 -0.2936
 1341SOL    HW215657   4.339   1.193   1.293  0.5677  0.5264 -1.9976
 1342SOL     OW15658   3.294   1.654   5.234 -0.1562  0.4384 -0.3829
 1342SOL    HW115659   3.299   1.639   5.140  1.4214  1.9369 -0.5420
 1342SOL    HW215660   3.226   1.722   5.239  1.0903  1.6324  0.1616
 1343SOL     OW15661   3.699   0.873   4.944 -0.4205  0.1468  0.1119
 1343SOL    HW115662   3.611   0.872   4.906  0.4688 -2.0264 -1.8657
 1343SOL    HW215663   3.673   0.923   5.021 -1.0800 -0.0566  0.0219
 1344SOL     OW15664   1.765   0.051   2.126 -0.4951  0.3132  0.0792
 1344SOL    HW115665   1.814   0.052   2.044  0.0361  0.0032  0.3893
 1344SOL    HW215666   1.836   0.080   2.185 -0.6814 -0.5802  0.7458
 1345SOL     OW15667   1.847   2.458   0.583  0.7112  0.0030  0.0037
 1345SOL    HW115668   1.811   2.376   0.615  1.1093  0.6348  2.0630
 1345SOL    HW215669   1.872   2.440   0.492 -0.6826  0.7265 -0.5247
 1346SOL     OW15670   2.248   0.208   4.260  0.4412  0.1732  0.1015
 1346SOL    HW115671   2.313   0.150   4.299  1.8494  2.5807  1.3710
 1346SOL    HW215672   2.299   0.243   4.187  0.4546  0.2078  0.1274
 1347SOL     OW15673   3.296   2.677   2.022 -0.7423  0.1472  0.5363
 1347SOL    HW115674   3.305   2.754   2.078  0.6187 -0.2043  0.7953
 1347SOL    HW215675   3.280   2.613   2.091 -0.7617  0.0004  0.3937
 1348SOL     OW15676   2.251   0.127  10.365  0.1436  0.4883  0.3348
 1348SOL    HW115677   2.315   0.056  10.359 -0.5395 -0.1356  0.3681
 1348SOL    HW215678   2.169   0.078  10.369  1.4707 -1.7694 -0.0071
 1349SOL     OW15679   3.682   1.819  14.566 -0.2118 -0.2146 -0.5277
 1349SOL    HW115680   3.741   1.887  14.599 -0.6769 -0.2580  0.3930
 1349SOL    HW215681   3.706   1.815  14.473  2.9836 -1.6708  0.3719
 1350SOL     OW15682   3.532   1.840  12.291  0.2645 -0.0154  0.0931
 1350SOL    HW115683   3.486   1.891  12.224  0.5932 -0.2503 -0.3117
 1350SOL    HW215684   3.462   1.781  12.321 -1.6392  1.4234 -1.5093
 1351SOL     OW15685   2.245   4.368   7.247 -0.4415 -0.1174  0.0789
 1351SOL    HW115686   2.213   4.316   7.320 -1.6244  0.5727  0.0384
 1351SOL    HW215687   2.272   4.448   7.292  1.7592 -2.1163  2.3656
 1352SOL     OW15688   3.361   1.194   9.601  0.6509  0.8656 -0.1754
 1352SOL    HW115689   3.453   1.217   9.584  0.5392  2.0517  0.9267
 1352SOL    HW215690   3.349   1.163   9.511 -0.0581  1.8233 -0.4055
 1353SOL     OW15691   0.356   0.727  15.934 -0.3654  0.5562  0.0210
 1353SOL    HW115692   0.300   0.669  15.986 -1.5878  2.9280  1.3751
 1353SOL    HW215693   0.336   0.816  15.965  1.2905  0.8558  0.2025
 1354SOL     OW15694   1.889   1.278   9.608 -0.3458 -0.5030  0.0163
 1354SOL    HW115695   1.920   1.205   9.555 -1.9590 -0.0247 -1.6276
 1354SOL    HW215696   1.795   1.260   9.611 -0.6690  1.2296  0.4453
 1355SOL     OW15697   1.322   4.541  10.178 -0.4754 -0.5664 -0.1380
 1355SOL    HW115698   1.323   4.494  10.262 -2.9051  0.2663  0.3556
 1355SOL    HW215699   1.343   4.465  10.123 -3.0797 -1.2014 -0.2361
 1356SOL     OW15700   4.221   0.823  12.276  0.6595 -0.2230 -0.3405
 1356SOL    HW115701   4.198   0.751  12.335  0.1526  0.1477 -0.0862
 1356SOL    HW215702   4.204   0.899  12.333  1.3761  0.3945 -0.9365
 1357SOL     OW15703   3.359   3.913   6.916 -0.0262 -0.0989  0.4080
 1357SOL    HW115704   3.265   3.924   6.899 -0.4131  0.7827  3.1694
 1357SOL    HW215705   3.394   3.975   6.851 -0.7632 -0.3124 -0.1970
 1358SOL     OW15706   3.745   0.020   4.248  0.1231 -0.0196 -0.2812
 1358SOL    HW115707   3.683   4.690   4.222 -0.2707  1.2722 -2.7074
 1358SOL    HW215708   3.693   0.063   4.316 -0.5155 -0.3098 -0.5885
 1359SOL     OW15709   1.652   2.332   1.922  0.1410 -0.3723  0.2388
 1359SOL    HW115710   1.680   2.423   1.911 -1.1587  0.1111  0.9919
 1359SOL    HW215711   1.732   2.290   1.955 -0.2247 -1.9692 -0.8914
 1360SOL     OW15712   0.047   3.153   8.688 -0.2001 -0.4424 -0.7441
 1360SOL    HW115713   4.703   3.161   8.737 -0.1872 -0.7899 -0.6678
 1360SOL    HW215714   0.011   3.138   8.601  0.9579  1.7341 -1.6021
 1361SOL     OW15715   4.266   2.566   3.429 -0.3933 -0.3712 -0.0006
 1361SOL    HW115716   4.210   2.608   3.494  1.8574 -1.2524  2.4947
 1361SOL    HW215717   4.338   2.540   3.487  0.2079  5.0485  1.6588
 1362SOL     OW15718   0.064   3.632  10.530 -0.8492  0.3486  0.1369
 1362SOL    HW115719   0.070   3.671  10.443 -0.6033  2.4661  1.1032
 1362SOL    HW215720   0.097   3.544  10.511 -2.3593 -0.1614 -0.1742
 1363SOL     OW15721   3.661   2.073  11.285 -0.5843 -0.0493  0.6492
 1363SOL    HW115722   3.701   2.033  11.207 -0.4506  1.6059 -0.1341
 1363SOL    HW215723   3.731   2.059  11.348 -2.0981  0.6508  2.4811
 1364SOL     OW15724   0.087   0.388   8.807  0.8486  0.9583  0.0006
 1364SOL    HW115725   0.078   0.435   8.724 -2.0064  1.3812  0.5298
 1364SOL    HW215726   0.012   0.428   8.852 -1.8984 -2.6557 -1.2996
 1365SOL     OW15727   0.649   0.373   2.590 -1.1166 -0.0896  0.5394
 1365SOL    HW115728   0.593   0.306   2.552 -1.7871  2.2268 -2.6440
 1365SOL    HW215729   0.672   0.334   2.674  3.8224  1.7793  0.0538
 1366SOL     OW15730   1.127   4.640  17.410 -0.3441 -0.0867  0.0475
 1366SOL    HW115731   1.204   4.697  17.404  0.5926 -1.0352  3.2752
 1366SOL    HW215732   1.132   4.590  17.329  0.5720  1.0205 -0.5868
 1367SOL     OW15733   1.148   0.168   2.830 -0.7972 -0.1234  0.1792
 1367SOL    HW115734   1.216   0.161   2.898 -1.2218 -2.9044  0.3219
 1367SOL    HW215735   1.180   0.100   2.770  2.1836 -0.2087  1.8326
 1368SOL     OW15736   4.224   3.199   0.139 -0.0326  0.4004  0.3932
 1368SOL    HW115737   4.222   3.112   0.178 -1.3597 -0.1340 -0.8357
 1368SOL    HW215738   4.140   3.207   0.093  0.3535 -0.7855 -0.5348
 1369SOL     OW15739   4.185   0.240  12.269 -0.1806 -0.1219 -0.2138
 1369SOL    HW115740   4.273   0.209  12.247 -0.2532  0.0951 -0.8182
 1369SOL    HW215741   4.139   0.170  12.316 -0.1291 -1.2761 -1.8863
 1370SOL     OW15742   2.559   3.926   2.926 -0.0722 -0.4589 -0.1922
 1370SOL    HW115743   2.535   3.880   2.846 -0.0095 -0.2535 -0.3299
 1370SOL    HW215744   2.643   3.970   2.915 -0.0376 -0.2410  0.9034
 1371SOL     OW15745   0.313   3.467   1.894  0.0301 -0.1164  0.0615
 1371SOL    HW115746   0.290   3.466   1.987 -2.7116  3.0464 -0.5993
 1371SOL    HW215747   0.375   3.396   1.876 -2.2011 -1.4772 -2.2656
 1372SOL     OW15748   3.877   3.566   2.866 -0.3831 -0.4613  0.7510
 1372SOL    HW115749   3.931   3.584   2.943  0.5502  0.9353 -0.2303
 1372SOL    HW215750   3.942   3.559   2.796 -1.9581  0.1433 -0.7740
 1373SOL     OW15751   4.630   4.325  16.194  0.1024  0.6683 -0.3680
 1373SOL    HW115752   4.711   4.328  16.245 -0.3120  0.2175  0.3120
 1373SOL    HW215753   4.639   4.243  16.146 -0.5146 -0.3491  1.2642
 1374SOL     OW15754   3.295   1.695  17.361 -0.0330  0.4034  0.3176
 1374SOL    HW115755   3.222   1.663  17.308  2.4324 -0.4927 -2.6005
 1374SOL    HW215756   3.366   1.668  17.303 -1.1150 -1.7286  0.0075
 1375SOL     OW15757   0.943   2.140   2.063 -0.0162  0.0071 -0.1885
 1375SOL    HW115758   0.964   2.148   2.156  0.8330 -0.3459 -0.3589
 1375SOL    HW215759   0.905   2.228   2.056 -0.7855 -0.1736  1.6198
 1376SOL     OW15760   4.695   0.081   9.417 -0.6817  0.5954 -0.3572
 1376SOL    HW115761   4.731   0.093   9.329  2.7495  1.6153  1.1752
 1376SOL    HW215762   0.035   0.065   9.470 -2.0476 -0.4852  1.3470
 1377SOL     OW15763   4.494   3.704   3.474  0.0468 -0.1651 -0.1481
 1377SOL    HW115764   4.402   3.727   3.467 -0.4784 -2.0081  0.8030
 1377SOL    HW215765   4.512   3.730   3.564  1.6253 -0.3212 -0.4050
 1378SOL     OW15766   3.765   1.339   6.501  0.1557  0.7559  0.3637
 1378SOL    HW115767   3.788   1.292   6.420  0.2608  1.1918  0.1403
 1378SOL    HW215768   3.675   1.361   6.477 -0.3339  1.4981  2.9457
 1379SOL     OW15769   2.156   3.858  12.408 -0.0843  0.4894  0.2158
 1379SOL    HW115770   2.201   3.790  12.358 -3.4393 -2.4963  1.2982
 1379SOL    HW215771   2.085   3.798  12.428  0.5977 -0.2700  0.3842
 1380SOL     OW15772   4.336   3.151  12.816  0.1947 -0.2043  0.0896
 1380SOL    HW115773   4.340   3.100  12.735  1.2866 -1.3029  0.8251
 1380SOL    HW215774   4.354   3.236  12.774  1.9718 -1.2294 -1.2339
 1381SOL     OW15775   2.743   0.255   5.129 -0.2859  0.5120 -0.5361
 1381SOL    HW115776   2.776   0.177   5.086  1.8670 -0.5302  3.0303
 1381SOL    HW215777   2.735   0.225   5.220  0.8350 -1.3447 -1.0680
 1382SOL     OW15778   3.362   2.235   8.721 -0.0788  0.4464  0.0085
 1382SOL    HW115779   3.390   2.298   8.655  0.6433  0.7779  0.6371
 1382SOL    HW215780   3.276   2.266   8.750  0.5102  0.6707  1.4997
 1383SOL     OW15781   4.243   2.028   9.265 -0.0604 -0.0808 -0.0679
 1383SOL    HW115782   4.207   2.087   9.199  0.1004  1.7249  1.4943
 1383SOL    HW215783   4.177   2.036   9.333 -0.3887 -0.0649 -0.3861
 1384SOL     OW15784   3.464   1.913   0.485 -0.2195  0.2559 -0.2725
 1384SOL    HW115785   3.396   1.886   0.547  1.2881  0.9399  1.6980
 1384SOL    HW215786   3.472   1.838   0.426 -2.1474 -0.7795  0.7546
 1385SOL     OW15787   2.591   3.809  13.057  0.2158  0.3301 -0.6385
 1385SOL    HW115788   2.569   3.754  13.132  0.8799  2.2839  1.0001
 1385SOL    HW215789   2.598   3.748  12.984 -0.2127 -0.8049  0.2811
 1386SOL     OW15790   4.714   3.050   1.337  0.2490  0.0100  0.7279
 1386SOL    HW115791   4.630   3.089   1.312  0.3963  0.3733  0.7881
 1386SOL    HW215792   0.024   3.057   1.254 -1.0386  0.1231  0.0034
 1387SOL     OW15793   4.276   3.960   2.451 -0.3195 -0.3495  0.4177
 1387SOL    HW115794   4.260   3.868   2.471  2.3410 -0.7050  0.9382
 1387SOL    HW215795   4.210   3.973   2.383  0.7467  0.8342 -0.3848
 1388SOL     OW15796   4.100   4.357   3.502 -0.7759  0.3017 -0.1064
 1388SOL    HW115797   4.092   4.268   3.467  2.5516  1.0963 -2.8720
 1388SOL    HW215798   4.168   4.342   3.568 -2.7757 -1.6614  1.4940
 1389SOL     OW15799   0.815   0.445   9.453  0.4646 -0.4691 -0.3140
 1389SOL    HW115800   0.842   0.354   9.441  1.1106 -0.3104 -0.0570
 1389SOL    HW215801   0.721   0.448   9.436  0.2894 -0.4634  0.6415
 1390SOL     OW15802   3.728   2.288   4.234 -0.4715  0.6758  0.1035
 1390SOL    HW115803   3.649   2.260   4.187 -0.7116  2.9735 -0.8783
 1390SOL    HW215804   3.701   2.375   4.265  2.4010 -0.4260  5.7347
 1391SOL     OW15805   4.270   2.822  12.287 -0.0219 -0.6292 -0.2150
 1391SOL    HW115806   4.177   2.821  12.265 -0.2284  0.1172  0.6304
 1391SOL    HW215807   4.267   2.776  12.371 -3.0803 -1.7398 -0.9063
 1392SOL     OW15808   0.362   2.639   1.765  0.0998 -0.3884 -0.7154
 1392SOL    HW115809   0.384   2.662   1.855 -0.1686 -0.3907 -0.6504
 1392SOL    HW215810   0.363   2.543   1.770 -0.4127 -0.2379  2.2750
 1393SOL     OW15811   0.066   4.705   4.460 -0.1391  0.2738 -0.1794
 1393SOL    HW115812   0.020   4.658   4.529 -2.3765 -0.3523 -2.0943
 1393SOL    HW215813   0.140   4.646   4.443  0.6793  0.6153  2.1664
 1394SOL     OW15814   3.279   3.942   4.883  0.8746  0.4487  0.1232
 1394SOL    HW115815   3.197   3.936   4.932 -0.1377  0.1727 -1.5949
 1394SOL    HW215816   3.252   3.982   4.801  0.0295  2.7725  1.5386
 1395SOL     OW15817   1.954   2.423   3.005  0.2910 -0.3776  1.0612
 1395SOL    HW115818   2.017   2.444   3.073  1.1929 -2.5900  0.9180
 1395SOL    HW215819   1.868   2.425   3.047  0.1210  2.4796  0.5598
 1396SOL     OW15820   0.191   2.109   3.112  0.2492  0.2670  0.3648
 1396SOL    HW115821   0.160   2.048   3.045 -0.8826 -0.0537  1.1750
 1396SOL    HW215822   0.193   2.060   3.194 -1.6890  0.2190  0.3697
 1397SOL     OW15823   0.320   3.281   4.939 -0.3344  0.0328  0.1356
 1397SOL    HW115824   0.403   3.247   4.907 -0.1827 -0.4726  1.0644
 1397SOL    HW215825   0.347   3.363   4.982  1.6451  0.4547 -1.9098
 1398SOL     OW15826   0.757   2.615   8.368 -0.7280  0.3122 -0.1287
 1398SOL    HW115827   0.678   2.568   8.394 -1.1993 -0.1355 -2.3369
 1398SOL    HW215828   0.753   2.586   8.276  0.6104  1.9048 -0.6792
 1399SOL     OW15829   3.960   4.013   4.111  0.0378  0.2331  0.8252
 1399SOL    HW115830   3.997   3.943   4.164 -1.0331 -1.2683 -0.4012
 1399SOL    HW215831   3.893   4.061   4.160 -0.2161  1.1256 -0.3747
 1400SOL     OW15832   1.154   2.604   6.378 -0.7958  0.1401 -0.0822
 1400SOL    HW115833   1.145   2.691   6.339  0.5906  0.1080 -0.4862
 1400SOL    HW215834   1.064   2.573   6.385 -1.3204  1.8225  0.5723
 1401SOL     OW15835   3.619   2.985   0.767 -0.0362  0.5570 -0.7817
 1401SOL    HW115836   3.687   2.978   0.834 -0.6385  0.2435 -0.1989
 1401SOL    HW215837   3.565   3.060   0.791 -1.8561 -1.9320  2.9177
 1402SOL     OW15838   3.257   0.714   7.079  0.0482 -0.3108  0.1990
 1402SOL    HW115839   3.221   0.704   7.167  1.2373 -4.0992  0.2885
 1402SOL    HW215840   3.346   0.684   7.097  0.6457 -0.0102 -2.2071
 1403SOL     OW15841   3.889   0.383   8.875  0.1430 -0.0800 -0.1906
 1403SOL    HW115842   3.933   0.467   8.858  1.2311 -0.6632 -0.2408
 1403SOL    HW215843   3.819   0.384   8.810 -1.8916  0.5993  2.0139
 1404SOL     OW15844   1.335   1.236   7.903  0.4790  0.0787  0.0016
 1404SOL    HW115845   1.415   1.240   7.850 -0.9594 -2.9430 -2.3833
 1404SOL    HW215846   1.363   1.228   7.994 -0.3523  0.0784  0.2536
 1405SOL     OW15847   3.024   4.188   5.004 -0.0475 -0.2075  0.0007
 1405SOL    HW115848   2.957   4.127   4.972 -0.9857  1.5578 -1.3450
 1405SOL    HW215849   2.992   4.276   4.985  0.6039  0.2321  0.9250
 1406SOL     OW15850   0.849   2.628  13.019  0.5348 -0.0847  0.2985
 1406SOL    HW115851   0.903   2.675  12.956  1.3567  0.8775  1.7155
 1406SOL    HW215852   0.894   2.543  13.021 -0.3481 -0.5455  0.8472
 1407SOL     OW15853   3.183   2.562   3.762  0.0680  0.0543  0.1462
 1407SOL    HW115854   3.158   2.538   3.851  0.2189  1.6010  0.6026
 1407SOL    HW215855   3.268   2.518   3.756  0.3446  0.8851 -2.2261
 1408SOL     OW15856   4.307   2.647   8.326  0.5652  0.4436 -0.2705
 1408SOL    HW115857   4.246   2.579   8.357 -0.5897  1.1781 -0.9258
 1408SOL    HW215858   4.385   2.630   8.379  1.1653  1.0961 -0.9527
 1409SOL     OW15859   1.278   3.583   4.719 -0.4981  0.0610 -0.3547
 1409SOL    HW115860   1.300   3.513   4.659 -2.1010  2.1581 -3.3711
 1409SOL    HW215861   1.190   3.550   4.738  1.0071 -3.3615  0.6174
 1410SOL     OW15862   1.857   4.249   3.790 -0.4090  0.2592 -0.2044
 1410SOL    HW115863   1.937   4.297   3.808  1.3002 -2.8255  0.5171
 1410SOL    HW215864   1.880   4.157   3.805  0.5363  0.5799  0.2996
 1411SOL     OW15865   0.914   0.699   1.121 -0.0339  0.0575  0.1138
 1411SOL    HW115866   0.968   0.769   1.084 -0.5457  0.4290  0.0778
 1411SOL    HW215867   0.906   0.733   1.210 -0.7379  0.2074 -0.0093
 1412SOL     OW15868   1.111   0.975   6.886  0.2953 -0.4900 -0.2484
 1412SOL    HW115869   1.068   0.912   6.829  0.4431 -0.6081 -0.2297
 1412SOL    HW215870   1.070   0.969   6.973 -0.3129  1.9111 -0.3663
 1413SOL     OW15871   4.147   2.718   2.927  0.0432 -0.0358 -0.6338
 1413SOL    HW115872   4.089   2.641   2.933 -1.2893  0.9309 -1.1745
 1413SOL    HW215873   4.225   2.683   2.884  0.0766 -1.6762  0.7491
 1414SOL     OW15874   3.679   0.555   5.734 -0.0366  0.5132  0.2186
 1414SOL    HW115875   3.755   0.571   5.678  1.1353 -1.0088  1.3585
 1414SOL    HW215876   3.716   0.584   5.818  0.7399 -0.1460  0.1066
 1415SOL     OW15877   4.361   3.142   6.281  0.9961  0.6427 -0.1288
 1415SOL    HW115878   4.401   3.055   6.283 -1.6516 -0.5907  0.4679
 1415SOL    HW215879   4.419   3.191   6.223  2.6806  1.1660  2.0162
 1416SOL     OW15880   0.300   1.651  16.146 -0.2451 -0.1669  0.8762
 1416SOL    HW115881   0.359   1.585  16.183 -1.1984  0.0721  2.7939
 1416SOL    HW215882   0.238   1.595  16.100  1.1926 -0.9243 -0.1533
 1417SOL     OW15883   0.994   3.148  13.881 -0.2459 -0.2060 -0.3269
 1417SOL    HW115884   0.910   3.118  13.846 -0.4069 -0.4829  0.2924
 1417SOL    HW215885   1.043   3.154  13.799  0.7399 -1.7213  0.1288
 1418SOL     OW15886   4.635   2.453  15.763  0.4465  0.4837 -0.0361
 1418SOL    HW115887   4.654   2.362  15.787 -2.5171  0.0189  0.4876
 1418SOL    HW215888   4.570   2.436  15.695 -0.3792  1.6258  0.4654
 1419SOL     OW15889   3.976   1.139   5.398  0.2950 -0.1103  0.6045
 1419SOL    HW115890   3.937   1.060   5.435 -1.4787  0.4276 -0.0998
 1419SOL    HW215891   4.064   1.123   5.365  1.1208  2.3441  1.6392
 1420SOL     OW15892   3.167   2.644   8.594 -0.5025 -0.0272  0.2847
 1420SOL    HW115893   3.182   2.647   8.499  1.8646  1.1223  0.6888
 1420SOL    HW215894   3.125   2.558   8.592  1.4522 -0.8882 -4.5066
 1421SOL     OW15895   4.616   1.211  17.027 -0.3508  0.2464  0.1435
 1421SOL    HW115896   4.553   1.223  16.957 -0.1262 -2.6814 -0.5559
 1421SOL    HW215897   4.693   1.241  16.980 -0.4130  0.8085  0.3957
 1422SOL     OW15898   3.882   0.449   7.588  0.1303  0.3472  0.3149
 1422SOL    HW115899   3.958   0.431   7.531 -0.6530 -0.4814 -0.4667
 1422SOL    HW215900   3.812   0.393   7.555  0.2432  1.0571 -1.1322
 1423SOL     OW15901   2.573   0.372  17.250  0.6598 -0.1887 -0.2268
 1423SOL    HW115902   2.561   0.344  17.341  2.9830 -0.4630 -0.0190
 1423SOL    HW215903   2.659   0.337  17.229  1.4922  1.4513  0.3710
 1424SOL     OW15904   3.325   2.565   0.966  0.3729  0.2868  0.9539
 1424SOL    HW115905   3.251   2.622   0.987 -0.0483  0.2411 -0.3963
 1424SOL    HW215906   3.396   2.629   0.961  0.3353  0.2906  0.4381
 1425SOL     OW15907   0.141   0.521   5.631  0.2264 -0.5466  0.3223
 1425SOL    HW115908   0.183   0.449   5.584  0.3762  1.0846 -2.0594
 1425SOL    HW215909   0.154   0.482   5.717  1.6116  1.5430  1.0416
 1426SOL     OW15910   4.176   2.347   6.200  0.3362 -0.0880  0.1515
 1426SOL    HW115911   4.134   2.268   6.235  0.9814 -0.3940  0.2314
 1426SOL    HW215912   4.262   2.305   6.193  0.5186  0.4181 -0.6686
 1427SOL     OW15913   3.916   2.994   4.233 -0.0369 -0.1901  0.0887
 1427SOL    HW115914   3.909   3.087   4.211 -0.3157 -0.9862 -3.3110
 1427SOL    HW215915   3.826   2.964   4.220 -0.2364 -0.3362  1.8022
 1428SOL     OW15916   0.348   3.011   4.722 -0.3387 -0.2563 -0.4884
 1428SOL    HW115917   0.418   2.953   4.752  0.0708 -0.1268 -1.1683
 1428SOL    HW215918   0.406   3.065   4.667  0.5874  0.2856  1.0392
 1429SOL     OW15919   4.648   4.408   7.065  0.5624  0.1913  0.0661
 1429SOL    HW115920   4.668   4.501   7.066 -0.8748  0.4850  3.1119
 1429SOL    HW215921   4.730   4.361   7.082  0.8185  0.8626  0.6632
 1430SOL     OW15922   3.803   0.927   3.974  0.3104  0.4001  0.4447
 1430SOL    HW115923   3.858   0.927   3.896 -1.1775  1.5533 -0.6038
 1430SOL    HW215924   3.723   0.958   3.931 -1.8219 -1.6573  2.9018
 1431SOL     OW15925   0.994   1.488  11.783 -0.4762  0.4491 -0.3581
 1431SOL    HW115926   0.907   1.484  11.742 -1.3497  1.9913  1.3390
 1431SOL    HW215927   1.044   1.410  11.760  0.4841  1.4179 -1.5909
 1432SOL     OW15928   3.997   4.604   4.634 -0.2964 -0.0937 -0.3037
 1432SOL    HW115929   4.045   4.529   4.600  0.8466  0.7162 -0.4894
 1432SOL    HW215930   4.025   4.679   4.582  0.1957 -0.2485 -0.2614
 1433SOL     OW15931   4.314   0.055   2.319  0.1879 -0.0470  0.1425
 1433SOL    HW115932   4.285   0.109   2.392 -0.3465  0.8578 -0.7418
 1433SOL    HW215933   4.309   0.124   2.252  0.3777 -0.6446 -0.4809
 1434SOL     OW15934   3.804   2.346   3.155  0.3228  0.4918 -0.4779
 1434SOL    HW115935   3.750   2.337   3.234  0.0489  0.4522 -0.6714
 1434SOL    HW215936   3.730   2.379   3.103  1.6974  2.0067 -1.4960
 1435SOL     OW15937   1.941   3.779   8.467 -0.3047  0.2951  0.4039
 1435SOL    HW115938   1.916   3.864   8.503  1.9582 -0.0493  2.7242
 1435SOL    HW215939   2.021   3.806   8.422  0.0745 -0.9099  0.3710
 1436SOL     OW15940   2.403   3.701   5.397  0.3976  0.5544 -0.2646
 1436SOL    HW115941   2.431   3.785   5.435  1.5323 -0.6341  1.5169
 1436SOL    HW215942   2.427   3.637   5.464 -0.4880 -0.4872 -0.9632
 1437SOL     OW15943   0.177   3.608   7.732 -0.1630 -0.1229  0.0435
 1437SOL    HW115944   0.182   3.626   7.638  0.3975 -1.5648 -0.2080
 1437SOL    HW215945   0.205   3.694   7.762 -0.3069  0.1566 -0.6076
 1438SOL     OW15946   2.193   1.480   9.954  0.4387  0.4587  0.8817
 1438SOL    HW115947   2.215   1.572   9.939  0.0924  0.4510  0.3328
 1438SOL    HW215948   2.195   1.441   9.867 -0.2558  0.3237  0.9290
 1439SOL     OW15949   0.051   4.606   5.224  0.0626 -0.3483  0.0008
 1439SOL    HW115950   0.013   4.545   5.161 -1.6502  0.4496  0.2664
 1439SOL    HW215951   0.072   4.686   5.176 -1.7542 -1.0351 -1.9480
 1440SOL     OW15952   1.929   2.432  10.289 -0.1246  0.1047  0.3953
 1440SOL    HW115953   1.972   2.402  10.369 -1.7517  0.2226  1.3094
 1440SOL    HW215954   1.891   2.514  10.320 -1.1699  0.0535 -0.7440
 1441SOL     OW15955   0.663   3.200  10.631 -0.2918 -0.3439 -0.0432
 1441SOL    HW115956   0.629   3.284  10.601  0.0082  0.1918  1.1178
 1441SOL    HW215957   0.575   3.166  10.640 -1.0206  1.2603 -1.0587
 1442SOL     OW15958   2.620   1.783   9.055 -0.0036  0.1609  0.0472
 1442SOL    HW115959   2.630   1.878   9.066 -1.9748  0.4597 -0.7529
 1442SOL    HW215960   2.705   1.768   9.014  0.6983 -1.7796  2.2224
 1443SOL     OW15961   0.281   4.001   8.472  0.4499 -0.1308  0.1535
 1443SOL    HW115962   0.344   4.059   8.429 -1.6859 -0.0367 -2.8422
 1443SOL    HW215963   0.329   3.919   8.481  1.7424  0.8168  1.9507
 1444SOL     OW15964   3.506   2.277   1.384  0.3606 -0.0745 -0.3559
 1444SOL    HW115965   3.474   2.277   1.293 -1.0045  1.0399  0.1073
 1444SOL    HW215966   3.555   2.359   1.379 -2.3304  1.5062 -1.4428
 1445SOL     OW15967   3.630   4.510   3.382 -0.1504 -0.2655  0.0004
 1445SOL    HW115968   3.547   4.530   3.424 -0.0361  0.2043  0.0061
 1445SOL    HW215969   3.689   4.577   3.419  0.2299 -0.7981  0.3534
 1446SOL     OW15970   0.104   4.265   2.000  0.0609 -0.5851  0.5513
 1446SOL    HW115971   0.075   4.252   2.090  1.1490 -2.8992  0.5493
 1446SOL    HW215972   0.192   4.227   2.004 -0.1172 -0.7653  2.8168
 1447SOL     OW15973   2.986   2.637   0.803 -0.0742  0.1860  0.1706
 1447SOL    HW115974   3.026   2.636   0.890 -0.4954 -0.1404  0.3592
 1447SOL    HW215975   3.017   2.722   0.771  0.5555 -0.7000 -1.5266
 1448SOL     OW15976   1.775   2.731   0.572 -0.1361 -0.4705  0.6192
 1448SOL    HW115977   1.767   2.771   0.658  1.5499  4.2550 -1.4290
 1448SOL    HW215978   1.774   2.636   0.579 -0.3284 -0.6515 -1.7430
 1449SOL     OW15979   0.089   3.880   6.261 -0.1132 -0.1619 -0.3522
 1449SOL    HW115980   0.171   3.831   6.257  0.3237  0.6766 -1.4489
 1449SOL    HW215981   0.115   3.971   6.246 -0.4517 -0.0551 -0.2877
 1450SOL     OW15982   0.925   2.360   4.831  0.2124  0.0226  0.1121
 1450SOL    HW115983   0.906   2.303   4.756  0.2093  1.9022 -1.3437
 1450SOL    HW215984   0.881   2.310   4.899 -0.3043 -1.0430 -1.0066
 1451SOL     OW15985   2.592   2.204   8.022 -0.1469  0.2015 -0.3017
 1451SOL    HW115986   2.568   2.280   7.970 -1.8020  0.2273  0.5016
 1451SOL    HW215987   2.516   2.194   8.079 -0.0032 -0.6746 -0.2589
 1452SOL     OW15988   1.454   4.345  16.873 -0.2487 -0.7401  0.0306
 1452SOL    HW115989   1.543   4.376  16.862 -0.0564 -1.7460 -1.2944
 1452SOL    HW215990   1.437   4.364  16.966 -1.9169  0.2896 -0.4751
 1453SOL     OW15991   4.202   2.598   0.489  0.1956 -0.3123  0.0128
 1453SOL    HW115992   4.168   2.631   0.406 -0.2374 -0.9405 -0.0577
 1453SOL    HW215993   4.262   2.526   0.469  1.8437  1.2568 -0.7109
 1454SOL     OW15994   2.591   2.662  10.244 -0.0757  0.0556 -0.0674
 1454SOL    HW115995   2.524   2.596  10.225  1.4719 -1.3950 -0.5209
 1454SOL    HW215996   2.642   2.611  10.307  2.0965  0.3372 -1.5566
 1455SOL     OW15997   1.370   0.909  13.762 -0.1295 -0.4388 -0.2009
 1455SOL    HW115998   1.276   0.899  13.746 -0.0641 -0.6371 -0.4619
 1455SOL    HW215999   1.360   0.964  13.840 -0.5122  0.7921 -1.1079
 1456SOL     OW16000   4.383   2.862  17.490  0.1342  0.5666  0.2896
 1456SOL    HW116001   4.420   2.914  17.562  0.5017  0.1188  0.4229
 1456SOL    HW216002   4.373   2.936  17.430 -0.1740  1.5998  1.5970
 1457SOL     OW16003   2.828   3.224   3.090  0.4051 -0.4860 -0.1953
 1457SOL    HW116004   2.753   3.167   3.075 -0.4456  0.0531  1.9408
 1457SOL    HW216005   2.848   3.260   3.003 -0.4370 -0.8650 -0.5489
 1458SOL     OW16006   0.943   0.211   4.962 -0.5062  0.0553  0.0966
 1458SOL    HW116007   0.905   0.289   4.922 -2.3488 -0.3884  0.9552
 1458SOL    HW216008   0.939   0.228   5.056 -1.9596 -2.5420  0.5168
 1459SOL     OW16009   0.115   3.602  17.305 -0.1337 -0.7854 -0.5331
 1459SOL    HW116010   0.113   3.541  17.231  2.3583 -2.8061  1.0837
 1459SOL    HW216011   0.029   3.644  17.306  0.3880  0.2858 -0.0261
 1460SOL     OW16012   1.477   2.824   5.954  0.0331 -0.2956 -0.1791
 1460SOL    HW116013   1.512   2.910   5.932  2.5130 -1.2654 -0.0050
 1460SOL    HW216014   1.470   2.839   6.048 -0.7022 -0.4624 -0.2050
 1461SOL     OW16015   3.732   4.027   8.609 -0.5006 -0.1793 -0.2479
 1461SOL    HW116016   3.757   3.996   8.523 -3.1484 -0.1814 -1.0314
 1461SOL    HW216017   3.816   4.066   8.633  0.5993 -2.2063 -0.8406
 1462SOL     OW16018   2.602   2.647   5.614  0.0648  0.2523  0.1721
 1462SOL    HW116019   2.591   2.737   5.646 -0.2781  0.1634  0.2953
 1462SOL    HW216020   2.661   2.630   5.688 -0.8206 -0.7352  0.6340
 1463SOL     OW16021   1.977   3.701   5.519  0.5194 -0.1960  0.0191
 1463SOL    HW116022   2.043   3.694   5.587  0.7946 -0.1030 -0.2356
 1463SOL    HW216023   2.023   3.693   5.435 -0.9923  0.1053 -0.8366
 1464SOL     OW16024   2.440   2.010   5.002 -0.2288  0.0744 -0.1675
 1464SOL    HW116025   2.439   2.025   5.096 -0.0986  3.7566 -0.7449
 1464SOL    HW216026   2.433   2.102   4.975 -0.5154 -0.6395 -2.5497
 1465SOL     OW16027   3.667   0.216   4.914  0.0422  0.2412 -0.2437
 1465SOL    HW116028   3.575   0.189   4.921  0.1117  0.8091  2.7966
 1465SOL    HW216029   3.701   0.156   4.848  1.4252 -0.3708  1.0119
 1466SOL     OW16030   2.231   0.348   8.210  0.0900  0.2390 -0.5192
 1466SOL    HW116031   2.264   0.275   8.157  0.5806  0.1943 -0.1538
 1466SOL    HW216032   2.298   0.415   8.196  1.4510 -1.1955 -1.0124
 1467SOL     OW16033   0.954   2.579   2.173 -0.3316 -0.0840 -0.1133
 1467SOL    HW116034   0.940   2.655   2.117  1.2599 -0.6465 -1.2496
 1467SOL    HW216035   1.031   2.616   2.216 -0.5145 -0.5202  0.5984
 1468SOL     OW16036   2.257   2.346   6.111  0.5222 -0.4062  0.3901
 1468SOL    HW116037   2.247   2.270   6.054 -1.5388  0.8102 -0.8620
 1468SOL    HW216038   2.347   2.331   6.141  0.8390  0.9784  0.1597
 1469SOL     OW16039   2.448   0.031   7.147 -0.3966  0.2616  0.0244
 1469SOL    HW116040   2.498   4.705   7.198 -0.1672  0.5064  0.1082
 1469SOL    HW216041   2.507   0.064   7.079 -0.3839  0.2379  0.0241
 1470SOL     OW16042   3.597   2.707  17.730  0.0622 -0.1533  0.6041
 1470SOL    HW116043   3.584   2.613  17.714 -0.7610 -0.2816  2.0282
 1470SOL    HW216044   3.672   2.711   0.040  0.0898  2.2708  0.4029
 1471SOL     OW16045   3.826   0.452   5.987  0.5423 -0.2980 -0.0087
 1471SOL    HW116046   3.795   0.513   6.054 -0.5979  0.4163 -1.1811
 1471SOL    HW216047   3.902   0.416   6.033 -0.6854 -2.3806  0.3719
 1472SOL     OW16048   4.202   3.875   8.486 -0.1100  0.5999 -0.6167
 1472SOL    HW116049   4.218   3.795   8.536 -0.0547 -0.5305 -2.4140
 1472SOL    HW216050   4.248   3.937   8.542  0.7781 -0.7505  0.1368
 1473SOL     OW16051   1.442   2.347  11.796 -0.1665 -0.1833  0.5304
 1473SOL    HW116052   1.448   2.401  11.717 -5.4828 -2.3295 -1.3639
 1473SOL    HW216053   1.350   2.363  11.821  0.4351  4.2470 -0.0892
 1474SOL     OW16054   3.644   0.048  13.180  0.2346 -0.2768  0.0282
 1474SOL    HW116055   3.568   0.084  13.227  2.3428  1.3500  2.2021
 1474SOL    HW216056   3.642   0.096  13.097  2.0522 -0.1706  0.0460
 1475SOL     OW16057   3.551   3.275   9.701 -0.3213  0.4721 -0.3912
 1475SOL    HW116058   3.621   3.320   9.748 -2.5800  1.8686  1.6024
 1475SOL    HW216059   3.491   3.259   9.774 -0.6740 -0.8653 -0.9812
 1476SOL     OW16060   4.737   2.690  15.841  0.1963  0.0841  0.0008
 1476SOL    HW116061   4.689   2.735  15.910  0.5977  2.0747 -1.0070
 1476SOL    HW216062   4.692   2.607  15.826  1.8443 -0.4289 -2.1437
 1477SOL     OW16063   1.571   2.447   6.424  0.6184 -0.7044 -0.0169
 1477SOL    HW116064   1.666   2.457   6.429  0.6593 -1.4285  0.6617
 1477SOL    HW216065   1.544   2.527   6.469  1.2457 -1.2129  1.2593
 1478SOL     OW16066   1.865   1.634  11.461  0.3644  0.4000 -0.2376
 1478SOL    HW116067   1.877   1.655  11.368  1.1320 -1.3080 -0.5201
 1478SOL    HW216068   1.854   1.539  11.454 -2.4700  0.7204 -0.1236
 1479SOL     OW16069   4.484   1.468  17.133  0.3541 -0.0294 -0.1047
 1479SOL    HW116070   4.475   1.536  17.066  0.3713 -0.5173 -0.6064
 1479SOL    HW216071   4.507   1.387  17.088 -0.0171 -1.1735  1.7311
 1480SOL     OW16072   1.052   2.884  15.714 -0.0806  0.5664 -0.4943
 1480SOL    HW116073   1.067   2.929  15.631 -1.0850  2.1983  0.2087
 1480SOL    HW216074   1.087   2.950  15.774  3.4293 -2.9832  1.3400
 1481SOL     OW16075   1.987   0.436   8.177 -0.0846  0.5979 -0.0764
 1481SOL    HW116076   2.064   0.387   8.205  0.6507  1.4767 -0.5733
 1481SOL    HW216077   2.019   0.502   8.116  0.5685  1.3478  1.0741
 1482SOL     OW16078   3.676   1.207   6.772  0.3585 -0.1696  1.1855
 1482SOL    HW116079   3.750   1.196   6.713 -0.2117  0.8513  0.2938
 1482SOL    HW216080   3.641   1.289   6.736  0.3198 -0.7654 -0.1086
 1483SOL     OW16081   1.732   0.835   4.920 -0.0952 -0.4959 -0.5675
 1483SOL    HW116082   1.735   0.897   4.993  0.2801 -0.5859 -0.5083
 1483SOL    HW216083   1.824   0.813   4.912 -0.0072 -0.1399 -0.5498
 1484SOL     OW16084   1.435   1.555  14.637 -0.5833 -0.1433 -0.3029
 1484SOL    HW116085   1.457   1.532  14.547  0.4026 -0.2460 -0.0401
 1484SOL    HW216086   1.355   1.511  14.664 -0.4060 -0.5906 -0.5151
 1485SOL     OW16087   4.643   1.879   2.460  0.0888 -0.3946 -0.2330
 1485SOL    HW116088   4.550   1.855   2.457 -0.2008  0.5511  1.0597
 1485SOL    HW216089   4.679   1.852   2.376  0.8027  0.3774 -0.1756
 1486SOL     OW16090   4.159   3.571   0.311  0.0325  0.6161 -0.1563
 1486SOL    HW116091   4.115   3.551   0.394 -0.0056 -0.1668 -0.3624
 1486SOL    HW216092   4.246   3.535   0.331 -0.4348  0.1236  1.0353
 1487SOL     OW16093   1.138   0.502  15.488  0.1393  0.1374  0.6817
 1487SOL    HW116094   1.202   0.547  15.433 -0.9783  0.6211 -0.2394
 1487SOL    HW216095   1.072   0.570  15.501  0.2310  0.6217 -1.2922
 1488SOL     OW16096   2.476   2.764   6.421  0.4011  0.1038  0.2073
 1488SOL    HW116097   2.465   2.760   6.326  0.5362 -1.7253  0.2748
 1488SOL    HW216098   2.413   2.836   6.434 -0.3646 -0.2881 -1.3575
 1489SOL     OW16099   2.036   1.289   1.899 -0.7052  0.2978 -0.2642
 1489SOL    HW116100   1.995   1.353   1.956 -0.0328  3.1037 -2.9648
 1489SOL    HW216101   1.970   1.274   1.832 -0.1071  2.6164 -1.3560
 1490SOL     OW16102   1.250   0.102   8.951 -0.4033 -0.0866 -0.3052
 1490SOL    HW116103   1.336   0.117   8.910 -0.7409  1.2091 -0.5391
 1490SOL    HW216104   1.245   0.179   9.007  4.6643 -0.1602  0.2727
 1491SOL     OW16105   1.914   2.038   4.960 -0.3063 -0.5277  0.4591
 1491SOL    HW116106   1.834   2.090   4.967 -1.4123 -2.1394 -0.2385
 1491SOL    HW216107   1.981   2.105   4.976  0.0075 -0.6670 -0.3075
 1492SOL     OW16108   2.804   4.120   2.793  0.4177 -0.3041  0.0333
 1492SOL    HW116109   2.762   4.149   2.712  0.2464  0.0037  0.2318
 1492SOL    HW216110   2.891   4.089   2.767  0.6784 -0.4697  1.1005
 1493SOL     OW16111   3.265   2.149  17.355 -0.3356  0.0188 -0.4415
 1493SOL    HW116112   3.306   2.109  17.431 -0.3542  0.6426 -0.1025
 1493SOL    HW216113   3.335   2.211  17.333 -0.0188 -1.0198 -2.3582
 1494SOL     OW16114   2.135   2.077   3.369  0.5402  0.4551  0.3067
 1494SOL    HW116115   2.164   2.168   3.366  2.3252 -0.1025  1.0617
 1494SOL    HW216116   2.156   2.054   3.459  1.8670 -0.2111 -0.1741
 1495SOL     OW16117   0.101   1.084  11.081  0.3174 -0.2391 -0.5593
 1495SOL    HW116118   0.179   1.134  11.104  0.2707 -0.9127  1.0875
 1495SOL    HW216119   0.115   0.997  11.118  2.8363 -0.3156 -1.6520
 1496SOL     OW16120   0.072   1.520  16.071  0.0030  0.0228 -0.7227
 1496SOL    HW116121   0.018   1.525  16.150  1.7246  2.7857  0.2916
 1496SOL    HW216122   0.037   1.592  16.019  0.3138  0.5098 -0.2586
 1497SOL     OW16123   3.357   3.855  15.858  0.2904  0.1386 -0.1735
 1497SOL    HW116124   3.398   3.784  15.808  2.8888  0.1336  1.9569
 1497SOL    HW216125   3.433   3.901  15.894  1.1893 -1.7270  0.3150
 1498SOL     OW16126   0.015   0.042   4.008  0.3133  0.1953  0.2529
 1498SOL    HW116127   4.680   0.013   4.063 -0.8277  0.5455 -1.0805
 1498SOL    HW216128   0.079   4.710   4.027  0.0883 -0.0211  0.2113
 1499SOL     OW16129   2.823   1.369   5.873  0.7261 -0.2358  0.3488
 1499SOL    HW116130   2.835   1.294   5.815 -1.6129  0.9037 -1.5868
 1499SOL    HW216131   2.791   1.443   5.822  2.0371 -0.2172 -0.4570
 1500SOL     OW16132   0.606   3.704   0.174 -0.3941  0.0857 -0.1529
 1500SOL    HW116133   0.618   3.614   0.146 -0.2279  0.7074 -2.1164
 1500SOL    HW216134   0.635   3.698   0.265 -3.5344 -0.0397  0.8608
 1501SOL     OW16135   2.197   1.970   8.926 -0.0885 -0.6464  0.0033
 1501SOL    HW116136   2.242   1.887   8.913 -0.9307 -1.4789  2.3911
 1501SOL    HW216137   2.194   1.997   8.834  0.4384  0.6938  0.3804
 1502SOL     OW16138   2.708   4.348   1.007  0.2428 -0.4739 -0.0577
 1502SOL    HW116139   2.700   4.417   0.941 -2.4320  1.1144  1.9837
 1502SOL    HW216140   2.643   4.285   0.976 -0.9396  1.0819 -0.6977
 1503SOL     OW16141   3.457   3.243   7.704 -0.5548  0.0613 -0.0384
 1503SOL    HW116142   3.519   3.300   7.659 -2.5955 -1.1104 -4.2398
 1503SOL    HW216143   3.517   3.196   7.763  0.1257  0.1538 -0.6577
 1504SOL     OW16144   0.625   4.301   6.104 -0.5620  0.0752  0.6669
 1504SOL    HW116145   0.558   4.356   6.143  1.2622  1.1390  2.2622
 1504SOL    HW216146   0.602   4.222   6.153  0.2418 -0.9226 -0.5320
 1505SOL     OW16147   2.094   1.715   7.817  0.1963  0.4704 -0.2936
 1505SOL    HW116148   2.013   1.671   7.844  0.0032  1.4199  0.7126
 1505SOL    HW216149   2.164   1.667   7.861 -1.0611 -2.1968 -1.1800
 1506SOL     OW16150   0.620   4.640   8.032 -0.1658  0.0252 -0.5890
 1506SOL    HW116151   0.627   4.568   7.969  3.8806 -1.9461  2.0929
 1506SOL    HW216152   0.627   4.585   8.111  1.5973 -0.0291 -0.7756
 1507SOL     OW16153   1.441   1.746   2.875  0.0529  0.2602 -0.2689
 1507SOL    HW116154   1.442   1.841   2.889  0.0838  0.1921  0.1873
 1507SOL    HW216155   1.522   1.740   2.824  0.5597  0.0592  0.5648
 1508SOL     OW16156   1.955   4.112   8.897  0.2418  0.7447 -0.1745
 1508SOL    HW116157   1.986   4.147   8.813  1.4505  0.2721  0.0803
 1508SOL    HW216158   1.926   4.193   8.940 -1.4568  1.5022 -2.7569
 1509SOL     OW16159   3.333   2.430   7.983 -0.0181 -0.9539 -0.4364
 1509SOL    HW116160   3.302   2.511   7.942 -0.1652 -0.3355  0.9005
 1509SOL    HW216161   3.416   2.466   8.014 -1.1846 -0.2057  1.8160
 1510SOL     OW16162   3.729   4.560   8.225 -0.0906  0.3267 -0.2630
 1510SOL    HW116163   3.815   4.522   8.206  0.3709  1.1408  0.2098
 1510SOL    HW216164   3.736   4.650   8.192  1.2562 -0.1601 -1.2880
 1511SOL     OW16165   1.580   1.495   3.737  0.3552  0.0656 -0.2095
 1511SOL    HW116166   1.577   1.401   3.755 -0.3420  0.1745  0.2425
 1511SOL    HW216167   1.614   1.490   3.648  0.6725  0.1224 -0.0904
 1512SOL     OW16168   1.422   3.749   4.215 -0.5952 -0.3917  0.0027
 1512SOL    HW116169   1.381   3.699   4.145  3.3209 -1.3073 -1.6202
 1512SOL    HW216170   1.344   3.782   4.260  0.0988 -2.0964  2.5115
 1513SOL     OW16171   3.181   1.182   9.296  0.6273 -0.1688  0.1691
 1513SOL    HW116172   3.136   1.111   9.341 -0.6594 -0.5222 -1.6772
 1513SOL    HW216173   3.115   1.191   9.228 -0.2976 -0.8046  0.9915
 1514SOL     OW16174   1.764   1.258  15.792 -0.4125  0.7381  0.6875
 1514SOL    HW116175   1.804   1.298  15.869  1.4997 -0.9346  0.5591
 1514SOL    HW216176   1.841   1.259  15.736 -1.4097  1.3339 -0.6908
 1515SOL     OW16177   2.250   2.928  13.340  0.2043 -0.2395  0.0207
 1515SOL    HW116178   2.209   2.872  13.405 -0.1715  0.4450  0.3659
 1515SOL    HW216179   2.268   3.012  13.382  1.2848 -0.0340 -0.8293
 1516SOL     OW16180   2.129   1.219   5.702  0.3639  0.1771 -0.6115
 1516SOL    HW116181   2.065   1.149   5.718  0.6017 -0.2076 -1.3650
 1516SOL    HW216182   2.081   1.288   5.655 -0.0919  0.2658 -0.0213
 1517SOL     OW16183   1.953   1.850  15.154 -0.0339 -0.0798 -0.2909
 1517SOL    HW116184   1.967   1.937  15.117 -0.5381  0.6982  1.3390
 1517SOL    HW216185   2.032   1.832  15.205 -1.0922 -0.4110  1.2353
 1518SOL     OW16186   1.167   2.632   5.164 -0.3148  0.4387 -0.1141
 1518SOL    HW116187   1.158   2.622   5.069  0.5764  0.7160 -0.2236
 1518SOL    HW216188   1.233   2.699   5.179  1.2104 -0.9289 -0.6674
 1519SOL     OW16189   0.365   3.620  16.632 -0.0109  0.2334 -0.3841
 1519SOL    HW116190   0.435   3.622  16.567  1.4048  0.3795  1.1370
 1519SOL    HW216191   0.339   3.528  16.623  0.7334 -0.2140  1.8762
 1520SOL     OW16192   2.354   0.298   8.860 -0.6384  0.9119  0.4831
 1520SOL    HW116193   2.428   0.240   8.842 -1.4261  0.5402 -1.6268
 1520SOL    HW216194   2.394   0.359   8.921  1.9263  1.5893 -1.9243
 1521SOL     OW16195   3.858   1.351   3.060 -0.0256 -0.2361 -0.5410
 1521SOL    HW116196   3.870   1.414   3.131 -2.7560  0.2434 -0.4930
 1521SOL    HW216197   3.799   1.287   3.099 -2.2982  2.9354  1.1996
 1522SOL     OW16198   1.324   4.239   5.091 -0.5345 -0.1173  0.0206
 1522SOL    HW116199   1.348   4.316   5.141 -0.4320  0.5026 -0.9796
 1522SOL    HW216200   1.258   4.196   5.146  0.7464 -1.8862  0.1774
 1523SOL     OW16201   2.735   3.073   9.071 -0.5851  0.1762 -0.3097
 1523SOL    HW116202   2.689   3.029   9.142  1.2296 -1.8801 -0.3720
 1523SOL    HW216203   2.700   3.034   8.991  0.6459 -1.2186 -0.1793
 1524SOL     OW16204   1.963   2.065   5.755  0.3686 -0.9563 -0.1648
 1524SOL    HW116205   1.932   2.120   5.828  0.4965 -0.5373 -0.4238
 1524SOL    HW216206   1.888   2.006   5.752  0.5482 -1.1159 -1.6360
 1525SOL     OW16207   4.142   3.556   2.708 -0.1075  0.2010  0.1770
 1525SOL    HW116208   4.170   3.466   2.729  1.0154  0.9388  1.8550
 1525SOL    HW216209   4.197   3.600   2.773 -0.8618 -0.6643  1.4000
 1526SOL     OW16210   4.098   2.723   7.412  0.3465  0.0293  0.2349
 1526SOL    HW116211   4.102   2.628   7.411  0.7897  0.0595 -1.6799
 1526SOL    HW216212   4.106   2.749   7.320  2.2907 -0.0519  0.3729
 1527SOL     OW16213   4.322   1.265   2.001 -0.3231  0.4141 -0.4785
 1527SOL    HW116214   4.236   1.265   1.958  0.5155 -0.6021 -2.1637
 1527SOL    HW216215   4.322   1.360   2.015  0.3127  0.4701 -0.8618
 1528SOL     OW16216   2.480   2.104   0.243  0.1036  0.0200  0.0244
 1528SOL    HW116217   2.521   2.030   0.286 -1.3073 -0.0389  1.2947
 1528SOL    HW216218   2.414   2.061   0.188  0.2990 -2.1100  1.4680
 1529SOL     OW16219   3.407   1.333   6.892 -0.0970 -0.1365 -0.0856
 1529SOL    HW116220   3.428   1.389   6.967 -0.2312  0.6739 -0.6543
 1529SOL    HW216221   3.456   1.371   6.819 -0.6963 -1.2753 -1.0796
 1530SOL     OW16222   1.280   0.786   5.233 -0.2702 -0.1020 -0.6059
 1530SOL    HW116223   1.265   0.801   5.139 -0.6954 -0.4432 -0.5943
 1530SOL    HW216224   1.366   0.743   5.231  0.1313  0.7254 -1.5473
 1531SOL     OW16225   1.604   3.811   3.701 -0.0888  0.0591  0.1505
 1531SOL    HW116226   1.530   3.750   3.700  0.7377 -0.8841 -3.0461
 1531SOL    HW216227   1.680   3.760   3.730  0.7873  1.0443 -0.4082
 1532SOL     OW16228   0.475   1.839  13.731  0.1168 -0.2310 -0.0320
 1532SOL    HW116229   0.420   1.915  13.748  0.9153  0.1710  0.7739
 1532SOL    HW216230   0.466   1.838  13.635  0.7871 -0.3381 -0.0940
 1533SOL     OW16231   0.818   4.486   6.366 -0.0367 -0.4154 -0.1939
 1533SOL    HW116232   0.861   4.451   6.444  0.8268  1.3233  0.1205
 1533SOL    HW216233   0.825   4.411   6.307 -0.3738 -1.3570  0.9612
 1534SOL     OW16234   0.684   2.146   8.232  0.2338 -0.3023  0.1467
 1534SOL    HW116235   0.759   2.156   8.173  0.0057 -1.6361 -0.3811
 1534SOL    HW216236   0.726   2.094   8.301  0.2893  0.0543  0.3806
 1535SOL     OW16237   4.030   0.670   7.716 -0.4243  0.0967  0.6304
 1535SOL    HW116238   3.977   0.713   7.783 -1.5616 -0.3740  0.0499
 1535SOL    HW216239   3.966   0.615   7.670 -1.6718  1.8337  0.2861
 1536SOL     OW16240   1.421   3.260   9.767 -0.6087 -0.2959 -0.3031
 1536SOL    HW116241   1.462   3.253   9.853 -1.8804  0.7235  0.3798
 1536SOL    HW216242   1.476   3.200   9.716 -0.3022 -0.5815  0.3724
 1537SOL     OW16243   0.792   3.054   4.159  0.2608  0.4892  0.0197
 1537SOL    HW116244   0.857   2.985   4.152  0.6867  1.1257 -2.3782
 1537SOL    HW216245   0.736   3.021   4.089  0.2070 -0.1850  0.3821
 1538SOL     OW16246   4.461   1.032  16.064  0.1520 -0.2610  0.0305
 1538SOL    HW116247   4.406   1.044  15.987  1.6615 -0.6261 -1.1092
 1538SOL    HW216248   4.403   1.035  16.140 -2.3451 -0.2131 -1.8648
 1539SOL     OW16249   2.131   3.908   4.022  0.0001  0.0958  0.4123
 1539SOL    HW116250   2.194   3.857   3.971 -1.0665  1.0971 -1.9237
 1539SOL    HW216251   2.087   3.844   4.077  0.8541 -2.7287 -2.1279
 1540SOL     OW16252   2.706   2.795   2.598 -0.1899  0.0597  0.0834
 1540SOL    HW116253   2.669   2.718   2.555  0.3960 -1.2861  1.9829
 1540SOL    HW216254   2.723   2.840   2.516  0.5049  1.0873  0.7919
 1541SOL     OW16255   3.737   1.708   3.646  0.5677 -0.2589 -0.0915
 1541SOL    HW116256   3.787   1.776   3.602 -0.7795  0.4832 -0.4740
 1541SOL    HW216257   3.769   1.717   3.736 -0.8189 -2.9500  0.6840
 1542SOL     OW16258   3.875   1.510   4.942  0.2611  0.2654  0.2049
 1542SOL    HW116259   3.938   1.439   4.939  0.1473  0.0721  2.6975
 1542SOL    HW216260   3.867   1.553   5.027  1.0486  0.4049  0.2093
 1543SOL     OW16261   0.400   4.535   6.655  0.3608 -0.2869 -0.5627
 1543SOL    HW116262   0.347   4.531   6.735 -0.8159 -2.9673 -1.5129
 1543SOL    HW216263   0.445   4.451   6.657  0.5132 -0.1682  1.5280
 1544SOL     OW16264   0.387   3.838   7.697 -0.1478 -0.2613  0.2151
 1544SOL    HW116265   0.459   3.810   7.754  0.1940  0.6955  0.2617
 1544SOL    HW216266   0.325   3.867   7.763  0.1591 -1.8488  1.1960
 1545SOL     OW16267   0.470   1.383   5.918 -0.9480  0.4828  0.6774
 1545SOL    HW116268   0.492   1.394   5.825 -0.3175 -1.0179  0.6463
 1545SOL    HW216269   0.543   1.424   5.964  0.6335  0.2320 -1.6241
 1546SOL     OW16270   4.079   1.807   2.695 -0.2377  0.2354  0.4547
 1546SOL    HW116271   3.997   1.854   2.708  0.0272  0.1023  2.6168
 1546SOL    HW216272   4.077   1.785   2.602  4.6275  0.1241  0.3667
 1547SOL     OW16273   3.090   0.565  13.203  0.1347  0.5660 -0.1476
 1547SOL    HW116274   3.001   0.562  13.236 -0.1272 -0.5113 -0.9610
 1547SOL    HW216275   3.099   0.652  13.165 -0.1695 -0.2832 -2.1159
 1548SOL     OW16276   3.192   0.001   2.966  0.2966 -0.5690  0.2713
 1548SOL    HW116277   3.254   4.709   2.899 -1.2939 -0.9814 -1.0072
 1548SOL    HW216278   3.203   0.094   2.944  1.9299 -0.6425  0.7516
 1549SOL     OW16279   3.627   0.546   0.081  0.3390  0.5479 -0.4821
 1549SOL    HW116280   3.698   0.590   0.129  0.7217 -1.5233  0.8580
 1549SOL    HW216281   3.661   0.458   0.095 -0.5761  0.0131 -1.6493
 1550SOL     OW16282   2.455   1.338  12.124 -0.3884 -0.2136  1.0115
 1550SOL    HW116283   2.454   1.244  12.143  2.2716 -0.1255  1.5419
 1550SOL    HW216284   2.429   1.373  12.208 -1.8035  2.0375 -0.3701
 1551SOL     OW16285   1.079   3.708   7.255 -0.2954  0.2602  0.5877
 1551SOL    HW116286   1.033   3.779   7.299 -1.8451  1.1173 -2.4238
 1551SOL    HW216287   1.019   3.694   7.182  0.2118 -0.3883  0.2918
 1552SOL     OW16288   1.712   3.047   0.672 -0.0628 -0.1776  0.6130
 1552SOL    HW116289   1.786   3.013   0.621 -0.8146 -0.8512 -0.0271
 1552SOL    HW216290   1.731   3.025   0.763 -0.8495 -1.0802  0.5588
 1553SOL     OW16291   0.239   3.433   3.366  0.1812  0.1076 -0.8549
 1553SOL    HW116292   0.332   3.410   3.375 -0.2553 -0.5526  1.9950
 1553SOL    HW216293   0.237   3.508   3.307  3.3037  0.8884  0.0473
 1554SOL     OW16294   3.747   1.235   4.818  0.2859  0.3544  0.6165
 1554SOL    HW116295   3.797   1.281   4.751 -0.2266 -1.7979 -1.2463
 1554SOL    HW216296   3.811   1.173   4.851  0.6566  0.7627  0.6562
 1555SOL     OW16297   4.354   1.731   5.722  0.6716 -0.5143  0.2187
 1555SOL    HW116298   4.389   1.642   5.722  0.0870 -0.7391 -0.3917
 1555SOL    HW216299   4.430   1.780   5.754 -2.0697  2.0849  2.7167
 1556SOL     OW16300   3.400   0.185   7.661  0.1121 -0.2309 -0.0268
 1556SOL    HW116301   3.460   0.239   7.711  2.1474 -2.0416 -0.5428
 1556SOL    HW216302   3.377   0.128   7.735  0.5886 -1.3952 -0.7868
 1557SOL     OW16303   2.062   3.230  10.320  0.3265  0.0033  0.2367
 1557SOL    HW116304   2.082   3.272  10.404 -2.5296  2.0983 -0.1404
 1557SOL    HW216305   2.097   3.142  10.331 -1.0033 -0.5476  0.0335
 1558SOL     OW16306   2.707   1.823   4.009  0.5307 -0.4738  0.6879
 1558SOL    HW116307   2.676   1.847   4.096 -1.8257  0.6278 -0.4703
 1558SOL    HW216308   2.634   1.858   3.958 -2.9300 -2.9423  3.9300
 1559SOL     OW16309   2.122   0.503   7.093 -0.2853  0.3254  0.9036
 1559SOL    HW116310   2.103   0.476   7.003  1.1971  1.2816  0.2926
 1559SOL    HW216311   2.047   0.457   7.130 -1.3488 -1.5587 -3.6039
 1560SOL     OW16312   1.135   2.149   7.263  0.1016  0.2216 -0.0407
 1560SOL    HW116313   1.044   2.126   7.246 -0.5981  3.4729 -0.7837
 1560SOL    HW216314   1.180   2.080   7.214  1.3232  2.0014 -1.4336
 1561SOL     OW16315   0.838   1.770   4.785 -0.2955  0.6259 -0.2892
 1561SOL    HW116316   0.827   1.769   4.880 -0.4546 -0.9794 -0.3373
 1561SOL    HW216317   0.794   1.853   4.765 -2.4449 -0.9302 -1.9589
 1562SOL     OW16318   0.878   1.339   4.442 -0.4095  0.2308  0.1297
 1562SOL    HW116319   0.889   1.426   4.479 -0.1783  0.1987  0.1332
 1562SOL    HW216320   0.928   1.346   4.361  1.1059 -1.9682  0.8776
 1563SOL     OW16321   3.849   1.068  15.530  0.3361 -0.0434  0.4079
 1563SOL    HW116322   3.830   1.119  15.609  2.3997  0.5408  0.5202
 1563SOL    HW216323   3.827   0.979  15.556  0.8821 -0.0798  0.7374
 1564SOL     OW16324   2.756   2.957   5.635  0.1030  0.1104 -0.3589
 1564SOL    HW116325   2.829   2.896   5.632  1.0195  1.2645 -1.9300
 1564SOL    HW216326   2.707   2.925   5.560  0.9754 -0.1988 -0.7998
 1565SOL     OW16327   2.519   3.594   6.440 -0.0675  0.0903  0.1740
 1565SOL    HW116328   2.445   3.627   6.491  0.3179  1.0994  0.0837
 1565SOL    HW216329   2.567   3.550   6.510  0.3920  0.1391 -0.1124
 1566SOL     OW16330   0.081   2.985   1.564  0.5002 -0.0186 -0.4278
 1566SOL    HW116331   0.058   3.003   1.473 -0.5497  0.4328 -0.0730
 1566SOL    HW216332   0.110   2.895   1.553 -1.4371 -0.5475 -1.1702
 1567SOL     OW16333   1.561   4.648  11.649 -0.2753 -0.6589  0.2778
 1567SOL    HW116334   1.635   4.589  11.638  0.0731  0.2855 -2.4416
 1567SOL    HW216335   1.536   4.666  11.558 -0.6778 -0.1835  0.4792
 1568SOL     OW16336   2.829   0.765   1.329 -0.2228 -0.8249  0.1355
 1568SOL    HW116337   2.828   0.669   1.333  1.8958 -0.8489 -0.0649
 1568SOL    HW216338   2.907   0.784   1.381  0.2470 -2.3339 -0.0128
 1569SOL     OW16339   0.480   3.282   2.097  0.7133  0.0755 -0.2026
 1569SOL    HW116340   0.523   3.264   2.014  1.3089 -1.1212  0.3645
 1569SOL    HW216341   0.542   3.233   2.150  1.1799  0.8772 -0.0019
 1570SOL     OW16342   3.206   4.648   5.121 -0.3930  0.7739  0.3000
 1570SOL    HW116343   3.258   4.704   5.179  1.4386 -2.0044  1.3181
 1570SOL    HW216344   3.272   4.605   5.065 -1.7808  0.5425 -1.1583
 1571SOL     OW16345   0.333   2.399  17.578  0.2450 -0.1903  0.0908
 1571SOL    HW116346   0.358   2.491  17.578  1.8611 -0.6111 -1.5593
 1571SOL    HW216347   0.405   2.365  17.524  0.9166  1.9022 -0.3408
 1572SOL     OW16348   0.295   3.071   5.326 -0.4087  0.0887  0.4098
 1572SOL    HW116349   0.366   3.023   5.284 -0.9057 -0.4258  0.1523
 1572SOL    HW216350   0.230   3.066   5.256  0.2768  1.9649 -0.3597
 1573SOL     OW16351   3.750   3.849   7.899 -0.0553 -0.5058  0.1767
 1573SOL    HW116352   3.789   3.808   7.976 -1.5757 -1.2111  0.5839
 1573SOL    HW216353   3.700   3.785   7.848 -0.8457  0.2204  0.0434
 1574SOL     OW16354   2.238   1.650  17.612  0.4978  0.0640  0.2145
 1574SOL    HW116355   2.153   1.646  17.569  1.4697 -0.4279 -1.6529
 1574SOL    HW216356   2.264   1.732  17.571  2.4252 -0.7807 -0.2366
 1575SOL     OW16357   0.889   2.798  14.410 -0.7588  0.2023 -0.5127
 1575SOL    HW116358   0.932   2.756  14.485 -1.2501  0.5180 -0.0494
 1575SOL    HW216359   0.935   2.749  14.342 -1.2254  0.0390 -0.7039
 1576SOL     OW16360   4.148   2.841  11.822 -0.2627  0.0835  0.0324
 1576SOL    HW116361   4.098   2.769  11.861  1.0474 -0.4073  0.8260
 1576SOL    HW216362   4.209   2.788  11.772  0.8471  0.2744  1.1741
 1577SOL     OW16363   3.203   2.603   8.325  0.7224 -0.0593 -0.5615
 1577SOL    HW116364   3.263   2.536   8.293  1.6764  0.6576 -0.2658
 1577SOL    HW216365   3.227   2.680   8.272  0.4612  0.0559 -0.5115
 1578SOL     OW16366   4.140   4.170   5.164  0.3488  0.3181 -0.4139
 1578SOL    HW116367   4.086   4.119   5.224 -0.2768  2.3694  0.7991
 1578SOL    HW216368   4.084   4.179   5.087 -1.7101 -0.1203  1.0288
 1579SOL     OW16369   3.443   2.448   3.719 -0.4125  0.0674 -0.0531
 1579SOL    HW116370   3.448   2.386   3.791  1.9156 -0.7443 -0.9191
 1579SOL    HW216371   3.526   2.493   3.735  0.4936 -1.5786 -0.1435
 1580SOL     OW16372   2.572   3.339  13.025  0.4882  0.7901 -0.2956
 1580SOL    HW116373   2.490   3.313  13.069 -0.5337  0.8949 -2.1658
 1580SOL    HW216374   2.616   3.253  13.027  0.7877  0.9296 -0.8682
 1581SOL     OW16375   2.135   4.157  16.830  0.1045 -0.1413  0.4135
 1581SOL    HW116376   2.211   4.159  16.773  0.0652  1.6587  0.4163
 1581SOL    HW216377   2.163   4.096  16.899  0.9453  0.3177  0.4800
 1582SOL     OW16378   0.474   0.223   6.902 -0.6496 -0.3545 -0.1019
 1582SOL    HW116379   0.538   0.160   6.937 -0.3468 -0.3633 -0.6643
 1582SOL    HW216380   0.455   0.184   6.816  0.8555  2.3366 -1.6545
 1583SOL     OW16381   3.977   0.067   4.452 -0.4804 -0.6357  0.0094
 1583SOL    HW116382   3.890   0.104   4.440 -0.4738 -0.4309  0.5998
 1583SOL    HW216383   4.022   0.117   4.385  0.0978 -1.1541  0.0078
 1584SOL     OW16384   3.999   3.191   7.691  0.1333 -0.0397  0.4151
 1584SOL    HW116385   4.031   3.279   7.711  2.0467 -0.5631 -0.3581
 1584SOL    HW216386   4.030   3.176   7.602 -0.4127  0.0168  0.2174
 1585SOL     OW16387   2.260   3.864   4.546  0.2935 -0.0378  0.1496
 1585SOL    HW116388   2.185   3.833   4.495 -0.9204  0.8481  1.4002
 1585SOL    HW216389   2.238   3.949   4.583  0.0516 -0.2542  0.5061
 1586SOL     OW16390   2.880   0.711   9.149 -0.2471  0.8387 -0.1985
 1586SOL    HW116391   2.792   0.709   9.187 -0.0957  0.8982  0.1622
 1586SOL    HW216392   2.858   0.674   9.064 -0.3026 -0.0143  0.1900
 1587SOL     OW16393   3.608   4.584   7.454  0.0452  0.0952 -0.1035
 1587SOL    HW116394   3.697   4.601   7.484  1.0628 -1.1329 -2.3993
 1587SOL    HW216395   3.578   4.504   7.497  0.4680  0.7404  1.4173
 1588SOL     OW16396   0.545   1.171   4.626 -0.7551  0.6616  0.2537
 1588SOL    HW116397   0.485   1.097   4.639  1.9424 -1.3061  1.4952
 1588SOL    HW216398   0.634   1.149   4.654 -0.7432  1.7254  1.0780
 1589SOL     OW16399   4.441   3.055   4.662  0.3838  0.5118 -0.3845
 1589SOL    HW116400   4.467   2.999   4.735 -1.2348  0.3635  0.0880
 1589SOL    HW216401   4.378   3.000   4.615  0.3665  0.7234 -0.6085
 1590SOL     OW16402   3.965   2.238   2.591  0.7426 -0.0577  0.2629
 1590SOL    HW116403   3.903   2.182   2.544 -0.4292 -0.3255  2.1098
 1590SOL    HW216404   3.908   2.278   2.658  0.4867 -0.6266  0.3828
 1591SOL     OW16405   1.612   0.465   5.407  0.3260  0.6621  0.0862
 1591SOL    HW116406   1.517   0.474   5.409  0.0975 -1.5486 -0.5187
 1591SOL    HW216407   1.642   0.529   5.343  1.7068 -0.4905 -0.4119
 1592SOL     OW16408   1.391   3.010   4.099  0.3514  0.7809  0.0903
 1592SOL    HW116409   1.345   2.974   4.023 -2.5113  2.6839  0.9185
 1592SOL    HW216410   1.483   2.993   4.081  0.4589 -0.1755  1.5222
 1593SOL     OW16411   0.604   2.382   2.641 -0.1485 -0.3630 -0.0517
 1593SOL    HW116412   0.522   2.424   2.667 -0.1922 -1.5862  1.7261
 1593SOL    HW216413   0.663   2.458   2.647  0.4299 -0.9762  2.0290
 1594SOL     OW16414   3.744   0.661   7.014 -0.6432 -0.5933  0.2310
 1594SOL    HW116415   3.804   0.735   7.004 -0.8974 -0.6443 -1.6068
 1594SOL    HW216416   3.714   0.662   6.923 -0.1994 -1.6406  0.0724
 1595SOL     OW16417   2.142   4.711   0.301 -0.1562  0.2491  0.2087
 1595SOL    HW116418   2.126   4.617   0.292  0.8257  0.0606  0.3412
 1595SOL    HW216419   2.142   4.715   0.397 -0.0296  2.1241  0.1238
 1596SOL     OW16420   1.711   2.985   8.636 -0.1991 -0.4352  0.0321
 1596SOL    HW116421   1.793   3.026   8.665  0.2353 -2.1836  1.2302
 1596SOL    HW216422   1.645   3.046   8.670  0.1299 -0.3979  0.6096
 1597SOL     OW16423   1.099   0.798   6.363  0.1527  0.7150 -0.1137
 1597SOL    HW116424   1.166   0.745   6.406 -1.0955  0.7677  1.9085
 1597SOL    HW216425   1.166   0.834   6.305 -0.9954  1.4361 -1.0015
 1598SOL     OW16426   3.877   3.848   3.577  0.0829  0.5090 -0.1395
 1598SOL    HW116427   3.803   3.871   3.634 -1.5850  0.9120 -2.4670
 1598SOL    HW216428   3.933   3.816   3.647 -0.0777 -1.6802 -1.0087
 1599SOL     OW16429   4.233   3.744  15.226 -0.4629  0.0160  0.0408
 1599SOL    HW116430   4.165   3.696  15.272 -0.8632  2.0482  1.5746
 1599SOL    HW216431   4.246   3.820  15.283 -0.1069 -1.3282  1.7479
 1600SOL     OW16432   3.682   2.577   2.241 -0.2299 -0.3355  0.7534
 1600SOL    HW116433   3.764   2.575   2.192  0.4921 -1.3041  1.9830
 1600SOL    HW216434   3.635   2.507   2.195 -2.3696  0.8601  1.1540
 1601SOL     OW16435   3.792   2.342   3.550 -0.6247  0.2866  0.2686
 1601SOL    HW116436   3.723   2.358   3.485  0.2344  1.4073 -0.3582
 1601SOL    HW216437   3.863   2.334   3.486 -0.6882  1.6965  0.0214
 1602SOL     OW16438   3.761   3.904   5.986  0.3004 -0.6647 -0.3188
 1602SOL    HW116439   3.834   3.907   6.048 -0.4700 -0.9652  0.5976
 1602SOL    HW216440   3.784   3.840   5.919 -1.3299 -0.0927 -1.4018
 1603SOL     OW16441   1.472   1.429  12.649 -0.5461  0.1408  0.1294
 1603SOL    HW116442   1.435   1.501  12.596 -2.2656  0.1038  1.2612
 1603SOL    HW216443   1.537   1.394  12.588 -1.3245  0.9005 -1.1423
 1604SOL     OW16444   2.616   1.714   8.625 -0.0082 -0.1331  0.1474
 1604SOL    HW116445   2.630   1.807   8.607 -1.6417  0.4416  1.9107
 1604SOL    HW216446   2.684   1.693   8.690 -1.3185  0.5319  1.7277
 1605SOL     OW16447   0.355   3.177  17.611  0.8184  0.0613  0.4561
 1605SOL    HW116448   0.418   3.248  17.622 -0.4960  1.1716  0.7428
 1605SOL    HW216449   0.292   3.232  17.564  1.7544  0.5086 -0.2801
 1606SOL     OW16450   0.624   4.338   7.360 -0.3160 -0.3883  0.4419
 1606SOL    HW116451   0.610   4.429   7.334 -0.3092 -0.3051  0.7297
 1606SOL    HW216452   0.567   4.334   7.437 -0.8473 -0.9996  0.0210
 1607SOL     OW16453   4.037   2.077   4.669  0.0608  0.4342  0.4027
 1607SOL    HW116454   4.074   2.044   4.587 -1.7519  2.0098 -1.0334
 1607SOL    HW216455   4.059   2.170   4.669  0.9026  0.2263 -1.2217
 1608SOL     OW16456   1.975   2.673   8.431  0.0724  0.1541 -0.1421
 1608SOL    HW116457   2.062   2.696   8.396  0.4608 -3.0480 -1.2437
 1608SOL    HW216458   1.989   2.688   8.524 -1.5801  0.8781 -0.0090
 1609SOL     OW16459   0.834   1.230  17.172  0.0697  0.2111  0.1353
 1609SOL    HW116460   0.814   1.161  17.235  0.8465  0.4901  0.6873
 1609SOL    HW216461   0.808   1.189  17.090  2.7559 -0.8584 -0.1884
 1610SOL     OW16462   1.624   1.769  17.608 -0.4052 -0.0536  0.3953
 1610SOL    HW116463   1.621   1.808  17.695  0.5293  0.5341  0.1670
 1610SOL    HW216464   1.543   1.808  17.574  1.4974  2.3538 -1.3576
 1611SOL     OW16465   3.235   2.271   4.394 -0.7763 -0.1476 -0.4999
 1611SOL    HW116466   3.214   2.284   4.302 -1.1575  2.2306 -0.0795
 1611SOL    HW216467   3.312   2.214   4.401  0.6005  2.1247  3.0061
 1612SOL     OW16468   4.158   3.320  15.257 -0.1869  0.5077 -0.0003
 1612SOL    HW116469   4.235   3.265  15.240  0.2178  1.0055  0.2359
 1612SOL    HW216470   4.148   3.311  15.351  0.8550 -0.8282 -0.0060
 1613SOL     OW16471   1.630   3.779   6.893  0.4165 -0.6789  0.2159
 1613SOL    HW116472   1.646   3.689   6.923  1.7832 -0.1245  1.1722
 1613SOL    HW216473   1.607   3.821   6.976 -0.5769 -1.6019  0.4159
 1614SOL     OW16474   0.228   2.422  17.305  0.2526  0.3364  0.5364
 1614SOL    HW116475   0.174   2.491  17.343  0.6299  1.0151 -0.1260
 1614SOL    HW216476   0.314   2.463  17.295 -0.4054  1.4017 -0.7923
 1615SOL     OW16477   1.623   4.620   7.610  0.4202 -0.7610  0.0270
 1615SOL    HW116478   1.594   4.529   7.618  0.9925 -0.8352  1.2838
 1615SOL    HW216479   1.538   4.665   7.607  0.3149 -1.0254 -1.1450
 1616SOL     OW16480   2.726   2.272   4.499 -0.4619 -0.3303 -0.8001
 1616SOL    HW116481   2.700   2.257   4.590  3.8273  3.0976  1.0309
 1616SOL    HW216482   2.817   2.243   4.501 -0.4206 -0.1049  0.6608
 1617SOL     OW16483   1.002   3.611  13.349  0.0706 -0.2661 -0.1491
 1617SOL    HW116484   0.943   3.660  13.293 -1.1667 -0.2745  1.1473
 1617SOL    HW216485   1.081   3.664  13.343 -0.2614  0.4929  2.1111
 1618SOL     OW16486   1.690   0.950  13.911 -0.0146  0.3947 -0.0414
 1618SOL    HW116487   1.660   0.881  13.969  0.8086 -0.5864 -0.7930
 1618SOL    HW216488   1.785   0.942  13.919  0.1750  0.9204 -1.7632
 1619SOL     OW16489   3.128   4.512   4.785  0.1445 -0.2140  0.2790
 1619SOL    HW116490   3.094   4.582   4.840 -0.2757  0.0469 -0.3067
 1619SOL    HW216491   3.185   4.467   4.847 -1.0391 -1.4123  0.5010
 1620SOL     OW16492   3.846   1.187  14.525 -0.6572  0.7266  0.2344
 1620SOL    HW116493   3.792   1.238  14.586 -1.4835 -0.8729  0.8378
 1620SOL    HW216494   3.782   1.128  14.485  0.8234 -0.7033 -0.0206
 1621SOL     OW16495   3.069   3.597   6.959 -0.4725  0.0709  0.4464
 1621SOL    HW116496   2.982   3.632   6.981 -0.4611  0.4223 -0.0611
 1621SOL    HW216497   3.051   3.503   6.966  1.1365 -0.3372 -1.1252
 1622SOL     OW16498   3.543   0.473  16.400 -0.1394 -0.2119  0.4430
 1622SOL    HW116499   3.524   0.386  16.366 -1.6622 -0.2578  1.4070
 1622SOL    HW216500   3.487   0.481  16.477 -1.1844 -0.2237 -0.3060
 1623SOL     OW16501   1.894   1.051   2.243  0.0997 -0.6254 -0.1847
 1623SOL    HW116502   1.799   1.049   2.254  0.2580  0.9313  1.4279
 1623SOL    HW216503   1.917   1.053   2.336 -1.4343 -0.3544  0.1992
 1624SOL     OW16504   0.435   0.772   1.950  0.4195 -0.8234  0.4159
 1624SOL    HW116505   0.370   0.752   1.882 -0.1726  1.0629  0.4197
 1624SOL    HW216506   0.441   0.865   1.930 -1.4296 -0.4808  1.4891
 1625SOL     OW16507   0.486   4.714   3.559  0.3221  0.3078  0.1194
 1625SOL    HW116508   0.425   0.026   3.614  0.5919  1.8474 -0.9626
 1625SOL    HW216509   0.426   4.689   3.488 -0.1928 -0.5458  0.8577
 1626SOL     OW16510   2.637   1.478   9.504 -0.6121  0.4061  0.7587
 1626SOL    HW116511   2.619   1.538   9.431 -0.6277  0.1097  0.5181
 1626SOL    HW216512   2.731   1.487   9.518 -0.2624  0.1154 -1.3663
 1627SOL     OW16513   0.882   4.163   3.116 -0.1633  0.0155 -0.1528
 1627SOL    HW116514   0.827   4.102   3.067 -0.3923 -0.4741  0.7121
 1627SOL    HW216515   0.967   4.120   3.104  0.0949 -0.0176  1.6828
 1628SOL     OW16516   4.372   3.402   3.125 -0.2486  0.4008  0.7240
 1628SOL    HW116517   4.401   3.481   3.172 -1.1740  0.8671  0.5032
 1628SOL    HW216518   4.451   3.384   3.074 -0.3971 -0.2283  0.7174
 1629SOL     OW16519   2.312   0.214   7.919  0.3444  0.4259  0.1215
 1629SOL    HW116520   2.400   0.247   7.904  0.4771 -0.5263 -1.1819
 1629SOL    HW216521   2.333   0.120   7.924 -1.4509 -0.0218 -0.7325
 1630SOL     OW16522   1.717   1.727   2.094  0.0127  0.4308  0.0814
 1630SOL    HW116523   1.738   1.790   2.164 -1.5279  1.3587 -0.2910
 1630SOL    HW216524   1.758   1.758   2.014 -2.4600  1.4496 -0.7858
 1631SOL     OW16525   2.441   1.454   7.000  1.3467 -0.0789 -0.1262
 1631SOL    HW116526   2.522   1.412   6.968  0.4257 -1.7965 -0.1951
 1631SOL    HW216527   2.444   1.537   6.953  0.6533 -0.3640 -0.6691
 1632SOL     OW16528   1.097   3.054  17.369  0.0904 -0.3588 -0.8677
 1632SOL    HW116529   1.031   2.987  17.388  0.6028 -0.3390  1.0001
 1632SOL    HW216530   1.065   3.132  17.413  1.9654 -0.3047  0.4183
 1633SOL     OW16531   1.421   2.568   2.765  0.4423  0.3589 -0.3013
 1633SOL    HW116532   1.359   2.600   2.700  0.8666  0.1866 -0.7857
 1633SOL    HW216533   1.365   2.496   2.795  1.7598 -0.8453 -0.7283
 1634SOL     OW16534   2.680   1.681   6.351 -0.4889  0.1560  0.1490
 1634SOL    HW116535   2.700   1.588   6.351 -1.0606  0.0452 -1.1115
 1634SOL    HW216536   2.736   1.725   6.415 -2.1891  1.4647  0.7685
 1635SOL     OW16537   1.955   1.117   4.275 -0.4842  0.3602 -0.2701
 1635SOL    HW116538   1.919   1.039   4.233 -0.9047 -0.4160  1.5169
 1635SOL    HW216539   1.993   1.079   4.354 -0.6850 -1.1237 -0.8802
 1636SOL     OW16540   4.280   0.736  10.158  0.1143 -0.5452  0.0811
 1636SOL    HW116541   4.246   0.735  10.068 -0.1914 -1.2253  0.2043
 1636SOL    HW216542   4.365   0.704  10.126  1.3938  3.1529 -0.2264
 1637SOL     OW16543   0.997   3.566  11.783 -0.0802 -0.2526 -0.4932
 1637SOL    HW116544   0.905   3.551  11.762 -0.3542 -0.0520  0.5721
 1637SOL    HW216545   0.986   3.610  11.867  0.0834 -0.5209 -0.3334
 1638SOL     OW16546   2.271   3.037   7.617 -0.1865  0.3095  0.1490
 1638SOL    HW116547   2.224   2.960   7.649  0.2436  0.7842  1.9201
 1638SOL    HW216548   2.210   3.104   7.648 -0.4449  0.0049  0.3028
 1639SOL     OW16549   3.375   3.006   5.949  0.0362  0.2322  0.4719
 1639SOL    HW116550   3.314   2.956   5.896 -0.8419 -0.4083  2.0756
 1639SOL    HW216551   3.344   2.966   6.030 -1.5074  0.6292  0.0823
 1640SOL     OW16552   0.195   0.036  11.257  0.4106  0.0704  0.4216
 1640SOL    HW116553   0.123   0.084  11.296  0.7371  2.4166 -1.8748
 1640SOL    HW216554   0.239   0.001  11.335  0.7707  1.1055  0.6803
 1641SOL     OW16555   4.473   1.495   8.801  0.1473 -0.9880  0.0280
 1641SOL    HW116556   4.401   1.484   8.740  1.9958 -2.6662 -1.8495
 1641SOL    HW216557   4.543   1.519   8.741 -0.5701 -1.0962 -0.8469
 1642SOL     OW16558   1.478   2.802   2.929 -0.2561  0.3523  0.6235
 1642SOL    HW116559   1.560   2.829   2.887 -0.9984  0.3919 -0.7816
 1642SOL    HW216560   1.449   2.733   2.870  0.9947  0.8643 -0.5698
 1643SOL     OW16561   0.085   3.092   1.094 -0.5652  0.6484 -0.0842
 1643SOL    HW116562   0.055   3.177   1.060 -1.8109  1.1298  2.1672
 1643SOL    HW216563   0.135   3.053   1.023 -2.1886 -2.6108  0.5826
 1644SOL     OW16564   0.845   1.835   2.820 -0.1777 -0.2699 -0.0146
 1644SOL    HW116565   0.808   1.832   2.909 -0.8452 -2.2028 -0.3444
 1644SOL    HW216566   0.931   1.796   2.834 -0.7957 -1.3483  0.8744
 1645SOL     OW16567   2.033   2.588  12.869  0.4490 -0.0635  0.5309
 1645SOL    HW116568   2.123   2.558  12.850  1.1396  1.8171  0.8472
 1645SOL    HW216569   2.006   2.541  12.790 -0.8701  1.4627  0.0790
 1646SOL     OW16570   3.888   2.621   5.965 -0.0052 -0.2593 -0.1629
 1646SOL    HW116571   3.832   2.634   6.041 -1.7079 -2.6840 -0.9892
 1646SOL    HW216572   3.965   2.650   6.014  0.4833 -1.6765 -0.0947
 1647SOL     OW16573   2.044   3.070  13.673  0.3893 -0.5976 -0.2602
 1647SOL    HW116574   2.072   2.980  13.653  1.7888 -0.4979  1.2268
 1647SOL    HW216575   1.949   3.063  13.665  0.3465 -1.6081  1.1088
 1648SOL     OW16576   3.865   0.649   5.459 -0.3705  0.0612 -0.1828
 1648SOL    HW116577   3.924   0.607   5.521  0.3836 -0.2826 -1.1377
 1648SOL    HW216578   3.844   0.569   5.411  0.7434  0.3347 -1.1150
 1649SOL     OW16579   4.653   3.811   8.951  0.6302  0.2556 -0.5364
 1649SOL    HW116580   4.643   3.902   8.977  0.3841 -0.2381  1.0721
 1649SOL    HW216581   4.564   3.797   8.917  0.3693  0.0012  0.2607
 1650SOL     OW16582   0.336   1.856  11.652 -0.1268  0.5085  0.5085
 1650SOL    HW116583   0.410   1.844  11.712  0.7689 -2.0337 -1.1008
 1650SOL    HW216584   0.263   1.845  11.713 -0.7368 -1.2206 -0.5123
 1651SOL     OW16585   3.659   2.868   1.502 -0.0873  0.1570  0.5626
 1651SOL    HW116586   3.687   2.809   1.571  0.7687 -1.5797 -1.2737
 1651SOL    HW216587   3.571   2.835   1.488  0.2771 -0.4232 -0.3433
 1652SOL     OW16588   2.011   0.848   1.890 -0.0724  0.4352  0.1813
 1652SOL    HW116589   1.941   0.795   1.926  1.1764 -1.5034 -0.2551
 1652SOL    HW216590   2.027   0.917   1.955  5.7172 -1.3660  0.7458
 1653SOL     OW16591   2.304   1.980  11.201  0.3655 -0.3052 -0.2541
 1653SOL    HW116592   2.303   1.953  11.293  0.1562  0.7637  0.0588
 1653SOL    HW216593   2.212   1.979  11.174  0.7861 -1.7827 -1.6341
 1654SOL     OW16594   0.460   0.210   3.149  0.2513 -0.0361 -0.0989
 1654SOL    HW116595   0.435   0.286   3.098  3.2948  1.1064  0.1156
 1654SOL    HW216596   0.552   0.202   3.126  1.0613  0.4422  2.8896
 1655SOL     OW16597   2.426   1.562   8.240 -0.2705 -0.0345  0.2285
 1655SOL    HW116598   2.395   1.646   8.273 -2.0700 -0.3628 -0.6379
 1655SOL    HW216599   2.482   1.531   8.311 -1.9041 -0.3649  1.3901
 1656SOL     OW16600   1.104   2.882  12.143  0.2271  0.3420 -0.8044
 1656SOL    HW116601   1.097   2.786  12.145 -0.1632  0.2920 -3.9164
 1656SOL    HW216602   1.154   2.903  12.222  0.2638 -0.2587 -0.6663
 1657SOL     OW16603   2.859   1.489   7.767  0.4330  0.1278  0.6882
 1657SOL    HW116604   2.805   1.410   7.759 -0.5991  0.7145  1.8913
 1657SOL    HW216605   2.807   1.541   7.829  0.3640 -1.0662  1.6414
 1658SOL     OW16606   1.349   1.357   6.794 -0.3838  0.3030  0.4450
 1658SOL    HW116607   1.368   1.266   6.816  0.4182  0.3417 -0.1014
 1658SOL    HW216608   1.414   1.381   6.729 -0.5709 -1.4253 -0.3735
 1659SOL     OW16609   2.005   0.769   4.001 -0.4460  0.5110 -0.0197
 1659SOL    HW116610   1.976   0.735   3.916 -1.1502  2.0421 -0.3953
 1659SOL    HW216611   2.061   0.843   3.979 -0.0200 -1.1791 -4.7667
 1660SOL     OW16612   3.153   4.030   8.805  0.5394  0.0188 -0.2027
 1660SOL    HW116613   3.237   4.073   8.820  1.0699 -0.5667 -1.5595
 1660SOL    HW216614   3.096   4.106   8.816  0.2870  0.0551 -1.8323
 1661SOL     OW16615   4.699   4.179   3.527  0.2872 -0.3279 -0.0105
 1661SOL    HW116616   0.004   4.107   3.573  0.7247 -0.6313 -0.8833
 1661SOL    HW216617   4.613   4.138   3.526  0.1167  0.0388 -0.3565
 1662SOL     OW16618   0.840   2.206   0.565  0.7827 -0.3162 -0.1951
 1662SOL    HW116619   0.793   2.202   0.482 -1.6364  1.0685  1.0961
 1662SOL    HW216620   0.920   2.239   0.526  0.7858 -1.1618 -0.9003
 1663SOL     OW16621   2.873   4.171  16.876  0.4379 -0.0670 -0.2373
 1663SOL    HW116622   2.815   4.096  16.885  0.8033 -0.4696 -1.2373
 1663SOL    HW216623   2.818   4.236  16.830  0.3687  0.1398  0.1402
 1664SOL     OW16624   0.884   1.017   1.641  0.1323  0.6391 -0.1440
 1664SOL    HW116625   0.837   1.022   1.558  0.2001 -0.4655 -0.2520
 1664SOL    HW216626   0.841   0.950   1.695  2.0686  1.0004  1.8329
 1665SOL     OW16627   3.136   4.689  12.706 -0.0935 -0.7605  0.5783
 1665SOL    HW116628   3.129   4.610  12.652 -1.5914  0.2708 -0.7003
 1665SOL    HW216629   3.223   4.679  12.744  1.0056  0.0109 -1.7666
 1666SOL     OW16630   2.634   3.923  11.136  0.3733  0.1894 -0.3901
 1666SOL    HW116631   2.609   3.840  11.176 -0.8719  1.0863  0.7535
 1666SOL    HW216632   2.630   3.905  11.043 -0.8661 -0.7296 -0.1626
 1667SOL     OW16633   2.133   1.656   9.549  0.6071 -0.4243  0.5484
 1667SOL    HW116634   2.079   1.589   9.508  0.6511 -0.1036 -0.0350
 1667SOL    HW216635   2.205   1.596   9.569 -0.0339 -1.7690 -1.2323
 1668SOL     OW16636   0.680   2.225   5.628  0.5169  0.4058 -0.0316
 1668SOL    HW116637   0.756   2.249   5.575  2.1153 -1.3817  1.4526
 1668SOL    HW216638   0.708   2.179   5.707  0.4456  0.2823 -0.0778
 1669SOL     OW16639   0.956   0.920   8.975 -0.0305 -0.0675  0.2590
 1669SOL    HW116640   0.997   0.947   9.057 -0.7535 -1.3983  1.0574
 1669SOL    HW216641   0.875   0.970   8.988  0.7744  1.2599  0.0892
 1670SOL     OW16642   1.419   1.091   5.902 -0.3031  0.0277  0.4934
 1670SOL    HW116643   1.358   1.164   5.914  1.2416  1.5467 -0.8820
 1670SOL    HW216644   1.485   1.129   5.960  0.0330  2.9324 -1.7955
 1671SOL     OW16645   1.207   2.002   8.075 -0.1249  0.6848  0.5929
 1671SOL    HW116646   1.242   1.962   8.154 -0.2643  1.5930  1.1141
 1671SOL    HW216647   1.277   2.064   8.052 -0.0129  0.6294  0.7841
 1672SOL     OW16648   0.701   0.404   7.267 -0.4484  0.2984  0.3073
 1672SOL    HW116649   0.737   0.369   7.186 -1.7790 -1.3309  0.4144
 1672SOL    HW216650   0.776   0.431   7.320  0.4563 -0.1672 -0.7355
 1673SOL     OW16651   1.536   0.638   3.423 -0.1486 -0.5349  0.3916
 1673SOL    HW116652   1.454   0.600   3.455 -0.2787 -1.6752 -1.2993
 1673SOL    HW216653   1.498   0.674   3.343 -0.1060 -2.3308 -0.4478
 1674SOL     OW16654   3.331   3.957   9.317 -0.0903  0.2798 -0.1947
 1674SOL    HW116655   3.328   4.052   9.327  0.9537  0.2438  0.3901
 1674SOL    HW216656   3.336   3.929   9.409 -1.7596 -2.0260 -0.7890
 1675SOL     OW16657   1.922   1.852   2.971 -0.2383  0.3381  0.6907
 1675SOL    HW116658   1.979   1.871   2.897  0.1630  2.0542  1.4408
 1675SOL    HW216659   1.850   1.913   2.955 -1.0999 -0.8309  0.0133
 1676SOL     OW16660   0.795   0.488   8.247  0.4449  0.3711 -0.1175
 1676SOL    HW116661   0.722   0.431   8.270 -0.2895  0.9513 -0.9836
 1676SOL    HW216662   0.872   0.441   8.278  1.2655  0.2052 -2.4195
 1677SOL     OW16663   3.996   3.873   7.486  0.1019 -0.0002  0.0130
 1677SOL    HW116664   3.910   3.831   7.478  0.3849 -0.4694 -0.6045
 1677SOL    HW216665   3.993   3.925   7.566 -0.7782 -2.5737  1.6591
 1678SOL     OW16666   3.764   0.522   8.007 -0.2652 -0.0386 -0.0268
 1678SOL    HW116667   3.809   0.607   8.013 -1.6763  0.4725  2.9900
 1678SOL    HW216668   3.672   0.546   7.996  0.0133  0.5885 -1.0362
 1679SOL     OW16669   0.853   1.039  12.205  0.1073 -0.1040  0.6890
 1679SOL    HW116670   0.796   1.108  12.172  2.1953  0.7275 -1.1917
 1679SOL    HW216671   0.803   0.988  12.269 -1.3925  1.7106  0.9455
 1680SOL     OW16672   1.318   0.501   3.513  0.1412  0.0626 -0.1412
 1680SOL    HW116673   1.298   0.430   3.574 -1.1500  0.2079 -0.3999
 1680SOL    HW216674   1.242   0.495   3.456 -0.0827  1.3509  0.0128
 1681SOL     OW16675   4.667   2.279   5.872 -0.3341 -0.4687 -0.2624
 1681SOL    HW116676   4.708   2.279   5.959 -1.5762 -1.1140  0.3242
 1681SOL    HW216677   4.735   2.227   5.829  0.8667  1.9147 -1.2438
 1682SOL     OW16678   2.735   2.559   4.984 -0.0519  0.3097 -0.0503
 1682SOL    HW116679   2.792   2.637   4.982 -1.7355  1.5910  1.7662
 1682SOL    HW216680   2.788   2.515   5.050  0.0763  0.5913  0.0380
 1683SOL     OW16681   3.742   3.794   7.251 -0.3044 -0.6946 -0.1254
 1683SOL    HW116682   3.718   3.869   7.197 -0.5623  0.6058  1.7998
 1683SOL    HW216683   3.679   3.729   7.219 -0.1125  0.2139 -2.3371
 1684SOL     OW16684   4.151   3.491  12.220 -0.2323  0.1901 -0.2825
 1684SOL    HW116685   4.186   3.454  12.139 -1.0880 -2.2174  0.4501
 1684SOL    HW216686   4.091   3.420  12.240 -0.4377  0.3403 -0.3659
 1685SOL     OW16687   2.163   0.886  17.174  0.0871 -0.1849  0.3681
 1685SOL    HW116688   2.244   0.924  17.138  0.9181 -1.4200  0.9355
 1685SOL    HW216689   2.100   0.926  17.114  1.4982  0.8725 -0.4305
 1686SOL     OW16690   0.039   4.013  11.129  0.7237 -0.1982 -0.1818
 1686SOL    HW116691   4.718   3.983  11.197  1.2343 -0.8723 -0.0469
 1686SOL    HW216692   4.715   4.040  11.061  1.6653 -0.0528 -0.9805
 1687SOL     OW16693   1.484   0.604   7.144 -0.3054  0.3843 -0.0104
 1687SOL    HW116694   1.403   0.583   7.097 -0.1520 -0.7246  0.2108
 1687SOL    HW216695   1.537   0.648   7.078 -0.9921  0.2312 -0.6693
 1688SOL     OW16696   4.446   2.010   1.181 -0.3421 -0.0320 -0.2602
 1688SOL    HW116697   4.427   2.088   1.128 -1.8771  0.8748  1.6624
 1688SOL    HW216698   4.534   1.984   1.151  0.4914 -0.6950  2.8067
 1689SOL     OW16699   4.444   2.752   6.106  0.4986 -0.1045  0.1718
 1689SOL    HW116700   4.403   2.756   6.193  0.5770 -1.7881  0.2762
 1689SOL    HW216701   4.450   2.847   6.091 -0.5389  0.2996  2.2974
 1690SOL     OW16702   0.339   0.281   8.845  0.0623  0.0736 -0.1135
 1690SOL    HW116703   0.252   0.319   8.832 -0.3159 -0.6677  0.2866
 1690SOL    HW216704   0.356   0.245   8.758  0.0938 -1.2076  0.4269
 1691SOL     OW16705   2.143   0.957   2.891 -0.2459 -0.1566  0.0475
 1691SOL    HW116706   2.227   0.925   2.923  0.7102  2.6077  0.3113
 1691SOL    HW216707   2.150   1.048   2.921 -1.4248  0.2291 -0.8403
 1692SOL     OW16708   4.482   3.243   0.389  0.5040 -0.3069  0.3817
 1692SOL    HW116709   4.576   3.261   0.385  0.1348  1.3770 -0.6000
 1692SOL    HW216710   4.444   3.328   0.411  2.2538  0.4979  0.2281
 1693SOL     OW16711   1.444   3.057   9.548 -0.1127  0.0682  0.4486
 1693SOL    HW116712   1.362   3.010   9.559 -0.6702  1.3314  1.7365
 1693SOL    HW216713   1.512   2.991   9.531 -1.7684 -1.8090  1.0537
 1694SOL     OW16714   3.461   2.063   3.296 -0.2606 -0.7506  0.6330
 1694SOL    HW116715   3.499   2.000   3.357  1.5267  1.3043  1.6594
 1694SOL    HW216716   3.534   2.087   3.239  0.4021 -1.4574  1.1924
 1695SOL     OW16717   1.128   2.366   2.046  0.4917  0.5089 -0.1661
 1695SOL    HW116718   1.142   2.460   2.031 -0.4068  1.0573  2.5519
 1695SOL    HW216719   1.108   2.337   1.957 -0.9872  2.2851 -0.4235
 1696SOL     OW16720   0.090   1.434   4.054 -0.2723 -0.5390  0.3510
 1696SOL    HW116721   0.016   1.414   3.997  0.6109 -0.1954 -0.9105
 1696SOL    HW216722   0.055   1.510   4.100 -0.3258 -2.4320  3.4174
 1697SOL     OW16723   2.482   0.329  15.848  0.4410  0.5821 -0.4072
 1697SOL    HW116724   2.411   0.266  15.859  1.1281  0.3305  2.5877
 1697SOL    HW216725   2.438   0.413  15.861  0.4341  0.5902 -0.4838
 1698SOL     OW16726   3.476   0.062   8.045 -0.6619 -0.4555  0.4233
 1698SOL    HW116727   3.410   4.734   8.023 -0.6847 -0.5750  0.8563
 1698SOL    HW216728   3.560   0.023   8.017 -0.5686 -0.0936  0.1968
 1699SOL     OW16729   1.802   1.998   7.735 -0.0125 -0.2891 -0.1839
 1699SOL    HW116730   1.822   1.958   7.820  0.8102 -1.0399 -0.7265
 1699SOL    HW216731   1.893   2.017   7.714 -0.3148  0.0262 -1.2190
 1700SOL     OW16732   0.586   2.184  16.060  0.0884 -0.4293 -0.7220
 1700SOL    HW116733   0.607   2.193  16.153  1.4567 -0.3226 -1.0350
 1700SOL    HW216734   0.593   2.274  16.028 -1.5262 -0.5815 -1.4854
 1701SOL     OW16735   0.520   0.835  17.201 -0.2868  0.8385 -0.3096
 1701SOL    HW116736   0.515   0.811  17.294 -0.0250  0.8876 -0.2812
 1701SOL    HW216737   0.494   0.750  17.165  1.3633 -0.0355  0.5700
 1702SOL     OW16738   1.063   2.170   9.929 -0.2530  0.1236 -0.3561
 1702SOL    HW116739   0.995   2.177   9.996 -2.0437  0.0145 -2.1179
 1702SOL    HW216740   1.099   2.257   9.910 -0.8573 -0.0024 -2.0983
 1703SOL     OW16741   1.111   4.110   4.225 -0.0863  0.6504 -0.4371
 1703SOL    HW116742   1.200   4.143   4.213  0.1516  0.1257 -0.1198
 1703SOL    HW216743   1.098   4.089   4.132  0.1083 -2.0580  0.1445
 1704SOL     OW16744   1.590   2.193   7.822 -0.4370 -0.3004 -0.3724
 1704SOL    HW116745   1.659   2.138   7.785 -0.8793 -2.2096  1.6663
 1704SOL    HW216746   1.628   2.280   7.809  0.9362 -0.7225  0.7426
 1705SOL     OW16747   4.696   1.321   4.717 -0.0804 -0.6153  0.4551
 1705SOL    HW116748   4.602   1.334   4.706 -0.3132 -0.0654  3.2026
 1705SOL    HW216749   4.691   1.227   4.737  1.2806 -0.8858 -0.4638
 1706SOL     OW16750   0.051   3.427   3.146  0.4898 -0.0716  0.0081
 1706SOL    HW116751   0.134   3.439   3.193  0.6286 -1.2232  0.0726
 1706SOL    HW216752   0.005   3.482   3.209 -0.8042 -0.5613 -0.5225
 1707SOL     OW16753   1.245   4.713   5.290 -0.1987  0.7450  0.6097
 1707SOL    HW116754   1.271   4.654   5.219  0.1309  0.0547  1.3129
 1707SOL    HW216755   1.326   4.725   5.340  0.4658 -0.3646 -0.1811
 1708SOL     OW16756   2.292   1.651  10.575  0.2743  0.3888  0.5570
 1708SOL    HW116757   2.217   1.607  10.615 -1.1167  2.2877  0.0592
 1708SOL    HW216758   2.337   1.578  10.533  1.4425  1.5600 -0.2120
 1709SOL     OW16759   1.939   1.822  13.120 -0.2314 -0.1040  0.7204
 1709SOL    HW116760   1.859   1.794  13.164  0.0049 -0.7674  0.7262
 1709SOL    HW216761   1.916   1.811  13.028  0.0393  0.7310  0.5482
 1710SOL     OW16762   3.161   3.497   5.533  0.4540  0.1130 -0.4346
 1710SOL    HW116763   3.182   3.415   5.488 -0.6846 -0.4057 -0.0529
 1710SOL    HW216764   3.074   3.471   5.566 -0.0913  1.5217 -0.7822
 1711SOL     OW16765   3.343   4.152   8.056 -0.2627  0.0271 -0.8637
 1711SOL    HW116766   3.325   4.118   8.143  1.2015  1.7831  0.1274
 1711SOL    HW216767   3.380   4.072   8.018 -1.6873 -0.9701 -0.1617
 1712SOL     OW16768   0.855   0.974   2.552 -0.2559  0.3595 -0.7141
 1712SOL    HW116769   0.902   0.983   2.469 -2.0258 -2.4562 -2.0312
 1712SOL    HW216770   0.789   0.908   2.531 -0.0496 -0.1279  0.1269
 1713SOL     OW16771   0.939   4.255   8.871 -0.0162 -0.2780 -0.2579
 1713SOL    HW116772   1.009   4.192   8.857  1.1588  1.1452 -0.7079
 1713SOL    HW216773   0.910   4.269   8.781 -0.3465 -0.5519 -0.1937
 1714SOL     OW16774   1.440   3.363  17.177  0.0424 -0.6603 -0.5742
 1714SOL    HW116775   1.447   3.401  17.089 -1.1896 -1.0046 -0.8203
 1714SOL    HW216776   1.347   3.355  17.199  0.2005  0.8956  0.6347
 1715SOL     OW16777   4.316   4.386  12.222 -0.6318 -0.2871 -0.1973
 1715SOL    HW116778   4.241   4.376  12.280 -0.0055 -2.5679  0.2252
 1715SOL    HW216779   4.318   4.477  12.191 -1.0932  0.2700  1.4220
 1716SOL     OW16780   1.190   0.677  13.253 -0.4724  0.1036 -0.0106
 1716SOL    HW116781   1.244   0.753  13.271  0.6988 -0.2685 -1.9085
 1716SOL    HW216782   1.111   0.719  13.219 -1.5752 -1.8355  0.1018
 1717SOL     OW16783   0.490   0.839  15.717  0.3004  0.2468 -0.4559
 1717SOL    HW116784   0.439   0.833  15.798  2.3032  1.4099  0.8817
 1717SOL    HW216785   0.461   0.756  15.681  0.4456  1.1859 -2.7168
 1718SOL     OW16786   0.807   3.075   5.078  0.6464  0.3112  0.2385
 1718SOL    HW116787   0.799   2.993   5.029  1.6628  0.8246 -0.7950
 1718SOL    HW216788   0.844   3.047   5.162  0.9686 -0.2219 -0.0823
 1719SOL     OW16789   0.480   1.681   4.940  0.0858  0.1711  0.0405
 1719SOL    HW116790   0.573   1.695   4.958  0.3420 -2.2410  0.6159
 1719SOL    HW216791   0.475   1.601   4.887  3.2274  1.4129 -2.1024
 1720SOL     OW16792   4.319   0.814   7.219 -0.4205 -0.0506  0.5154
 1720SOL    HW116793   4.350   0.724   7.224  0.7022  0.3953  1.6013
 1720SOL    HW216794   4.248   0.815   7.283 -0.6958  1.0066  0.1954
 1721SOL     OW16795   1.318   4.257  12.345  0.4967  1.0465  0.0760
 1721SOL    HW116796   1.330   4.333  12.401 -0.0236  1.9126 -0.9830
 1721SOL    HW216797   1.222   4.263  12.339  0.3885 -1.4524 -0.8468
 1722SOL     OW16798   2.196   2.228   6.365 -0.0089 -0.4392 -0.2939
 1722SOL    HW116799   2.116   2.193   6.327  0.1418  0.0022 -1.0153
 1722SOL    HW216800   2.244   2.256   6.287  1.6174 -0.0530  0.8456
 1723SOL     OW16801   4.541   2.203   0.771 -0.5796 -0.3056  0.1504
 1723SOL    HW116802   4.571   2.280   0.818 -0.9595  0.1359 -0.3315
 1723SOL    HW216803   4.451   2.208   0.801 -0.7708 -0.0955 -0.4612
 1724SOL     OW16804   0.741   3.452   6.554  0.1668  0.5055 -0.4211
 1724SOL    HW116805   0.679   3.519   6.583 -1.0799  0.1840 -2.3521
 1724SOL    HW216806   0.775   3.418   6.637 -0.2227 -2.3443 -1.4376
 1725SOL     OW16807   0.123   3.541  17.744  0.0855  0.0420 -0.1815
 1725SOL    HW116808   0.094   3.624  17.704  0.0679  0.7930  1.4073
 1725SOL    HW216809   0.057   3.523   0.062 -0.6508 -3.0098 -1.7134
 1726SOL     OW16810   4.365   4.682   7.473 -0.3846  0.4888 -0.5405
 1726SOL    HW116811   4.396   4.666   7.562  1.0702 -0.2499 -1.1776
 1726SOL    HW216812   4.439   4.733   7.443  0.0100  1.9264  2.8897
 1727SOL     OW16813   2.301   1.504  12.462  0.5471 -0.2518  0.0516
 1727SOL    HW116814   2.231   1.567  12.445  0.9145 -0.6663 -3.0372
 1727SOL    HW216815   2.377   1.530  12.410 -0.0282  0.8491 -0.2318
 1728SOL     OW16816   1.621   1.078  13.666 -0.2320 -0.8020  0.9048
 1728SOL    HW116817   1.656   1.054  13.751  1.3166 -0.5705  0.3340
 1728SOL    HW216818   1.647   0.997  13.622  3.0636  0.2688  0.9011
 1729SOL     OW16819   1.834   3.989   1.196 -0.1648  0.2216 -0.3610
 1729SOL    HW116820   1.784   4.035   1.128  0.5128 -1.8337 -2.2787
 1729SOL    HW216821   1.776   4.010   1.269  0.4081  0.1870  0.1004
 1730SOL     OW16822   3.685   4.088   5.636  0.2944 -0.2353 -0.6010
 1730SOL    HW116823   3.753   4.058   5.696 -0.9583 -2.0392 -0.0879
 1730SOL    HW216824   3.698   4.016   5.573 -2.7268 -0.4905 -0.9180
 1731SOL     OW16825   1.752   0.644   6.583  0.2620  0.0867 -0.1421
 1731SOL    HW116826   1.793   0.704   6.521  1.1879 -0.1880  0.1924
 1731SOL    HW216827   1.810   0.567   6.588  0.5575  0.3121 -0.0825
 1732SOL     OW16828   4.144   0.561   4.150 -0.0008  0.0153  0.3478
 1732SOL    HW116829   4.145   0.528   4.239 -1.1872 -0.2021  0.2713
 1732SOL    HW216830   4.052   0.546   4.131  0.4324 -3.5137  1.1169
 1733SOL     OW16831   3.959   3.962   5.763 -0.2340 -0.1202 -0.3020
 1733SOL    HW116832   4.028   4.010   5.717  1.3846 -2.1360  0.0418
 1733SOL    HW216833   3.949   3.892   5.698  1.3587  0.0353 -0.7110
 1734SOL     OW16834   3.031   4.442  17.039  0.4327  0.0145  0.5589
 1734SOL    HW116835   2.969   4.513  17.059 -2.1113 -1.6757 -1.1530
 1734SOL    HW216836   2.983   4.407  16.963 -1.9953 -2.4168  3.2386
 1735SOL     OW16837   2.260   3.471   3.301  0.1584  0.1251 -0.2296
 1735SOL    HW116838   2.207   3.492   3.225  1.0756  0.5782 -0.7418
 1735SOL    HW216839   2.251   3.554   3.348  0.3692  0.8543 -1.4830
 1736SOL     OW16840   3.468   3.290   4.754  0.4179  0.3007  0.0852
 1736SOL    HW116841   3.428   3.332   4.831  1.0132  1.4306 -0.2256
 1736SOL    HW216842   3.483   3.201   4.786 -1.8342 -0.4111 -0.8246
 1737SOL     OW16843   3.580   0.113   8.305  0.1073  0.0763  0.7442
 1737SOL    HW116844   3.630   0.191   8.281 -2.2238  1.1532 -0.5872
 1737SOL    HW216845   3.542   0.080   8.223 -0.5866 -0.4552  1.2792
 1738SOL     OW16846   1.686   2.414   5.530 -0.1605  0.2700  0.1232
 1738SOL    HW116847   1.635   2.494   5.540  2.4698  1.5703  3.2380
 1738SOL    HW216848   1.765   2.442   5.576 -1.2338  2.6966  0.4645
 1739SOL     OW16849   2.461   1.689   6.882  0.1618 -0.1284 -0.8270
 1739SOL    HW116850   2.526   1.758   6.896  0.7423 -1.4330  2.7904
 1739SOL    HW216851   2.395   1.726   6.824  1.6843 -0.2448 -2.6658
 1740SOL     OW16852   0.935   2.292   5.529  0.6812  0.4622  0.2921
 1740SOL    HW116853   0.958   2.217   5.473  0.8980  0.9760 -0.3127
 1740SOL    HW216854   0.950   2.356   5.460 -0.7807 -0.2341 -0.6890
 1741SOL     OW16855   0.490   4.672   7.420 -0.3848  0.0157  0.3785
 1741SOL    HW116856   0.414   4.640   7.468  0.6397 -0.1518  1.8720
 1741SOL    HW216857   0.446   0.013   7.385 -2.9928 -1.5833  0.1007
 1742SOL     OW16858   1.214   3.000   2.761  0.1594 -0.0018  0.0566
 1742SOL    HW116859   1.267   3.029   2.835 -0.1577 -0.2677  0.3857
 1742SOL    HW216860   1.153   2.938   2.800  2.0339 -2.3074 -0.6537
 1743SOL     OW16861   4.680   1.852  17.630  0.1217 -0.6854 -0.2052
 1743SOL    HW116862   4.640   1.764  17.627 -2.7443  0.7088 -3.6534
 1743SOL    HW216863   4.624   1.910  17.578 -0.3384  0.1770  1.2633
 1744SOL     OW16864   4.063   4.442  16.262  0.4869  0.6288 -0.1787
 1744SOL    HW116865   4.120   4.365  16.266  0.4654  0.6053 -0.3128
 1744SOL    HW216866   4.012   4.422  16.341  1.9734  0.9758  0.8765
 1745SOL     OW16867   1.129   2.662   2.364  0.5122 -0.0603 -0.1925
 1745SOL    HW116868   1.066   2.652   2.436  0.3116 -0.5968 -0.4408
 1745SOL    HW216869   1.181   2.737   2.392 -0.3744  0.0432  1.2096
 1746SOL     OW16870   1.947   1.332  16.719  0.1688 -0.0112 -0.3706
 1746SOL    HW116871   1.925   1.241  16.741 -0.3581  0.4422  0.9979
 1746SOL    HW216872   1.900   1.381  16.786 -0.0017 -1.1475  0.3410
 1747SOL     OW16873   0.737   0.950   9.865 -0.5845 -0.2618 -0.2425
 1747SOL    HW116874   0.653   0.973   9.906  0.8943 -0.7362  3.0261
 1747SOL    HW216875   0.774   1.038   9.856  1.6285 -1.1564  0.2596
 1748SOL     OW16876   0.074   3.207   2.968  0.1612  0.0244 -0.4159
 1748SOL    HW116877   0.117   3.280   2.923 -0.4157 -0.2820 -1.4645
 1748SOL    HW216878   0.047   3.239   3.054  2.0332  0.7971 -0.1132
 1749SOL     OW16879   0.934   0.807   8.531  0.2549 -0.0261 -0.3117
 1749SOL    HW116880   0.941   0.903   8.533  0.0538 -0.0261  0.3900
 1749SOL    HW216881   0.954   0.795   8.438 -0.9958 -1.9890 -0.3160
 1750SOL     OW16882   3.274   1.630   0.852  0.0892  0.3673 -0.1026
 1750SOL    HW116883   3.299   1.638   0.944 -0.5649  0.5202  0.0615
 1750SOL    HW216884   3.193   1.680   0.861  0.4940  0.7085  1.6033
 1751SOL     OW16885   3.243   1.550   7.946 -0.1736  0.0623  0.1551
 1751SOL    HW116886   3.174   1.491   7.915 -1.2880  0.8766  1.1187
 1751SOL    HW216887   3.251   1.525   8.038  3.2638 -1.2700 -0.4838
 1752SOL     OW16888   0.335   3.032   2.064  0.0104 -0.6546 -0.4052
 1752SOL    HW116889   0.339   3.123   2.094 -0.8229 -1.2747  1.5864
 1752SOL    HW216890   0.417   3.025   2.017  0.7650 -2.8567  1.2276
 1753SOL     OW16891   1.767   4.508   6.899 -0.1047 -0.5541  0.3175
 1753SOL    HW116892   1.750   4.600   6.921 -0.3041 -0.2588 -1.0756
 1753SOL    HW216893   1.862   4.517   6.904 -0.0343 -0.1779 -1.9737
 1754SOL     OW16894   1.515   1.489   3.232 -0.2751  0.0034 -0.5174
 1754SOL    HW116895   1.446   1.518   3.292 -1.3839 -1.4993 -1.0437
 1754SOL    HW216896   1.572   1.565   3.225  3.1398 -2.4756  0.2958
 1755SOL     OW16897   2.931   3.320   3.329 -0.2120  0.4846 -1.0330
 1755SOL    HW116898   2.934   3.276   3.245  0.4386 -2.2301  0.4021
 1755SOL    HW216899   3.009   3.376   3.322  1.1622 -1.3681 -0.4025
 1756SOL     OW16900   1.735   3.880   5.504  0.1834  0.0537  0.0239
 1756SOL    HW116901   1.813   3.827   5.520  0.1272  0.1269  0.5439
 1756SOL    HW216902   1.683   3.831   5.439  0.4013  1.4684 -1.2097
 1757SOL     OW16903   4.050   4.670   1.316  0.3390  0.2079  0.3428
 1757SOL    HW116904   4.125   4.674   1.257  0.7715  1.7808  0.9906
 1757SOL    HW216905   4.093   4.641   1.397  1.2909  1.0814  0.1503
 1758SOL     OW16906   3.347   3.599   6.779 -0.9906 -0.2758 -0.2043
 1758SOL    HW116907   3.299   3.587   6.861 -0.2183 -0.9686  0.1501
 1758SOL    HW216908   3.324   3.688   6.756 -1.5912 -0.9737 -2.2573
 1759SOL     OW16909   3.103   1.610   8.769  0.4642 -0.1527  0.2009
 1759SOL    HW116910   3.160   1.538   8.797  0.4449 -0.4762 -0.5663
 1759SOL    HW216911   3.108   1.603   8.673  0.8045  0.5496  0.1717
 1760SOL     OW16912   2.354   1.283  11.875 -0.6064  0.1438  0.0176
 1760SOL    HW116913   2.389   1.219  11.938  0.8191  0.3651 -0.5432
 1760SOL    HW216914   2.401   1.360  11.907  0.4145 -0.0853 -0.9487
 1761SOL     OW16915   1.184   2.163   4.597  0.3716  0.1809 -0.0878
 1761SOL    HW116916   1.248   2.092   4.598  1.1536  0.8527 -2.2371
 1761SOL    HW216917   1.168   2.186   4.506  1.5463  3.1857  0.4512
 1762SOL     OW16918   3.298   4.312  10.655 -0.3048 -0.3250 -0.3220
 1762SOL    HW116919   3.385   4.336  10.621  0.3375 -2.5535 -0.2774
 1762SOL    HW216920   3.233   4.362  10.606  0.5400  1.4006  0.3218
 1763SOL     OW16921   3.536   0.597  14.970 -0.3243 -0.1630 -0.1622
 1763SOL    HW116922   3.468   0.656  15.003  0.4329  0.6003  0.0328
 1763SOL    HW216923   3.568   0.634  14.887 -0.5137 -0.7544 -0.4998
 1764SOL     OW16924   3.671   1.895   1.372  0.3250 -0.8461 -0.4958
 1764SOL    HW116925   3.667   1.920   1.280  1.0108 -1.1140 -0.5983
 1764SOL    HW216926   3.729   1.963   1.406 -1.8951  0.0165  1.5352
 1765SOL     OW16927   1.613   3.166   9.130  0.0249 -0.0056  0.0650
 1765SOL    HW116928   1.520   3.180   9.151  0.2872  2.1972 -0.1877
 1765SOL    HW216929   1.652   3.200   9.211 -0.7387  1.0398 -0.0043
 1766SOL     OW16930   1.912   2.389   3.905 -0.4502  0.4805  0.9513
 1766SOL    HW116931   1.971   2.336   3.852  0.5047  1.1032  1.3938
 1766SOL    HW216932   1.980   2.433   3.957 -0.3407  1.4754 -0.0240
 1767SOL     OW16933   3.076   3.109   6.650 -0.0561  0.6872  0.2537
 1767SOL    HW116934   3.047   3.199   6.662 -0.7598  0.4035  0.6559
 1767SOL    HW216935   3.157   3.102   6.701 -0.0943  0.0196  0.2297
 1768SOL     OW16936   3.789   1.929   3.056 -0.0352  0.0368 -0.0248
 1768SOL    HW116937   3.724   1.860   3.062  1.5633 -1.5514 -1.1583
 1768SOL    HW216938   3.741   2.012   3.051  1.7685  1.2221  2.3864
 1769SOL     OW16939   3.987   2.215  11.845 -0.6106 -0.1688  0.3665
 1769SOL    HW116940   3.937   2.269  11.783  0.0821  0.5637  0.4502
 1769SOL    HW216941   4.034   2.156  11.787  1.1700  0.7014  0.9256
 1770SOL     OW16942   0.630   1.384   5.267  0.6724  0.5091 -0.1556
 1770SOL    HW116943   0.673   1.460   5.306  2.6765 -1.4483  1.4855
 1770SOL    HW216944   0.697   1.316   5.276  0.4070  0.4782  1.5283
 1771SOL     OW16945   0.096   2.855   8.973 -0.0636  0.4657  0.3615
 1771SOL    HW116946   0.006   2.875   8.947  0.1749  0.1515 -0.6904
 1771SOL    HW216947   0.095   2.767   9.010  0.3249  0.3009 -0.0200
 1772SOL     OW16948   2.056   1.131   9.469  0.2038 -0.4073  0.2250
 1772SOL    HW116949   2.059   1.125   9.374 -2.4882 -0.7533  0.1652
 1772SOL    HW216950   2.147   1.103   9.481  0.2321 -0.9192 -1.2950
 1773SOL     OW16951   2.589   3.506  10.962  0.1923 -0.0801  0.9966
 1773SOL    HW116952   2.496   3.507  10.938  0.4793  3.7795 -0.0065
 1773SOL    HW216953   2.606   3.418  10.993  1.8382 -0.2913 -0.4874
 1774SOL     OW16954   4.125   4.169   0.153  0.1807  0.1974 -0.2689
 1774SOL    HW116955   4.048   4.131   0.196  1.4386 -2.9072 -0.7962
 1774SOL    HW216956   4.085   4.247   0.113  0.2281 -0.3292 -1.3222
 1775SOL     OW16957   1.238   0.154   2.018  0.2175 -0.2568  0.2384
 1775SOL    HW116958   1.255   0.104   1.939  1.0422 -0.9401  0.8606
 1775SOL    HW216959   1.329   0.159   2.047  0.1522 -0.2397  0.4411
 1776SOL     OW16960   1.575   3.820   2.305  0.1654 -0.1054 -0.3342
 1776SOL    HW116961   1.626   3.873   2.366  0.8152 -0.8019 -0.2696
 1776SOL    HW216962   1.651   3.766   2.283  0.4364 -0.8835  2.4573
 1777SOL     OW16963   4.693   1.420  14.952 -0.5888  0.1373 -0.5890
 1777SOL    HW116964   0.003   1.429  14.870 -4.3251  0.1253 -2.7705
 1777SOL    HW216965   0.013   1.466  15.012 -1.6431  0.7233 -0.0294
 1778SOL     OW16966   3.155   1.502   3.483  0.3334 -0.1118  0.1037
 1778SOL    HW116967   3.132   1.559   3.556 -2.1078 -1.5243  0.4545
 1778SOL    HW216968   3.197   1.560   3.420  2.8224  0.2016  2.0379
 1779SOL     OW16969   3.222   1.065   1.780  0.0654 -0.4024 -0.2482
 1779SOL    HW116970   3.174   1.107   1.709  2.2139 -2.0370 -2.6979
 1779SOL    HW216971   3.152   1.046   1.842 -0.1625  3.7500  0.7235
 1780SOL     OW16972   4.414   0.308   5.261  0.3475 -0.1388  0.0601
 1780SOL    HW116973   4.338   0.257   5.232  0.0005  0.3463  0.1247
 1780SOL    HW216974   4.428   0.357   5.180  2.4455  1.6474  1.5268
 1781SOL     OW16975   1.789   4.674   8.324  0.5107 -0.0331 -0.6242
 1781SOL    HW116976   1.699   4.691   8.297 -0.5295 -1.8582  1.6816
 1781SOL    HW216977   1.813   0.015   8.373  0.0632 -2.0644  2.8534
 1782SOL     OW16978   1.246   3.126   6.953  0.2139  0.4434  0.3426
 1782SOL    HW116979   1.323   3.102   7.005  0.5082  0.2818 -0.1729
 1782SOL    HW216980   1.275   3.105   6.865  0.6640 -0.0057  0.5965
 1783SOL     OW16981   4.449   3.617   6.544 -0.5309 -0.4534 -0.0224
 1783SOL    HW116982   4.418   3.546   6.601  1.9265 -2.1527 -0.8241
 1783SOL    HW216983   4.366   3.654   6.514 -0.1092  1.6254  1.4440
 1784SOL     OW16984   0.936   0.613  17.141  0.7186  0.3369  0.0928
 1784SOL    HW116985   0.882   0.548  17.095 -2.3953  2.1215  1.2359
 1784SOL    HW216986   0.965   0.671  17.071  0.5717  1.2796  0.8096
 1785SOL     OW16987   3.107   4.458   4.023 -0.3228  0.0493  0.0453
 1785SOL    HW116988   3.176   4.465   3.957 -1.1701  3.2334 -0.5194
 1785SOL    HW216989   3.132   4.540   4.067 -1.2474  0.9760 -1.1755
 1786SOL     OW16990   1.496   2.366   4.701 -0.1956 -0.6403  0.0133
 1786SOL    HW116991   1.559   2.382   4.772  1.0741 -1.1948 -0.9913
 1786SOL    HW216992   1.440   2.297   4.735  0.2133 -1.3301 -0.7188
 1787SOL     OW16993   1.550   4.165   2.018 -0.0009 -0.1894 -0.2772
 1787SOL    HW116994   1.501   4.181   1.938 -0.8455 -3.6829 -0.4463
 1787SOL    HW216995   1.623   4.123   1.974  1.7818  0.3846  2.1263
 1788SOL     OW16996   3.906   2.937   7.771 -0.4080  0.1991  0.2538
 1788SOL    HW116997   3.918   3.030   7.756  0.1030  0.5067  2.5229
 1788SOL    HW216998   3.987   2.913   7.816 -0.7765 -1.1127  0.2127
 1789SOL     OW16999   3.890   4.551   8.769  0.1960 -0.3279  0.0837
 1789SOL    HW117000   3.834   4.558   8.846  0.2177 -1.7247  0.2306
 1789SOL    HW217001   3.907   4.641   8.743 -0.4396 -1.4588 -4.1816
 1790SOL     OW17002   0.443   3.526  16.366  0.6969  0.5313 -0.0572
 1790SOL    HW117003   0.528   3.555  16.332  0.2923 -0.5752 -2.0273
 1790SOL    HW217004   0.456   3.431  16.360  0.0914  0.4248  0.3241
 1791SOL     OW17005   3.537   4.018   8.815  0.0873 -0.0677 -0.7841
 1791SOL    HW117006   3.573   4.051   8.733  1.2260  0.9851  0.1415
 1791SOL    HW217007   3.485   4.089   8.853 -1.3674 -0.9452 -1.1302
 1792SOL     OW17008   2.244   2.791  15.801  0.2395 -0.2216  0.0406
 1792SOL    HW117009   2.287   2.749  15.727  0.1348  2.5473 -1.5560
 1792SOL    HW217010   2.197   2.867  15.767 -1.1198 -0.8674  0.4577
 1793SOL     OW17011   3.731   1.544   2.227  0.1701 -0.2917  0.4136
 1793SOL    HW117012   3.730   1.608   2.155 -0.3812 -0.5042  0.2358
 1793SOL    HW217013   3.822   1.516   2.235  0.6526  0.3389 -2.9392
 1794SOL     OW17014   1.294   1.687   3.124  0.1141  0.9550  0.2207
 1794SOL    HW117015   1.346   1.757   3.163  0.4580  1.6399 -1.4783
 1794SOL    HW217016   1.325   1.678   3.034  2.2227 -0.2657  1.0585
 1795SOL     OW17017   3.892   3.943   5.190  0.0629  0.2375  0.2346
 1795SOL    HW117018   3.805   3.906   5.199 -0.1922  0.2856 -2.1228
 1795SOL    HW217019   3.864   4.016   5.135  0.0070  0.1658  0.1679
 1796SOL     OW17020   2.538   1.813   6.183 -0.2807 -0.4386  0.1432
 1796SOL    HW117021   2.536   1.754   6.108 -0.5511  0.9393 -0.9336
 1796SOL    HW217022   2.596   1.768   6.245  2.0857  2.6487  0.1619
 1797SOL     OW17023   0.855   1.039   6.801 -0.2093 -0.5537 -0.2984
 1797SOL    HW117024   0.865   0.945   6.785  2.4918 -0.5101  1.0407
 1797SOL    HW217025   0.822   1.035   6.891 -0.8126  0.8805 -0.4613
 1798SOL     OW17026   0.762   2.208  17.109  0.2496  0.4818  0.4485
 1798SOL    HW117027   0.829   2.140  17.095 -1.1136 -0.4930 -1.3958
 1798SOL    HW217028   0.697   2.158  17.159 -0.4671  2.2141  1.2284
 1799SOL     OW17029   0.777   0.751  15.859  0.6737  0.1650  0.0825
 1799SOL    HW117030   0.766   0.736  15.765 -1.9248 -0.7009  0.5175
 1799SOL    HW217031   0.781   0.846  15.865 -1.0869  0.3325 -1.2684
 1800SOL     OW17032   3.924   4.455  10.982  0.5737 -0.2332  0.1373
 1800SOL    HW117033   3.939   4.427  11.073  0.2080 -0.0210  0.2658
 1800SOL    HW217034   3.992   4.520  10.966 -0.6172  0.6824 -1.1507
 1801SOL     OW17035   2.623   2.532   8.236 -0.5516 -0.2151 -0.2620
 1801SOL    HW117036   2.676   2.528   8.156 -0.6602 -0.3914 -0.3260
 1801SOL    HW217037   2.540   2.496   8.204 -0.3079  0.1616 -1.3332
 1802SOL     OW17038   1.971   2.659  10.858 -0.5660 -0.0758  0.9496
 1802SOL    HW117039   2.003   2.575  10.892 -1.5730 -1.0343 -0.4402
 1802SOL    HW217040   2.037   2.674  10.790 -2.1090  2.0457 -0.0746
 1803SOL     OW17041   2.512   4.022   3.203 -0.4240  0.1364 -0.1371
 1803SOL    HW117042   2.522   3.947   3.262 -1.2896 -0.5582 -0.8732
 1803SOL    HW217043   2.519   3.984   3.115 -0.3481 -1.1149  0.4080
 1804SOL     OW17044   1.004   2.955  13.239  0.1954  0.3161 -0.3645
 1804SOL    HW117045   1.057   2.925  13.165  1.6877 -2.9627  2.0542
 1804SOL    HW217046   0.957   3.029  13.200 -0.3513  0.4149  0.4783
 1805SOL     OW17047   0.220   3.918   0.797 -0.0536  0.7231 -0.0541
 1805SOL    HW117048   0.154   3.978   0.763  0.1040 -0.1628 -1.9249
 1805SOL    HW217049   0.181   3.861   0.863 -0.9107  1.3289 -0.0485
 1806SOL     OW17050   0.563   2.442   8.474 -0.3197 -0.0487  0.0561
 1806SOL    HW117051   0.478   2.484   8.464 -0.6502 -1.2096 -2.1521
 1806SOL    HW217052   0.551   2.350   8.452  2.4779 -0.2199 -0.8398
 1807SOL     OW17053   3.780   4.324   2.543 -0.1034 -0.5087 -0.1360
 1807SOL    HW117054   3.823   4.407   2.523 -0.3389  0.0680  1.7192
 1807SOL    HW217055   3.819   4.298   2.627 -0.7164 -1.7006 -0.2016
 1808SOL     OW17056   1.536   1.451  14.977  0.0388  0.1564 -0.1967
 1808SOL    HW117057   1.574   1.519  15.033 -3.0385  2.1472 -0.5146
 1808SOL    HW217058   1.473   1.495  14.919 -1.0930 -0.5501  0.5000
 1809SOL     OW17059   2.326   2.344   7.004 -0.8669  0.0419  0.1339
 1809SOL    HW117060   2.255   2.409   7.003  0.5890  1.5987 -2.9049
 1809SOL    HW217061   2.398   2.381   6.952  0.6459  0.0340  2.1825
 1810SOL     OW17062   2.023   2.659   3.312 -0.7644 -0.5957  0.4187
 1810SOL    HW117063   2.009   2.753   3.309  0.5649 -0.3743  1.3661
 1810SOL    HW217064   1.933   2.634   3.294 -0.2152 -1.5995 -0.9589
 1811SOL     OW17065   2.268   2.366   1.817 -0.5852 -0.2015 -0.0382
 1811SOL    HW117066   2.362   2.370   1.838 -0.7953  2.1336  0.5235
 1811SOL    HW217067   2.234   2.446   1.858  0.9778  0.5011 -0.0953
 1812SOL     OW17068   3.943   4.654   7.935 -0.6991  0.0015  0.0597
 1812SOL    HW117069   4.028   4.652   7.979 -1.2577  0.9925  1.1963
 1812SOL    HW217070   3.966   4.696   7.852  0.8563 -0.2012  0.3875
 1813SOL     OW17071   3.102   4.416   8.076  0.0825 -0.2372  0.0997
 1813SOL    HW117072   3.031   4.352   8.070 -1.8965  1.7183  2.8935
 1813SOL    HW217073   3.134   4.399   8.164 -1.4646  1.2220  0.9311
 1814SOL     OW17074   2.336   0.930  12.626  0.1980  0.2182 -0.0145
 1814SOL    HW117075   2.424   0.927  12.665  0.2206 -0.7282 -0.1426
 1814SOL    HW217076   2.295   0.990  12.688 -0.5947  0.5455 -0.8621
 1815SOL     OW17077   0.011   0.969   0.954  0.2315 -0.1732  0.2490
 1815SOL    HW117078   4.673   0.993   1.009 -0.6487  1.7369 -1.7813
 1815SOL    HW217079   4.721   0.983   0.864 -3.1831 -0.8180  1.2059
 1816SOL     OW17080   2.481   3.592   9.620 -0.2204  0.5582  0.4012
 1816SOL    HW117081   2.441   3.664   9.572 -0.6506 -1.3825 -2.1774
 1816SOL    HW217082   2.405   3.565   9.672 -0.0866 -0.0852  0.2676
 1817SOL     OW17083   3.628   2.036   1.981 -0.6879  0.0658  0.3752
 1817SOL    HW117084   3.604   1.972   2.049 -0.4108  1.9178  2.2116
 1817SOL    HW217085   3.693   2.075   2.039 -0.4889 -0.2432  0.3621
 1818SOL     OW17086   1.579   1.893   0.761  0.3424 -0.0231  0.1816
 1818SOL    HW117087   1.579   1.979   0.802  0.3599 -0.9255  2.0662
 1818SOL    HW217088   1.499   1.851   0.793  0.1201 -0.4615 -0.9131
 1819SOL     OW17089   0.420   0.040  14.773  0.2782 -0.3915  0.0970
 1819SOL    HW117090   0.502   0.048  14.723  1.8711 -2.3957  2.3913
 1819SOL    HW217091   0.355   0.060  14.706  0.7455  1.0137  0.0513
 1820SOL     OW17092   2.337   4.075   1.375  0.5487  0.1148 -0.2588
 1820SOL    HW117093   2.429   4.079   1.403  1.2740 -2.8655 -2.2917
 1820SOL    HW217094   2.309   4.146   1.433 -3.6901  0.9029 -3.2356
 1821SOL     OW17095   1.401   4.305  13.184  0.1285 -0.8172 -0.0685
 1821SOL    HW117096   1.447   4.344  13.258  0.0486 -1.2967  0.2295
 1821SOL    HW217097   1.438   4.343  13.104 -1.7147  3.6055  1.1326
 1822SOL     OW17098   0.731   2.587   8.100  0.3679 -0.2502  0.6464
 1822SOL    HW117099   0.762   2.532   8.029 -0.1730 -1.4689  1.3587
 1822SOL    HW217100   0.765   2.673   8.075 -1.0554  0.0249 -0.3138
 1823SOL     OW17101   0.460   4.002   8.105 -0.5766  0.8748  0.5314
 1823SOL    HW117102   0.552   4.020   8.086 -0.3566 -2.3971 -1.4394
 1823SOL    HW217103   0.452   4.064   8.178 -0.4236  1.0652  0.3886
 1824SOL     OW17104   4.282   0.131   4.125  0.0360 -0.2289 -0.3787
 1824SOL    HW117105   4.273   0.041   4.095 -3.4250  0.4474 -1.3659
 1824SOL    HW217106   4.204   0.132   4.180  0.9144 -0.1236  0.8790
 1825SOL     OW17107   0.244   0.683   4.201 -0.2536 -0.6219  0.1574
 1825SOL    HW117108   0.175   0.696   4.266 -2.6626  0.3843 -2.6066
 1825SOL    HW217109   0.211   0.741   4.133 -0.6237  2.8284  3.2659
 1826SOL     OW17110   2.435   0.995   8.339 -0.3323  0.9988 -0.1827
 1826SOL    HW117111   2.484   1.072   8.366  1.1761  0.0247 -0.1747
 1826SOL    HW217112   2.404   0.974   8.427  1.2109 -1.1834 -0.1623
 1827SOL     OW17113   2.309   4.640   5.496  0.0428  0.2223  0.5980
 1827SOL    HW117114   2.237   4.694   5.464  0.2831 -0.3205 -0.8545
 1827SOL    HW217115   2.258   4.569   5.535 -2.4255  1.1408 -0.9252
 1828SOL     OW17116   0.052   0.717   0.396 -0.1870  0.2792 -0.2996
 1828SOL    HW117117   0.090   0.683   0.477 -2.4990 -1.7767 -0.0614
 1828SOL    HW217118   4.700   0.734   0.425 -0.4974  0.4636 -1.3887
 1829SOL     OW17119   1.155   2.879   6.260  0.6776  0.1233  0.1232
 1829SOL    HW117120   1.067   2.844   6.274 -0.0752  1.4445 -1.2953
 1829SOL    HW217121   1.138   2.906   6.170  0.6466  1.2060  0.4543
 1830SOL     OW17122   0.314   3.062   1.663 -0.2938 -0.3619  0.0167
 1830SOL    HW117123   0.270   3.055   1.578 -2.3645  1.5393  0.9652
 1830SOL    HW217124   0.375   2.989   1.649  0.4404  0.0719  0.9244
 1831SOL     OW17125   0.026   0.579   4.939  0.1933 -0.1373 -0.2603
 1831SOL    HW117126   0.017   0.655   4.998  2.0130 -0.2892  0.1988
 1831SOL    HW217127   0.114   0.547   4.959  0.5115  0.3052 -0.9632
 1832SOL     OW17128   3.477   1.534   9.466 -0.1246 -0.2042 -0.1829
 1832SOL    HW117129   3.499   1.516   9.557 -0.4795  0.8342  0.1074
 1832SOL    HW217130   3.489   1.445   9.432  1.9491  0.6782 -1.7430
 1833SOL     OW17131   1.816   3.493   7.641 -0.0430 -0.1742  0.2752
 1833SOL    HW117132   1.747   3.521   7.702 -0.4691  0.9411 -0.6984
 1833SOL    HW217133   1.883   3.543   7.688 -1.6859  1.1667  1.2051
 1834SOL     OW17134   2.697   3.725   9.421 -0.1486  0.3265  0.5386
 1834SOL    HW117135   2.702   3.640   9.465 -3.8004  0.1620  0.6076
 1834SOL    HW217136   2.786   3.729   9.385 -0.9291  0.4202 -1.3897
 1835SOL     OW17137   2.613   4.598   4.218 -0.3428 -0.3102 -0.1836
 1835SOL    HW117138   2.651   4.653   4.287  0.8865 -2.6528  1.0013
 1835SOL    HW217139   2.680   4.533   4.199  0.7743  0.5264  0.9240
 1836SOL     OW17140   3.784   0.512  11.564 -0.0642  0.1347  0.3471
 1836SOL    HW117141   3.789   0.434  11.509  0.3226  0.7465 -0.4831
 1836SOL    HW217142   3.808   0.467  11.645 -0.6484 -1.5326 -0.4048
 1837SOL     OW17143   2.745   0.356  14.061  0.0078  0.2862 -0.4199
 1837SOL    HW117144   2.701   0.344  13.977  0.4622 -1.0425 -0.4756
 1837SOL    HW217145   2.770   0.448  14.059  2.3673 -0.3188  0.9338
 1838SOL     OW17146   2.621   3.321   2.613 -0.0667 -0.1477 -0.0042
 1838SOL    HW117147   2.668   3.259   2.558 -3.3305 -0.9510 -1.8973
 1838SOL    HW217148   2.547   3.354   2.561 -1.4898 -1.8894  0.9252
 1839SOL     OW17149   2.886   3.592   3.690 -0.1256  0.4681 -0.1972
 1839SOL    HW117150   2.930   3.573   3.773  0.9131  0.1401 -0.8262
 1839SOL    HW217151   2.927   3.536   3.624 -0.1851  0.1633  0.0251
 1840SOL     OW17152   0.823   2.221   0.113 -0.1978 -0.9527 -0.1444
 1840SOL    HW117153   0.795   2.166   0.186  1.4152  1.3251  2.1721
 1840SOL    HW217154   0.750   2.212   0.051 -2.1460  1.0986  1.8486
 1841SOL     OW17155   3.363   0.522   3.505  0.0958  0.3351 -0.7533
 1841SOL    HW117156   3.438   0.472   3.472 -0.3718 -0.1005 -1.1513
 1841SOL    HW217157   3.303   0.449   3.518 -1.6738  1.5476 -2.0598
 1842SOL     OW17158   4.651   1.568   1.018 -0.2920 -0.1053 -0.0087
 1842SOL    HW117159   4.731   1.592   1.066 -0.4699  0.6019 -0.0649
 1842SOL    HW217160   4.581   1.552   1.081 -0.5143 -0.1219 -0.2585
 1843SOL     OW17161   3.022   1.190   5.092  0.4740 -0.0302  0.0472
 1843SOL    HW117162   3.030   1.286   5.096 -1.3225  0.1352  0.0805
 1843SOL    HW217163   2.934   1.191   5.055  1.5164  1.1751 -2.3665
 1844SOL     OW17164   1.730   2.507   5.162  0.1924 -0.6374  0.1615
 1844SOL    HW117165   1.825   2.494   5.169  0.0260 -1.5341  0.7765
 1844SOL    HW217166   1.707   2.577   5.223  1.0501  0.7546 -1.1313
 1845SOL     OW17167   2.364   4.495   4.531 -0.0596  0.3693 -0.2872
 1845SOL    HW117168   2.414   4.569   4.494 -0.5009  0.7673 -0.0850
 1845SOL    HW217169   2.314   4.454   4.461  1.4573 -1.5226 -0.2570
 1846SOL     OW17170   1.676   1.681   7.146  0.9508  0.1304  0.1580
 1846SOL    HW117171   1.673   1.606   7.087 -2.8475  0.7236 -0.3444
 1846SOL    HW217172   1.744   1.734   7.104  1.2245 -0.3756 -0.0377
 1847SOL     OW17173   3.857   0.802  17.662  0.1962  0.2335 -0.0268
 1847SOL    HW117174   3.847   0.707  17.650  0.2511  0.4719 -1.9462
 1847SOL    HW217175   3.862   0.828  17.570  1.6935  0.9436  0.2599
 1848SOL     OW17176   2.671   2.124   4.739  0.4407  0.1906 -0.1336
 1848SOL    HW117177   2.626   2.136   4.823 -1.1405 -0.1793 -0.9207
 1848SOL    HW217178   2.627   2.045   4.707 -0.5052  0.7300 -0.1650
 1849SOL     OW17179   3.215   1.689   5.567 -0.3780  0.0122 -0.3598
 1849SOL    HW117180   3.121   1.703   5.558 -0.4101  0.5149  0.7078
 1849SOL    HW217181   3.247   1.769   5.610  3.4460 -1.4521 -0.4102
 1850SOL     OW17182   3.685   3.602   4.530 -0.3797  0.2696 -0.4803
 1850SOL    HW117183   3.715   3.650   4.607 -0.8256  2.0301 -1.4099
 1850SOL    HW217184   3.663   3.518   4.571  1.0678 -0.3031 -0.8815
 1851SOL     OW17185   1.603   0.847  13.323 -0.5792  0.0287  0.1366
 1851SOL    HW117186   1.697   0.860  13.316 -0.6639 -0.8393 -2.6042
 1851SOL    HW217187   1.597   0.819  13.414  1.0616 -1.4963 -0.2349
 1852SOL     OW17188   4.694   3.162   7.953 -0.3803 -0.4120 -0.2638
 1852SOL    HW117189   4.722   3.238   8.004  1.7197 -1.2955 -0.1298
 1852SOL    HW217190   0.039   3.138   7.911 -1.0962 -1.9688 -0.7843
 1853SOL     OW17191   2.702   3.455   0.623 -0.2276  0.5702  0.3565
 1853SOL    HW117192   2.797   3.444   0.628 -0.5905 -2.6342 -0.0410
 1853SOL    HW217193   2.690   3.541   0.664 -0.0284  0.7246  0.0960
 1854SOL     OW17194   1.345   0.949  10.576  0.4494  0.1471 -0.1769
 1854SOL    HW117195   1.254   0.975  10.565  0.4724 -0.7263 -2.3626
 1854SOL    HW217196   1.344   0.861  10.538 -0.0231 -0.1430  0.4994
 1855SOL     OW17197   0.098   0.691  10.597 -0.0578 -0.1414  0.5498
 1855SOL    HW117198   0.082   0.772  10.548 -1.8316 -0.9787 -0.2322
 1855SOL    HW217199   0.142   0.729  10.673  0.9034  0.5602 -0.3528
 1856SOL     OW17200   3.551   4.128   6.368  0.1262 -0.0989  0.2571
 1856SOL    HW117201   3.619   4.107   6.433 -0.2606 -0.5713  0.5010
 1856SOL    HW217202   3.546   4.044   6.323  2.0555  0.3919 -0.8924
 1857SOL     OW17203   3.787   1.231   7.264 -0.0927 -0.0408 -0.3803
 1857SOL    HW117204   3.737   1.257   7.341 -1.3521  2.2455 -1.9460
 1857SOL    HW217205   3.854   1.173   7.300 -0.7009 -1.3061 -1.2857
 1858SOL     OW17206   0.953   2.694   4.381  0.2870 -0.2311  0.0487
 1858SOL    HW117207   1.013   2.672   4.452  0.7309 -1.0794 -0.5919
 1858SOL    HW217208   0.867   2.669   4.415 -0.7110 -0.0983 -2.3697
 1859SOL     OW17209   1.432   0.474   8.162 -0.6024  0.0320  0.3897
 1859SOL    HW117210   1.385   0.412   8.106 -1.3306  0.5296  0.4438
 1859SOL    HW217211   1.505   0.492   8.103 -1.1523  0.0496 -0.2844
 1860SOL     OW17212   1.438   0.188   6.926 -0.3543  0.3788 -0.0830
 1860SOL    HW117213   1.378   0.244   6.876 -0.4437  0.0367 -0.3645
 1860SOL    HW217214   1.435   0.216   7.017 -2.0013 -2.3033  0.7144
 1861SOL     OW17215   2.708   3.412   5.000  0.2846 -0.1952  0.7833
 1861SOL    HW117216   2.669   3.491   4.964 -0.1238 -0.4586  0.6417
 1861SOL    HW217217   2.799   3.438   5.015 -0.0902 -0.1321  3.0399
 1862SOL     OW17218   0.422   0.610   9.880  0.0949  0.0901  0.3952
 1862SOL    HW117219   0.424   0.561   9.962  3.0559 -1.9409 -0.9110
 1862SOL    HW217220   0.488   0.564   9.829  2.7892  1.5404  2.6298
 1863SOL     OW17221   3.841   0.782   3.169 -0.5605 -0.1586  0.1513
 1863SOL    HW117222   3.794   0.801   3.088 -1.3021 -0.8472  0.4225
 1863SOL    HW217223   3.779   0.725   3.213  0.2232 -0.2406  1.1524
 1864SOL     OW17224   3.597   1.563   8.592  0.1256  0.5485 -0.3000
 1864SOL    HW117225   3.634   1.651   8.594 -0.7969  0.9653 -1.4792
 1864SOL    HW217226   3.665   1.515   8.543 -0.5701 -0.2010 -0.5310
 1865SOL     OW17227   0.519   2.880   6.110 -0.0333  0.1037 -0.0490
 1865SOL    HW117228   0.452   2.883   6.042 -1.1232  0.5195  1.0554
 1865SOL    HW217229   0.471   2.918   6.183  1.9169  0.1101  1.2066
 1866SOL     OW17230   1.706   1.984  13.663 -0.1564 -0.4124 -0.3283
 1866SOL    HW117231   1.631   1.959  13.609 -0.9697 -1.5340  1.2958
 1866SOL    HW217232   1.757   1.904  13.676 -0.3609 -0.0449  2.7839
 1867SOL     OW17233   3.976   4.312   5.682  0.3160 -0.1485  0.4852
 1867SOL    HW117234   3.919   4.261   5.740 -0.5306 -0.3513 -0.5207
 1867SOL    HW217235   3.931   4.396   5.668 -1.0165 -1.0236 -0.5248
 1868SOL     OW17236   1.905   2.228   2.189  0.5784 -0.1201 -0.1740
 1868SOL    HW117237   1.845   2.166   2.229 -0.7945  0.8267 -0.7869
 1868SOL    HW217238   1.918   2.198   2.099  1.9976 -1.9971  0.6667
 1869SOL     OW17239   3.756   4.091  10.535 -0.3871  0.5247  0.3512
 1869SOL    HW117240   3.765   4.030  10.608  0.7595  0.4158  0.1291
 1869SOL    HW217241   3.847   4.115  10.517 -0.5557  0.4873 -0.5455
 1870SOL     OW17242   0.263   1.875   6.653 -0.1474  0.0809  0.1923
 1870SOL    HW117243   0.332   1.820   6.615  0.8420  0.9870  0.6491
 1870SOL    HW217244   0.314   1.952   6.680 -1.3246  1.0507 -0.3625
 1871SOL     OW17245   3.944   1.436  10.959  0.0197  0.0323 -0.0742
 1871SOL    HW117246   3.883   1.397  10.896  0.7520  2.6304 -2.3522
 1871SOL    HW217247   3.899   1.518  10.976 -3.1013 -1.5970 -0.4883
 1872SOL     OW17248   3.749   4.422   5.246  0.3413  0.1128  0.0690
 1872SOL    HW117249   3.675   4.482   5.250  0.9932  0.9257 -0.2245
 1872SOL    HW217250   3.699   4.344   5.274 -0.2559 -1.0695 -4.2652
 1873SOL     OW17251   4.073   3.331   1.512  0.6630  0.6906 -0.1979
 1873SOL    HW117252   4.093   3.388   1.586  1.8892  1.1578 -0.8898
 1873SOL    HW217253   4.095   3.245   1.547 -0.1400  1.1306  1.4181
 1874SOL     OW17254   1.374   3.491   8.308  0.1410  0.1195  0.2209
 1874SOL    HW117255   1.278   3.491   8.302  0.1879  1.1302 -0.5400
 1874SOL    HW217256   1.392   3.418   8.369 -1.2223 -1.4427 -1.2449
 1875SOL     OW17257   2.702   3.012  14.685 -0.0101 -0.6318 -0.1635
 1875SOL    HW117258   2.609   3.031  14.672 -0.1964 -1.4522 -0.0150
 1875SOL    HW217259   2.711   3.024  14.780 -0.7700  1.1203 -0.3151
 1876SOL     OW17260   4.521   1.984   5.756 -0.2819  0.0359 -0.2091
 1876SOL    HW117261   4.450   1.988   5.692  0.2812  0.2828 -0.8112
 1876SOL    HW217262   4.598   2.017   5.711  0.3805 -1.1540  0.0606
 1877SOL     OW17263   4.439   1.651  10.785  0.1205 -0.8374  0.0398
 1877SOL    HW117264   4.510   1.646  10.849  0.9081  0.5834 -0.7324
 1877SOL    HW217265   4.462   1.734  10.743 -1.2203 -0.1148  0.7228
 1878SOL     OW17266   0.840   1.225   3.085 -0.2346  0.4205 -0.3437
 1878SOL    HW117267   0.856   1.314   3.054  3.4038  0.1083  0.5560
 1878SOL    HW217268   0.774   1.203   3.020  0.6252 -0.7459 -0.8255
 1879SOL     OW17269   4.504   2.832   1.120  0.5664 -0.8337 -0.2265
 1879SOL    HW117270   4.442   2.827   1.047  0.2648  1.4920 -0.1320
 1879SOL    HW217271   4.467   2.904   1.170  2.8312  0.4514 -0.3883
 1880SOL     OW17272   3.381   4.124   6.739  0.0362  0.3193 -0.0771
 1880SOL    HW117273   3.287   4.140   6.735 -0.0692 -0.0909  0.8011
 1880SOL    HW217274   3.395   4.140   6.646  1.4675 -0.1532  0.0625
 1881SOL     OW17275   2.312   0.950   1.963  0.0096  0.5114  0.1709
 1881SOL    HW117276   2.280   0.903   1.886 -0.8560 -0.9135  1.3946
 1881SOL    HW217277   2.239   1.011   1.974 -0.8933 -0.1228 -2.2523
 1882SOL     OW17278   2.553   4.207   7.957  0.0513  0.0454 -0.6607
 1882SOL    HW117279   2.583   4.156   8.032  1.8186  1.3539 -0.4901
 1882SOL    HW217280   2.618   4.185   7.890  1.1375 -1.5495  0.9162
 1883SOL     OW17281   0.449   0.660   6.497 -0.1311  0.0502  0.1425
 1883SOL    HW117282   0.384   0.729   6.512  0.9262  0.0780  4.6001
 1883SOL    HW217283   0.484   0.649   6.586  1.0654  0.5560 -0.2683
 1884SOL     OW17284   0.896   2.499   3.782 -0.2751 -0.2017 -0.5318
 1884SOL    HW117285   0.881   2.561   3.853  0.1000  0.8369 -1.3546
 1884SOL    HW217286   0.985   2.473   3.805  0.0024 -0.8429 -2.2502
 1885SOL     OW17287   1.067   0.425   2.680 -0.4965  0.5683  0.3290
 1885SOL    HW117288   1.133   0.360   2.658  0.8312  2.7820 -2.1605
 1885SOL    HW217289   0.999   0.365   2.712  1.6118 -1.9952  0.0184
 1886SOL     OW17290   2.852   1.017  13.003 -0.0931 -0.3006 -0.6346
 1886SOL    HW117291   2.825   1.103  13.035  1.6107  0.2659 -0.7344
 1886SOL    HW217292   2.874   0.970  13.084  1.5793 -1.9382 -2.0437
 1887SOL     OW17293   3.432   3.055   1.814 -0.1813 -0.1440 -0.5481
 1887SOL    HW117294   3.497   3.027   1.878 -3.6703 -0.0659  3.0770
 1887SOL    HW217295   3.358   3.082   1.869  0.3131 -1.0301  0.5538
 1888SOL     OW17296   0.665   0.611   5.327 -0.4315  0.5959  0.3017
 1888SOL    HW117297   0.738   0.670   5.307  1.0368 -1.6780 -1.0507
 1888SOL    HW217298   0.603   0.666   5.375 -1.2942  0.0087 -0.1333
 1889SOL     OW17299   4.512   3.859  17.134 -0.5965 -0.7739  1.0097
 1889SOL    HW117300   4.424   3.897  17.135  0.3951  1.4998  1.0104
 1889SOL    HW217301   4.546   3.916  17.065 -1.1476 -2.2412 -0.4866
 1890SOL     OW17302   4.015   2.907  17.674  0.2799  0.3435  0.0780
 1890SOL    HW117303   4.070   2.860  17.737 -0.7525 -1.5156 -0.3978
 1890SOL    HW217304   3.960   2.955  17.736 -1.4616 -0.5862 -0.7432
 1891SOL     OW17305   4.715   3.301   1.541 -0.0049 -0.4802  0.5007
 1891SOL    HW117306   4.676   3.215   1.525 -2.2859  1.0092 -2.0001
 1891SOL    HW217307   4.702   3.347   1.458 -0.6099 -0.1576  0.7724
 1892SOL     OW17308   4.315   4.432  16.923  0.0941  0.0975 -0.1505
 1892SOL    HW117309   4.409   4.442  16.908  0.3102 -0.1713  1.0307
 1892SOL    HW217310   4.308   4.338  16.906  4.4581 -0.6055  2.1451
 1893SOL     OW17311   1.290   2.210   6.393 -0.3200  0.1084  0.5530
 1893SOL    HW117312   1.343   2.227   6.471  0.6668 -0.1789 -0.0614
 1893SOL    HW217313   1.202   2.232   6.424 -0.9156 -0.4495 -0.7314
 1894SOL     OW17314   0.580   4.398   2.630 -0.4271  0.2081 -0.3071
 1894SOL    HW117315   0.493   4.435   2.612 -0.0202  1.7280  0.8239
 1894SOL    HW217316   0.638   4.473   2.615  0.7089 -0.2525  1.7192
 1895SOL     OW17317   4.023   3.577  15.330  0.6268 -0.5500 -0.6819
 1895SOL    HW117318   4.067   3.518  15.392  0.0594 -0.8979 -0.6026
 1895SOL    HW217319   3.960   3.514  15.293  2.8030  0.2203 -5.7160
 1896SOL     OW17320   1.975   4.268   2.640  0.3084  0.6562  0.1382
 1896SOL    HW117321   2.045   4.282   2.703  0.8987 -0.1929 -0.3195
 1896SOL    HW217322   1.922   4.202   2.684 -0.7574 -0.9767 -3.5474
 1897SOL     OW17323   4.301   1.684   9.962 -0.1873  0.2727  0.1591
 1897SOL    HW117324   4.282   1.599   9.921 -0.3077  0.0783  0.6127
 1897SOL    HW217325   4.384   1.673  10.009  0.0724  1.7641  0.0599
 1898SOL     OW17326   2.796   2.231   6.951  0.2931 -0.0207 -0.0953
 1898SOL    HW117327   2.805   2.319   6.915 -0.5862  1.0964  2.4230
 1898SOL    HW217328   2.735   2.250   7.023  2.3005  1.6165  1.1768
 1899SOL     OW17329   0.422   1.242   6.266 -0.0427  0.3830  0.2603
 1899SOL    HW117330   0.336   1.208   6.243 -1.6956  2.9849  2.6998
 1899SOL    HW217331   0.439   1.210   6.355 -1.4486  0.1929  0.4543
 1900SOL     OW17332   4.225   3.244   5.005  0.2760  0.2837  0.6046
 1900SOL    HW117333   4.312   3.268   4.974 -0.3134 -0.8920 -2.0005
 1900SOL    HW217334   4.200   3.158   4.970 -1.7050  1.8077 -1.6630
 1901SOL     OW17335   1.191   2.846   7.190 -0.0194  0.5173  0.1770
 1901SOL    HW117336   1.204   2.769   7.246  0.7128 -0.2104 -0.9718
 1901SOL    HW217337   1.233   2.810   7.112  1.4577 -2.0645  2.1479
 1902SOL     OW17338   3.496   1.124  13.633  0.4105  0.4219  0.0787
 1902SOL    HW117339   3.494   1.094  13.542 -0.3252 -1.0860  0.6081
 1902SOL    HW217340   3.446   1.051  13.669 -4.0937  3.0067 -0.8981
 1903SOL     OW17341   3.505   3.461   3.106  0.1616  0.3262 -0.0053
 1903SOL    HW117342   3.438   3.501   3.162  0.7962  1.0724  0.2170
 1903SOL    HW217343   3.460   3.393   3.056 -0.0571  1.0162 -0.7259
 1904SOL     OW17344   3.927   0.537  13.516 -0.1381 -0.3165  0.2970
 1904SOL    HW117345   4.007   0.590  13.525 -0.4348  0.3273 -0.8919
 1904SOL    HW217346   3.955   0.459  13.564  0.2018 -0.0872  0.4750
 1905SOL     OW17347   0.746   4.340   4.143 -0.1752 -0.6591  0.4041
 1905SOL    HW117348   0.775   4.410   4.202 -0.1733 -1.4124  1.2913
 1905SOL    HW217349   0.791   4.264   4.178  1.3917 -0.2044 -0.6350
 1906SOL     OW17350   2.223   2.157   7.910 -0.1757  0.1239 -0.3711
 1906SOL    HW117351   2.232   2.100   7.987 -0.5775 -1.6561 -1.6514
 1906SOL    HW217352   2.168   2.225   7.949  3.2047  0.4977  3.7380
 1907SOL     OW17353   2.269   3.367   5.889  0.5095  0.4084  0.1883
 1907SOL    HW117354   2.349   3.314   5.889 -0.5065 -1.1513  3.1508
 1907SOL    HW217355   2.309   3.444   5.928  2.1097 -0.1388 -0.3725
 1908SOL     OW17356   1.432   3.442   8.885  0.3136  0.1040  0.0324
 1908SOL    HW117357   1.523   3.469   8.901 -0.8058  2.3775  2.6784
 1908SOL    HW217358   1.414   3.395   8.967 -1.0614 -1.0033 -0.9054
 1909SOL     OW17359   1.049   2.478   8.516  0.5865  0.1252  0.2076
 1909SOL    HW117360   0.969   2.519   8.483  0.1129 -0.1348  1.0462
 1909SOL    HW217361   1.028   2.392   8.552 -0.5305  0.2279 -0.1972
 1910SOL     OW17362   4.699   1.662  10.303 -0.0485 -0.2166  0.0753
 1910SOL    HW117363   0.050   1.639  10.276  0.3166  0.9411  0.2784
 1910SOL    HW217364   4.710   1.750  10.339  0.4559  0.3430 -1.4494
 1911SOL     OW17365   3.213   3.341   7.216 -0.0140 -0.1719 -0.0288
 1911SOL    HW117366   3.154   3.368   7.286  0.0471 -0.0213 -0.0349
 1911SOL    HW217367   3.291   3.395   7.226  0.9591 -1.0981 -2.5716
 1912SOL     OW17368   4.368   3.541   6.995 -0.4271 -0.3513  0.0169
 1912SOL    HW117369   4.428   3.544   7.070 -1.8138 -0.1347  1.1077
 1912SOL    HW217370   4.398   3.613   6.940 -0.2546 -0.3293  0.1390
 1913SOL     OW17371   4.713   1.646   0.742  0.0771 -0.1743  0.0680
 1913SOL    HW117372   0.062   1.610   0.729  0.4163  1.2669 -1.6170
 1913SOL    HW217373   4.688   1.633   0.834  0.4337 -3.2364 -0.2435
 1914SOL     OW17374   0.344   4.028   7.192  0.4831 -0.3109  0.2972
 1914SOL    HW117375   0.433   4.050   7.218 -0.5306  3.7314  0.2747
 1914SOL    HW217376   0.306   4.013   7.279 -1.1260  1.4322 -0.1101
 1915SOL     OW17377   0.944   3.328   0.348 -0.6119 -0.0909  0.4883
 1915SOL    HW117378   0.966   3.235   0.355  0.3860 -0.0374 -1.8795
 1915SOL    HW217379   0.872   3.313   0.408 -0.5446  0.8253  0.8039
 1916SOL     OW17380   4.276   1.318  14.221  0.2003 -0.2781  0.4648
 1916SOL    HW117381   4.320   1.399  14.246  0.5556 -0.1655 -0.5179
 1916SOL    HW217382   4.189   1.349  14.194 -0.5418 -2.0666  0.8035
 1917SOL     OW17383   1.083   2.660   3.356  0.1272 -0.4296 -0.1557
 1917SOL    HW117384   0.996   2.623   3.338  0.1052 -1.1230  1.3874
 1917SOL    HW217385   1.115   2.623   3.439  2.4738  3.1351  0.5193
 1918SOL     OW17386   2.875   1.370   7.428  0.0971  0.1339 -0.1249
 1918SOL    HW117387   2.793   1.325   7.444  0.9047 -1.1012  0.5503
 1918SOL    HW217388   2.882   1.416   7.512  0.2049 -1.0624  0.5179
 1919SOL     OW17389   1.432   4.137   6.520 -0.1387 -0.4609 -0.5335
 1919SOL    HW117390   1.451   4.206   6.583 -0.6037 -0.5535 -0.2911
 1919SOL    HW217391   1.458   4.061   6.572 -1.7877 -0.9100 -0.3741
 1920SOL     OW17392   4.406   0.486  13.257 -0.0506  0.3483  0.2260
 1920SOL    HW117393   4.498   0.458  13.263 -0.3207 -0.8375 -1.3142
 1920SOL    HW217394   4.372   0.429  13.326 -0.4832  2.2329  1.5807
 1921SOL     OW17395   4.691   0.963   6.613  0.1377  0.2365  0.2896
 1921SOL    HW117396   4.625   0.987   6.678 -0.0927  0.7410 -0.1292
 1921SOL    HW217397   4.698   0.870   6.635 -1.5322  0.1388  0.4392
 1922SOL     OW17398   3.776   0.128  10.055 -0.3522 -0.2671 -0.4278
 1922SOL    HW117399   3.797   0.221  10.048  2.0169 -0.5966  2.4247
 1922SOL    HW217400   3.719   0.115   9.979  1.3504 -1.6133 -1.4693
 1923SOL     OW17401   1.196   3.099  15.781 -0.1895 -0.2767 -0.0123
 1923SOL    HW117402   1.182   3.176  15.836  3.1538  0.1596  0.2342
 1923SOL    HW217403   1.266   3.131  15.725  1.3344 -0.7213  1.6147
 1924SOL     OW17404   0.470   1.687   6.556  0.0732  0.5020  0.0248
 1924SOL    HW117405   0.455   1.638   6.475  0.7112  0.2922  0.0338
 1924SOL    HW217406   0.564   1.683   6.577 -0.0906 -0.0934  0.6376
 1925SOL     OW17407   4.478   3.742   7.682 -0.2563  0.1709 -0.2124
 1925SOL    HW117408   4.542   3.678   7.712  0.3660  0.7736 -0.2552
 1925SOL    HW217409   4.434   3.756   7.766 -0.7407 -1.7539 -0.1409
 1926SOL     OW17410   2.137   4.263   2.831  0.6551 -0.0857  0.1549
 1926SOL    HW117411   2.127   4.296   2.920 -0.6868  0.5371 -0.2412
 1926SOL    HW217412   2.201   4.192   2.836 -0.2845 -0.9887 -0.5611
 1927SOL     OW17413   1.308   1.028  13.996 -0.4903 -0.5359  0.0368
 1927SOL    HW117414   1.320   0.973  14.073  0.1224 -1.9679 -1.0695
 1927SOL    HW217415   1.214   1.044  13.992 -0.3856 -0.1575 -1.0827
 1928SOL     OW17416   2.223   1.007  12.136  0.6546  0.4774 -0.2488
 1928SOL    HW117417   2.249   0.975  12.223 -1.3871  0.0671  0.1935
 1928SOL    HW217418   2.156   1.072  12.156 -3.2774 -3.7507  0.3568
 1929SOL     OW17419   1.321   3.524   9.725  0.7432  0.3674  0.4128
 1929SOL    HW117420   1.386   3.548   9.659 -1.2697  1.4337 -1.2004
 1929SOL    HW217421   1.338   3.430   9.732 -1.1852  0.0374  0.7290
 1930SOL     OW17422   4.628   0.715   5.325 -0.0706 -0.2339 -0.2892
 1930SOL    HW117423   4.593   0.717   5.236  0.0746  1.4216 -0.3095
 1930SOL    HW217424   4.553   0.718   5.385  0.2483  1.5262  0.0032
 1931SOL     OW17425   0.266   3.146   7.944 -0.2009 -0.0311  0.2401
 1931SOL    HW117426   0.336   3.185   7.997  0.3800 -0.4553 -0.2038
 1931SOL    HW217427   0.274   3.213   7.876  0.4663  0.2840  0.6307
 1932SOL     OW17428   1.186   2.196   3.450  0.4424  0.1580  0.2994
 1932SOL    HW117429   1.114   2.149   3.493  0.8718 -1.6530 -0.9361
 1932SOL    HW217430   1.255   2.185   3.515 -0.8499  1.1033  1.8245
 1933SOL     OW17431   3.335   0.064  16.276  0.0814 -0.3868 -0.2694
 1933SOL    HW117432   3.316   0.144  16.228 -0.2515  0.2322  0.8782
 1933SOL    HW217433   3.429   0.083  16.275  0.2979 -1.4302  0.0367
 1934SOL     OW17434   1.131   1.701   5.224  0.7756  0.5807  0.3474
 1934SOL    HW117435   1.147   1.726   5.315  0.3697  1.5976  0.1344
 1934SOL    HW217436   1.222   1.697   5.195  0.0771 -0.3390 -1.6748
 1935SOL     OW17437   2.820   2.490   8.012  0.4048  0.0603  0.1962
 1935SOL    HW117438   2.790   2.423   7.951  0.1217  0.2172  0.1640
 1935SOL    HW217439   2.879   2.539   7.955  1.0858 -0.5720  0.3634
 1936SOL     OW17440   3.230   3.763  17.292 -0.3592  0.1329 -0.0838
 1936SOL    HW117441   3.271   3.777  17.206 -2.2069 -3.0997 -1.4877
 1936SOL    HW217442   3.294   3.695  17.315  1.8730  2.1900 -0.1877
 1937SOL     OW17443   2.679   4.346  16.794  0.0164 -0.4007 -0.0873
 1937SOL    HW117444   2.717   4.430  16.820 -2.6099  1.1803 -1.3957
 1937SOL    HW217445   2.620   4.377  16.726 -0.7923 -0.4178  0.6163
 1938SOL     OW17446   0.895   2.305  12.461  0.2182  0.0298  0.7530
 1938SOL    HW117447   0.813   2.342  12.492 -0.9554  0.1007 -2.4394
 1938SOL    HW217448   0.861   2.230  12.412 -0.2966  1.1129 -0.5452
 1939SOL     OW17449   3.812   0.832   6.366  0.1798  0.0425  0.4839
 1939SOL    HW117450   3.889   0.776   6.359 -0.0562 -0.2873  0.5529
 1939SOL    HW217451   3.784   0.835   6.275 -0.2852  2.1034  0.6912
 1940SOL     OW17452   1.916   0.446  11.968 -0.0173  0.0670 -0.1490
 1940SOL    HW117453   1.967   0.454  12.048  0.6683  0.1695 -0.6021
 1940SOL    HW217454   1.942   0.357  11.946  0.8862 -0.3785  2.7118
 1941SOL     OW17455   0.463   0.283  12.782 -0.5307  0.0461 -0.0349
 1941SOL    HW117456   0.421   0.264  12.866 -2.2844  0.8254 -0.7495
 1941SOL    HW217457   0.418   0.365  12.761 -0.6134  0.4329  1.6672
 1942SOL     OW17458   1.385   1.044   6.906  0.2476 -0.0282  0.2055
 1942SOL    HW117459   1.292   1.022   6.898 -0.1812  2.2600 -1.2304
 1942SOL    HW217460   1.408   1.059   6.814 -1.9970 -0.1536 -0.3666
 1943SOL     OW17461   2.697   3.547   4.507 -0.4049 -0.6384 -0.1179
 1943SOL    HW117462   2.726   3.613   4.570 -0.7201 -0.0666 -0.5745
 1943SOL    HW217463   2.780   3.505   4.483 -0.8090 -2.2717  1.3022
 1944SOL     OW17464   0.857   3.503   1.400  0.7779  0.2926  0.2242
 1944SOL    HW117465   0.824   3.492   1.311 -0.7046  3.2124  0.3996
 1944SOL    HW217466   0.866   3.411   1.423  1.2189 -0.5088 -3.1065
 1945SOL     OW17467   2.433   4.240   3.330  0.6172 -0.6628 -0.1970
 1945SOL    HW117468   2.429   4.299   3.255  0.3647 -2.0476 -1.2728
 1945SOL    HW217469   2.439   4.155   3.288 -2.4839 -1.5820  1.1720
 1946SOL     OW17470   2.167   1.311   2.464  0.1312 -0.2029 -0.5972
 1946SOL    HW117471   2.117   1.373   2.411 -0.3766  0.1381  0.2781
 1946SOL    HW217472   2.117   1.311   2.545  2.0615  0.8904  0.5688
 1947SOL     OW17473   1.001   3.623  16.628 -0.6625  0.1269  0.1863
 1947SOL    HW117474   0.943   3.685  16.673 -0.2077  0.6517  0.0535
 1947SOL    HW217475   1.015   3.660  16.541 -0.3885 -2.0822 -0.7011
 1948SOL     OW17476   0.164   2.593   9.170  0.2487  0.2227  0.1401
 1948SOL    HW117477   0.248   2.618   9.132 -0.9385  2.1469 -1.2953
 1948SOL    HW217478   0.133   2.526   9.110  0.9249  0.7909 -0.8520
 1949SOL     OW17479   1.715   4.028   8.316 -0.4115  0.0337 -0.3735
 1949SOL    HW117480   1.778   4.062   8.379 -0.8898 -1.4215  0.8901
 1949SOL    HW217481   1.728   4.081   8.237 -1.2597 -0.0633 -0.5821
 1950SOL     OW17482   1.206   2.301   8.792  0.6521 -0.2102  0.2013
 1950SOL    HW117483   1.144   2.366   8.826  0.0492 -0.8240  0.2861
 1950SOL    HW217484   1.158   2.268   8.716 -0.6600  2.1930 -0.0041
 1951SOL     OW17485   1.391   4.660   9.231 -0.0707  0.1681  0.2449
 1951SOL    HW117486   1.409   0.016   9.239  3.9848 -0.5739  0.0277
 1951SOL    HW217487   1.308   4.653   9.277 -0.4772  0.1409 -0.4942
 1952SOL     OW17488   2.277   1.945   2.443 -0.4781 -0.2838 -0.3522
 1952SOL    HW117489   2.371   1.931   2.435 -0.0343  1.0065  2.9373
 1952SOL    HW217490   2.239   1.868   2.399 -1.8530 -0.3240  0.9235
 1953SOL     OW17491   3.669   4.485  10.165 -0.4815 -0.4119  0.0795
 1953SOL    HW117492   3.593   4.445  10.205  0.3001 -0.7813  1.1829
 1953SOL    HW217493   3.740   4.423  10.181  1.5601  1.5596 -1.0767
 1954SOL     OW17494   2.413   1.445  11.078  0.5364  0.8574  0.1099
 1954SOL    HW117495   2.493   1.491  11.054  0.5195 -0.2434 -2.0263
 1954SOL    HW217496   2.392   1.393  11.001  1.3300  2.1209 -0.9476
 1955SOL     OW17497   1.845   2.861  15.515  0.2716 -0.4932  0.6124
 1955SOL    HW117498   1.800   2.892  15.594  0.9007 -0.8867  1.1321
 1955SOL    HW217499   1.776   2.807  15.477 -0.0184  0.0950  0.3013
 1956SOL     OW17500   2.867   2.664   1.878  0.1807 -0.2157 -0.5376
 1956SOL    HW117501   2.941   2.605   1.862  0.9375  0.5761  0.0622
 1956SOL    HW217502   2.811   2.647   1.802 -0.2047 -0.4545 -0.1988
 1957SOL     OW17503   4.401   4.335   6.297 -0.0559 -0.2108 -0.2971
 1957SOL    HW117504   4.486   4.304   6.265  0.5711 -0.3051  1.4762
 1957SOL    HW217505   4.349   4.255   6.296  1.3352 -1.1403  1.4423
 1958SOL     OW17506   3.108   0.214   6.569 -0.2278  0.0542  0.4041
 1958SOL    HW117507   3.095   0.120   6.583 -0.0248  0.0425  0.5099
 1958SOL    HW217508   3.058   0.256   6.640  0.0037 -1.2496  1.3469
 1959SOL     OW17509   4.207   0.184   9.517 -0.3666 -0.2440 -0.1424
 1959SOL    HW117510   4.124   0.140   9.500  0.0476 -1.0169 -0.1602
 1959SOL    HW217511   4.178   0.261   9.566 -0.1403  0.5892 -1.3142
 1960SOL     OW17512   0.399   0.787   3.730 -0.4388  0.2932  0.0997
 1960SOL    HW117513   0.454   0.850   3.683 -0.2919  0.7567  0.8930
 1960SOL    HW217514   0.468   0.744   3.780  1.4695  1.3981 -1.5757
 1961SOL     OW17515   1.263   2.468  16.845 -0.4393 -0.0721 -0.5060
 1961SOL    HW117516   1.212   2.396  16.881  1.0597 -0.3560  1.0213
 1961SOL    HW217517   1.320   2.480  16.920 -1.4347 -1.9983  0.5650
 1962SOL     OW17518   0.112   3.861   2.914  0.4051  0.1676  0.0025
 1962SOL    HW117519   0.096   3.884   2.822 -0.0526  2.1188  0.5668
 1962SOL    HW217520   0.207   3.856   2.911  0.2305 -1.1230 -3.1115
 1963SOL     OW17521   1.884   0.495  11.001  0.2656 -0.2715  0.2484
 1963SOL    HW117522   1.905   0.502  10.908  0.7994 -0.5454  0.3499
 1963SOL    HW217523   1.813   0.431  11.002  1.8053 -1.8953  2.4229
 1964SOL     OW17524   2.568   1.295   5.280 -0.2882  0.0142 -0.9166
 1964SOL    HW117525   2.508   1.233   5.238 -2.8082  1.3930  0.6582
 1964SOL    HW217526   2.575   1.361   5.212 -0.1266 -1.4240 -2.2867
 1965SOL     OW17527   2.838   2.252  16.068  0.6007  0.1777 -0.4158
 1965SOL    HW117528   2.824   2.206  16.151  1.0077  0.7907 -0.0106
 1965SOL    HW217529   2.931   2.238  16.052  0.3147 -1.9122 -0.2332
 1966SOL     OW17530   0.004   4.726   5.869  0.1895 -0.1746  0.5730
 1966SOL    HW117531   4.681   4.652   5.859  0.3750 -0.3928  1.0604
 1966SOL    HW217532   0.063   4.714   5.795  0.5137 -0.6863  0.9126
 1967SOL     OW17533   2.493   2.822   2.183  0.0500  0.1552  0.1528
 1967SOL    HW117534   2.445   2.852   2.106  0.5198 -1.0323 -0.5886
 1967SOL    HW217535   2.567   2.778   2.142  0.5438  0.1998  0.9846
 1968SOL     OW17536   1.114   3.043   5.751  0.0299  0.2758 -0.0900
 1968SOL    HW117537   1.026   3.026   5.718  0.4264  0.4695 -1.2527
 1968SOL    HW217538   1.163   2.980   5.699 -1.9570  0.0156 -1.6433
 1969SOL     OW17539   2.004   3.739   1.209 -0.5791 -0.1433  0.8482
 1969SOL    HW117540   2.084   3.785   1.183 -0.2412 -0.8631  0.6036
 1969SOL    HW217541   1.949   3.808   1.244 -1.1795 -0.7855  1.1638
 1970SOL     OW17542   0.666   0.097   5.936  0.0149 -0.5624  0.2976
 1970SOL    HW117543   0.702   0.026   5.989 -0.4158  0.6788  2.2821
 1970SOL    HW217544   0.739   0.145   5.897  0.8471 -0.9524  1.3973
 1971SOL     OW17545   1.705   1.684   6.525  0.5273  0.0325  0.1365
 1971SOL    HW117546   1.629   1.728   6.488  1.8182  0.1831 -2.3108
 1971SOL    HW217547   1.740   1.748   6.587 -2.6624  2.4644 -0.6039
 1972SOL     OW17548   0.656   1.296   2.424  0.5376 -0.0683 -0.2698
 1972SOL    HW117549   0.625   1.206   2.413 -3.5149  1.4040 -1.0632
 1972SOL    HW217550   0.593   1.336   2.363 -1.3328 -2.6130  0.0100
 1973SOL     OW17551   1.904   0.869   2.932  0.1329  0.0864 -0.5322
 1973SOL    HW117552   1.991   0.877   2.894  0.9020 -0.3445  1.1352
 1973SOL    HW217553   1.849   0.934   2.889 -0.5546  1.2717  2.1121
 1974SOL     OW17554   2.344   3.611   4.907  0.6936  0.0702 -0.4951
 1974SOL    HW117555   2.339   3.516   4.890  0.7088 -0.0153 -0.0229
 1974SOL    HW217556   2.273   3.644   4.852 -0.7596  0.6116  1.6845
 1975SOL     OW17557   0.624   1.534   0.014 -0.2284  0.1276  0.0710
 1975SOL    HW117558   0.615   1.598  17.692 -0.0105 -0.4646 -0.4954
 1975SOL    HW217559   0.536   1.528   0.049  0.1853 -1.4902  0.8353
 1976SOL     OW17560   4.732   3.660   9.444 -0.1202  0.4101 -0.1375
 1976SOL    HW117561   0.025   3.750   9.449  0.6228  0.1600 -0.1407
 1976SOL    HW217562   0.072   3.616   9.478 -0.2679  0.5638  0.4091
 1977SOL     OW17563   0.907   2.193   4.596  0.1158 -0.0434  0.3475
 1977SOL    HW117564   0.841   2.126   4.615  0.5054 -0.8958 -1.2650
 1977SOL    HW217565   0.992   2.153   4.615  0.0981  1.5028  3.6439
 1978SOL     OW17566   3.303   4.678   8.595  0.0444  0.2113 -0.2052
 1978SOL    HW117567   3.315   4.585   8.616 -0.1966  0.1932 -0.1459
 1978SOL    HW217568   3.391   4.697   8.562  0.7475  0.0672  1.5912
 1979SOL     OW17569   2.554   1.585   6.003  0.0925  0.4882 -0.1017
 1979SOL    HW117570   2.507   1.555   6.081  1.6733 -0.3312  0.5390
 1979SOL    HW217571   2.493   1.550   5.938  0.8571  0.6265 -0.9024
 1980SOL     OW17572   2.026   1.821   0.024 -0.0317  0.1196 -0.3803
 1980SOL    HW117573   1.974   1.762   0.079  2.2370  0.8442  2.5105
 1980SOL    HW217574   1.970   1.833  17.696 -0.8381  3.1456  0.6682
 1981SOL     OW17575   2.086   1.326   5.021 -0.1539  0.2246  0.5039
 1981SOL    HW117576   2.094   1.415   5.056  0.3382  0.2925  0.2215
 1981SOL    HW217577   2.038   1.339   4.939 -0.5578  0.6078  0.8033
 1982SOL     OW17578   4.726   1.343   6.917  0.8886  0.0524  0.2225
 1982SOL    HW117579   0.014   1.367   6.828 -1.2434  0.0917 -0.3892
 1982SOL    HW217580   4.632   1.328   6.904  1.0548  0.7169 -1.7320
 1983SOL     OW17581   3.854   1.537  11.909 -0.0268  0.5812 -0.6110
 1983SOL    HW117582   3.892   1.605  11.964 -0.0567  1.1103 -1.2489
 1983SOL    HW217583   3.927   1.477  11.922 -3.0513 -2.3578  3.1076
 1984SOL     OW17584   2.286   2.348   8.651  0.1932  0.4311 -0.5276
 1984SOL    HW117585   2.245   2.326   8.567 -0.7302  0.7404 -0.1573
 1984SOL    HW217586   2.207   2.345   8.704  0.0440 -1.5871 -0.8417
 1985SOL     OW17587   2.113   0.166   7.025  0.4269 -0.2787  0.0105
 1985SOL    HW117588   2.199   0.206   7.009  0.2536 -0.2089 -0.7464
 1985SOL    HW217589   2.065   0.180   6.944  2.1723  0.8599 -0.8484
 1986SOL     OW17590   0.447   3.509   6.977 -0.3649  0.4660  0.4382
 1986SOL    HW117591   0.473   3.486   6.888  0.4545 -0.6503  0.9688
 1986SOL    HW217592   0.526   3.560   6.995 -0.6851  1.1802 -0.1972
 1987SOL     OW17593   2.718   4.425   6.365 -0.3288  0.2342  0.0315
 1987SOL    HW117594   2.740   4.486   6.294 -0.1911 -0.7884 -0.8090
 1987SOL    HW217595   2.655   4.371   6.318  0.0095  0.0974 -0.2658
 1988SOL     OW17596   0.509   1.619   8.456  0.1486  0.5579 -0.1453
 1988SOL    HW117597   0.508   1.618   8.552 -0.2711  0.9722 -0.1471
 1988SOL    HW217598   0.451   1.548   8.428  0.2058  0.5492 -0.2434
 1989SOL     OW17599   0.511   1.086   7.133 -0.0380  0.4206 -0.0003
 1989SOL    HW117600   0.475   1.010   7.087  0.1667  0.5519 -0.3833
 1989SOL    HW217601   0.452   1.097   7.207 -0.1239 -1.9055  0.2841
 1990SOL     OW17602   2.585   0.610   1.476  0.4744  0.7527 -0.0145
 1990SOL    HW117603   2.673   0.617   1.439  1.4168 -0.2771  2.0450
 1990SOL    HW217604   2.604   0.582   1.565  1.4561 -0.1021 -0.4880
 1991SOL     OW17605   0.916   1.341   6.313 -0.2799  0.4168  0.0502
 1991SOL    HW117606   0.977   1.340   6.239  0.6415 -1.5590  0.8217
 1991SOL    HW217607   0.933   1.256   6.355 -2.0297 -0.1522 -0.4159
 1992SOL     OW17608   3.955   1.673  12.190  0.1771  0.1370 -0.0619
 1992SOL    HW117609   3.985   1.586  12.163  1.0073  1.2579 -2.7502
 1992SOL    HW217610   4.029   1.695  12.247  1.6172  1.2109 -2.3257
 1993SOL     OW17611   1.194   2.407  11.836  0.2390  0.0141 -0.6771
 1993SOL    HW117612   1.103   2.390  11.862  0.0535 -0.3799 -1.5759
 1993SOL    HW217613   1.219   2.487  11.883  2.6382  0.4364 -2.6924
 1994SOL     OW17614   0.098   3.495   0.634  0.0517  0.3639 -0.0363
 1994SOL    HW117615   0.026   3.557   0.647 -0.3710 -0.5774  2.1194
 1994SOL    HW217616   0.140   3.494   0.721 -2.1231 -1.5525  0.9923
 1995SOL     OW17617   3.216   0.610   7.321 -0.0371  0.0424  0.0424
 1995SOL    HW117618   3.283   0.627   7.388  0.5774  0.2471 -0.6259
 1995SOL    HW217619   3.235   0.516   7.315 -0.5193  0.0139 -0.9641
 1996SOL     OW17620   2.157   1.844  15.826 -0.1151 -0.4005 -0.0100
 1996SOL    HW117621   2.193   1.761  15.857  0.5921 -1.1989 -2.9002
 1996SOL    HW217622   2.090   1.821  15.761  0.8026  0.6679 -1.3435
 1997SOL     OW17623   0.374   1.576   6.770 -0.1262 -0.0750  0.5203
 1997SOL    HW117624   0.415   1.492   6.791 -1.7488 -1.4683 -1.9017
 1997SOL    HW217625   0.405   1.595   6.682  0.4055 -1.0480  0.5017
 1998SOL     OW17626   4.617   4.463   8.969  0.1791  0.2612 -0.1740
 1998SOL    HW117627   4.680   4.534   8.965  0.7432 -0.2463 -0.3636
 1998SOL    HW217628   4.574   4.484   9.052 -0.5051 -0.3397 -0.3770
 1999SOL     OW17629   3.991   4.220   4.927  0.4600  0.0189 -0.4269
 1999SOL    HW117630   3.986   4.125   4.918 -2.2559  0.2833 -1.6283
 1999SOL    HW217631   3.898   4.238   4.936  0.9355  1.9199  0.7070
 2000SOL     OW17632   4.670   3.574   7.810  0.1746 -0.0264 -0.5723
 2000SOL    HW117633   4.689   3.536   7.896 -1.9565 -1.0901 -0.5712
 2000SOL    HW217634   0.018   3.583   7.770  0.2965  3.3487  0.4886
 2001SOL     OW17635   3.366   1.323   7.769 -0.7297  0.0202 -0.7507
 2001SOL    HW117636   3.400   1.397   7.719 -1.1826 -0.5401 -1.8696
 2001SOL    HW217637   3.271   1.330   7.756 -0.7189  1.9167  0.1869
 2002SOL     OW17638   4.396   0.639   9.554 -0.2842  0.2056  0.4670
 2002SOL    HW117639   4.478   0.634   9.504  1.1756 -0.8251  2.9951
 2002SOL    HW217640   4.396   0.563   9.612 -0.5515  0.4398  0.7721
 2003SOL     OW17641   1.907   0.467   0.255  0.3765  0.1565 -0.0672
 2003SOL    HW117642   1.925   0.373   0.256  2.8256  0.6207  0.8652
 2003SOL    HW217643   1.963   0.491   0.329 -0.6548 -0.9624  1.0783
 2004SOL     OW17644   4.633   2.553  17.449 -0.5939  0.2246  0.2719
 2004SOL    HW117645   4.566   2.592  17.393 -0.8666 -2.6025 -1.3675
 2004SOL    HW217646   4.712   2.594  17.413 -0.1338 -0.7045  0.2132
 2005SOL     OW17647   4.595   3.918  12.424 -0.0183 -0.2578 -0.2480
 2005SOL    HW117648   4.683   3.931  12.460 -1.1678  0.8920  2.1307
 2005SOL    HW217649   4.588   3.824  12.440 -2.0697  0.0780  0.7871
 2006SOL     OW17650   2.363   0.413   5.750  0.6935 -0.0575 -0.1382
 2006SOL    HW117651   2.371   0.354   5.675 -0.8964 -0.0217 -0.3270
 2006SOL    HW217652   2.445   0.460   5.736  0.5988  0.8495  2.2507
 2007SOL     OW17653   1.900   4.332   9.044  0.5037 -0.1020  0.1009
 2007SOL    HW117654   1.970   4.390   9.016 -0.9755  2.4800  1.8238
 2007SOL    HW217655   1.825   4.383   9.013  1.9561  2.0030  0.1093
 2008SOL     OW17656   3.912   2.746   6.654 -0.0522  0.4394 -0.1099
 2008SOL    HW117657   3.890   2.657   6.680  0.2527 -0.2959 -2.3381
 2008SOL    HW217658   3.893   2.734   6.561  0.1567 -1.7356  0.1399
 2009SOL     OW17659   3.903   2.832   1.389  0.7591 -0.9613  0.7925
 2009SOL    HW117660   3.845   2.779   1.334  0.0498  0.5292  0.1234
 2009SOL    HW217661   3.851   2.854   1.466  1.1367  0.2495  0.7026
 2010SOL     OW17662   3.928   2.445  13.916 -0.6288  0.3374  0.0456
 2010SOL    HW117663   4.007   2.426  13.866  0.5757 -0.3676  2.2408
 2010SOL    HW217664   3.967   2.514  13.970  1.1240 -1.2193  0.7475
 2011SOL     OW17665   3.093   1.797  14.783 -0.2656  0.3648  0.4349
 2011SOL    HW117666   3.150   1.739  14.833  1.5432 -0.2638 -2.3656
 2011SOL    HW217667   3.136   1.873  14.820 -0.5397  0.8868 -0.3203
 2012SOL     OW17668   3.106   2.383   8.755 -0.0946  0.2525 -0.0097
 2012SOL    HW117669   3.040   2.327   8.714  1.0663 -1.2149  0.1279
 2012SOL    HW217670   3.049   2.441   8.804  1.0852  0.6413  0.9144
 2013SOL     OW17671   1.835   1.494   6.417  0.3750 -0.3621  0.0554
 2013SOL    HW117672   1.781   1.568   6.445  0.7609  0.0717 -0.3366
 2013SOL    HW217673   1.894   1.477   6.491 -1.8362  0.0294  1.9068
 2014SOL     OW17674   0.835   0.654  12.202 -0.0644  0.0121 -0.6409
 2014SOL    HW117675   0.906   0.699  12.249 -1.8208  0.4300  1.5939
 2014SOL    HW217676   0.876   0.572  12.175 -0.7011 -0.9280  1.3175
 2015SOL     OW17677   2.615   0.832   9.217  0.5651  0.9617  0.1835
 2015SOL    HW117678   2.643   0.862   9.304  0.2038 -0.7879  0.8932
 2015SOL    HW217679   2.543   0.891   9.195  0.6374  0.8442 -0.3631
 2016SOL     OW17680   2.618   1.839   5.343 -0.2022 -0.5188  0.4282
 2016SOL    HW117681   2.690   1.782   5.317 -0.0596 -0.3632  0.4815
 2016SOL    HW217682   2.609   1.899   5.269 -0.0016 -2.3261 -1.0556
 2017SOL     OW17683   1.780   1.532   9.016  0.4012 -0.3257  0.2161
 2017SOL    HW117684   1.794   1.458   8.958 -0.0484  0.4564 -0.9035
 2017SOL    HW217685   1.705   1.502   9.067  0.0532  0.7886  0.3716
 2018SOL     OW17686   3.008   3.112   5.631 -0.1338  1.0030 -0.0448
 2018SOL    HW117687   2.997   3.205   5.613  1.4193  0.7629 -2.2274
 2018SOL    HW217688   2.926   3.072   5.601  0.5843  0.1512 -0.8902
 2019SOL     OW17689   0.216   0.002   3.008 -0.0573  0.1382 -0.4564
 2019SOL    HW117690   0.281   4.730   3.077 -1.0909  2.0001  0.7758
 2019SOL    HW217691   0.220   4.651   2.973  0.8422  0.1686 -0.4125
 2020SOL     OW17692   1.388   2.111   4.339  0.3502  0.2023  0.0958
 2020SOL    HW117693   1.396   2.190   4.285  3.2862 -1.3536 -1.7829
 2020SOL    HW217694   1.385   2.037   4.278  3.2531  0.2912 -0.1546
 2021SOL     OW17695   3.817   1.188   2.095 -0.0545 -0.2745 -0.1217
 2021SOL    HW117696   3.802   1.097   2.118  0.2601 -0.2359  0.2310
 2021SOL    HW217697   3.835   1.235   2.176 -2.2346  0.6998 -0.1987
 2022SOL     OW17698   3.379   2.193   2.881 -0.1461 -0.5214  0.1203
 2022SOL    HW117699   3.322   2.171   2.807 -1.8179 -0.4109  1.3788
 2022SOL    HW217700   3.363   2.287   2.883 -1.6722 -0.7346 -1.5578
 2023SOL     OW17701   1.549   4.411   7.371 -0.2559  0.0761  0.0247
 2023SOL    HW117702   1.509   4.365   7.298  0.4694  0.6943 -0.7577
 2023SOL    HW217703   1.552   4.497   7.330  0.8501  0.7946  1.5904
 2024SOL     OW17704   1.769   1.299   8.855  0.1863 -0.7721 -0.2849
 2024SOL    HW117705   1.762   1.212   8.895 -1.0936 -1.0494 -1.0818
 2024SOL    HW217706   1.771   1.270   8.763 -1.4104 -1.3823 -0.1215
 2025SOL     OW17707   4.015   3.675   8.436 -0.2396 -0.2128 -0.1537
 2025SOL    HW117708   4.066   3.756   8.431  0.6437 -0.7514  0.2501
 2025SOL    HW217709   3.962   3.698   8.512  2.4677  0.2426  1.6132
 2026SOL     OW17710   0.368   3.380  10.900  0.3213  0.1029 -0.0098
 2026SOL    HW117711   0.288   3.332  10.917  1.2691 -0.7870  2.0052
 2026SOL    HW217712   0.443   3.324  10.921  0.7587  0.5768 -0.3077
 2027SOL     OW17713   4.580   2.590   0.976  0.2060 -0.4270 -0.2514
 2027SOL    HW117714   4.516   2.661   0.971  2.4250  1.4765 -1.3600
 2027SOL    HW217715   4.645   2.618   1.040 -0.0492 -0.1728 -0.1045
 2028SOL     OW17716   2.833   2.017  17.490  0.3565  0.6784  0.4319
 2028SOL    HW117717   2.820   2.088  17.553  0.5728  0.2285  0.9894
 2028SOL    HW217718   2.839   2.066  17.409 -0.9720  1.0856  0.5793
 2029SOL     OW17719   1.397   4.404  17.397 -0.5727 -0.1295 -0.3890
 2029SOL    HW117720   1.304   4.411  17.421 -0.1996  2.4009  0.3545
 2029SOL    HW217721   1.428   4.488  17.432 -3.4644  0.2966  1.1636
 2030SOL     OW17722   2.452   4.296   3.062 -0.2516 -0.4535 -1.1805
 2030SOL    HW117723   2.469   4.314   2.969 -3.8436  1.4575 -1.4675
 2030SOL    HW217724   2.491   4.209   3.058 -1.3012 -0.9585 -0.2718
 2031SOL     OW17725   3.724   2.868   3.854 -0.5410  0.6492 -0.1074
 2031SOL    HW117726   3.650   2.919   3.821 -0.3812  0.0970 -1.3425
 2031SOL    HW217727   3.801   2.923   3.844 -2.0884  2.2467 -3.1573
 2032SOL     OW17728   2.434   0.804   1.368 -0.2987 -0.3860  0.2464
 2032SOL    HW117729   2.389   0.739   1.314  1.5287 -1.0603 -0.4523
 2032SOL    HW217730   2.493   0.750   1.419  0.7430  1.0279  0.5390
 2033SOL     OW17731   4.706   2.669   5.052  0.4301  0.6321 -0.0261
 2033SOL    HW117732   0.019   2.701   4.977 -1.2250  0.3043 -1.3074
 2033SOL    HW217733   0.007   2.716   5.126  2.2656  0.3000 -0.7974
 2034SOL     OW17734   2.036   1.848   7.236  0.0133  0.0283 -0.3070
 2034SOL    HW117735   2.004   1.822   7.322 -0.3017  2.3216  0.2689
 2034SOL    HW217736   2.100   1.915   7.261  1.0091 -1.2206  0.5256
 2035SOL     OW17737   0.741   2.402  11.445  0.1087  0.0570 -0.5876
 2035SOL    HW117738   0.758   2.324  11.392  0.1814  0.3247 -0.9574
 2035SOL    HW217739   0.712   2.463  11.378 -0.7050 -0.7923 -0.9978
 2036SOL     OW17740   0.541   0.364   4.541  0.2540  0.0552  0.0720
 2036SOL    HW117741   0.479   0.309   4.589 -0.3998 -0.6488 -1.5693
 2036SOL    HW217742   0.473   0.403   4.486  0.1611  0.3951  0.4310
 2037SOL     OW17743   1.107   4.585  13.761  0.4092  0.4987  0.0678
 2037SOL    HW117744   1.119   4.634  13.842  1.9716 -0.0001  0.1327
 2037SOL    HW217745   1.152   4.632  13.691  0.5879  0.5555  0.2215
 2038SOL     OW17746   3.778   1.842   5.391 -0.1839  0.8646 -0.7792
 2038SOL    HW117747   3.771   1.800   5.305 -0.7676  0.4521 -0.5348
 2038SOL    HW217748   3.690   1.816   5.418  0.6115  2.3354  3.1144
 2039SOL     OW17749   1.205   0.514   0.589  0.3857 -0.1515  0.3668
 2039SOL    HW117750   1.207   0.433   0.639 -1.3657 -0.9741 -0.9232
 2039SOL    HW217751   1.131   0.489   0.533 -0.3640  2.8159  0.0006
 2040SOL     OW17752   4.407   2.731   2.037  0.2787 -0.3206  0.1004
 2040SOL    HW117753   4.396   2.667   2.108  1.0072  0.0819  0.5654
 2040SOL    HW217754   4.501   2.725   2.024  0.2449  0.1831 -0.3596
 2041SOL     OW17755   1.441   1.924  14.919  0.2938  0.6508 -0.0702
 2041SOL    HW117756   1.536   1.931  14.932  0.0841 -1.7888  2.6676
 2041SOL    HW217757   1.435   1.954  14.828 -1.0828  0.7975  0.0747
 2042SOL     OW17758   0.121   0.889   5.770 -0.2135 -0.3503 -0.1097
 2042SOL    HW117759   0.100   0.889   5.677 -0.8009  1.4544  0.0198
 2042SOL    HW217760   0.050   0.837   5.808  1.3734 -2.4461 -0.0076
 2043SOL     OW17761   3.505   1.165   3.685 -0.0822 -0.5073  0.0976
 2043SOL    HW117762   3.522   1.074   3.665 -0.4870 -0.1032 -2.0559
 2043SOL    HW217763   3.556   1.177   3.765  1.8458 -0.7754 -1.1063
 2044SOL     OW17764   2.518   0.933   7.087 -0.6327 -0.2123  0.2043
 2044SOL    HW117765   2.556   0.939   7.175 -2.0189 -2.1640  0.9599
 2044SOL    HW217766   2.429   0.925   7.120 -0.1507 -1.8090  1.1590
 2045SOL     OW17767   2.582   4.718   4.823  1.0937  0.5795  0.5305
 2045SOL    HW117768   2.590   4.646   4.759 -0.2382 -0.0855  1.0973
 2045SOL    HW217769   2.512   0.033   4.784  1.9091 -0.4111 -2.2782
 2046SOL     OW17770   3.480   0.238   2.900  0.1717  0.9225  0.3861
 2046SOL    HW117771   3.575   0.247   2.901  0.3372 -0.8008  1.7823
 2046SOL    HW217772   3.454   0.245   2.992 -0.2623  2.3724  0.1397
 2047SOL     OW17773   0.029   3.479   9.048 -0.8766 -0.3077  0.1983
 2047SOL    HW117774   4.689   3.503   9.098 -1.1236 -1.7470  0.5103
 2047SOL    HW217775   0.007   3.492   8.956 -0.5135 -0.8400  0.0371
 2048SOL     OW17776   3.050   4.254   1.573  0.2369 -0.0959  0.2221
 2048SOL    HW117777   3.136   4.215   1.562 -0.6814 -1.3870 -2.2273
 2048SOL    HW217778   3.011   4.218   1.653  0.7016 -1.0526  0.0093
 2049SOL     OW17779   3.037   1.210   1.648 -0.0754 -0.4001  0.1432
 2049SOL    HW117780   3.013   1.292   1.693 -1.9108 -0.2757 -1.0457
 2049SOL    HW217781   2.966   1.151   1.673  1.3494 -2.8576 -1.6004
 2050SOL     OW17782   0.237   4.206   2.981 -0.1605  0.7904 -0.0335
 2050SOL    HW117783   0.319   4.195   3.028 -0.3206  2.1767  0.5950
 2050SOL    HW217784   0.194   4.142   3.038 -3.9308  0.7377 -2.9306
 2051SOL     OW17785   2.550   2.783   4.665 -0.0711  0.1282 -0.6068
 2051SOL    HW117786   2.462   2.807   4.638  0.1643 -0.1540 -1.6268
 2051SOL    HW217787   2.606   2.841   4.613  0.4740 -0.4121 -0.6328
 2052SOL     OW17788   3.461   3.812   7.340 -0.5555 -0.4604 -0.4413
 2052SOL    HW117789   3.417   3.764   7.270  0.5592 -1.0417 -0.7470
 2052SOL    HW217790   3.455   3.897   7.296 -2.0781 -0.2310  0.2140
 2053SOL     OW17791   2.812   0.359   2.732 -0.7702  0.2486 -0.3558
 2053SOL    HW117792   2.735   0.400   2.772 -0.6668  0.3205 -0.2330
 2053SOL    HW217793   2.762   0.287   2.694 -1.2700 -0.3501  1.4164
 2054SOL     OW17794   3.191   0.903   6.530 -0.0490  1.3214  0.3014
 2054SOL    HW117795   3.277   0.875   6.562 -1.5434 -2.1939  1.1120
 2054SOL    HW217796   3.135   0.929   6.603 -1.3827  1.6048 -0.8290
 2055SOL     OW17797   2.515   0.459   7.225  0.4913  0.2939  0.0725
 2055SOL    HW117798   2.427   0.478   7.257 -0.5012 -0.2380 -2.2971
 2055SOL    HW217799   2.550   0.404   7.295 -0.7059  1.0264  1.2489
 2056SOL     OW17800   1.628   4.110   4.956 -0.1073  0.9157  0.5813
 2056SOL    HW117801   1.692   4.182   4.950  1.9049 -0.6260  3.5073
 2056SOL    HW217802   1.671   4.052   4.893 -1.3319  1.6199 -0.8991
 2057SOL     OW17803   4.320   3.661  14.965 -0.0002 -0.8419  0.4535
 2057SOL    HW117804   4.274   3.577  14.965 -0.3190 -0.6490  2.1352
 2057SOL    HW217805   4.270   3.707  15.032 -0.0068 -1.9339  1.2012
 2058SOL     OW17806   1.376   1.267   3.975  0.1448 -0.1016 -0.4041
 2058SOL    HW117807   1.381   1.356   4.009 -1.5608  0.4697 -1.6824
 2058SOL    HW217808   1.288   1.274   3.939 -0.7854 -3.0300  1.3152
 2059SOL     OW17809   3.863   2.435   4.022 -0.8584  0.0786  0.1086
 2059SOL    HW117810   3.835   2.525   4.041 -0.7620  0.4540 -1.4981
 2059SOL    HW217811   3.791   2.383   4.058 -0.1092 -2.6046 -2.2928
 2060SOL     OW17812   0.235   1.236   4.161 -0.2421 -0.1453 -0.1115
 2060SOL    HW117813   0.194   1.300   4.103  0.9877  0.8581  0.1072
 2060SOL    HW217814   0.306   1.287   4.200  0.5673 -2.9068  1.9621
 2061SOL     OW17815   4.499   1.007   6.830 -0.4606  0.4464 -0.5046
 2061SOL    HW117816   4.408   0.979   6.838 -1.2248  2.2898 -2.8597
 2061SOL    HW217817   4.531   0.988   6.918  0.9220  0.3014 -1.0356
 2062SOL     OW17818   4.539   1.363  11.722  0.0545 -0.0241  0.1876
 2062SOL    HW117819   4.594   1.288  11.701  1.2982  0.6911  0.8813
 2062SOL    HW217820   4.559   1.383  11.814 -2.5933 -1.9276  1.2127
 2063SOL     OW17821   4.687   0.223   5.231  0.4109  0.0874  0.3788
 2063SOL    HW117822   4.685   0.187   5.319 -0.5874  1.2953  0.8392
 2063SOL    HW217823   4.601   0.264   5.222  1.0643  0.8793 -2.4253
 2064SOL     OW17824   1.384   2.964   0.415  0.2051  0.7622  0.2064
 2064SOL    HW117825   1.388   3.033   0.482 -1.2431  0.5770  0.5020
 2064SOL    HW217826   1.462   2.911   0.431 -0.3102 -0.4758 -1.4139
 2065SOL     OW17827   2.166   4.005  15.656 -0.4690  0.2503 -0.0602
 2065SOL    HW117828   2.215   4.083  15.629  0.0266  0.7370  2.2804
 2065SOL    HW217829   2.164   3.965  15.569 -1.5296  2.7334 -1.1927
 2066SOL     OW17830   3.899   1.510   3.979  0.6567 -0.5168  0.0268
 2066SOL    HW117831   3.885   1.418   4.000  1.0347 -1.1023 -2.3170
 2066SOL    HW217832   3.926   1.511   3.887  1.8322 -2.0327  0.3531
 2067SOL     OW17833   0.329   2.374   1.804 -0.2606  0.0750  0.0058
 2067SOL    HW117834   0.270   2.313   1.760  3.0753 -1.0000 -2.9844
 2067SOL    HW217835   0.379   2.300   1.839  0.4222 -0.5438 -2.2833
 2068SOL     OW17836   0.667   1.437   2.041  0.1326  0.4265  0.2966
 2068SOL    HW117837   0.599   1.470   2.100  0.6020  0.9313  0.5503
 2068SOL    HW217838   0.690   1.348   2.068 -1.4333 -0.1021 -0.1120
 2069SOL     OW17839   1.986   0.494   8.525 -0.7937  0.0659  0.5219
 2069SOL    HW117840   2.071   0.480   8.565  0.8242 -2.2089 -3.6880
 2069SOL    HW217841   2.017   0.520   8.438  0.2113  0.0430  0.8732
 2070SOL     OW17842   4.310   4.576   0.719  0.4465  0.1232  0.3612
 2070SOL    HW117843   4.282   4.664   0.744  0.8613  0.5608 -0.7112
 2070SOL    HW217844   4.302   4.587   0.624  3.3120  0.6155  0.1570
 2071SOL     OW17845   0.194   3.355   1.266 -0.1848  0.3066 -0.1910
 2071SOL    HW117846   0.125   3.289   1.256  1.6270 -1.3551 -1.8991
 2071SOL    HW217847   0.249   3.311   1.331  0.4185  0.4135 -0.6295
 2072SOL     OW17848   2.637   0.762  13.033  0.1503  0.1552  0.5007
 2072SOL    HW117849   2.683   0.734  13.112  0.2506 -0.3567  0.2615
 2072SOL    HW217850   2.555   0.713  13.046 -0.1078 -0.1525 -2.1883
 2073SOL     OW17851   1.510   3.933   7.091  0.2012  0.0821 -0.5818
 2073SOL    HW117852   1.558   3.982   7.158  0.0559 -2.4600  1.3455
 2073SOL    HW217853   1.437   3.892   7.137  1.1239 -2.3311 -1.2527
 2074SOL     OW17854   0.890   1.438  10.747 -0.2189  0.4888  0.0804
 2074SOL    HW117855   0.894   1.402  10.836  2.0272 -1.5930 -0.8508
 2074SOL    HW217856   0.875   1.530  10.767  1.4151  0.6355  0.6202
 2075SOL     OW17857   2.480   2.326   8.979  0.3033 -0.3969  1.0136
 2075SOL    HW117858   2.446   2.243   9.013 -0.9233 -1.1085 -1.9472
 2075SOL    HW217859   2.399   2.376   8.982  2.0128  2.4115 -0.3818
 2076SOL     OW17860   0.486   2.362  13.899 -1.1216  0.0570  0.1406
 2076SOL    HW117861   0.470   2.332  13.989  1.7228 -1.1975  0.2287
 2076SOL    HW217862   0.411   2.421  13.892 -0.1681  1.2786  0.0555
 2077SOL     OW17863   2.305   3.175  13.686 -0.1088  0.5530  0.2680
 2077SOL    HW117864   2.311   3.196  13.779  0.1903  1.5137  0.0258
 2077SOL    HW217865   2.212   3.153  13.675  0.2750 -1.8263  1.8067
 2078SOL     OW17866   0.629   3.311  13.902  0.0684  0.3239 -0.2674
 2078SOL    HW117867   0.717   3.312  13.941 -0.7414  0.1509  1.5614
 2078SOL    HW217868   0.568   3.272  13.965  3.1604 -1.1415  1.8490
 2079SOL     OW17869   3.709   2.727   4.810  0.0320  0.1443  0.2039
 2079SOL    HW117870   3.772   2.656   4.798  0.6908  0.5010  1.5635
 2079SOL    HW217871   3.762   2.792   4.856 -1.4870  1.4731  0.0723
 2080SOL     OW17872   3.993   4.244   9.376 -0.3169  0.1314 -0.6122
 2080SOL    HW117873   4.008   4.210   9.288  1.4861 -1.6294  0.3840
 2080SOL    HW217874   4.076   4.261   9.420 -0.7778  1.0470 -0.0803
 2081SOL     OW17875   3.319   2.344   8.243 -0.1005 -0.4298  0.7286
 2081SOL    HW117876   3.335   2.366   8.152 -3.1160 -1.0529  0.0416
 2081SOL    HW217877   3.249   2.281   8.229 -1.3095  0.9718  0.4977
 2082SOL     OW17878   1.132   3.111  13.640 -0.0343  0.0917 -0.1780
 2082SOL    HW117879   1.183   3.192  13.644 -0.7598  0.5902 -0.9458
 2082SOL    HW217880   1.200   3.043  13.647  1.2938  1.4933  0.6439
 2083SOL     OW17881   1.046   4.240  12.266 -0.0295 -0.1946 -0.2774
 2083SOL    HW117882   1.018   4.327  12.296 -0.4290  0.1182 -1.5629
 2083SOL    HW217883   0.985   4.182  12.310  0.5083  0.1057  0.8552
 2084SOL     OW17884   4.464   4.108   2.170 -0.3061  0.6412 -0.2957
 2084SOL    HW117885   4.497   4.194   2.197  1.2523  0.2285 -0.9002
 2084SOL    HW217886   4.374   4.131   2.147 -0.2466  0.6030 -0.5584
 2085SOL     OW17887   3.672   4.393  12.356  0.3186 -0.1299  0.2033
 2085SOL    HW117888   3.610   4.431  12.294  1.8869  0.4649 -1.0311
 2085SOL    HW217889   3.624   4.403  12.438 -0.7013 -0.3516 -0.3729
 2086SOL     OW17890   2.591   0.244   2.044 -0.0007 -0.0788 -0.5997
 2086SOL    HW117891   2.516   0.213   2.094  0.7739 -2.6024 -0.9973
 2086SOL    HW217892   2.575   0.338   2.058 -1.6649 -0.4745  0.1687
 2087SOL     OW17893   0.851   2.563   3.309 -0.0989  0.3756 -0.4307
 2087SOL    HW117894   0.843   2.510   3.389 -0.4205 -2.1605 -2.1459
 2087SOL    HW217895   0.873   2.497   3.243  0.7860 -0.8308  1.0702
 2088SOL     OW17896   1.288   0.855   4.974 -0.0176  0.1705 -0.1219
 2088SOL    HW117897   1.239   0.897   4.903  1.0884 -0.8840 -1.5184
 2088SOL    HW217898   1.355   0.810   4.921  0.6582 -2.2167  2.8078
 2089SOL     OW17899   3.763   3.280   2.543  0.4803  0.0232 -0.5670
 2089SOL    HW117900   3.844   3.283   2.493  0.3196  1.7887 -0.7390
 2089SOL    HW217901   3.702   3.316   2.479 -0.2632  1.3091  0.8332
 2090SOL     OW17902   3.755   0.582  10.445 -0.1278  0.3433 -0.1985
 2090SOL    HW117903   3.710   0.564  10.527 -1.4331  0.3245 -0.9247
 2090SOL    HW217904   3.846   0.596  10.472 -0.1903  1.9284 -0.8069
 2091SOL     OW17905   1.789   1.646   9.327 -0.0295  0.2388 -0.0975
 2091SOL    HW117906   1.731   1.583   9.285  0.1229  0.5187 -0.7349
 2091SOL    HW217907   1.858   1.587   9.357 -0.5428 -0.0190  0.5691
 2092SOL     OW17908   1.192   0.313  15.282  0.1706 -0.2332 -0.0965
 2092SOL    HW117909   1.163   0.383  15.341  1.2371  0.5461 -0.4987
 2092SOL    HW217910   1.157   0.227  15.308 -1.7681 -0.4789 -3.4222
 2093SOL     OW17911   0.717   0.605  11.423 -0.5749 -0.5729  0.1460
 2093SOL    HW117912   0.700   0.649  11.340 -0.3850 -3.0052 -1.2084
 2093SOL    HW217913   0.782   0.538  11.403 -1.0413 -0.5342 -1.5264
 2094SOL     OW17914   3.729   3.100   6.376 -0.3127  0.3244  0.0105
 2094SOL    HW117915   3.736   3.049   6.457 -0.9490 -0.1105 -0.2037
 2094SOL    HW217916   3.670   3.166   6.414 -2.7054 -2.2037  0.7335
 2095SOL     OW17917   2.594   1.818   8.288  0.2608  0.3658  0.2685
 2095SOL    HW117918   2.628   1.762   8.218 -2.0339  0.0073 -0.5573
 2095SOL    HW217919   2.678   1.830   8.333  1.3791 -2.3457 -1.0760
 2096SOL     OW17920   0.861   2.752   5.740 -0.1817  0.4917 -0.2044
 2096SOL    HW117921   0.830   2.737   5.650 -1.2765 -1.1791  0.4560
 2096SOL    HW217922   0.942   2.701   5.729  1.2934  2.1405  2.9668
 2097SOL     OW17923   3.916   1.580  15.273 -0.4635 -0.3427  0.8321
 2097SOL    HW117924   3.841   1.545  15.322 -1.4472 -0.4610 -0.7540
 2097SOL    HW217925   3.908   1.530  15.192 -0.0304 -0.9547  1.1714
 2098SOL     OW17926   2.869   0.724   6.168 -0.5802 -0.4054 -0.2163
 2098SOL    HW117927   2.831   0.700   6.253 -0.2938  0.6397  0.2095
 2098SOL    HW217928   2.887   0.636   6.134  1.8946  0.2315 -0.5379
 2099SOL     OW17929   2.957   3.280   2.515 -0.8229 -0.1398  0.3282
 2099SOL    HW117930   2.888   3.223   2.479 -1.5721  1.1302 -0.2420
 2099SOL    HW217931   3.025   3.239   2.461  1.0395  2.4069  0.7342
 2100SOL     OW17932   2.954   3.726   0.833 -0.4331  0.6282 -0.2969
 2100SOL    HW117933   3.021   3.660   0.819  0.4799  1.3504  0.6055
 2100SOL    HW217934   2.902   3.683   0.902  2.4800  0.0336  1.5241
 2101SOL     OW17935   4.595   1.880  17.011 -0.2154 -0.3118  0.2439
 2101SOL    HW117936   4.544   1.961  17.021 -1.3273 -0.9999  0.1270
 2101SOL    HW217937   4.664   1.911  17.070 -0.5010 -0.0788  0.4608
 2102SOL     OW17938   2.357   0.166   4.666  0.3118  0.3327 -0.7161
 2102SOL    HW117939   2.284   0.216   4.628 -0.4052  1.1363  1.7084
 2102SOL    HW217940   2.390   0.215   4.742  0.0603 -0.5847 -0.0165
 2103SOL     OW17941   4.492   0.766   0.359 -0.5649 -0.4162  0.1656
 2103SOL    HW117942   4.504   0.689   0.304  3.5476  1.3572 -1.3945
 2103SOL    HW217943   4.476   0.841   0.300 -2.8926 -0.4869  0.7041
 2104SOL     OW17944   0.353   2.003   5.028 -0.1789  0.4280 -0.0198
 2104SOL    HW117945   0.396   1.941   5.088 -0.4873 -0.6151 -0.8783
 2104SOL    HW217946   0.353   1.945   4.951  0.6078  0.7281 -0.2495
 2105SOL     OW17947   3.025   3.860   5.459  0.4978 -0.4734 -0.3647
 2105SOL    HW117948   2.948   3.812   5.487  0.6382 -0.0175  0.7819
 2105SOL    HW217949   2.993   3.931   5.403  3.9042  0.7091 -0.8145
 2106SOL     OW17950   0.432   1.232  17.680  0.3547 -0.8252 -0.3964
 2106SOL    HW117951   0.423   1.160  17.618  1.4786 -1.3643  0.0641
 2106SOL    HW217952   0.394   1.299  17.622  2.8476 -0.2837 -1.4005
 2107SOL     OW17953   0.384   1.326  17.173  0.1057 -0.1493 -0.9824
 2107SOL    HW117954   0.453   1.340  17.108  0.4485 -0.3056 -0.6498
 2107SOL    HW217955   0.343   1.243  17.151 -2.3999  0.6296  0.6578
 2108SOL     OW17956   4.652   0.506  11.691 -0.0445  0.1077 -0.4018
 2108SOL    HW117957   4.665   0.415  11.664  0.2676  0.1889 -0.5204
 2108SOL    HW217958   4.725   0.556  11.654 -0.7469  1.3246 -0.1519
 2109SOL     OW17959   4.103   0.452  12.537 -0.0374 -0.1715  0.1658
 2109SOL    HW117960   4.061   0.466  12.452  0.0139 -3.9055 -0.4538
 2109SOL    HW217961   4.165   0.525  12.529 -1.0477  0.6359 -0.2820
 2110SOL     OW17962   0.605   0.733   4.146 -0.2882  0.3074 -0.0552
 2110SOL    HW117963   0.691   0.718   4.185 -0.9595 -0.4752  1.1241
 2110SOL    HW217964   0.592   0.828   4.140 -0.5783  0.2591 -0.2119
 2111SOL     OW17965   0.877   4.538  16.515 -0.0729 -0.1040 -0.4378
 2111SOL    HW117966   0.798   4.486  16.506 -0.4789  0.4142  0.2099
 2111SOL    HW217967   0.892   4.543  16.420  1.9687  1.2788 -0.0436
 2112SOL     OW17968   3.839   0.312   2.561 -0.1775 -0.2299 -0.3653
 2112SOL    HW117969   3.933   0.321   2.546 -0.0907  0.9683  0.8558
 2112SOL    HW217970   3.815   0.257   2.486  0.8303 -1.2110  0.0349
 2113SOL     OW17971   0.583   4.666   6.274 -0.0670  0.6944  0.8352
 2113SOL    HW117972   0.589   0.017   6.309  1.6130  0.1905  1.8441
 2113SOL    HW217973   0.659   4.618   6.306 -1.2041 -0.7162  1.4692
 2114SOL     OW17974   3.602   2.526   9.204 -0.4937  0.3283 -0.0865
 2114SOL    HW117975   3.543   2.574   9.263 -1.9456  0.2548 -1.4762
 2114SOL    HW217976   3.587   2.433   9.220 -0.8026  0.0472 -2.0641
 2115SOL     OW17977   1.396   1.812   6.848  0.1751 -0.2914  0.2054
 2115SOL    HW117978   1.399   1.881   6.782  0.0471 -1.0147 -0.5637
 2115SOL    HW217979   1.427   1.858   6.926  2.9503 -0.7044 -0.6210
 2116SOL     OW17980   4.331   3.036   8.567 -0.9554  0.4600 -0.0463
 2116SOL    HW117981   4.418   3.075   8.575  0.7194 -3.3867  0.7696
 2116SOL    HW217982   4.284   3.108   8.608  1.4976  0.9793  1.8307
 2117SOL     OW17983   2.415   2.991   2.517 -0.2191 -0.2734 -0.4566
 2117SOL    HW117984   2.475   2.998   2.443 -1.2049 -0.0278 -1.2343
 2117SOL    HW217985   2.332   2.985   2.468  0.1977  1.7755 -1.3841
 2118SOL     OW17986   3.629   1.194   1.906 -0.6993 -0.4513  0.2046
 2118SOL    HW117987   3.573   1.140   1.962  0.6077 -1.7924  0.2282
 2118SOL    HW217988   3.711   1.188   1.955 -1.8700  0.6403  2.3002
 2119SOL     OW17989   3.379   4.724   3.189 -0.0964 -0.2613 -0.2406
 2119SOL    HW117990   3.365   4.694   3.279  2.6621  3.2185  1.3520
 2119SOL    HW217991   3.309   4.688   3.136 -0.9622 -0.3245  0.9441
 2120SOL     OW17992   0.190   1.635   0.205  0.2435  0.0440 -0.3652
 2120SOL    HW117993   0.276   1.639   0.248  0.8810  1.1267 -1.7105
 2120SOL    HW217994   0.234   1.632   0.119 -0.9541  1.3196 -1.0061
 2121SOL     OW17995   4.464   1.020   2.066  0.4339 -0.0726  0.1442
 2121SOL    HW117996   4.527   1.002   1.996  0.9432  2.7636 -0.1141
 2121SOL    HW217997   4.448   1.111   2.042  1.4517  0.3158  0.9445
 2122SOL     OW17998   0.295   4.058   8.830  0.0750 -0.0706  0.0153
 2122SOL    HW117999   0.363   3.998   8.862 -0.6069  0.1573  1.9299
 2122SOL    HW218000   0.313   4.132   8.889  1.8712  1.0365 -1.9476
 2123SOL     OW18001   1.305   4.714   2.418 -0.1820  0.6468 -0.0286
 2123SOL    HW118002   1.353   0.043   2.369  0.9674 -0.4024 -0.3684
 2123SOL    HW218003   1.328   0.002   2.507 -2.3647  2.1517  0.0661
 2124SOL     OW18004   4.297   1.115   5.545 -0.0536 -0.2061 -0.6253
 2124SOL    HW118005   4.261   1.027   5.545  0.4376 -0.3923  1.6912
 2124SOL    HW218006   4.267   1.132   5.456  1.1930 -1.6852 -1.3299
 2125SOL     OW18007   3.297   1.958   6.137  0.1497  0.1500 -0.3510
 2125SOL    HW118008   3.297   1.863   6.131 -1.2653  0.2042 -1.2545
 2125SOL    HW218009   3.203   1.976   6.133  0.3742  2.1401  2.8403
 2126SOL     OW18010   0.659   0.635   5.685  0.0465 -0.2514 -0.7640
 2126SOL    HW118011   0.702   0.715   5.653  0.7028 -0.4517 -0.3843
 2126SOL    HW218012   0.662   0.589   5.602  3.0766 -0.4919 -0.5540
 2127SOL     OW18013   0.873   4.642   4.083  0.0219 -0.6349  0.0839
 2127SOL    HW118014   0.822   4.723   4.083 -0.7049 -1.0881  0.3139
 2127SOL    HW218015   0.889   4.620   3.991  2.7958  1.1137  0.1693
 2128SOL     OW18016   0.369   1.655   7.322  0.3218 -0.2031  0.6437
 2128SOL    HW118017   0.452   1.608   7.309 -0.3623 -0.9883 -0.9728
 2128SOL    HW218018   0.308   1.582   7.327 -2.8081  2.3571 -0.3469
 2129SOL     OW18019   3.864   0.007   6.176  0.1792 -0.8585  0.4773
 2129SOL    HW118020   3.908   4.663   6.150 -0.8229 -0.6848 -1.7728
 2129SOL    HW218021   3.882   0.060   6.099 -1.4912  0.4082  0.9539
 2130SOL     OW18022   4.674   4.178   8.321 -0.0497  0.0044  0.2393
 2130SOL    HW118023   4.688   4.237   8.246 -0.2088 -0.0121  0.1973
 2130SOL    HW218024   4.630   4.235   8.384 -1.1437 -0.4406 -0.1362
 2131SOL     OW18025   0.481   3.298   6.192 -0.0371  0.0410  0.0499
 2131SOL    HW118026   0.461   3.269   6.103 -0.1385  1.0634 -0.2566
 2131SOL    HW218027   0.573   3.322   6.180  0.0948 -0.4072  0.1458
 2132SOL     OW18028   0.094   1.606  17.058  0.4989 -0.4086  0.0156
 2132SOL    HW118029   0.058   1.525  17.094  0.8095 -1.0938 -1.2082
 2132SOL    HW218030   0.092   1.674  17.125  0.2361  0.5140 -0.9375
 2133SOL     OW18031   2.765   3.301   0.096 -0.4398  0.4616 -0.0582
 2133SOL    HW118032   2.675   3.303   0.128 -0.2081  0.1507  0.6097
 2133SOL    HW218033   2.781   3.390   0.064  1.8711 -0.2224 -0.8380
 2134SOL     OW18034   3.894   0.219   8.544 -0.1164  0.3837 -0.2072
 2134SOL    HW118035   3.812   0.267   8.549  1.1302  2.2702  2.2032
 2134SOL    HW218036   3.882   0.144   8.603  2.7214 -0.4310 -0.6239
 2135SOL     OW18037   1.736   0.081   8.880  0.2914 -0.0315 -0.3434
 2135SOL    HW118038   1.810   0.115   8.830 -0.2471  0.5210 -0.7609
 2135SOL    HW218039   1.669   0.136   8.839  1.9866  0.7145 -2.0605
 2136SOL     OW18040   1.227   4.637  13.519  0.0179 -0.1436 -0.1178
 2136SOL    HW118041   1.182   4.657  13.436 -0.2401 -0.1476  0.0227
 2136SOL    HW218042   1.242   4.727  13.547 -0.8596 -0.0494  0.0353
 2137SOL     OW18043   1.474   3.156   0.593 -0.6192  0.1039 -0.5841
 2137SOL    HW118044   1.523   3.091   0.644  1.9178  2.7859  0.3603
 2137SOL    HW218045   1.546   3.208   0.559 -0.7367  1.5636  1.3926
 2138SOL     OW18046   2.420   2.081   9.062  0.1558  0.0728 -0.0206
 2138SOL    HW118047   2.372   2.019   9.008 -0.3653  0.4631 -0.0026
 2138SOL    HW218048   2.356   2.078   9.133  0.0663 -1.7658 -0.1924
 2139SOL     OW18049   0.587   0.994   4.075  0.3461  0.4758  0.0495
 2139SOL    HW118050   0.562   1.041   4.155  1.4420  1.8808 -0.4481
 2139SOL    HW218051   0.522   1.033   4.017  0.5533 -0.4743 -0.8067
 2140SOL     OW18052   3.213   2.130   2.656 -0.1381  0.2610  0.5817
 2140SOL    HW118053   3.225   2.040   2.625 -0.0918  0.0935  1.0937
 2140SOL    HW218054   3.176   2.168   2.576  1.4777 -1.3586 -0.9318
 2141SOL     OW18055   0.083   1.333   1.077  0.4233 -0.4230  0.2655
 2141SOL    HW118056   0.041   1.295   1.155  3.1207 -0.2041  1.8073
 2141SOL    HW218057   0.091   1.426   1.095 -0.2680 -0.3919  0.4240
 2142SOL     OW18058   0.485   1.829   7.870 -0.4760 -0.1795 -0.2878
 2142SOL    HW118059   0.508   1.867   7.786 -0.3818  0.0360 -0.1614
 2142SOL    HW218060   0.552   1.870   7.924  0.1348 -2.2664  0.5571
 2143SOL     OW18061   3.551   4.282   2.976  0.0813 -0.6520  0.1812
 2143SOL    HW118062   3.506   4.242   3.051 -1.7861  0.6600 -0.2491
 2143SOL    HW218063   3.509   4.368   2.977 -3.3952 -2.3375 -1.8239
 2144SOL     OW18064   1.426   0.945  15.182 -0.4386  0.5091  0.4645
 2144SOL    HW118065   1.345   0.934  15.231 -0.1952  0.8711  0.9420
 2144SOL    HW218066   1.416   1.032  15.144 -0.7712 -0.1458 -0.9543
 2145SOL     OW18067   1.018   2.006   3.885 -0.5156 -0.3351 -0.1565
 2145SOL    HW118068   1.097   1.954   3.874  0.5637  1.2058  0.4081
 2145SOL    HW218069   1.046   2.073   3.947 -0.8542  2.0886 -2.6563
 2146SOL     OW18070   2.533   0.772   6.171 -0.3306  0.1668  0.7151
 2146SOL    HW118071   2.506   0.863   6.156 -0.0355 -0.3939 -3.3471
 2146SOL    HW218072   2.615   0.780   6.121 -0.1165  0.6218  1.1408
 2147SOL     OW18073   3.942   2.712   2.109 -0.0464  0.2193 -0.1223
 2147SOL    HW118074   4.011   2.647   2.126  0.0097  0.2661 -0.1717
 2147SOL    HW218075   3.955   2.781   2.174 -0.0766  0.4810 -0.3939
 2148SOL     OW18076   4.339   0.883   4.902 -0.8647 -0.0901  0.0376
 2148SOL    HW118077   4.420   0.875   4.853 -0.6815  2.2522 -0.0358
 2148SOL    HW218078   4.290   0.810   4.863 -3.7413  1.8972 -0.0715
 2149SOL     OW18079   3.731   3.683  12.877  0.1261  0.1175 -0.1688
 2149SOL    HW118080   3.686   3.740  12.940 -0.9676 -1.4119  0.4324
 2149SOL    HW218081   3.823   3.701  12.896 -0.4423  0.6489  2.1935
 2150SOL     OW18082   4.133   1.715   0.103  0.3241  0.2774  0.8431
 2150SOL    HW118083   4.167   1.795   0.062 -0.1679  0.8572  1.5741
 2150SOL    HW218084   4.042   1.739   0.116 -0.3439 -1.0342 -1.3625
 2151SOL     OW18085   2.502   1.064  15.083  0.1917 -0.2895 -0.1815
 2151SOL    HW118086   2.523   1.147  15.125  0.2719 -0.1682 -0.4593
 2151SOL    HW218087   2.574   1.008  15.113  0.3248 -1.2411 -2.2368
 2152SOL     OW18088   4.232   2.473  12.073 -0.5435  0.0262 -0.0207
 2152SOL    HW118089   4.253   2.471  11.980 -1.1584 -1.0739 -0.1381
 2152SOL    HW218090   4.310   2.438  12.116 -1.2109  0.9178  1.9336
 2153SOL     OW18091   1.720   0.621  13.756  0.3058 -0.1770  0.4577
 2153SOL    HW118092   1.814   0.626  13.737  0.4965  0.8114  1.6194
 2153SOL    HW218093   1.721   0.580  13.843 -0.2048 -2.1108 -0.4476
 2154SOL     OW18094   4.157   0.219   5.149 -0.2286 -0.6461  0.2590
 2154SOL    HW118095   4.125   0.134   5.177 -2.0070 -0.4511 -1.2159
 2154SOL    HW218096   4.157   0.218   5.053 -2.6341  0.1641  0.2538
 2155SOL     OW18097   3.014   2.352   2.428  0.2669 -0.8945 -0.4363
 2155SOL    HW118098   2.955   2.276   2.432 -0.4944 -0.3083 -0.4538
 2155SOL    HW218099   2.966   2.422   2.473 -0.8675 -1.7979 -0.2261
 2156SOL     OW18100   3.392   0.780   4.667 -0.5377  0.0509  0.3467
 2156SOL    HW118101   3.312   0.790   4.719 -0.7374  2.2904 -0.3965
 2156SOL    HW218102   3.435   0.856   4.708  1.6267  0.4577 -2.6713
 2157SOL     OW18103   2.348   0.554   6.268  0.2643 -0.0254 -0.4651
 2157SOL    HW118104   2.402   0.631   6.251  0.1344 -0.4874 -2.9544
 2157SOL    HW218105   2.355   0.501   6.188 -0.2040 -1.4081  0.4068
 2158SOL     OW18106   3.035   2.485   1.748 -0.0879 -0.1806  0.0935
 2158SOL    HW118107   3.022   2.399   1.788  2.0774 -0.2439  0.6568
 2158SOL    HW218108   3.027   2.472   1.654  2.3362  0.9025 -0.2565
 2159SOL     OW18109   4.701   2.162   7.541  0.5089  0.1079  0.1765
 2159SOL    HW118110   4.685   2.200   7.627 -0.4966  0.6926 -0.2602
 2159SOL    HW218111   4.728   2.233   7.483  2.6633 -0.2886  0.6883
 2160SOL     OW18112   2.930   4.442   3.805  0.4902 -0.5095 -0.0336
 2160SOL    HW118113   2.938   4.423   3.898 -2.8538  0.4858  0.4385
 2160SOL    HW218114   2.842   4.404   3.799  0.4570 -0.6177  1.1594
 2161SOL     OW18115   4.737   3.683  12.519 -0.0686 -0.7059  0.3187
 2161SOL    HW118116   0.063   3.617  12.493  0.5140  0.4939 -1.3296
 2161SOL    HW218117   0.043   3.705  12.601  2.5893 -1.5921 -0.8628
 2162SOL     OW18118   1.888   1.491   8.152 -0.1197  0.0560 -0.1432
 2162SOL    HW118119   1.939   1.440   8.215  1.0999  1.9451  0.4088
 2162SOL    HW218120   1.890   1.568   8.209 -0.1612  0.4990 -0.7365
 2163SOL     OW18121   1.613   2.205   6.004 -0.4459 -0.0112  0.4711
 2163SOL    HW118122   1.589   2.268   6.073  2.1216  1.5595 -0.1010
 2163SOL    HW218123   1.535   2.218   5.949  0.9894 -0.2109 -1.6068
 2164SOL     OW18124   2.620   0.581   2.691  0.4524 -0.0050  0.6167
 2164SOL    HW118125   2.538   0.628   2.705  0.7080  1.4293 -2.5154
 2164SOL    HW218126   2.638   0.552   2.780  2.1595 -2.5871 -0.5651
 2165SOL     OW18127   0.493   1.457  15.883 -0.3271 -0.0241 -0.2881
 2165SOL    HW118128   0.423   1.486  15.824 -0.0168  1.8744  0.2884
 2165SOL    HW218129   0.451   1.384  15.929 -0.4335  0.8034  0.9203
 2166SOL     OW18130   3.362   3.904   3.220 -0.5674 -0.0446 -0.5535
 2166SOL    HW118131   3.401   3.980   3.176 -0.4179  0.2118  0.0257
 2166SOL    HW218132   3.320   3.940   3.298 -0.5577 -1.3215  0.0388
 2167SOL     OW18133   0.658   1.848  15.684 -0.9471 -0.4500 -0.2571
 2167SOL    HW118134   0.698   1.825  15.768  0.5664  2.0219 -0.3037
 2167SOL    HW218135   0.659   1.760  15.645  0.5690  0.5151 -2.3760
 2168SOL     OW18136   2.600   0.028   9.558 -0.0254 -0.0944  0.3438
 2168SOL    HW118137   2.620   0.097   9.620  0.7791  0.4958 -0.5663
 2168SOL    HW218138   2.518   0.069   9.530  1.2223  1.2244 -1.3704
 2169SOL     OW18139   2.106   2.024  14.952  0.7012 -0.0017 -0.2064
 2169SOL    HW118140   2.175   2.068  14.902 -0.5696 -0.2164 -2.1209
 2169SOL    HW218141   2.047   2.098  14.965  0.3701 -0.5613  1.5799
 2170SOL     OW18142   3.818   3.950   2.164  0.2626  0.0497 -0.0809
 2170SOL    HW118143   3.773   3.936   2.081 -0.4803 -1.4194  0.5748
 2170SOL    HW218144   3.779   4.035   2.188  0.9396  0.0515  1.0274
 2171SOL     OW18145   2.918   3.721  15.215  0.1270 -0.3031  0.6593
 2171SOL    HW118146   2.932   3.815  15.202 -1.6540 -0.1515 -0.1898
 2171SOL    HW218147   2.824   3.713  15.200  0.1122  0.3267  0.3995
 2172SOL     OW18148   0.842   0.076   1.201 -0.0223 -0.3310 -0.1974
 2172SOL    HW118149   0.757   0.094   1.241 -0.6374 -0.8219 -1.3080
 2172SOL    HW218150   0.855   0.144   1.135 -0.4031 -1.3217 -1.2963
 2173SOL     OW18151   1.810   2.444   2.479  0.2051 -0.3140 -0.0349
 2173SOL    HW118152   1.763   2.397   2.548  1.0523  2.1832  2.2903
 2173SOL    HW218153   1.895   2.444   2.523  1.1935 -0.8434 -1.9657
 2174SOL     OW18154   4.307   1.992   0.676 -0.0193  0.0607  0.4910
 2174SOL    HW118155   4.343   2.035   0.599  0.0068 -0.0302  0.4531
 2174SOL    HW218156   4.367   1.917   0.677 -0.6064 -0.4066  1.0496
 2175SOL     OW18157   4.426   1.193   8.943  0.2148  0.2590  0.5906
 2175SOL    HW118158   4.519   1.204   8.923 -0.1299  2.6538  0.2286
 2175SOL    HW218159   4.427   1.105   8.980  1.0499 -0.2950 -0.7711
 2176SOL     OW18160   3.512   1.039   4.749 -0.1667  0.0543  0.0484
 2176SOL    HW118161   3.554   1.110   4.798 -1.2293  0.5699  0.2244
 2176SOL    HW218162   3.427   1.081   4.736  0.1022  0.8771  0.9175
 2177SOL     OW18163   4.398   0.731   5.529  0.0314 -0.1774 -0.1428
 2177SOL    HW118164   4.347   0.653   5.511 -1.3462  0.8010 -0.4707
 2177SOL    HW218165   4.326   0.793   5.521  0.8548  0.5554 -1.8440
 2178SOL     OW18166   2.807   1.843   5.058  0.2734  0.3869 -0.3684
 2178SOL    HW118167   2.860   1.840   4.978  0.0111  1.4646 -0.5855
 2178SOL    HW218168   2.737   1.785   5.027 -0.6133  0.6792  1.0953
 2179SOL     OW18169   0.414   3.104  11.052  0.0321  0.6988  0.6264
 2179SOL    HW118170   0.472   3.150  11.113  2.2086  0.5662 -1.3721
 2179SOL    HW218171   0.453   3.110  10.965 -1.3828 -1.1048 -0.1380
 2180SOL     OW18172   4.173   2.406   7.790 -0.0434  0.1338  0.4619
 2180SOL    HW118173   4.153   2.466   7.862  0.9071  0.9054  0.0822
 2180SOL    HW218174   4.168   2.469   7.718 -1.6151  0.2817  0.6989
 2181SOL     OW18175   4.354   0.272   6.257 -0.0081  0.1432 -0.0395
 2181SOL    HW118176   4.439   0.308   6.233  0.1506  1.2181  2.1430
 2181SOL    HW218177   4.368   0.194   6.204  0.3474  0.2973 -0.1758
 2182SOL     OW18178   2.819   1.429   8.857  0.1918 -0.3824  0.2339
 2182SOL    HW118179   2.910   1.404   8.839  0.4541  0.2855  0.6695
 2182SOL    HW218180   2.834   1.504   8.914  1.3940  1.0056 -1.9178
 2183SOL     OW18181   2.216   4.549   6.186 -0.4046 -0.0166 -0.1851
 2183SOL    HW118182   2.302   4.574   6.220 -1.3847  1.5229  1.1834
 2183SOL    HW218183   2.227   4.458   6.159 -0.5815  0.5681 -2.2340
 2184SOL     OW18184   0.355   1.375   5.235  0.0769  0.1341  0.4216
 2184SOL    HW118185   0.448   1.363   5.254 -0.1313 -1.2691  0.5169
 2184SOL    HW218186   0.303   1.330   5.302 -2.0833  1.9566 -0.0003
 2185SOL     OW18187   2.927   1.993   3.467  0.5589 -0.5112 -0.0100
 2185SOL    HW118188   2.922   1.940   3.388 -2.6507  1.2976 -1.0255
 2185SOL    HW218189   3.013   2.032   3.454  0.5902 -0.0405  1.6038
 2186SOL     OW18190   0.052   4.144   7.186  0.0179 -0.3397 -0.3477
 2186SOL    HW118191   4.718   4.144   7.250 -0.2158  1.4806 -0.6180
 2186SOL    HW218192   0.048   4.055   7.152  3.3417 -0.4263 -0.4797
 2187SOL     OW18193   3.839   2.434   2.019 -0.2188 -0.2685  0.3016
 2187SOL    HW118194   3.923   2.460   2.056 -0.0400  1.7983 -1.5369
 2187SOL    HW218195   3.821   2.350   2.062  2.2747 -2.3984 -2.8150
 2188SOL     OW18196   0.457   2.211   8.376 -0.1611  0.4131 -0.1572
 2188SOL    HW118197   0.534   2.177   8.332 -1.1564 -1.4526 -0.4532
 2188SOL    HW218198   0.405   2.232   8.298  1.4944  0.0409 -1.3548
 2189SOL     OW18199   1.247   1.650   2.701 -0.7732 -0.2153  0.3174
 2189SOL    HW118200   1.328   1.667   2.748 -1.7787  0.5467  1.7997
 2189SOL    HW218201   1.241   1.716   2.631 -0.6849 -1.9621 -1.3340
 2190SOL     OW18202   2.266   1.939   8.091 -0.0738 -0.4508  0.3231
 2190SOL    HW118203   2.288   1.869   8.030 -1.1191  0.5422 -1.1904
 2190SOL    HW218204   2.182   1.907   8.124  0.0449 -0.6508  0.4346
 2191SOL     OW18205   3.579   1.564   4.021 -0.0936  0.6600  0.1158
 2191SOL    HW118206   3.587   1.644   4.073 -3.6301  0.9282  0.2530
 2191SOL    HW218207   3.672   1.547   4.006 -0.5209  0.3102 -2.0370
 2192SOL     OW18208   2.217   2.637   3.826 -0.1955  0.1881  0.3192
 2192SOL    HW118209   2.135   2.593   3.808  0.8232 -1.6885  0.2255
 2192SOL    HW218210   2.268   2.561   3.852 -2.2359 -1.3534 -0.2503
 2193SOL     OW18211   1.244   0.696   1.779  0.5895  0.4963  0.3887
 2193SOL    HW118212   1.339   0.708   1.778  0.3832  2.1265  0.9162
 2193SOL    HW218213   1.235   0.642   1.857  0.2462 -1.2526 -0.8561
 2194SOL     OW18214   2.151   3.281   4.239  0.3490  0.1437  0.6678
 2194SOL    HW118215   2.113   3.368   4.250 -0.7951 -0.2810  0.0545
 2194SOL    HW218216   2.159   3.275   4.144 -0.4147 -0.2475  0.6287
 2195SOL     OW18217   3.490   1.173   2.671  0.3735  0.2415 -0.4216
 2195SOL    HW118218   3.453   1.087   2.653 -1.8278  1.7172 -3.0354
 2195SOL    HW218219   3.483   1.217   2.587  2.5260 -0.2530 -0.8405
 2196SOL     OW18220   1.638   2.715   4.696 -0.6097  0.1339  0.1843
 2196SOL    HW118221   1.715   2.658   4.704  0.0811  0.7607 -2.0792
 2196SOL    HW218222   1.651   2.766   4.777  0.1892 -0.6263  0.5335
 2197SOL     OW18223   2.407   4.033   8.661  0.2883  0.1624 -0.5155
 2197SOL    HW118224   2.336   4.027   8.597 -0.2492  1.9485 -0.0989
 2197SOL    HW218225   2.375   3.975   8.730 -0.6015  1.5363  0.2396
 2198SOL     OW18226   4.091   3.523   3.040 -0.1687 -0.0950  0.7722
 2198SOL    HW118227   4.144   3.591   3.082  1.4457 -0.0038 -1.4023
 2198SOL    HW218228   4.055   3.483   3.119  2.9503 -1.3996  1.5618
 2199SOL     OW18229   2.033   4.518  17.212  0.3781 -0.2828  0.0065
 2199SOL    HW118230   2.004   4.430  17.189 -1.3711  0.2231  0.2459
 2199SOL    HW218231   1.958   4.565  17.176  0.5249 -1.7123 -2.0901
 2200SOL     OW18232   4.389   1.778   2.472 -0.5077  0.8707  0.3796
 2200SOL    HW118233   4.388   1.683   2.486 -0.7692  0.8862  0.4646
 2200SOL    HW218234   4.387   1.809   2.563  2.4567  2.2037 -0.0102
 2201SOL     OW18235   3.640   4.433   2.233  0.5889  0.4676  0.3613
 2201SOL    HW118236   3.565   4.443   2.175  0.4253 -0.3925  0.4215
 2201SOL    HW218237   3.612   4.475   2.314 -0.6321  2.0284 -0.8638
 2202SOL     OW18238   1.455   3.612   7.112  0.5310 -0.0986  0.4609
 2202SOL    HW118239   1.404   3.681   7.154  0.3757  1.2719 -2.0035
 2202SOL    HW218240   1.424   3.609   7.022 -0.6142 -0.3614  0.8632
 2203SOL     OW18241   0.432   1.320   6.900  0.1743  0.4740 -0.2257
 2203SOL    HW118242   0.338   1.310   6.918  0.0726 -0.2588 -1.1637
 2203SOL    HW218243   0.456   1.237   6.940  2.2614  1.2438  0.1568
 2204SOL     OW18244   3.414   0.996   9.194 -0.1713 -0.0417  0.0934
 2204SOL    HW118245   3.386   0.908   9.219 -0.4748  0.3326  1.0671
 2204SOL    HW218246   3.480   0.997   9.263 -0.2012 -0.5025  0.1306
 2205SOL     OW18247   0.688   3.847   6.045 -0.6373  0.6596  0.1706
 2205SOL    HW118248   0.767   3.878   6.089  0.8212 -1.5689 -0.8649
 2205SOL    HW218249   0.701   3.891   5.961  0.2274 -2.4489 -1.3342
 2206SOL     OW18250   3.538   2.645   8.482 -0.9361  0.3747  0.4079
 2206SOL    HW118251   3.588   2.565   8.463 -0.6261  1.0972 -1.8011
 2206SOL    HW218252   3.575   2.709   8.421 -0.5215 -2.5182 -2.3375
 2207SOL     OW18253   0.702   2.542   5.809  0.8837  0.3354 -0.1906
 2207SOL    HW118254   0.722   2.635   5.796  0.9912  0.5376  1.5362
 2207SOL    HW218255   0.611   2.536   5.780  1.3155 -0.1531 -1.4888
 2208SOL     OW18256   0.307   3.483   0.187 -0.6297  0.2409 -0.2534
 2208SOL    HW118257   0.290   3.557   0.246  0.8474 -0.4208  1.0063
 2208SOL    HW218258   0.245   3.490   0.115 -1.3162 -3.8151 -0.0796
 2209SOL     OW18259   1.222   0.550  11.103  0.1134  0.2084 -0.1735
 2209SOL    HW118260   1.223   0.645  11.102  0.1735  0.2028 -0.8418
 2209SOL    HW218261   1.305   0.517  11.138  0.3728  1.2298  0.1443
 2210SOL     OW18262   2.429   0.045   4.411 -0.0630  0.4297  0.2793
 2210SOL    HW118263   2.419   0.075   4.502  1.6955  0.3400  0.5081
 2210SOL    HW218264   2.518   0.076   4.392  0.6395 -2.9075 -1.8053
 2211SOL     OW18265   3.656   2.819   6.931 -0.0335  0.2773 -0.5716
 2211SOL    HW118266   3.702   2.876   6.868  0.4329 -1.8654 -2.1847
 2211SOL    HW218267   3.730   2.771   6.967 -1.3758 -1.2032  0.2107
 2212SOL     OW18268   0.959   1.252   7.182 -0.0623  0.1943  0.5362
 2212SOL    HW118269   0.916   1.245   7.097  1.8508  1.6350 -0.5503
 2212SOL    HW218270   0.890   1.225   7.242 -1.3422  0.7229 -0.7077
 2213SOL     OW18271   4.040   3.025   8.075  0.2677 -0.7730  0.1272
 2213SOL    HW118272   3.997   3.108   8.057  0.8883 -0.1308  1.6563
 2213SOL    HW218273   4.088   3.015   7.993  1.9593 -0.6395  1.1193
 2214SOL     OW18274   2.390   1.585   7.545  0.2473  0.2475 -0.2367
 2214SOL    HW118275   2.402   1.624   7.459  1.6520  1.4576  0.4862
 2214SOL    HW218276   2.364   1.667   7.588 -0.3465  0.3252 -0.7471
 2215SOL     OW18277   0.612   4.279   3.281  0.2294 -0.2031  0.5833
 2215SOL    HW118278   0.581   4.322   3.361  2.0670  0.5442  0.9000
 2215SOL    HW218279   0.693   4.328   3.261 -0.1208 -1.2561 -3.3275
 2216SOL     OW18280   4.329   1.256  13.945  0.5784 -0.1945  0.2499
 2216SOL    HW118281   4.258   1.308  13.908  0.0186 -0.8627  0.3676
 2216SOL    HW218282   4.325   1.282  14.037  2.0720 -0.4257  0.3902
 2217SOL     OW18283   3.022   4.702  13.810 -0.4028  0.2437  0.3081
 2217SOL    HW118284   2.988   0.042  13.854 -0.4106  0.6651 -0.4523
 2217SOL    HW218285   3.099   4.688  13.866  1.0325 -1.1451 -2.0195
 2218SOL     OW18286   2.472   0.066   5.856 -0.3817 -0.3149 -0.1318
 2218SOL    HW118287   2.437   0.127   5.921 -0.2398 -0.7915  0.3898
 2218SOL    HW218288   2.463   4.715   5.890  1.1347 -0.6699 -0.6611
 2219SOL     OW18289   1.605   4.504   2.129 -0.2156  0.6165 -0.0617
 2219SOL    HW118290   1.604   4.563   2.204 -0.2611  1.1321 -0.4721
 2219SOL    HW218291   1.541   4.545   2.071 -0.4972  1.7815  1.0825
 2220SOL     OW18292   3.738   2.913   8.635 -0.0408  0.2947  0.2349
 2220SOL    HW118293   3.747   2.977   8.706 -3.6627  1.4993 -0.4137
 2220SOL    HW218294   3.818   2.864   8.655  0.7031  1.5544  0.3848
 2221SOL     OW18295   4.448   0.951   7.485  0.2697 -0.3516  0.9121
 2221SOL    HW118296   4.463   0.856   7.489  1.0185 -0.2621  0.3930
 2221SOL    HW218297   4.535   0.986   7.465  0.6545 -1.1225  1.2312
 2222SOL     OW18298   4.567   3.674  17.318 -0.1401  0.8076 -0.3476
 2222SOL    HW118299   4.540   3.728  17.244  0.6392 -1.5676 -2.3715
 2222SOL    HW218300   4.495   3.694  17.378  0.7871  1.1228  0.6690
 2223SOL     OW18301   1.785   2.238  14.185 -0.6588 -0.1942  0.5127
 2223SOL    HW118302   1.783   2.142  14.183 -1.5619 -0.1868  1.4040
 2223SOL    HW218303   1.768   2.241  14.091 -0.5003  2.7029  0.5796
 2224SOL     OW18304   4.516   3.447  17.542  0.2388 -0.3777 -0.2029
 2224SOL    HW118305   4.541   3.461  17.633  0.0491  1.0125 -0.3576
 2224SOL    HW218306   4.436   3.500  17.535  0.4372 -0.1226 -0.5384
 2225SOL     OW18307   0.245   1.054   0.377  0.1928  0.1665 -0.1678
 2225SOL    HW118308   0.322   1.090   0.422 -2.4666  0.6155  4.0108
 2225SOL    HW218309   0.186   1.117   0.418  0.7095  0.3340  0.3203
 2226SOL     OW18310   0.309   0.224  13.025  0.0733  0.3030  0.4304
 2226SOL    HW118311   0.260   0.149  13.058  0.3390 -0.5948 -1.2397
 2226SOL    HW218312   0.393   0.193  13.060 -0.0163  0.9466  1.2125
 2227SOL     OW18313   4.179   3.936   5.921  0.7933  0.1623 -0.2153
 2227SOL    HW118314   4.177   3.841   5.933  0.5046  0.4276  1.8167
 2227SOL    HW218315   4.095   3.954   5.879 -1.2435  0.0878  3.8235
 2228SOL     OW18316   2.927   2.379   7.424 -0.0542  0.0190 -0.1694
 2228SOL    HW118317   2.948   2.394   7.516  0.2373  3.6189 -0.8033
 2228SOL    HW218318   3.010   2.416   7.394 -0.3690  1.0159  0.1615
 2229SOL     OW18319   4.359   2.307  10.199 -0.2691 -0.4268  0.1469
 2229SOL    HW118320   4.387   2.227  10.243  4.7552  1.4030  0.3354
 2229SOL    HW218321   4.283   2.333  10.251 -0.5518 -0.1842 -0.3855
 2230SOL     OW18322   3.480   3.852   9.796 -0.3256 -0.2069  0.3137
 2230SOL    HW118323   3.463   3.934   9.842  2.1492  0.3163  0.2728
 2230SOL    HW218324   3.457   3.788   9.864  1.7556 -1.4107 -0.1057
 2231SOL     OW18325   0.319   4.659   5.420  0.0187 -0.2900  0.2987
 2231SOL    HW118326   0.408   4.696   5.421  0.3165 -0.8499 -3.8497
 2231SOL    HW218327   0.329   4.602   5.343 -1.1328  0.4542 -0.3962
 2232SOL     OW18328   2.520   2.838   5.810  0.0597 -0.1550  0.5003
 2232SOL    HW118329   2.439   2.827   5.860  0.5535 -0.6354  1.2020
 2232SOL    HW218330   2.575   2.903   5.854  1.0222 -1.5249  1.3255
 2233SOL     OW18331   1.102   0.285   5.582  0.2981 -0.0615  0.4912
 2233SOL    HW118332   1.132   0.223   5.649  0.2700  0.1004  0.6541
 2233SOL    HW218333   1.132   0.363   5.629 -0.2002  0.7465 -0.5241
 2234SOL     OW18334   4.527   2.910   6.964  0.1262 -0.0498  0.1275
 2234SOL    HW118335   4.436   2.923   6.935 -0.7222  0.7287  3.1209
 2234SOL    HW218336   4.533   2.871   7.051 -0.2743 -0.5232 -0.0574
 2235SOL     OW18337   0.973   1.233  14.747 -0.2929  0.0529 -0.2882
 2235SOL    HW118338   1.045   1.176  14.775 -0.2698  0.6699  0.9157
 2235SOL    HW218339   0.925   1.239  14.830 -2.3784 -3.1341 -1.2841
 2236SOL     OW18340   2.579   3.617  13.230  0.1893  0.1105 -0.4498
 2236SOL    HW118341   2.553   3.595  13.319  1.3476 -1.0530 -0.3837
 2236SOL    HW218342   2.604   3.527  13.207 -0.7391 -0.0758 -0.7343
 2237SOL     OW18343   2.319   3.598   2.425  0.0928 -0.4340 -0.3806
 2237SOL    HW118344   2.405   3.634   2.445  0.1470 -1.7004  1.7167
 2237SOL    HW218345   2.299   3.535   2.494 -1.7797 -0.3714 -0.8584
 2238SOL     OW18346   1.795   3.598   6.525  0.1808  0.5320  0.3102
 2238SOL    HW118347   1.767   3.525   6.581  0.8820  1.4281  1.8306
 2238SOL    HW218348   1.816   3.662   6.593  0.3428 -0.5926  1.3285
 2239SOL     OW18349   0.189   3.510  12.466  0.2612  0.3769  0.1449
 2239SOL    HW118350   0.257   3.544  12.524  1.2090 -2.2008  0.5501
 2239SOL    HW218351   0.248   3.475  12.399  2.3259  0.6444  1.8024
 2240SOL     OW18352   3.604   2.501  11.474 -1.0034 -0.1457  0.1468
 2240SOL    HW118353   3.681   2.473  11.424 -0.8452 -3.0340  1.9591
 2240SOL    HW218354   3.586   2.583  11.429  0.1839 -0.9195 -1.7294
 2241SOL     OW18355   2.202   1.751   9.808 -0.6055 -0.5361 -0.1464
 2241SOL    HW118356   2.162   1.754   9.721 -1.9749  1.5609  0.5394
 2241SOL    HW218357   2.284   1.793   9.781 -0.5918 -1.3000 -1.2918
 2242SOL     OW18358   3.975   4.582   5.064 -0.0657  0.4112 -0.2271
 2242SOL    HW118359   3.995   4.503   5.115 -1.5695  0.7809  0.9559
 2242SOL    HW218360   4.050   4.590   5.005  0.2647 -2.1836 -0.1591
 2243SOL     OW18361   2.088   4.701   2.784  0.3888  0.3370  0.0813
 2243SOL    HW118362   2.073   4.663   2.870  0.0287 -0.3367 -0.2746
 2243SOL    HW218363   2.038   0.042   2.800 -0.5024 -0.4106  0.9513
 2244SOL     OW18364   0.880   0.236   2.761  0.5911  0.3744 -0.4915
 2244SOL    HW118365   0.925   0.181   2.825 -0.5759 -0.9564 -0.8252
 2244SOL    HW218366   0.841   0.166   2.709  0.8262 -0.5892  0.6484
 2245SOL     OW18367   2.786   4.099   9.848 -0.0200 -0.2621  0.1415
 2245SOL    HW118368   2.763   4.026   9.792 -0.7404 -1.1041  1.5432
 2245SOL    HW218369   2.787   4.170   9.783  0.0130  0.3500  0.8043
 2246SOL     OW18370   1.438   1.224   2.389 -0.2818  0.1822 -0.0601
 2246SOL    HW118371   1.355   1.186   2.418  0.6424 -2.0583 -0.4005
 2246SOL    HW218372   1.507   1.176   2.435 -1.0761 -0.3357  0.6038
 2247SOL     OW18373   0.874   0.522   0.931  0.0055 -0.2188  0.0818
 2247SOL    HW118374   0.861   0.585   0.860 -0.5182  0.9331  1.2103
 2247SOL    HW218375   0.842   0.577   1.002 -1.4757 -1.0960  0.1076
 2248SOL     OW18376   2.254   2.235   5.218 -0.2089  0.6051 -0.3907
 2248SOL    HW118377   2.332   2.258   5.168 -0.2827  3.4026  0.7993
 2248SOL    HW218378   2.285   2.157   5.265  0.3100 -0.0492 -1.8024
 2249SOL     OW18379   2.015   4.539   1.075  0.1087  0.2652  0.2403
 2249SOL    HW118380   1.989   4.627   1.048 -0.1942  0.6452  1.7833
 2249SOL    HW218381   2.108   4.531   1.053  0.1482 -0.2396  0.5867
 2250SOL     OW18382   4.314   4.165   5.976  0.3155  0.3827  0.6957
 2250SOL    HW118383   4.403   4.133   5.990 -0.0334 -0.0827  1.8564
 2250SOL    HW218384   4.272   4.081   5.957  0.0428  0.6278  0.2259
 2251SOL     OW18385   1.680   1.666  15.103 -0.2055 -0.7153 -0.5188
 2251SOL    HW118386   1.736   1.743  15.094  0.5553 -0.8925  2.4540
 2251SOL    HW218387   1.701   1.632  15.190  0.0053  1.1078  0.1314
 2252SOL     OW18388   4.226   3.527   8.357 -0.0565  0.4513  1.0495
 2252SOL    HW118389   4.248   3.556   8.445 -1.2755  2.1871  0.7986
 2252SOL    HW218390   4.153   3.588   8.341 -0.4286 -1.1695 -3.5579
 2253SOL     OW18391   4.607   4.178   8.752  0.5893  0.3907 -0.6243
 2253SOL    HW118392   4.685   4.228   8.776 -0.0200  2.0386 -2.0316
 2253SOL    HW218393   4.635   4.119   8.683  0.1011  1.1660 -1.4826
 2254SOL     OW18394   2.071   2.549   6.110 -0.0586 -0.1689  0.4999
 2254SOL    HW118395   2.038   2.535   6.021 -0.2543  1.9045  0.2557
 2254SOL    HW218396   2.132   2.476   6.114  1.0570  0.6998 -0.6431
 2255SOL     OW18397   0.376   4.539   9.492  0.4616  0.0582  0.0114
 2255SOL    HW118398   0.469   4.524   9.510 -0.1496  1.2186  4.1589
 2255SOL    HW218399   0.341   4.450   9.493  1.5081 -0.3633 -0.3101
 2256SOL     OW18400   0.252   1.880   8.036 -0.0303 -0.0995  0.5272
 2256SOL    HW118401   0.300   1.802   8.005 -0.8329 -1.3983  2.5847
 2256SOL    HW218402   0.213   1.914   7.956  1.4847 -1.0895 -0.6473
 2257SOL     OW18403   0.411   1.045   1.931 -0.2218  0.3620  0.1754
 2257SOL    HW118404   0.333   1.101   1.927  1.4525  2.6565 -0.6024
 2257SOL    HW218405   0.467   1.059   1.855 -1.6258 -1.3217 -1.1873
 2258SOL     OW18406   3.895   0.890   6.981  0.1956  0.1879 -0.5791
 2258SOL    HW118407   3.950   0.965   7.003  1.0904 -0.4014 -0.7789
 2258SOL    HW218408   3.814   0.940   6.978 -0.2432 -0.5341 -0.7259
 2259SOL     OW18409   3.307   3.504   8.871  0.7167  0.1617 -0.4857
 2259SOL    HW118410   3.374   3.536   8.931  0.1865 -0.0385  0.2114
 2259SOL    HW218411   3.277   3.587   8.833  2.7809  0.8775 -0.5875
 2260SOL     OW18412   4.677   1.209   2.593  0.4020 -0.5714  0.0158
 2260SOL    HW118413   4.682   1.261   2.674  2.0560  0.7696 -0.9499
 2260SOL    HW218414   0.022   1.235   2.554  1.1989 -1.0345  1.3864
 2261SOL     OW18415   3.096   4.111   6.034  0.6420  0.0796  0.0925
 2261SOL    HW118416   3.114   4.153   6.118 -0.4094  0.2161  0.2404
 2261SOL    HW218417   3.116   4.174   5.965  1.4719 -1.6818 -1.2971
 2262SOL     OW18418   2.301   3.629   7.644 -0.3168 -0.5866 -0.4704
 2262SOL    HW118419   2.282   3.594   7.557  0.4712 -0.6468 -0.6170
 2262SOL    HW218420   2.276   3.721   7.635 -1.5147 -0.6926  1.8760
 2263SOL     OW18421   4.644   2.406   4.713 -0.2147  0.1766  0.0404
 2263SOL    HW118422   4.733   2.402   4.677  0.0126 -2.3498  0.8833
 2263SOL    HW218423   4.594   2.451   4.645 -1.0115  0.7934  1.0162
 2264SOL     OW18424   1.358   3.068   8.583  0.0015  0.1601 -0.2993
 2264SOL    HW118425   1.279   3.014   8.578 -0.1344  0.4897 -1.7688
 2264SOL    HW218426   1.427   3.004   8.566 -0.2183 -0.2530  0.3595
 2265SOL     OW18427   3.151   3.840  14.947  0.1747  0.5943 -0.2628
 2265SOL    HW118428   3.104   3.819  14.866  2.0786 -2.2020 -0.6334
 2265SOL    HW218429   3.079   3.874  15.000 -1.1775 -1.7839 -0.5841
 2266SOL     OW18430   1.618   1.604   7.763  0.2464 -0.0071 -0.5756
 2266SOL    HW118431   1.630   1.602   7.858 -2.3455  0.4085 -0.2295
 2266SOL    HW218432   1.704   1.568   7.740  1.9140  2.7800  1.3123
 2267SOL     OW18433   0.284   1.289   4.817  0.0106  0.2077  0.4814
 2267SOL    HW118434   0.340   1.362   4.842 -0.8727  0.7355  0.9430
 2267SOL    HW218435   0.203   1.308   4.864  0.8166  0.6490  1.6985
 2268SOL     OW18436   0.378   1.464   5.659 -0.0876  0.0951 -0.2084
 2268SOL    HW118437   0.359   1.373   5.634 -3.5522  0.8662 -0.4378
 2268SOL    HW218438   0.443   1.489   5.595 -0.1041  0.3814 -0.1135
 2269SOL     OW18439   0.517   0.180   5.464  0.3485  0.7793 -1.0757
 2269SOL    HW118440   0.430   0.220   5.469  0.1685  0.2325  0.2591
 2269SOL    HW218441   0.573   0.250   5.431  2.5901  1.2897  3.8903
 2270SOL     OW18442   4.092   2.494   8.551 -0.0246  0.7612  0.1087
 2270SOL    HW118443   4.148   2.538   8.615 -0.6300  0.6293  0.7219
 2270SOL    HW218444   4.036   2.438   8.605 -2.2491 -1.1305 -4.1635
 2271SOL     OW18445   1.570   1.123   9.883 -0.0869  0.4756 -0.3367
 2271SOL    HW118446   1.570   1.201   9.828  0.7183  0.9165  0.2849
 2271SOL    HW218447   1.520   1.158   9.956 -0.5714 -0.1355 -0.3738
 2272SOL     OW18448   3.879   0.470   4.092 -0.4214 -0.0365 -0.4795
 2272SOL    HW118449   3.830   0.538   4.137 -1.2516 -2.0644  1.6866
 2272SOL    HW218450   3.839   0.486   4.006 -1.4291 -0.2652 -0.0452
 2273SOL     OW18451   2.114   2.984  16.769  0.2917 -0.0334 -0.1464
 2273SOL    HW118452   2.077   2.901  16.739 -1.0522 -0.6499  3.2217
 2273SOL    HW218453   2.070   2.978  16.854  1.0719 -2.1323  0.0955
 2274SOL     OW18454   4.495   1.438   6.221  0.1287  0.2882  0.3870
 2274SOL    HW118455   4.521   1.401   6.305  0.1412 -1.7194 -0.4874
 2274SOL    HW218456   4.507   1.531   6.239 -0.3352  0.7316 -1.5721
 2275SOL     OW18457   1.581   3.589  15.358 -0.0127  0.1898  0.2428
 2275SOL    HW118458   1.564   3.495  15.359  1.0563  0.0145  0.7342
 2275SOL    HW218459   1.545   3.606  15.271 -0.6874 -0.7412  0.3448
 2276SOL     OW18460   3.475   2.414  17.631  0.4520 -0.1647 -0.3375
 2276SOL    HW118461   3.538   2.437  17.563 -0.2264 -0.2088 -0.9849
 2276SOL    HW218462   3.526   2.385  17.706 -0.0905  2.6630  1.1278
 2277SOL     OW18463   3.901   1.491  12.680  0.0991 -0.4391  0.0571
 2277SOL    HW118464   3.837   1.490  12.751  1.6419 -2.4847  1.4336
 2277SOL    HW218465   3.963   1.423  12.708  1.3560  0.3141 -0.8998
 2278SOL     OW18466   4.146   2.734   2.514  0.2190 -0.1129  0.6649
 2278SOL    HW118467   4.126   2.825   2.533 -0.1179  0.1416 -0.9077
 2278SOL    HW218468   4.241   2.738   2.510  0.1410  0.2742 -0.8064
 2279SOL     OW18469   2.542   3.838  13.463  0.2252  0.3363 -0.1269
 2279SOL    HW118470   2.523   3.927  13.436  0.2341  0.3797  0.0063
 2279SOL    HW218471   2.465   3.788  13.435 -0.2110 -0.1874  1.9712
 2280SOL     OW18472   3.704   1.815   8.638  0.6282 -0.2302  0.2539
 2280SOL    HW118473   3.737   1.841   8.552  2.1040 -2.4085  0.1707
 2280SOL    HW218474   3.767   1.853   8.699  1.5173 -1.8529  0.3361
 2281SOL     OW18475   3.591   3.888   6.259  0.0440  0.3665 -0.3402
 2281SOL    HW118476   3.546   3.835   6.326 -1.7110 -0.4040 -2.1269
 2281SOL    HW218477   3.682   3.868   6.278  0.2976  0.7051 -1.2066
 2282SOL     OW18478   4.139   2.198  14.014  0.0374 -0.4451 -0.0561
 2282SOL    HW118479   4.152   2.173  14.106  0.6014  2.9192  0.7574
 2282SOL    HW218480   4.052   2.159  14.016  0.4123 -1.2624  1.3931
 2283SOL     OW18481   2.714   4.401   3.285 -0.2081  0.3774 -0.5603
 2283SOL    HW118482   2.671   4.322   3.318  1.6008 -1.4580 -2.5591
 2283SOL    HW218483   2.680   4.404   3.195 -1.7791 -2.5696 -0.0526
 2284SOL     OW18484   1.902   0.396   6.595 -0.0028  0.6121 -0.0393
 2284SOL    HW118485   1.921   0.419   6.504  0.8196 -1.4374 -0.3905
 2284SOL    HW218486   1.890   0.302   6.586  1.8632 -0.1074  4.9254
 2285SOL     OW18487   4.028   1.335  14.136 -0.3874  0.1911  0.6082
 2285SOL    HW118488   4.011   1.242  14.123  0.5627  0.1510 -0.4224
 2285SOL    HW218489   3.939   1.363  14.158 -0.3077  1.4562 -0.6571
 2286SOL     OW18490   3.540   3.284   1.671  0.6953 -0.2761  0.1322
 2286SOL    HW118491   3.474   3.242   1.726  0.8188 -0.5223  0.0906
 2286SOL    HW218492   3.561   3.221   1.602 -1.1983 -1.6650  0.8054
 2287SOL     OW18493   0.937   1.199  11.666  1.3746 -0.3280  0.1951
 2287SOL    HW118494   0.871   1.199  11.736  2.4446  1.3930  1.2034
 2287SOL    HW218495   1.025   1.188  11.702  1.2816 -0.5663  0.3529
 2288SOL     OW18496   1.336   1.548   3.420  0.5986 -0.3810 -0.2724
 2288SOL    HW118497   1.292   1.549   3.504  0.9893 -0.3342 -0.0658
 2288SOL    HW218498   1.266   1.555   3.355  0.2192 -0.2537  0.1572
 2289SOL     OW18499   1.611   1.929   0.081  0.6429 -0.3880 -0.3539
 2289SOL    HW118500   1.690   1.981   0.070 -0.4626  1.4825  0.4461
 2289SOL    HW218501   1.575   1.975   0.157 -0.4039  0.0977 -1.1475
 2290SOL     OW18502   1.557   3.285   3.932  0.1489  0.0614 -0.0970
 2290SOL    HW118503   1.619   3.353   3.904 -0.3251 -0.4071 -2.2984
 2290SOL    HW218504   1.616   3.215   3.962 -1.9812 -1.1683  1.1797
 2291SOL     OW18505   3.053   2.115   7.181  0.7381 -0.5965  0.7429
 2291SOL    HW118506   3.085   2.070   7.103 -3.5052 -2.2536 -0.0575
 2291SOL    HW218507   3.007   2.044   7.226 -0.2104 -0.9275 -0.7512
 2292SOL     OW18508   0.205   0.964   4.782  0.1117 -0.0989  0.5601
 2292SOL    HW118509   0.135   0.953   4.718  1.6439 -0.0809 -1.0972
 2292SOL    HW218510   0.282   0.947   4.728 -1.8382 -0.0850 -2.1858
 2293SOL     OW18511   0.300   4.046   1.975 -0.0940  0.0918  0.0390
 2293SOL    HW118512   0.351   3.966   1.991  1.9283  1.2293 -0.8358
 2293SOL    HW218513   0.237   4.017   1.909  2.1599 -0.7373 -1.7143
 2294SOL     OW18514   0.365   2.541   6.088 -0.4080  0.1520  0.4688
 2294SOL    HW118515   0.393   2.593   6.013 -0.3258  0.2590  0.5729
 2294SOL    HW218516   0.417   2.462   6.096  1.0320  0.9778 -0.6139
 2295SOL     OW18517   2.332   3.019   7.361 -0.4604  0.2760  0.1945
 2295SOL    HW118518   2.423   3.048   7.358 -0.8436  1.5537  1.0107
 2295SOL    HW218519   2.320   3.027   7.456 -0.7441 -2.2506  0.3958
 2296SOL     OW18520   4.717   1.709   9.273  0.4331 -0.1814 -0.2082
 2296SOL    HW118521   4.682   1.639   9.328 -1.6523  2.3655  1.6853
 2296SOL    HW218522   4.698   1.682   9.183  0.4329  2.7809 -1.0893
 2297SOL     OW18523   3.404   0.716   7.500  0.3623  0.0193  0.2882
 2297SOL    HW118524   3.473   0.660   7.463 -2.2873 -2.5623 -0.7753
 2297SOL    HW218525   3.390   0.680   7.587 -1.2951  0.6570  0.2893
 2298SOL     OW18526   2.312   3.404   2.643 -0.4161 -0.5039 -0.3718
 2298SOL    HW118527   2.320   3.470   2.713 -1.2651 -1.3262  0.5071
 2298SOL    HW218528   2.310   3.329   2.703 -1.6953  0.4593  0.8142
 2299SOL     OW18529   4.479   0.559   3.745 -0.0094 -0.3949 -0.0864
 2299SOL    HW118530   4.525   0.583   3.825 -1.5417  1.0901  0.3627
 2299SOL    HW218531   4.430   0.480   3.766  0.2454 -0.4214  0.4005
 2300SOL     OW18532   2.908   3.663   7.877  0.4058 -0.2196  0.4139
 2300SOL    HW118533   2.910   3.609   7.798  1.7758  0.1918  0.1659
 2300SOL    HW218534   2.975   3.729   7.859 -0.9608  0.8930 -0.6270
 2301SOL     OW18535   4.704   3.878   3.293 -0.4262 -0.0469  0.0182
 2301SOL    HW118536   4.702   3.782   3.293  0.5206 -0.0652 -1.3698
 2301SOL    HW218537   4.622   3.898   3.338  0.6195  0.6146  1.6478
 2302SOL     OW18538   1.875   3.794   6.731 -0.5688  0.3073  0.1939
 2302SOL    HW118539   1.884   3.888   6.716 -1.0711  0.3832  0.3782
 2302SOL    HW218540   1.807   3.803   6.798  0.4434 -1.0924  1.4063
 2303SOL     OW18541   3.621   3.801   7.606  0.8682 -0.3800  0.6026
 2303SOL    HW118542   3.597   3.844   7.524 -0.5293 -1.0417  0.6681
 2303SOL    HW218543   3.707   3.763   7.588  1.1817 -0.2416  1.7628
 2304SOL     OW18544   1.491   2.233   2.598  0.0989  0.1077 -0.2082
 2304SOL    HW118545   1.523   2.244   2.509  0.5918 -0.5978 -0.1119
 2304SOL    HW218546   1.566   2.273   2.642 -0.0095  1.0791 -0.8892
 2305SOL     OW18547   2.042   2.299   5.020 -0.0581 -0.4141  0.2383
 2305SOL    HW118548   2.125   2.327   5.059 -0.5328  0.6358  0.5066
 2305SOL    HW218549   2.004   2.387   5.017 -1.7654 -1.1675  0.3997
 2306SOL     OW18550   0.428   2.299  12.362  0.0949 -0.3488  0.2746
 2306SOL    HW118551   0.407   2.350  12.440 -2.2905 -1.4059  0.3023
 2306SOL    HW218552   0.355   2.307  12.302 -0.5520 -2.6460  0.7500
 2307SOL     OW18553   3.758   1.069   2.921  0.3742 -0.1457  0.0208
 2307SOL    HW118554   3.827   1.083   2.857 -1.6417  0.1952 -2.0553
 2307SOL    HW218555   3.782   0.976   2.931  0.2701 -0.2617 -0.7843
 2308SOL     OW18556   4.179   3.218   8.701  0.3926  0.5336 -0.1085
 2308SOL    HW118557   4.161   3.168   8.781  2.4513 -0.4008 -0.2352
 2308SOL    HW218558   4.182   3.309   8.731 -0.0456  0.1371  1.1620
 2309SOL     OW18559   3.956   3.622   4.988  0.4373  0.6360 -0.0023
 2309SOL    HW118560   4.028   3.670   4.947  0.6288  1.3521  1.1511
 2309SOL    HW218561   3.987   3.532   4.978  0.8128  0.8506 -0.7379
 2310SOL     OW18562   3.673   2.437   0.341 -0.1628  0.4149 -0.8950
 2310SOL    HW118563   3.635   2.426   0.255  1.3063  1.9916 -1.7646
 2310SOL    HW218564   3.624   2.363   0.376  3.1110 -0.6368  1.4294
 2311SOL     OW18565   2.064   4.533   2.142 -0.3639 -0.5382  0.6302
 2311SOL    HW118566   1.999   4.505   2.079 -0.8088  1.2318  0.2881
 2311SOL    HW218567   2.107   4.609   2.102  0.4807 -1.2747  0.1372
 2312SOL     OW18568   3.099   1.587   1.262 -0.1348 -0.6045 -0.3294
 2312SOL    HW118569   3.160   1.601   1.334  0.3841  0.5635 -0.9884
 2312SOL    HW218570   3.017   1.609   1.306 -0.4674 -1.1127 -0.7022
 2313SOL     OW18571   3.038   2.828   2.319 -0.2857 -0.0961  0.0657
 2313SOL    HW118572   3.119   2.797   2.279 -0.9869 -1.7714 -0.0804
 2313SOL    HW218573   3.070   2.813   2.408  2.6802 -3.1066 -1.5014
 2314SOL     OW18574   2.498   1.525  11.957  0.2139 -0.7581 -0.0928
 2314SOL    HW118575   2.485   1.474  12.038 -0.0274 -1.6991 -0.7175
 2314SOL    HW218576   2.580   1.571  11.975  0.3631 -0.2669 -2.0901
 2315SOL     OW18577   2.121   3.496   7.842 -0.0812  0.2120 -0.1633
 2315SOL    HW118578   2.188   3.530   7.783 -1.5871 -1.3162 -2.7722
 2315SOL    HW218579   2.057   3.567   7.838 -0.3852 -0.0385  0.2942
 2316SOL     OW18580   0.348   3.458   4.641 -0.1599  0.4055 -0.7926
 2316SOL    HW118581   0.325   3.365   4.652 -1.0248  0.7116  0.0280
 2316SOL    HW218582   0.426   3.458   4.697 -2.3011  1.6306  2.2057
 2317SOL     OW18583   0.718   4.228   3.743  0.1572  0.5194 -0.0731
 2317SOL    HW118584   0.787   4.283   3.781  1.5134 -0.3445 -1.2804
 2317SOL    HW218585   0.640   4.275   3.773 -0.2798  1.3242 -2.5272
 2318SOL     OW18586   3.625   3.248   5.592  0.6702 -0.0488 -0.1149
 2318SOL    HW118587   3.577   3.165   5.590  0.3956  0.1023  0.2085
 2318SOL    HW218588   3.642   3.250   5.686  2.5924 -2.1392 -0.4117
 2319SOL     OW18589   3.110   3.893   6.793  0.0459  0.4079 -1.0074
 2319SOL    HW118590   3.034   3.834   6.799 -0.0609  0.5427 -1.0257
 2319SOL    HW218591   3.148   3.865   6.710 -1.7971  0.1702 -1.7762
 2320SOL     OW18592   0.813   2.834  15.816  0.8945  0.0714  0.2181
 2320SOL    HW118593   0.766   2.898  15.762 -3.8584 -2.0667  1.8382
 2320SOL    HW218594   0.902   2.845  15.781  1.1039  0.7814  0.9781
 2321SOL     OW18595   2.380   4.681   7.890  0.3181 -0.1531  0.2641
 2321SOL    HW118596   2.422   4.606   7.931  3.2332  1.9015  1.0722
 2321SOL    HW218597   2.293   4.658   7.923 -0.9098  0.7260 -2.3534
 2322SOL     OW18598   1.752   2.688   1.913  0.3971 -0.0890  0.2432
 2322SOL    HW118599   1.730   2.666   1.823 -0.3386 -0.3184  0.4850
 2322SOL    HW218600   1.716   2.777   1.917 -0.7788 -0.5015 -1.2389
 2323SOL     OW18601   4.162   3.076  11.508  0.0400 -0.0299  0.3147
 2323SOL    HW118602   4.257   3.085  11.517 -0.1936 -0.6477  3.4353
 2323SOL    HW218603   4.138   3.037  11.592 -1.2957 -0.4211 -0.2424
 2324SOL     OW18604   0.441   0.525   4.128 -0.3599 -0.4148 -0.5902
 2324SOL    HW118605   0.360   0.577   4.135 -0.6029 -0.9530  0.5200
 2324SOL    HW218606   0.509   0.592   4.128 -1.5593  0.8082 -0.4812
 2325SOL     OW18607   1.040   4.688  13.074 -0.0581  0.4434  0.5313
 2325SOL    HW118608   1.087   4.681  13.157  0.4240  0.0838  0.2285
 2325SOL    HW218609   1.107   4.721  13.014 -0.2775 -0.5709 -0.2609
 2326SOL     OW18610   0.546   1.927   6.089  0.1866 -0.2748  0.1482
 2326SOL    HW118611   0.502   1.842   6.088 -0.9470  0.3023  1.3112
 2326SOL    HW218612   0.617   1.898   6.031  0.3386  1.6394 -0.6345
 2327SOL     OW18613   3.355   1.325  12.852 -0.2417  0.2476 -0.9385
 2327SOL    HW118614   3.292   1.375  12.905 -2.0078 -2.4061 -0.5259
 2327SOL    HW218615   3.361   1.373  12.770  0.9400  1.0708 -0.3649
 2328SOL     OW18616   2.176   2.234   0.363  0.2607 -0.3521 -0.1975
 2328SOL    HW118617   2.181   2.278   0.449  0.6876 -0.7994  0.0066
 2328SOL    HW218618   2.268   2.247   0.341  0.1706  1.4471  0.4447
 2329SOL     OW18619   4.096   0.912   6.257 -0.3180  0.4428  0.3769
 2329SOL    HW118620   4.168   0.903   6.320 -0.0843  2.0479  0.3386
 2329SOL    HW218621   4.034   0.978   6.289 -1.6751  0.2631 -1.8681
 2330SOL     OW18622   2.543   4.583   5.369 -0.1987  0.0681 -0.3639
 2330SOL    HW118623   2.455   4.592   5.406 -0.9575 -0.8460 -1.9515
 2330SOL    HW218624   2.527   4.621   5.283 -1.4004 -2.0315 -1.0691
 2331SOL     OW18625   1.370   1.605   8.430 -0.3602 -0.2856 -0.2972
 2331SOL    HW118626   1.456   1.595   8.391 -0.5387 -1.4538 -0.3900
 2331SOL    HW218627   1.327   1.522   8.407 -0.2972 -0.3351 -0.2382
 2332SOL     OW18628   2.714   2.225  10.217  0.3987  0.4898 -0.7781
 2332SOL    HW118629   2.750   2.149  10.263  0.4627 -0.2391 -2.0562
 2332SOL    HW218630   2.717   2.294  10.284  0.9384 -3.0516  2.8473
 2333SOL     OW18631   2.955   0.183   0.731 -0.3064 -0.3176  0.2211
 2333SOL    HW118632   2.941   0.277   0.723  0.6928 -0.2905 -1.1043
 2333SOL    HW218633   3.044   0.170   0.697  0.0534 -0.7349  1.3181
 2334SOL     OW18634   3.971   1.319   9.974 -0.3657 -0.0546  0.0115
 2334SOL    HW118635   3.900   1.363   9.925 -0.8346  0.9792  1.6120
 2334SOL    HW218636   3.939   1.337  10.063  0.6178 -0.5836  0.4657
 2335SOL     OW18637   1.808   0.076   2.570  0.0260  0.4819 -0.1079
 2335SOL    HW118638   1.786   0.003   2.513  0.3844  0.9641 -0.8534
 2335SOL    HW218639   1.807   0.038   2.658 -1.1611 -2.7424 -1.5324
 2336SOL     OW18640   2.012   0.028  14.770 -0.3355  0.2106 -0.3274
 2336SOL    HW118641   2.052   0.097  14.717  0.2642  0.6426  0.6934
 2336SOL    HW218642   1.924   0.064  14.768 -0.3380  0.2099 -0.2121
 2337SOL     OW18643   4.012   3.914   7.790 -0.5857  0.1223 -0.2801
 2337SOL    HW118644   4.071   3.846   7.823 -0.1563  0.3696 -0.5434
 2337SOL    HW218645   3.925   3.896   7.826 -0.3257  1.3515  0.9609
 2338SOL     OW18646   4.651   3.646  16.147  0.2466 -0.0191  0.3021
 2338SOL    HW118647   4.562   3.671  16.120 -0.6390 -1.2383  2.1094
 2338SOL    HW218648   4.706   3.710  16.102  2.2649 -1.4885  0.6916
 2339SOL     OW18649   0.575   4.611   0.016 -0.2657  0.0196 -0.4352
 2339SOL    HW118650   0.649   4.615  17.705  0.5262 -2.2207  0.3695
 2339SOL    HW218651   0.575   4.519   0.043 -0.1335 -0.1134 -0.8732
 2340SOL     OW18652   3.082   3.976  10.657  0.1277  0.0203  0.1066
 2340SOL    HW118653   3.138   3.908  10.694 -0.2586 -0.7015 -0.6248
 2340SOL    HW218654   3.008   3.956  10.715  0.3063 -1.8407 -0.2900
 2341SOL     OW18655   2.937   2.500   5.643 -0.4394 -0.3323  0.0533
 2341SOL    HW118656   2.974   2.434   5.584  0.5171  0.9892 -0.8124
 2341SOL    HW218657   2.888   2.447   5.707 -0.4265 -3.6081 -2.6330
 2342SOL     OW18658   1.638   0.989   2.397  0.8556 -0.1602  0.0253
 2342SOL    HW118659   1.577   0.963   2.328 -1.4164  4.0469  0.4593
 2342SOL    HW218660   1.592   0.968   2.479  3.0849  0.6539  1.4719
 2343SOL     OW18661   3.119   3.500  17.415  0.7181  0.0281  0.5222
 2343SOL    HW118662   3.210   3.527  17.401  0.8444 -0.1079  1.0786
 2343SOL    HW218663   3.070   3.566  17.366  2.3456 -0.2914 -1.4984
 2344SOL     OW18664   1.173   1.404   6.531 -0.5024 -0.1106  0.4391
 2344SOL    HW118665   1.255   1.376   6.491  0.4572 -0.4214  2.6041
 2344SOL    HW218666   1.208   1.459   6.601 -1.6390  1.0826  0.0787
 2345SOL     OW18667   4.075   1.614   4.489  0.1965 -0.3056 -0.0844
 2345SOL    HW118668   4.029   1.579   4.413  2.9641  1.1492 -2.4270
 2345SOL    HW218669   4.068   1.706   4.464 -0.6719 -1.2875 -3.4200
 2346SOL     OW18670   1.104   1.416   3.892 -0.5296 -0.6390 -0.0892
 2346SOL    HW118671   1.064   1.488   3.941  0.8529  0.0949 -0.0759
 2346SOL    HW218672   1.058   1.341   3.929  0.1330  0.3649  2.7459
 2347SOL     OW18673   3.976   2.394   8.921  0.3358 -0.4394 -0.2176
 2347SOL    HW118674   3.940   2.434   8.842 -2.8206 -0.7434  1.0687
 2347SOL    HW218675   4.018   2.466   8.968 -1.7695  0.0430  0.9562
 2348SOL     OW18676   1.572   1.940  12.035 -0.2213 -0.5019  0.2344
 2348SOL    HW118677   1.661   1.945  12.068 -0.3197 -0.5680  0.5146
 2348SOL    HW218678   1.552   2.033  12.031 -1.2521 -0.7146  0.2735
 2349SOL     OW18679   1.239   2.485   6.129  0.3455  0.2158  0.9227
 2349SOL    HW118680   1.254   2.511   6.220 -1.2363  0.3597  1.1442
 2349SOL    HW218681   1.198   2.399   6.136  2.1099 -0.5931  1.4947
 2350SOL     OW18682   1.616   2.246   4.440  0.4576 -0.1037  0.0986
 2350SOL    HW118683   1.572   2.164   4.414  2.6071 -1.9462  2.3535
 2350SOL    HW218684   1.601   2.248   4.534 -1.9426  1.0975 -0.3089
 2351SOL     OW18685   1.220   2.986   4.303  0.2053  0.8811 -0.0451
 2351SOL    HW118686   1.254   2.903   4.336 -1.6755  0.4750  0.8831
 2351SOL    HW218687   1.271   2.984   4.223 -1.2643  0.7206 -0.9805
 2352SOL     OW18688   2.948   0.946  15.092 -0.1033  0.4844 -0.1994
 2352SOL    HW118689   2.997   0.947  15.010  0.6755 -2.0074  0.2334
 2352SOL    HW218690   3.000   0.875  15.130 -0.9750 -1.0553 -1.9178
 2353SOL     OW18691   0.159   3.114   0.131  0.0497  0.5480 -0.3779
 2353SOL    HW118692   0.222   3.054   0.091 -0.0677 -0.8647  1.5736
 2353SOL    HW218693   0.101   3.144   0.062 -1.7715 -3.7975 -0.7248
 2354SOL     OW18694   1.708   0.584   0.144 -0.3010 -0.4744 -0.3259
 2354SOL    HW118695   1.735   0.672   0.168 -2.4372  0.4511 -1.2400
 2354SOL    HW218696   1.778   0.540   0.191  0.5010  2.2278  1.0195
 2355SOL     OW18697   1.006   3.812   3.100 -0.1310 -0.1316 -0.5618
 2355SOL    HW118698   1.045   3.764   3.027  0.5681 -0.2968 -0.0809
 2355SOL    HW218699   1.042   3.900   3.088  0.6687 -0.2020  1.3041
 2356SOL     OW18700   0.378   3.687  17.617  0.7695  0.3427  0.3130
 2356SOL    HW118701   0.326   3.721  17.690  0.9778  3.0874 -0.8200
 2356SOL    HW218702   0.354   3.760  17.560 -1.6097  0.2552  1.2293
 2357SOL     OW18703   2.834   0.340   5.588  0.1354 -0.0162  0.5122
 2357SOL    HW118704   2.902   0.272   5.590 -1.0675 -1.2590 -1.2440
 2357SOL    HW218705   2.890   0.412   5.618  1.8002 -0.6253 -1.1247
 2358SOL     OW18706   2.467   0.621   9.260  0.0739  0.1112 -0.7360
 2358SOL    HW118707   2.510   0.536   9.273  0.2276  0.4147  0.6779
 2358SOL    HW218708   2.541   0.681   9.259  0.4220 -0.3128 -0.5780
 2359SOL     OW18709   3.812   1.872   7.854 -0.0040  0.1874  0.0312
 2359SOL    HW118710   3.778   1.954   7.818 -1.5295 -0.2502  0.4694
 2359SOL    HW218711   3.735   1.820   7.829  0.7064 -0.6522 -0.3964
 2360SOL     OW18712   4.581   4.018  16.918 -0.0377 -0.7061 -0.5296
 2360SOL    HW118713   4.594   3.954  16.848  0.1565  0.2043 -1.3232
 2360SOL    HW218714   4.537   4.083  16.863  0.4395  0.6516  0.7152
 2361SOL     OW18715   2.657   0.377   8.881  0.3211  0.4850 -0.2193
 2361SOL    HW118716   2.723   0.361   8.948 -1.3688 -0.2208  1.2686
 2361SOL    HW218717   2.604   0.437   8.934 -1.1451  1.5100 -2.8395
 2362SOL     OW18718   3.127   2.248   9.535 -0.5440  0.4342  0.0919
 2362SOL    HW118719   3.194   2.312   9.509 -0.3889  0.3708  0.3368
 2362SOL    HW218720   3.051   2.288   9.492 -2.4176  0.3420  3.2764
 2363SOL     OW18721   1.731   1.142   7.221  0.6486 -0.3891  0.2735
 2363SOL    HW118722   1.671   1.075   7.186 -1.0551  0.7242  1.0538
 2363SOL    HW218723   1.690   1.222   7.189  0.7573 -1.1315 -1.7360
 2364SOL     OW18724   4.281   2.622   6.816 -0.6734 -0.0940 -0.0373
 2364SOL    HW118725   4.297   2.639   6.909 -1.6244 -0.7591  0.2550
 2364SOL    HW218726   4.220   2.690   6.788 -0.7249  0.6630  1.8715
 2365SOL     OW18727   0.333   1.582   1.353  0.5062 -0.2682  0.0088
 2365SOL    HW118728   0.334   1.641   1.429 -1.3723  2.5697 -2.1926
 2365SOL    HW218729   0.296   1.500   1.386  0.2876 -0.4296 -0.6543
 2366SOL     OW18730   2.831   2.518  14.294 -0.2635 -0.3328  0.0537
 2366SOL    HW118731   2.797   2.461  14.226  0.3357  0.0725 -0.5843
 2366SOL    HW218732   2.897   2.458  14.330 -0.0882  0.4132  0.9707
 2367SOL     OW18733   2.073   1.129  15.165  0.3789 -0.2167  0.1737
 2367SOL    HW118734   2.153   1.128  15.112  1.2983  0.0141  1.5534
 2367SOL    HW218735   2.003   1.119  15.100 -0.4039  2.0981  0.6355
 2368SOL     OW18736   1.523   2.123   0.269 -0.0738 -0.2461  0.3243
 2368SOL    HW118737   1.461   2.117   0.341 -0.5323  2.1358  0.1279
 2368SOL    HW218738   1.608   2.135   0.312  0.3926  2.4999 -1.3494
 2369SOL     OW18739   1.419   2.350   9.273 -0.1124 -0.2866 -0.2584
 2369SOL    HW118740   1.510   2.355   9.243 -0.2179  0.1054 -0.5148
 2369SOL    HW218741   1.373   2.398   9.204  1.3726 -0.0379 -1.0607
 2370SOL     OW18742   1.902   3.719   3.804 -0.5644 -0.1757 -0.0090
 2370SOL    HW118743   1.921   3.708   3.897  2.3384 -2.8115 -0.8987
 2370SOL    HW218744   1.989   3.710   3.764  0.0072  2.2477  0.6836
 2371SOL     OW18745   1.691   2.842   5.686 -0.0053 -0.0084 -0.3683
 2371SOL    HW118746   1.605   2.865   5.650 -0.1680  2.1214  1.3588
 2371SOL    HW218747   1.705   2.911   5.751  0.2068 -0.1603 -0.2531
 2372SOL     OW18748   2.982   1.813  17.212 -0.4851  0.6952  0.8097
 2372SOL    HW118749   3.037   1.777  17.143 -1.2763 -3.4285  2.3140
 2372SOL    HW218750   3.019   1.901  17.216 -0.5201  0.6447  2.2127
 2373SOL     OW18751   2.403   1.016   9.183 -0.0211 -0.5799  0.0069
 2373SOL    HW118752   2.330   0.956   9.169  0.1958 -0.6341 -0.9185
 2373SOL    HW218753   2.391   1.029   9.277 -0.6043 -0.7259 -0.0469
 2374SOL     OW18754   3.238   3.677   3.100 -0.7990 -0.1645 -0.6805
 2374SOL    HW118755   3.231   3.698   3.007 -1.4061 -0.1550 -0.6318
 2374SOL    HW218756   3.273   3.761   3.129  0.5667 -0.3005 -1.9439
 2375SOL     OW18757   3.333   4.240   8.860 -0.3848  0.1087 -0.3783
 2375SOL    HW118758   3.318   4.297   8.785  1.6642  0.6855 -0.3501
 2375SOL    HW218759   3.318   4.292   8.939  2.6342 -1.6529  1.3569
 2376SOL     OW18760   1.270   4.195   8.348 -0.9026 -0.0146  0.6570
 2376SOL    HW118761   1.330   4.231   8.414  0.9055 -0.0604 -0.9640
 2376SOL    HW218762   1.317   4.111   8.341 -0.9182  0.0661 -0.3180
 2377SOL     OW18763   3.501   2.914  12.183 -0.0225  0.0560  0.2326
 2377SOL    HW118764   3.445   2.963  12.243 -0.2661 -0.3637  0.3457
 2377SOL    HW218765   3.535   2.992  12.141  0.1629 -1.0121 -1.5900
 2378SOL     OW18766   3.204   0.385  15.094 -0.6091  0.3037 -0.6748
 2378SOL    HW118767   3.170   0.416  15.010  2.2520 -1.1247 -2.3547
 2378SOL    HW218768   3.228   0.294  15.073  2.5427  1.0303 -0.2251
 2379SOL     OW18769   4.229   1.412   2.408  0.2139  0.5392  0.3591
 2379SOL    HW118770   4.301   1.352   2.392 -1.6799 -1.8250  0.6107
 2379SOL    HW218771   4.250   1.487   2.353  2.5682  0.7690  1.5825
 2380SOL     OW18772   3.108   3.788   2.852 -0.2512 -0.4714  0.1616
 2380SOL    HW118773   3.080   3.697   2.864  3.8815 -1.6523  0.7413
 2380SOL    HW218774   3.187   3.779   2.798 -0.0312 -0.4111  0.4791
 2381SOL     OW18775   1.328   0.060   1.785 -0.5201 -0.3369 -0.1142
 2381SOL    HW118776   1.380   4.722   1.811  0.8742 -0.0136 -1.9399
 2381SOL    HW218777   1.303   0.037   1.696 -0.3880 -0.0821 -0.2176
 2382SOL     OW18778   1.842   0.434   5.929  0.0974 -0.0508 -0.0578
 2382SOL    HW118779   1.914   0.402   5.875  0.0445 -0.4063  0.0827
 2382SOL    HW218780   1.779   0.362   5.939  0.5611 -0.3638  0.6421
 2383SOL     OW18781   1.859   0.427   1.488 -0.0016 -0.0070 -0.7286
 2383SOL    HW118782   1.943   0.396   1.521 -0.7359 -2.1505 -0.8542
 2383SOL    HW218783   1.817   0.355   1.439 -2.8458  2.1267 -1.4535
 2384SOL     OW18784   0.900   0.627  11.123 -0.0740  0.6432  0.0514
 2384SOL    HW118785   0.910   0.660  11.212  1.7679 -2.7292  1.0996
 2384SOL    HW218786   0.990   0.599  11.104  0.2607  0.4901  1.8689
 2385SOL     OW18787   0.348   3.561   2.158  0.2084  0.6261 -0.1274
 2385SOL    HW118788   0.384   3.504   2.226 -1.0626  2.0546  1.7448
 2385SOL    HW218789   0.339   3.641   2.209 -2.1380 -0.2959  0.9070
 2386SOL     OW18790   0.116   3.739   5.308 -0.0433 -0.0877 -0.2948
 2386SOL    HW118791   0.168   3.764   5.233 -1.1460  0.7397 -0.7911
 2386SOL    HW218792   0.042   3.800   5.311 -0.2871 -0.4100  0.2652
 2387SOL     OW18793   3.056   0.323   4.803 -0.4295 -0.3456  0.0347
 2387SOL    HW118794   2.981   0.373   4.835 -1.2693  0.3815 -3.1707
 2387SOL    HW218795   3.123   0.386   4.775  0.4347 -0.5854  1.5472
 2388SOL     OW18796   2.186   0.402  16.974 -0.5161  0.0519  0.2316
 2388SOL    HW118797   2.095   0.402  17.003 -0.2267  0.5987  1.1398
 2388SOL    HW218798   2.222   0.314  16.988  2.7553  1.5782  1.4116
 2389SOL     OW18799   3.790   4.232  10.189  0.1556  0.1530 -0.1935
 2389SOL    HW118800   3.712   4.212  10.136  0.2560  1.4824 -0.8335
 2389SOL    HW218801   3.847   4.159  10.163  1.4621  0.9756  0.3842
 2390SOL     OW18802   0.274   1.554   3.613 -0.5187  0.1572 -0.3742
 2390SOL    HW118803   0.364   1.558   3.645 -0.6164 -1.0978  0.0659
 2390SOL    HW218804   0.274   1.610   3.536 -1.4787 -1.0536 -1.2497
 2391SOL     OW18805   0.243   4.346  16.767 -0.4457  0.0135  0.2570
 2391SOL    HW118806   0.199   4.267  16.798 -1.2261  0.9698  1.5653
 2391SOL    HW218807   0.230   4.339  16.672 -1.9443 -0.9691  0.5304
 2392SOL     OW18808   2.156   0.287   9.485 -0.3011 -0.4768  0.2496
 2392SOL    HW118809   2.174   0.220   9.551  1.6518  0.9444  1.1556
 2392SOL    HW218810   2.090   0.336   9.533  0.8263  2.1695 -0.9365
 2393SOL     OW18811   1.318   0.229   8.098 -0.2687  0.2755  0.0535
 2393SOL    HW118812   1.260   0.272   8.035 -2.1701  0.8768  2.2368
 2393SOL    HW218813   1.282   0.262   8.180  1.2780  1.1334  0.3866
 2394SOL     OW18814   3.574   3.559   1.165 -0.0898 -1.0255  0.3189
 2394SOL    HW118815   3.633   3.634   1.165 -0.3379 -0.8260 -1.7791
 2394SOL    HW218816   3.498   3.608   1.195 -0.5438 -1.5290 -0.0025
 2395SOL     OW18817   2.108   2.246   3.747 -0.0948 -0.1383  0.3783
 2395SOL    HW118818   2.143   2.303   3.678  0.8974  1.3007  2.1052
 2395SOL    HW218819   2.187   2.207   3.785  0.0368 -1.0945 -0.8555
 2396SOL     OW18820   0.539   2.401   4.760 -0.6775  0.0204  0.1990
 2396SOL    HW118821   0.445   2.416   4.773 -0.8962  0.3262 -1.7846
 2396SOL    HW218822   0.568   2.446   4.839  0.6036  2.3017 -1.5779
 2397SOL     OW18823   4.645   2.359   3.781  0.2162 -0.1795  0.1652
 2397SOL    HW118824   4.587   2.396   3.714 -1.2430 -1.2775  0.8127
 2397SOL    HW218825   4.731   2.352   3.739 -0.3624  0.9423 -1.2072
 2398SOL     OW18826   4.149   2.890   6.677 -1.1138 -0.3822  0.1694
 2398SOL    HW118827   4.125   2.955   6.611  1.1506  0.1847 -0.1009
 2398SOL    HW218828   4.067   2.841   6.668 -0.9333 -0.5096 -0.7629
 2399SOL     OW18829   2.017   0.443   9.698  0.6105  0.0059 -0.4188
 2399SOL    HW118830   1.968   0.525   9.703  1.0152  0.2150  0.1011
 2399SOL    HW218831   2.002   0.401   9.783  3.1649 -0.1498 -0.0378
 2400SOL     OW18832   0.382   4.032   1.369  0.4646  1.4644  0.1193
 2400SOL    HW118833   0.294   3.999   1.354  0.3969  2.1139 -0.8999
 2400SOL    HW218834   0.420   4.012   1.283 -0.6276  2.1227 -0.5010
 2401SOL     OW18835   2.143   1.944   6.439 -0.2903  0.4524  0.0533
 2401SOL    HW118836   2.179   1.900   6.362  0.4323  1.7971 -0.3803
 2401SOL    HW218837   2.181   2.032   6.435  2.8918 -0.8035  2.4697
 2402SOL     OW18838   0.168   2.128   5.807 -0.2225  0.0018 -0.2752
 2402SOL    HW118839   0.113   2.061   5.766 -1.6111  0.4451  0.8572
 2402SOL    HW218840   0.199   2.086   5.887  0.2926 -0.2518 -0.6083
 2403SOL     OW18841   1.884   2.512  12.655 -0.2011 -0.1812  0.6250
 2403SOL    HW118842   1.864   2.422  12.628 -0.1625 -0.3009  1.0019
 2403SOL    HW218843   1.815   2.532  12.719  0.3631  0.0881  1.1426
 2404SOL     OW18844   4.580   2.957   9.393  0.1292  0.5881  0.0127
 2404SOL    HW118845   4.634   2.935   9.469  2.1361  0.1267 -1.5744
 2404SOL    HW218846   4.643   2.965   9.322  0.5255 -1.7005  0.1006
 2405SOL     OW18847   2.466   3.347   9.393  0.0483  0.4519  0.4635
 2405SOL    HW118848   2.426   3.434   9.388  0.7755  0.7995  0.6189
 2405SOL    HW218849   2.532   3.347   9.323 -0.3811 -0.8004  0.0747
 2406SOL     OW18850   2.262   0.215   9.174 -0.1892 -0.5155  0.2844
 2406SOL    HW118851   2.179   0.264   9.166 -1.1680 -1.9822  1.6539
 2406SOL    HW218852   2.312   0.297   9.174  1.0851 -1.2970 -0.0961
 2407SOL     OW18853   4.405   2.187   6.221 -0.2003 -0.8267  0.2341
 2407SOL    HW118854   4.484   2.135   6.212 -2.6555 -4.3822 -0.7338
 2407SOL    HW218855   4.430   2.242   6.295 -3.2236 -0.3873  0.9545
 2408SOL     OW18856   1.234   0.139   3.405  0.8344  0.3180 -0.0075
 2408SOL    HW118857   1.249   0.044   3.408 -0.4258  0.1700  1.3136
 2408SOL    HW218858   1.142   0.153   3.383 -0.0719 -2.1181  2.3363
 2409SOL     OW18859   1.974   0.968   5.694 -0.0087  0.4786 -0.4450
 2409SOL    HW118860   1.965   0.961   5.599 -0.2156 -2.4005 -0.2163
 2409SOL    HW218861   1.895   0.924   5.726  0.9195 -0.9404 -0.0981
 2410SOL     OW18862   3.051   2.286   8.164  0.3258  0.4675 -0.0257
 2410SOL    HW118863   2.975   2.344   8.161  0.7618  1.0184 -0.6014
 2410SOL    HW218864   3.023   2.196   8.153  0.5052  0.6004 -1.7075
 2411SOL     OW18865   3.226   4.628  13.975  0.6118  0.1564  0.4213
 2411SOL    HW118866   3.316   4.595  13.970  0.3317 -0.6915  0.9124
 2411SOL    HW218867   3.198   4.578  14.052 -0.4505  0.8415  0.4743
 2412SOL     OW18868   1.360   4.580   3.107  1.1393  0.1969 -0.0402
 2412SOL    HW118869   1.389   4.550   3.021  0.7881 -0.7627  0.1756
 2412SOL    HW218870   1.437   4.566   3.163 -1.2115 -0.9484  2.9204
 2413SOL     OW18871   4.110   4.073   5.566 -0.4802 -0.0644  0.1502
 2413SOL    HW118872   4.078   4.161   5.582 -0.2111  0.3567 -1.6053
 2413SOL    HW218873   4.062   4.061   5.484  1.6900  1.0666 -1.2847
 2414SOL     OW18874   1.591   4.104  10.477  0.3044 -0.0845  1.0530
 2414SOL    HW118875   1.543   4.053  10.412  1.5166  0.2362 -0.0814
 2414SOL    HW218876   1.525   4.159  10.519  1.7275  0.1860  2.9282
 2415SOL     OW18877   3.724   1.509   5.899  0.2399 -0.1460 -0.3182
 2415SOL    HW118878   3.819   1.513   5.887  0.1227 -2.4221 -1.9927
 2415SOL    HW218879   3.713   1.568   5.973  2.5235 -0.6605  0.4487
 2416SOL     OW18880   3.078   3.002   5.236  0.0909  0.2370  0.0246
 2416SOL    HW118881   3.040   2.956   5.311  0.6869 -1.2044 -0.5528
 2416SOL    HW218882   3.020   3.076   5.217  0.7308  0.2839 -1.7390
 2417SOL     OW18883   1.539   0.803  13.585 -0.1524  0.1818 -0.4356
 2417SOL    HW118884   1.471   0.833  13.645  1.1165  1.6276  0.2862
 2417SOL    HW218885   1.598   0.747  13.636  1.3864  0.0512 -2.3956
 2418SOL     OW18886   3.129   0.297   7.301 -0.1394  0.2471  0.2301
 2418SOL    HW118887   3.128   0.207   7.268 -1.8102  1.0267 -1.8076
 2418SOL    HW218888   3.188   0.288   7.376 -1.1966  1.8886  1.2570
 2419SOL     OW18889   1.123   2.251  11.557  0.0116  0.0703  0.3789
 2419SOL    HW118890   1.196   2.313  11.555 -0.7738  1.0479  1.6075
 2419SOL    HW218891   1.064   2.293  11.620  1.0285 -0.7920  1.9050
 2420SOL     OW18892   1.953   2.624   9.410  0.0365  0.2710 -0.6286
 2420SOL    HW118893   1.915   2.615   9.322 -1.4216  0.8552 -0.0564
 2420SOL    HW218894   1.927   2.539   9.447 -0.7750  1.0137  0.5162
 2421SOL     OW18895   1.176   2.101   2.756 -0.6774 -0.2403  0.3908
 2421SOL    HW118896   1.176   2.025   2.698 -1.8594  1.0221 -1.2604
 2421SOL    HW218897   1.090   2.132   2.728 -1.0135  0.2180  1.9113
 2422SOL     OW18898   1.846   0.833   8.947 -0.1645  0.0474 -0.6984
 2422SOL    HW118899   1.866   0.843   8.854 -0.8785  0.8368 -0.7705
 2422SOL    HW218900   1.798   0.914   8.964 -0.9563 -0.9704  2.0336
 2423SOL     OW18901   3.386   2.813  10.990  0.0915  0.2864  0.2821
 2423SOL    HW118902   3.476   2.835  10.964  0.3217  0.0084  0.8445
 2423SOL    HW218903   3.376   2.726  10.951  1.1789 -0.1069  0.8976
 2424SOL     OW18904   1.602   0.327  14.942 -0.0907  0.3143  0.0167
 2424SOL    HW118905   1.553   0.268  14.886 -0.2523  2.1547 -1.7784
 2424SOL    HW218906   1.538   0.338  15.012 -0.8940 -0.8540 -0.5488
 2425SOL     OW18907   1.463   1.819   1.968 -0.1975  0.3298  0.0155
 2425SOL    HW118908   1.408   1.798   2.043  1.0953 -1.8870  0.3442
 2425SOL    HW218909   1.547   1.810   2.013 -0.0051 -1.3463 -0.6603
 2426SOL     OW18910   2.340   2.445   3.988 -0.0986 -0.1250 -0.1037
 2426SOL    HW118911   2.382   2.500   4.054  0.4586 -1.4441  0.6431
 2426SOL    HW218912   2.354   2.357   4.022  0.8409  0.9365  2.2837
 2427SOL     OW18913   3.522   4.125   0.070  0.5610  0.2587 -0.0056
 2427SOL    HW118914   3.557   4.211   0.045 -0.9354  1.2335  1.2936
 2427SOL    HW218915   3.503   4.134   0.163  2.3199 -1.8732  0.5753
 2428SOL     OW18916   2.094   2.506   4.048  0.7400 -0.1390  0.3631
 2428SOL    HW118917   2.122   2.571   4.112  2.3844  1.6763 -2.1530
 2428SOL    HW218918   2.184   2.475   4.036  0.2148 -1.9709  1.2071
 2429SOL     OW18919   1.715   4.438   6.333  0.2366  0.0020  0.4549
 2429SOL    HW118920   1.643   4.483   6.289  0.9348  0.0275 -0.6697
 2429SOL    HW218921   1.686   4.424   6.423  0.4301 -0.5541  0.4306
 2430SOL     OW18922   2.313   2.138   2.678  0.2525 -0.4554 -0.1918
 2430SOL    HW118923   2.251   2.210   2.669 -1.0671 -1.4457  1.1333
 2430SOL    HW218924   2.284   2.080   2.607  0.5461  0.7396 -1.3016
 2431SOL     OW18925   0.829   0.068   6.412  0.0220 -0.2168  0.4387
 2431SOL    HW118926   0.797   0.030   6.494  0.4836 -2.0270 -0.2240
 2431SOL    HW218927   0.894   0.001   6.393  0.3681 -0.2580  1.7303
 2432SOL     OW18928   4.672   3.939   5.300  0.2423  0.1813  0.3051
 2432SOL    HW118929   4.576   3.929   5.304  0.2517 -0.3773 -0.8664
 2432SOL    HW218930   4.685   4.017   5.353 -0.3889  1.0365 -0.8095
 2433SOL     OW18931   4.173   1.423   3.170  0.1092  0.1286 -0.1235
 2433SOL    HW118932   4.133   1.363   3.107  0.8663 -2.2064  1.5864
 2433SOL    HW218933   4.136   1.384   3.250 -0.9474  0.6023 -0.3771
 2434SOL     OW18934   2.994   4.511   9.797  0.0505 -0.3484  0.6518
 2434SOL    HW118935   2.916   4.566   9.807  0.3996  0.2130  0.2738
 2434SOL    HW218936   2.962   4.434   9.752 -1.3333  1.0458 -0.7563
 2435SOL     OW18937   1.514   4.030   6.798  0.3844 -0.2441 -0.0181
 2435SOL    HW118938   1.540   3.976   6.872  2.1355  0.5591 -0.0401
 2435SOL    HW218939   1.456   4.085   6.851  0.4714  2.4318 -2.6738
 2436SOL     OW18940   1.595   0.183   7.913 -0.8836 -0.1884 -0.7820
 2436SOL    HW118941   1.554   0.204   7.997  0.0871  0.8072 -0.5536
 2436SOL    HW218942   1.687   0.205   7.929 -1.3401 -0.0354  1.6256
 2437SOL     OW18943   4.300   2.990   7.312 -0.1823  0.7464 -0.1922
 2437SOL    HW118944   4.342   2.919   7.263 -1.3347  1.0165 -1.5786
 2437SOL    HW218945   4.337   2.983   7.399  2.2214 -1.3037 -1.3928
 2438SOL     OW18946   0.770   0.339   6.405 -0.4610 -0.3109 -0.1798
 2438SOL    HW118947   0.679   0.356   6.431 -0.4608 -0.3313 -0.1652
 2438SOL    HW218948   0.767   0.243   6.403 -0.8409 -0.2883 -0.7819
 2439SOL     OW18949   2.059   1.862   4.232  0.2907  0.4200 -0.2608
 2439SOL    HW118950   1.968   1.865   4.203 -0.0666  0.8647  0.8942
 2439SOL    HW218951   2.087   1.947   4.198 -0.7491 -0.1216 -2.4416
 2440SOL     OW18952   2.192   1.478   4.105 -0.0777  0.4760 -0.3760
 2440SOL    HW118953   2.230   1.392   4.085  0.8687 -0.2340  4.2540
 2440SOL    HW218954   2.156   1.505   4.021  0.7586  1.3209 -0.4566
 2441SOL     OW18955   3.338   1.126  16.500 -0.3747 -0.0875  0.4290
 2441SOL    HW118956   3.352   1.220  16.511 -0.7978 -0.0792  0.9262
 2441SOL    HW218957   3.243   1.121  16.484  0.0737 -0.7155 -2.0805
 2442SOL     OW18958   3.840   2.360   1.245  0.2935  0.2266 -0.0203
 2442SOL    HW118959   3.765   2.307   1.220  0.2342 -0.1370  0.9286
 2442SOL    HW218960   3.791   2.439   1.268  0.3897 -0.0911  1.2814
 2443SOL     OW18961   4.361   2.761   0.902 -0.1872  0.0409  0.1897
 2443SOL    HW118962   4.353   2.763   0.807 -0.4203 -0.5240  0.1972
 2443SOL    HW218963   4.272   2.745   0.935 -1.5790 -0.1693 -3.6714
 2444SOL     OW18964   3.884   3.666   8.995 -0.7254  0.4246  0.2717
 2444SOL    HW118965   3.927   3.683   9.079  3.6233  0.4716 -1.9605
 2444SOL    HW218966   3.830   3.744   8.990 -1.2596  0.0120 -0.4006
 2445SOL     OW18967   2.197   2.645   6.719 -0.3261  0.4552 -0.0045
 2445SOL    HW118968   2.165   2.556   6.735  0.0102  0.3558  0.1042
 2445SOL    HW218969   2.281   2.641   6.674 -0.0462 -0.6441  0.5866
 2446SOL     OW18970   4.030   0.934  16.840  0.3191 -0.4766 -0.6721
 2446SOL    HW118971   4.086   0.977  16.776  0.1696 -1.4914 -1.4795
 2446SOL    HW218972   4.007   1.007  16.898  2.5018 -1.1052  0.9913
 2447SOL     OW18973   0.817   2.163   5.024  0.2043 -0.2679  0.4900
 2447SOL    HW118974   0.775   2.077   5.017 -1.5246  0.4197  2.7594
 2447SOL    HW218975   0.737   2.210   5.045 -0.8247 -1.1713 -1.3816
 2448SOL     OW18976   2.798   4.714   6.801 -0.2196  0.5399 -0.6218
 2448SOL    HW118977   2.783   4.699   6.708 -2.0845  1.4246 -0.4550
 2448SOL    HW218978   2.724   0.030   6.830  1.2763  2.1385  0.2485
 2449SOL     OW18979   1.027   1.167   5.832  0.3671 -0.3123  0.5565
 2449SOL    HW118980   1.055   1.110   5.761  0.1330  0.4426 -0.1406
 2449SOL    HW218981   1.104   1.224   5.836 -1.3008  1.7915  3.0282
 2450SOL     OW18982   0.805   2.080   7.849 -0.3818  0.8004  0.3669
 2450SOL    HW118983   0.853   2.072   7.766  0.3705  1.2401  0.7657
 2450SOL    HW218984   0.874   2.090   7.914 -0.0170 -0.3268  0.1569
 2451SOL     OW18985   0.497   3.007   8.298 -0.0178 -0.0689  0.0202
 2451SOL    HW118986   0.589   3.022   8.320  0.1618  0.1989 -0.9396
 2451SOL    HW218987   0.451   3.052   8.369  2.9104  0.9811  1.2693
 2452SOL     OW18988   0.166   0.601   0.643  0.0758  0.5460  0.4995
 2452SOL    HW118989   0.184   0.508   0.646 -1.4150  0.2040 -1.1665
 2452SOL    HW218990   0.089   0.600   0.700 -1.2995  0.1838 -1.3335
 2453SOL     OW18991   3.888   1.243   4.062  0.0381 -0.3319  0.2311
 2453SOL    HW118992   3.962   1.200   4.019  1.2899  0.4620  1.6358
 2453SOL    HW218993   3.889   1.203   4.149  0.1187  0.3247  0.5256
 2454SOL     OW18994   2.366   1.506   2.939 -0.2843  0.4492  0.2957
 2454SOL    HW118995   2.283   1.545   2.910  0.2794  2.8777  1.9057
 2454SOL    HW218996   2.391   1.565   3.010 -2.0064  2.1847 -0.5090
 2455SOL     OW18997   1.235   4.244   4.491  0.3866  0.3946 -0.2501
 2455SOL    HW118998   1.234   4.260   4.397 -3.0148 -0.1725 -0.2993
 2455SOL    HW218999   1.319   4.281   4.519  0.3375  0.9877 -0.8873
 2456SOL     OW19000   3.971   3.713  12.488 -0.1659  0.5531  0.8953
 2456SOL    HW119001   4.064   3.691  12.495  0.0360  1.3149  0.6384
 2456SOL    HW219002   3.968   3.786  12.550 -0.1613  0.8454  0.5556
 2457SOL     OW19003   1.474   3.244   4.217  0.0500 -0.1676 -0.8260
 2457SOL    HW119004   1.436   3.169   4.171  3.0636 -2.7231  0.8303
 2457SOL    HW219005   1.522   3.293   4.150 -0.4947 -1.3935 -2.1070
 2458SOL     OW19006   0.037   0.845   3.663 -0.0187  0.2061 -0.0927
 2458SOL    HW119007   0.089   0.777   3.706  0.1009  0.2442 -0.1760
 2458SOL    HW219008   0.062   0.823   3.573  1.0196  0.1722  0.2087
 2459SOL     OW19009   2.091   2.862   9.550  0.4285  0.5827  0.4109
 2459SOL    HW119010   2.087   2.767   9.555  0.0295  0.4832 -1.8257
 2459SOL    HW219011   2.000   2.880   9.530  0.1556 -2.3852 -1.0706
 2460SOL     OW19012   2.204   1.782  12.230  0.4167  0.0040 -0.0925
 2460SOL    HW119013   2.287   1.826  12.216  0.9035 -0.5026  1.1760
 2460SOL    HW219014   2.201   1.770  12.325  0.4214 -0.8313 -0.1958
 2461SOL     OW19015   3.806   0.511   3.835  0.2566 -0.3192 -0.3369
 2461SOL    HW119016   3.737   0.457   3.796  0.6599 -1.0711 -0.0026
 2461SOL    HW219017   3.821   0.578   3.768  2.4293 -0.8567 -0.3793
 2462SOL     OW19018   0.118   2.718  17.412  0.4217  0.5033  0.0436
 2462SOL    HW119019   0.067   2.799  17.411  0.4993  0.5647  0.8499
 2462SOL    HW219020   0.200   2.740  17.368  0.1854  0.0883 -0.5963
 2463SOL     OW19021   0.301   2.095   6.096  0.0882  0.8012 -0.0637
 2463SOL    HW119022   0.396   2.098   6.106  0.0687 -1.0100  0.5772
 2463SOL    HW219023   0.272   2.179   6.133  0.8398 -0.7075  3.8960
 2464SOL     OW19024   3.688   3.309   1.949  0.3251 -0.3681 -0.4168
 2464SOL    HW119025   3.690   3.231   1.894 -0.2891 -0.5113 -0.2398
 2464SOL    HW219026   3.619   3.358   1.905  1.9848  1.3117 -1.1024
 2465SOL     OW19027   2.968   0.277  14.229  0.1437 -0.3654 -0.6278
 2465SOL    HW119028   2.966   0.224  14.309  1.0716  2.3407  1.1764
 2465SOL    HW219029   2.902   0.344  14.244 -2.0546 -2.5792 -0.4288
 2466SOL     OW19030   1.434   2.900  15.379  0.3311  0.2870  0.0722
 2466SOL    HW119031   1.461   2.992  15.391  0.6383 -0.1085  2.4285
 2466SOL    HW219032   1.508   2.886  15.320  0.9089 -0.3038  0.9285
 2467SOL     OW19033   0.537   4.136  12.093  0.0472 -0.1921 -0.2606
 2467SOL    HW119034   0.510   4.204  12.031  0.3922 -0.1430 -0.3576
 2467SOL    HW219035   0.466   4.150  12.155 -0.6928  0.7039 -1.3157
 2468SOL     OW19036   0.809   3.766  13.269  0.0379  0.2721 -0.0208
 2468SOL    HW119037   0.761   3.706  13.327  0.4687 -0.1986 -0.1510
 2468SOL    HW219038   0.797   3.852  13.307  3.1051  0.1655  1.1917
 2469SOL     OW19039   4.079   4.524  17.021  0.3398  0.3949 -0.0790
 2469SOL    HW119040   4.113   4.584  17.087 -1.2639  1.9157 -0.6501
 2469SOL    HW219041   4.156   4.472  16.996 -1.2218 -0.1739 -3.6590
 2470SOL     OW19042   2.650   1.068   8.738 -0.4825  0.1833 -0.0522
 2470SOL    HW119043   2.732   1.018   8.736 -1.0786 -0.9146  3.2560
 2470SOL    HW219044   2.643   1.084   8.832 -0.4620 -0.8311  0.1217
 2471SOL     OW19045   1.856   0.732   7.136  0.4312 -0.1102 -0.0458
 2471SOL    HW119046   1.781   0.760   7.085 -1.0233 -2.3136  0.8676
 2471SOL    HW219047   1.924   0.770   7.081 -1.5172  2.6150 -0.5484
 2472SOL     OW19048   0.980   4.605   3.829  0.3890 -0.3183  0.1113
 2472SOL    HW119049   0.904   4.627   3.775  1.7277  0.4719 -1.4901
 2472SOL    HW219050   1.049   4.639   3.771 -0.4812 -0.1747 -0.8465
 2473SOL     OW19051   4.310   1.991   3.199  0.3411 -0.9143  0.3301
 2473SOL    HW119052   4.271   1.912   3.161 -1.6068  0.0817  0.3063
 2473SOL    HW219053   4.280   2.063   3.143  2.9688  1.0650  1.4557
 2474SOL     OW19054   3.807   4.350   8.631 -0.0558 -0.5070 -0.2019
 2474SOL    HW119055   3.864   4.396   8.692  2.1768 -2.7655 -0.5413
 2474SOL    HW219056   3.721   4.390   8.627  0.3140  0.1173 -2.0837
 2475SOL     OW19057   2.660   1.744  14.764 -0.2677 -0.2945  0.1615
 2475SOL    HW119058   2.636   1.654  14.787 -2.0273  0.0042 -0.4811
 2475SOL    HW219059   2.588   1.786  14.811  1.7348  0.4001  2.6193
 2476SOL     OW19060   4.351   3.958  11.552  0.1140 -0.6172  0.3296
 2476SOL    HW119061   4.297   3.927  11.625 -0.6575 -1.0921 -0.4379
 2476SOL    HW219062   4.328   3.906  11.475 -0.3647 -1.6443  1.1683
 2477SOL     OW19063   3.609   0.510   9.591 -0.2698 -0.0763  0.2480
 2477SOL    HW119064   3.584   0.570   9.662 -0.2267  0.0271  0.1764
 2477SOL    HW219065   3.655   0.567   9.529  0.3442 -0.8676 -0.0202
 2478SOL     OW19066   3.518   3.004  12.488  0.7240 -0.5338 -0.4811
 2478SOL    HW119067   3.613   2.993  12.499  0.5530 -2.8098 -1.2378
 2478SOL    HW219068   3.494   2.932  12.547  1.5371  0.2109  0.7624
 2479SOL     OW19069   0.572   2.120   5.385 -0.4115  0.4487  0.0374
 2479SOL    HW119070   0.482   2.134   5.414  0.0110 -0.0605  1.5628
 2479SOL    HW219071   0.621   2.128   5.467 -0.6063  0.8133  0.1184
 2480SOL     OW19072   2.496   0.255   2.818 -0.1236  0.3206 -0.3617
 2480SOL    HW119073   2.406   0.260   2.785 -0.0160  1.2445 -0.4989
 2480SOL    HW219074   2.504   0.334   2.871 -0.8221  0.3838 -0.3558
 2481SOL     OW19075   2.985   2.400   0.686  0.3842  0.1347  0.1853
 2481SOL    HW119076   3.026   2.436   0.608  0.6796  2.2844  1.3409
 2481SOL    HW219077   2.994   2.472   0.748  0.9500  0.9648 -0.8719
 2482SOL     OW19078   2.421   1.338   7.674 -0.1840  0.1438 -0.0553
 2482SOL    HW119079   2.414   1.418   7.621  0.5704  0.1810 -0.1039
 2482SOL    HW219080   2.510   1.353   7.708  0.4992 -0.9760 -1.3759
 2483SOL     OW19081   0.086   1.144  17.612  0.3490 -0.2087  0.2032
 2483SOL    HW119082   0.063   1.152  17.704 -0.5813 -1.4449  0.0687
 2483SOL    HW219083   0.164   1.090  17.623  0.1319 -0.2332  1.5951
 2484SOL     OW19084   4.699   0.624  14.387 -0.2516  0.4297  0.3964
 2484SOL    HW119085   4.662   0.604  14.473 -0.9943  3.7460  0.8573
 2484SOL    HW219086   0.049   0.655  14.411 -0.1974  0.4477  0.1686
 2485SOL     OW19087   1.204   0.618   7.109 -0.1379 -0.2458 -0.2930
 2485SOL    HW119088   1.155   0.547   7.153 -0.4282 -0.3660 -0.8127
 2485SOL    HW219089   1.175   0.603   7.019  2.3531  0.9873 -1.2830
 2486SOL     OW19090   2.009   0.342  15.117  0.8724  0.5751 -0.0913
 2486SOL    HW119091   2.082   0.343  15.179 -0.8151 -0.8449  1.9264
 2486SOL    HW219092   1.971   0.428  15.130  2.8361  1.6541 -1.5440
 2487SOL     OW19093   2.017   4.320  13.670  0.0865  0.1161  0.0556
 2487SOL    HW119094   2.104   4.313  13.711 -0.3801  1.1017  1.1988
 2487SOL    HW219095   2.036   4.396  13.614  0.9220 -0.9692 -1.1393
 2488SOL     OW19096   1.270   1.783   2.147 -0.2891 -0.3541 -0.6476
 2488SOL    HW119097   1.211   1.857   2.141 -1.6821 -1.3700  0.5500
 2488SOL    HW219098   1.217   1.720   2.098 -0.0738 -1.1298  0.1183
 2489SOL     OW19099   3.800   2.428   7.701  0.2864  0.8707 -0.2193
 2489SOL    HW119100   3.855   2.494   7.745  0.1432  0.7662  0.1206
 2489SOL    HW219101   3.719   2.471   7.729 -0.3633 -0.2406 -0.4104
 2490SOL     OW19102   3.838   1.034   9.562 -0.3518  0.0782  0.4729
 2490SOL    HW119103   3.870   1.030   9.652  0.3301 -0.5583  0.2014
 2490SOL    HW219104   3.847   1.127   9.538  0.1466  0.7581  3.3155
 2491SOL     OW19105   3.042   3.023   3.508  0.1853 -0.6486  0.3329
 2491SOL    HW119106   3.018   2.972   3.431 -0.3751 -0.0852  0.1290
 2491SOL    HW219107   2.967   3.005   3.564  0.5076 -0.7652  0.7292
 2492SOL     OW19108   3.940   3.221   6.217  0.7465 -0.6611  0.6481
 2492SOL    HW119109   3.863   3.183   6.260  0.6795 -1.9311 -0.6338
 2492SOL    HW219110   3.964   3.157   6.150  1.1816 -0.4685  0.6189
 2493SOL     OW19111   2.911   2.826   4.729 -0.3480 -0.5565 -0.2728
 2493SOL    HW119112   2.876   2.782   4.651 -1.3838 -4.0205  2.1192
 2493SOL    HW219113   2.926   2.915   4.698 -1.1542 -0.8772 -1.6005
 2494SOL     OW19114   3.812   0.570   4.396 -0.0465 -0.0374 -0.7173
 2494SOL    HW119115   3.741   0.610   4.446 -0.2483 -2.5301  0.9919
 2494SOL    HW219116   3.872   0.643   4.385  0.7831 -0.6018  0.0534
 2495SOL     OW19117   1.575   1.494   9.212  0.1011  0.1347  0.1594
 2495SOL    HW119118   1.517   1.480   9.287 -0.1055  3.0134  0.5452
 2495SOL    HW219119   1.519   1.548   9.155 -1.4034 -0.9040  0.6417
 2496SOL     OW19120   2.230   3.205   3.284 -0.0385 -0.0401  0.5255
 2496SOL    HW119121   2.235   3.300   3.293  0.1509 -0.0134  0.0960
 2496SOL    HW219122   2.178   3.198   3.204  1.3153  0.1088 -0.3705
 2497SOL     OW19123   2.501   2.064   1.158 -0.2887 -0.7531 -0.0881
 2497SOL    HW119124   2.527   2.092   1.071 -0.7641  0.3288  0.1242
 2497SOL    HW219125   2.432   2.000   1.142 -0.4874 -0.8152  0.9698
 2498SOL     OW19126   1.845   0.873   4.211 -0.6133 -0.4374 -0.2983
 2498SOL    HW119127   1.764   0.846   4.169 -1.0103  1.2891 -0.6432
 2498SOL    HW219128   1.903   0.832   4.147  0.0696  0.6326 -0.3588
 2499SOL     OW19129   3.281   3.417  12.171  0.4958  0.2129  0.0552
 2499SOL    HW119130   3.362   3.373  12.197 -0.5900 -1.9497 -0.1823
 2499SOL    HW219131   3.266   3.478  12.243  0.1756  0.0038  0.1712
 2500SOL     OW19132   1.363   1.176  15.036  0.1858  0.1446  0.6007
 2500SOL    HW119133   1.394   1.264  15.059  1.6181 -0.2016 -0.0173
 2500SOL    HW219134   1.270   1.196  15.049 -0.0557 -1.8647  1.9173
 2501SOL     OW19135   1.352   2.920   2.518  0.4647  0.0176  0.1595
 2501SOL    HW119136   1.322   2.960   2.599  1.0901 -2.0253  1.3958
 2501SOL    HW219137   1.447   2.930   2.521  0.4702 -0.6446  1.8597
 2502SOL     OW19138   2.000   1.469   9.416 -0.6427  0.0960  0.0867
 2502SOL    HW119139   2.056   1.418   9.357 -1.1446 -0.3037 -0.0426
 2502SOL    HW219140   2.012   1.411   9.492  3.8665 -0.7683 -1.2957
 2503SOL     OW19141   3.704   4.264   7.183  0.0830  0.3390 -0.6254
 2503SOL    HW119142   3.620   4.310   7.183 -0.0498  0.0976 -0.0597
 2503SOL    HW219143   3.729   4.263   7.276 -2.4821 -4.7619  0.0163
 2504SOL     OW19144   2.960   2.520   9.124 -0.2510  0.1441  0.1187
 2504SOL    HW119145   2.935   2.602   9.167 -0.3013  1.0269 -1.5999
 2504SOL    HW219146   2.932   2.525   9.033  0.9596 -0.6563 -0.2922
 2505SOL     OW19147   1.468   3.878   2.054 -0.8518  0.5784  0.2589
 2505SOL    HW119148   1.520   3.868   2.134 -0.1571 -1.2858 -0.4466
 2505SOL    HW219149   1.502   3.956   2.009 -1.0760  1.1159  1.0069
 2506SOL     OW19150   4.551   0.850   4.690 -0.2943 -0.2764 -0.2422
 2506SOL    HW119151   4.621   0.896   4.644  0.0147  1.1405  1.6748
 2506SOL    HW219152   4.591   0.762   4.693 -0.2195 -0.3472 -3.2949
 2507SOL     OW19153   1.661   2.155   9.478  0.1012 -0.3348 -0.1597
 2507SOL    HW119154   1.641   2.098   9.404 -2.1274  0.4970 -0.1995
 2507SOL    HW219155   1.728   2.106   9.526 -1.6319 -1.1219  1.4285
 2508SOL     OW19156   0.134   3.767   7.513  0.4837  0.3801  0.0908
 2508SOL    HW119157   0.054   3.819   7.515 -1.6710 -2.8563 -1.1997
 2508SOL    HW219158   0.200   3.821   7.470  2.5765 -1.0910  1.4516
 2509SOL     OW19159   1.408   2.896   4.742  0.1334  0.2479  0.6322
 2509SOL    HW119160   1.488   2.860   4.704 -0.1193  2.0091 -1.5693
 2509SOL    HW219161   1.416   2.881   4.836 -1.6807 -0.7641  0.6254
 2510SOL     OW19162   3.098   0.529  16.830 -0.3186  0.0436 -0.5740
 2510SOL    HW119163   3.117   0.598  16.766 -1.3505  0.2911 -0.6087
 2510SOL    HW219164   3.189   0.515  16.858 -0.8625 -0.6890  0.8182
 2511SOL     OW19165   2.924   3.898  17.476  0.2748 -0.2832 -0.3803
 2511SOL    HW119166   2.882   3.957  17.538  1.8376 -1.1411  1.5011
 2511SOL    HW219167   3.013   3.903  17.512 -0.4932 -2.2357  1.7318
 2512SOL     OW19168   3.927   2.432  13.257 -0.0333  0.8542  0.5432
 2512SOL    HW119169   3.974   2.515  13.252  0.4891  0.6168  1.4888
 2512SOL    HW219170   3.856   2.448  13.319 -1.6962 -1.7955 -0.7318
 2513SOL     OW19171   1.438   0.547   2.601 -0.3740  0.0538 -0.0054
 2513SOL    HW119172   1.428   0.554   2.696  2.3242 -1.1549  0.3852
 2513SOL    HW219173   1.404   0.630   2.567 -0.0105  0.1445 -0.1460
 2514SOL     OW19174   4.622   0.490   2.300  0.2564 -0.0087  0.4574
 2514SOL    HW119175   4.551   0.447   2.348 -0.7896  1.8967  0.6128
 2514SOL    HW219176   4.663   0.541   2.370  0.7303 -1.6044  1.3294
 2515SOL     OW19177   4.367   2.228   4.267  0.0037  0.2151  0.0853
 2515SOL    HW119178   4.400   2.161   4.207 -1.7802 -0.3822 -0.2216
 2515SOL    HW219179   4.363   2.309   4.218 -3.7841  1.0021  1.6779
 2516SOL     OW19180   3.345   1.141   0.420 -0.1634 -0.1339  0.2513
 2516SOL    HW119181   3.266   1.161   0.470  0.3750 -0.4527  1.2299
 2516SOL    HW219182   3.364   1.217   0.365 -0.4134  0.2450  0.6908
 2517SOL     OW19183   3.719   2.011   9.799  0.2130  0.3089  0.1664
 2517SOL    HW119184   3.713   2.007   9.704 -0.3717 -2.1248  0.3104
 2517SOL    HW219185   3.803   2.049   9.822 -0.2662  0.9575  0.8405
 2518SOL     OW19186   4.521   4.552  16.291 -0.2212 -0.3186  0.8103
 2518SOL    HW119187   4.432   4.551  16.258 -0.7142 -0.6101  2.1297
 2518SOL    HW219188   4.562   4.472  16.257 -1.5491 -0.2651 -0.8691
 2519SOL     OW19189   0.695   2.403  14.577  0.1970  0.0155  0.0228
 2519SOL    HW119190   0.644   2.479  14.550 -0.1603 -0.4081 -0.4842
 2519SOL    HW219191   0.643   2.329  14.546  2.8798 -2.0909  0.4823
 2520SOL     OW19192   2.504   1.616   9.275  0.7447 -0.5017 -0.3378
 2520SOL    HW119193   2.419   1.660   9.269  1.0199 -0.0891 -1.0477
 2520SOL    HW219194   2.548   1.639   9.194  1.7430  0.2662  0.4385
 2521SOL     OW19195   2.646   0.220   3.248  0.4079 -0.1490 -0.3713
 2521SOL    HW119196   2.619   0.152   3.186 -0.5040  0.8260 -1.0537
 2521SOL    HW219197   2.575   0.284   3.250  0.2031 -0.3961  0.2534
 2522SOL     OW19198   1.486   2.466   3.754 -0.0253  0.1367  0.6205
 2522SOL    HW119199   1.454   2.532   3.693 -0.6023  0.6093  1.4362
 2522SOL    HW219200   1.575   2.492   3.781  0.1936  2.0802 -1.9239
 2523SOL     OW19201   4.504   0.658  15.890 -0.1338 -0.2865  0.4098
 2523SOL    HW119202   4.500   0.734  15.832 -0.6314  0.3474  1.2744
 2523SOL    HW219203   4.416   0.663  15.927 -0.0954  0.3922  0.4238
 2524SOL     OW19204   2.789   1.398   3.032 -0.2039  0.6095 -0.1606
 2524SOL    HW119205   2.752   1.428   3.115  0.5176  1.2197 -0.0532
 2524SOL    HW219206   2.758   1.453   2.960 -0.5265 -0.3806 -0.7705
 2525SOL     OW19207   0.474   4.144   3.086 -0.0696  0.3243 -0.2425
 2525SOL    HW119208   0.516   4.183   3.163  1.9857  1.6842 -2.0640
 2525SOL    HW219209   0.504   4.199   3.014  0.8772 -2.6132 -2.1272
 2526SOL     OW19210   2.871   0.760  12.870  0.2793  0.2595  0.1785
 2526SOL    HW119211   2.798   0.719  12.917 -0.0259  1.3863  0.6754
 2526SOL    HW219212   2.875   0.846  12.911  1.7514  0.8724 -1.2682
 2527SOL     OW19213   3.261   3.105   9.450  0.6085 -0.1674  0.4019
 2527SOL    HW119214   3.264   3.188   9.497 -1.7915 -1.3759  2.6811
 2527SOL    HW219215   3.325   3.055   9.501  1.4431 -0.5498 -1.0115
 2528SOL     OW19216   3.423   1.773   6.633  0.4055  0.0899  0.2420
 2528SOL    HW119217   3.342   1.757   6.681  0.5439  1.9527  1.1179
 2528SOL    HW219218   3.479   1.793   6.709  0.6468  0.3123  0.0048
 2529SOL     OW19219   1.791   2.901   8.354 -0.2013 -0.1787  0.0467
 2529SOL    HW119220   1.823   2.837   8.417 -1.0525 -0.3512  0.3101
 2529SOL    HW219221   1.849   2.971   8.384  1.5420 -3.0640  3.4943
 2530SOL     OW19222   1.142   1.391   4.332 -0.1307  0.5868  0.0752
 2530SOL    HW119223   1.161   1.449   4.259 -0.6711 -1.0709 -1.3846
 2530SOL    HW219224   1.129   1.303   4.295 -1.1055  0.4957  0.6324
 2531SOL     OW19225   0.291   3.735   7.095  0.3200  0.2150 -0.1944
 2531SOL    HW119226   0.338   3.653   7.080 -1.9276 -0.9603 -0.8979
 2531SOL    HW219227   0.332   3.756   7.179 -0.4720 -1.4649  0.6263
 2532SOL     OW19228   0.901   2.486   2.547 -0.0258  0.4535  0.0537
 2532SOL    HW119229   0.952   2.552   2.593 -0.7654  0.0637  1.4194
 2532SOL    HW219230   0.831   2.545   2.519  0.3266  0.7294 -0.2497
 2533SOL     OW19231   4.594   2.208   3.536 -0.1636 -0.2644 -0.5930
 2533SOL    HW119232   4.529   2.140   3.519  1.9470 -1.8668 -2.3100
 2533SOL    HW219233   4.661   2.162   3.587  0.7309  2.1884  0.4638
 2534SOL     OW19234   1.948   3.059   5.556 -0.2419 -0.2824  0.1661
 2534SOL    HW119235   1.859   3.048   5.588 -0.0339 -0.4239  0.6970
 2534SOL    HW219236   1.948   3.135   5.497  0.7428 -0.4523 -0.0566
 2535SOL     OW19237   3.968   2.704   5.544  0.1185 -0.2353 -0.5520
 2535SOL    HW119238   3.881   2.678   5.513 -0.2417  0.5768 -0.2298
 2535SOL    HW219239   3.983   2.652   5.623 -0.3153  1.0022  0.3572
 2536SOL     OW19240   3.723   0.177   6.365 -0.5243 -0.2156  0.6265
 2536SOL    HW119241   3.766   0.141   6.287  0.2902 -2.0455  1.8996
 2536SOL    HW219242   3.761   0.264   6.359  0.8909 -0.6344  3.4249
 2537SOL     OW19243   2.862   0.419  16.980  1.0161 -0.0682 -0.3652
 2537SOL    HW119244   2.954   0.428  16.958  0.8928  0.9760 -0.4499
 2537SOL    HW219245   2.852   0.383  17.068  2.3397  0.0494 -0.1657
 2538SOL     OW19246   0.950   3.292   4.805 -0.3166 -0.5064 -0.1005
 2538SOL    HW119247   0.956   3.378   4.763  2.4492 -1.1627 -1.0777
 2538SOL    HW219248   0.975   3.314   4.895  2.1616 -1.9135 -0.4361
 2539SOL     OW19249   1.727   2.600  14.392 -0.4105 -0.3760 -0.4421
 2539SOL    HW119250   1.734   2.511  14.357 -1.9267 -0.4068 -0.6749
 2539SOL    HW219251   1.816   2.616  14.422 -1.2098  1.9200  0.7111
 2540SOL     OW19252   2.289   3.352   5.609  0.8012  0.4179  0.7871
 2540SOL    HW119253   2.269   3.345   5.703 -3.7004  0.7634 -0.1101
 2540SOL    HW219254   2.270   3.266   5.573 -0.2335  0.4787  1.1676
 2541SOL     OW19255   4.430   3.300   3.573 -0.3981  0.3897  0.2512
 2541SOL    HW119256   4.499   3.274   3.512 -0.5444  1.4301 -0.3642
 2541SOL    HW219257   4.453   3.243   3.646  3.9599  3.4979  1.2694
 2542SOL     OW19258   2.197   0.355   4.501  0.6843 -0.3607  0.3353
 2542SOL    HW119259   2.105   0.337   4.486  0.6975  1.1310 -1.5505
 2542SOL    HW219260   2.229   0.323   4.416  0.5419 -0.7963  0.4495
 2543SOL     OW19261   4.061   2.575   3.228  0.3331  0.2749  0.4099
 2543SOL    HW119262   4.113   2.534   3.159  0.5560  0.0770  0.6984
 2543SOL    HW219263   4.132   2.603   3.285 -1.1038  0.6573  2.0209
 2544SOL     OW19264   3.494   0.760  15.706 -0.3777 -0.2925  1.1461
 2544SOL    HW119265   3.519   0.848  15.735 -1.9924 -0.2112  2.3568
 2544SOL    HW219266   3.413   0.748  15.757  0.5630  0.2147  2.7583
 2545SOL     OW19267   4.069   0.761   6.855 -0.2994 -0.0592 -0.5220
 2545SOL    HW119268   4.143   0.815   6.882 -2.1002  2.0963  0.1888
 2545SOL    HW219269   3.997   0.813   6.892 -1.8161  0.3023 -4.0025
 2546SOL     OW19270   1.987   2.385   8.648  0.1058  0.2473 -0.0311
 2546SOL    HW119271   1.991   2.449   8.719  0.0402 -0.4225  0.5770
 2546SOL    HW219272   1.894   2.363   8.644  0.5256 -1.5399 -0.1174
 2547SOL     OW19273   1.190   1.014   6.176  0.0400 -0.2194  0.2176
 2547SOL    HW119274   1.096   1.032   6.172  0.2802  0.9653 -0.2070
 2547SOL    HW219275   1.217   0.981   6.091 -1.1218 -2.5964  0.7911
 2548SOL     OW19276   4.687   4.520   4.101  0.2386  0.1253 -0.2766
 2548SOL    HW119277   0.037   4.551   4.123  0.4939 -0.7507 -0.0768
 2548SOL    HW219278   4.635   4.581   4.154 -0.2208  0.5576 -1.2174
 2549SOL     OW19279   3.883   3.274   2.124  0.1091 -0.3461  0.3836
 2549SOL    HW119280   3.943   3.281   2.050 -0.0870  2.7182  0.5122
 2549SOL    HW219281   3.799   3.280   2.077 -0.1963 -1.2441  0.7946
 2550SOL     OW19282   0.722   3.381  17.195 -0.1802 -0.2903  0.1999
 2550SOL    HW119283   0.796   3.321  17.203 -0.1053 -0.4847 -1.9961
 2550SOL    HW219284   0.751   3.446  17.131  2.2772 -1.2307  0.3522
 2551SOL     OW19285   4.593   2.721   9.162  0.0615  0.5858 -0.3250
 2551SOL    HW119286   4.505   2.757   9.145 -0.8469 -1.6492 -0.2922
 2551SOL    HW219287   4.636   2.771   9.092 -1.7961  1.8352 -0.5790
 2552SOL     OW19288   4.416   1.353  14.939  0.3660 -0.2146 -0.5551
 2552SOL    HW119289   4.440   1.301  14.862 -1.3972 -0.2387 -1.0983
 2552SOL    HW219290   4.499   1.376  14.980  1.6455 -1.6163 -2.3486
 2553SOL     OW19291   0.572   3.526   7.994 -0.3987 -0.1971 -0.2628
 2553SOL    HW119292   0.571   3.521   8.089 -1.7101  1.0093 -0.2148
 2553SOL    HW219293   0.577   3.619   7.971 -0.1939 -0.0760  0.2705
 2554SOL     OW19294   0.024   2.180   1.043 -0.8495 -0.5692 -0.3429
 2554SOL    HW119295   4.674   2.217   1.032  0.5545  2.7787 -0.3181
 2554SOL    HW219296   0.069   2.217   0.966 -0.2705 -1.3207 -0.3640
 2555SOL     OW19297   0.959   3.374   4.487  0.0628  0.5824  0.9380
 2555SOL    HW119298   0.972   3.392   4.394 -0.1341  1.6083  1.1078
 2555SOL    HW219299   1.005   3.291   4.493 -0.4136  0.1627 -1.3249
 2556SOL     OW19300   0.732   3.397  10.322 -0.2794  0.5012 -0.0395
 2556SOL    HW119301   0.789   3.338  10.370 -2.4732 -1.2155  0.4459
 2556SOL    HW219302   0.671   3.428  10.389  0.7379  1.7601  0.2965
 2557SOL     OW19303   0.736   3.987   0.316 -0.4532  0.2537  0.3502
 2557SOL    HW119304   0.693   3.905   0.291 -1.6668  0.7708  0.7270
 2557SOL    HW219305   0.805   4.004   0.252 -0.0171  0.0310  0.7600
 2558SOL     OW19306   4.405   3.525   7.965  0.1271  0.0944  0.0777
 2558SOL    HW119307   4.480   3.474   7.994 -0.1278 -0.9411 -1.1009
 2558SOL    HW219308   4.349   3.452   7.938 -0.2905  0.0295  1.1156
 2559SOL     OW19309   0.410   0.957   2.184 -0.3090  0.4993  0.1368
 2559SOL    HW119310   0.414   0.991   2.095 -2.9466 -0.8803 -0.4979
 2559SOL    HW219311   0.330   0.906   2.182 -0.5602  0.9209 -0.4570
 2560SOL     OW19312   0.247   0.878  10.796 -0.3100 -0.3314  0.6627
 2560SOL    HW119313   0.287   0.877  10.883  1.7149  2.4558 -0.2430
 2560SOL    HW219314   0.166   0.921  10.823 -0.5850  1.0960 -2.4388
 2561SOL     OW19315   2.327   0.891   5.330  0.4060  0.0678  0.3437
 2561SOL    HW119316   2.340   0.813   5.276 -1.5689  0.2521 -0.3997
 2561SOL    HW219317   2.362   0.872   5.417 -1.9565 -0.8843  1.0965
 2562SOL     OW19318   3.962   3.344   4.979 -0.2498 -0.1923  0.1623
 2562SOL    HW119319   3.912   3.276   5.023  0.6373  0.3373  1.9592
 2562SOL    HW219320   4.051   3.316   5.001 -0.0488 -0.2833 -0.7511
 2563SOL     OW19321   2.445   2.263   4.868 -0.7461  0.4932  0.1914
 2563SOL    HW119322   2.466   2.348   4.830 -1.0268  0.2474 -0.5260
 2563SOL    HW219323   2.364   2.250   4.818  0.3462  1.1328 -1.7733
 2564SOL     OW19324   1.472   2.173   2.208  0.3645  0.2517 -0.0433
 2564SOL    HW119325   1.520   2.244   2.250 -0.0330  1.1150 -1.0483
 2564SOL    HW219326   1.402   2.157   2.271  1.9299 -1.1290  1.3698
 2565SOL     OW19327   3.649   0.979  12.023 -0.0749  0.6595  0.1396
 2565SOL    HW119328   3.574   0.952  11.970 -0.3099  0.0285  0.7994
 2565SOL    HW219329   3.707   1.005  11.952 -0.7557 -0.2427 -0.7535
 2566SOL     OW19330   2.212   3.014   0.790 -0.2426 -0.4808 -0.5724
 2566SOL    HW119331   2.268   2.957   0.736  1.0909  0.5545 -0.2905
 2566SOL    HW219332   2.273   3.082   0.819 -0.6361 -0.4340  0.1460
 2567SOL     OW19333   3.837   0.020   5.245  0.0699 -0.7457 -0.1725
 2567SOL    HW119334   3.751   4.716   5.245 -0.2055 -0.1590 -1.2963
 2567SOL    HW219335   3.886   4.695   5.192 -1.4593 -1.2337 -0.9807
 2568SOL     OW19336   0.041   0.697   8.700  0.0968  0.3321 -0.3350
 2568SOL    HW119337   0.132   0.679   8.724 -0.3684 -0.6255  0.7531
 2568SOL    HW219338   0.046   0.789   8.678 -1.3734  0.5219  0.1071
 2569SOL     OW19339   1.594   1.234   3.229  0.4102  0.1352 -0.0075
 2569SOL    HW119340   1.677   1.212   3.188  0.6132  0.7950  0.0449
 2569SOL    HW219341   1.574   1.325   3.207  0.3422 -0.0874 -0.8804
 2570SOL     OW19342   0.314   2.480   6.519  0.4787 -0.4822  0.5376
 2570SOL    HW119343   0.265   2.468   6.601  1.3696  1.3409  1.3302
 2570SOL    HW219344   0.316   2.575   6.511  2.4233 -0.5487  0.2852
 2571SOL     OW19345   1.607   0.692   3.824 -0.4937 -0.2116 -0.1033
 2571SOL    HW119346   1.643   0.781   3.823 -0.4614 -0.2242  0.3247
 2571SOL    HW219347   1.598   0.664   3.733 -1.1214 -2.5798  0.7015
 2572SOL     OW19348   4.347   2.393   8.877  0.4009 -0.4267  0.8318
 2572SOL    HW119349   4.384   2.382   8.965 -1.2119  1.7004  1.7751
 2572SOL    HW219350   4.404   2.331   8.831  1.1456  1.4892 -0.8137
 2573SOL     OW19351   4.137   3.097   1.637  0.0222 -0.2950 -1.1498
 2573SOL    HW119352   4.215   3.097   1.692 -2.2615 -0.2572  2.1432
 2573SOL    HW219353   4.156   3.025   1.577  0.9986 -0.9654 -0.0282
 2574SOL     OW19354   1.224   2.340  14.578  0.1143 -0.1280  0.3788
 2574SOL    HW119355   1.156   2.281  14.611 -0.3662 -1.0271 -2.2233
 2574SOL    HW219356   1.246   2.305  14.492 -1.3120 -0.6236  0.1996
 2575SOL     OW19357   3.202   1.279   8.582 -0.0405 -0.0952  0.1278
 2575SOL    HW119358   3.265   1.210   8.562  0.5408  0.7213 -0.8710
 2575SOL    HW219359   3.158   1.289   8.497  0.3171  0.1541 -0.0258
 2576SOL     OW19360   2.493   1.170   4.208 -0.3328  0.2109 -0.6586
 2576SOL    HW119361   2.571   1.132   4.168  0.6697  0.3114  1.2131
 2576SOL    HW219362   2.440   1.193   4.132 -1.2191  2.1028  0.5425
 2577SOL     OW19363   3.646   2.628   3.724 -0.6576 -0.0482  0.1701
 2577SOL    HW119364   3.651   2.670   3.638  1.2214 -1.1991 -0.2851
 2577SOL    HW219365   3.694   2.689   3.782 -0.3132 -1.1892  1.0885
 2578SOL     OW19366   1.276   2.963   7.739  0.5267  0.2805 -0.3160
 2578SOL    HW119367   1.354   3.018   7.739 -0.5721  1.8407  0.0894
 2578SOL    HW219368   1.260   2.967   7.645 -1.6468 -2.1809 -0.0278
 2579SOL     OW19369   3.865   1.324   9.487  0.4929 -0.0130 -0.6494
 2579SOL    HW119370   3.916   1.396   9.523  1.2653 -0.8138 -0.1323
 2579SOL    HW219371   3.868   1.351   9.396  0.2611  0.8274 -0.4112
 2580SOL     OW19372   3.411   4.613   9.605 -0.2248  0.5077 -0.2392
 2580SOL    HW119373   3.443   4.671   9.536 -2.0134  0.2031 -1.3260
 2580SOL    HW219374   3.458   4.533   9.585  2.0456  1.5040  1.1859
 2581SOL     OW19375   1.978   1.086   3.553  0.1039 -0.5117 -0.1949
 2581SOL    HW119376   1.894   1.099   3.596 -0.0631 -0.7751 -0.4377
 2581SOL    HW219377   1.966   0.995   3.526 -0.9780 -0.4691  0.1432
 2582SOL     OW19378   2.729   3.468   5.998 -0.4201  0.4720 -0.8620
 2582SOL    HW119379   2.748   3.377   5.976 -0.8613  0.2498 -0.3351
 2582SOL    HW219380   2.657   3.458   6.060 -0.6893 -0.7337 -1.3759
 2583SOL     OW19381   0.155   3.503   2.385 -0.5086  0.1970 -0.2918
 2583SOL    HW119382   0.076   3.469   2.343  0.2277  1.7368 -2.8901
 2583SOL    HW219383   0.125   3.594   2.390  0.0899  0.2788  2.0115
 2584SOL     OW19384   3.177   3.320   1.252  0.1119  0.4047  0.1970
 2584SOL    HW119385   3.266   3.289   1.269 -0.5499 -2.8886 -2.3290
 2584SOL    HW219386   3.118   3.296   1.324 -0.9886  1.4932 -0.3284
 2585SOL     OW19387   3.012   0.652   6.518  0.7276 -0.4422 -0.0634
 2585SOL    HW119388   3.076   0.647   6.590  0.3844  0.1026  0.2791
 2585SOL    HW219389   2.994   0.744   6.538  0.8295 -0.3721 -0.2924
 2586SOL     OW19390   4.380   2.211   2.002 -0.5203  0.4249  0.4183
 2586SOL    HW119391   4.425   2.275   2.058  1.1754  0.2497 -0.7320
 2586SOL    HW219392   4.335   2.272   1.943  0.3134  1.7503  1.1426
 2587SOL     OW19393   3.085   3.379  17.729  0.0931  0.5465 -0.2215
 2587SOL    HW119394   3.139   3.430  17.668  1.8659 -0.6855  0.3371
 2587SOL    HW219395   3.018   3.446  17.743  1.5975  1.7519  1.1477
 2588SOL     OW19396   1.766   1.277   5.787  0.0030 -0.7676 -0.2548
 2588SOL    HW119397   1.819   1.240   5.716 -0.1888  2.1517 -1.8918
 2588SOL    HW219398   1.701   1.332   5.744  0.8666  0.9226  0.5872
 2589SOL     OW19399   0.907   4.021  12.357 -0.5171 -0.1273 -0.2940
 2589SOL    HW119400   0.858   4.000  12.436 -1.7208  1.8645 -0.5109
 2589SOL    HW219401   0.868   3.948  12.309  0.7026  0.0603 -1.5981
 2590SOL     OW19402   1.378   2.802   5.202 -0.1322  0.1310 -0.8881
 2590SOL    HW119403   1.436   2.870   5.237  2.2063 -2.1923 -0.1703
 2590SOL    HW219404   1.398   2.823   5.111  0.1107 -0.1949 -0.9121
 2591SOL     OW19405   2.912   1.781   7.083  0.6046  0.6807 -0.1728
 2591SOL    HW119406   2.854   1.706   7.096  0.2451  0.8569 -0.7307
 2591SOL    HW219407   2.971   1.778   7.158  0.1070  1.1020  0.2341
 2592SOL     OW19408   1.212   1.031   1.510 -0.6143  0.5893 -0.5469
 2592SOL    HW119409   1.117   1.042   1.518 -0.6593 -0.3487  0.1619
 2592SOL    HW219410   1.225   0.975   1.586 -1.1132 -0.0765 -0.9548
 2593SOL     OW19411   4.337   1.098   2.905  0.0365 -0.2862  0.2936
 2593SOL    HW119412   4.364   1.156   2.834 -0.2000 -1.1160 -0.4641
 2593SOL    HW219413   4.273   1.150   2.954 -0.7185 -0.8987 -0.0436
 2594SOL     OW19414   4.176   4.713   7.091  0.1323 -0.2707 -0.1965
 2594SOL    HW119415   4.267   4.683   7.093  0.4061  0.5105 -1.3221
 2594SOL    HW219416   4.126   4.637   7.063 -0.5620  0.0009  0.3061
 2595SOL     OW19417   3.431   3.048   5.674  0.8253 -0.4786 -0.0450
 2595SOL    HW119418   3.453   3.043   5.767  2.6226  1.0221 -0.3897
 2595SOL    HW219419   3.338   3.062   5.690  0.8251 -0.5050 -0.0235
 2596SOL     OW19420   3.429   2.038  15.039 -0.0581  0.0552  0.6848
 2596SOL    HW119421   3.352   2.054  14.985  1.9833  0.1931 -2.1788
 2596SOL    HW219422   3.413   1.945  15.054 -1.3134  0.2848  0.7536
 2597SOL     OW19423   2.065   0.080   4.010 -0.3608 -0.0828  0.0046
 2597SOL    HW119424   2.120   0.093   4.087 -0.8382  0.7391  0.2043
 2597SOL    HW219425   1.987   0.129   4.035  0.1655  1.3418 -1.1702
 2598SOL     OW19426   4.199   0.645   9.920 -0.2164 -0.0036  0.4745
 2598SOL    HW119427   4.215   0.553   9.900  4.5989  0.2972  3.0667
 2598SOL    HW219428   4.118   0.648   9.868  0.2328 -0.2439 -0.2412
 2599SOL     OW19429   3.810   0.108  15.408  0.0380 -0.4174 -0.1554
 2599SOL    HW119430   3.769   0.171  15.468 -0.9982 -1.5200  0.3003
 2599SOL    HW219431   3.879   0.162  15.371 -0.1873 -0.9841 -1.4087
 2600SOL     OW19432   2.581   3.581  11.422 -0.2322  0.0511 -0.3657
 2600SOL    HW119433   2.659   3.575  11.478 -0.9807 -0.3595  0.6218
 2600SOL    HW219434   2.571   3.489  11.397  1.6614 -0.4796  0.7632
 2601SOL     OW19435   2.705   3.535   2.768 -0.3912 -0.1732 -0.0404
 2601SOL    HW119436   2.642   3.478   2.724 -0.1125  0.2129 -0.9409
 2601SOL    HW219437   2.664   3.563   2.850  0.4683 -1.9741  1.0001
 2602SOL     OW19438   1.356   2.597   9.595  0.1554 -0.1655 -0.1187
 2602SOL    HW119439   1.396   2.510   9.590 -0.4120 -0.3634 -1.2406
 2602SOL    HW219440   1.341   2.629   9.506 -0.7802 -0.1015  0.0603
 2603SOL     OW19441   0.637   0.804  10.227  0.6341  0.2083 -0.1494
 2603SOL    HW119442   0.564   0.742  10.220  0.1622  0.3722  3.3429
 2603SOL    HW219443   0.593   0.888  10.240 -0.3919 -0.4965  1.0292
 2604SOL     OW19444   0.141   3.102   5.536  0.8343 -0.1988 -0.2785
 2604SOL    HW119445   0.073   3.138   5.480  1.1989  0.4442 -0.3083
 2604SOL    HW219446   0.193   3.080   5.459 -0.6523 -0.3756 -1.2152
 2605SOL     OW19447   1.556   3.506  15.079  0.1858  0.0863  0.2298
 2605SOL    HW119448   1.501   3.560  15.022  0.2454 -0.1196 -0.0236
 2605SOL    HW219449   1.637   3.499  15.028 -0.2201 -0.0522 -0.4062
 2606SOL     OW19450   2.155   2.467   5.357 -0.0979  0.9388 -0.3521
 2606SOL    HW119451   2.200   2.389   5.326  0.2377  0.7436  0.6333
 2606SOL    HW219452   2.225   2.516   5.400 -0.0947  1.4257 -0.8947
 2607SOL     OW19453   4.262   1.677   6.363 -0.1658 -0.0163 -0.6583
 2607SOL    HW119454   4.307   1.730   6.296  2.8455 -1.3433  0.3284
 2607SOL    HW219455   4.191   1.741   6.369  2.3745  2.9769 -2.0734
 2608SOL     OW19456   2.185   2.288  13.511  0.6388 -0.4618 -0.3297
 2608SOL    HW119457   2.120   2.218  13.511  1.0486 -0.8345  0.5007
 2608SOL    HW219458   2.267   2.243  13.488 -0.6046 -1.6380 -2.4878
 2609SOL     OW19459   2.381   2.119   5.549 -0.0630  0.1844  0.0583
 2609SOL    HW119460   2.380   2.035   5.595  0.3900  0.4959  0.6347
 2609SOL    HW219461   2.294   2.154   5.568  0.5589  3.3441 -2.9772
 2610SOL     OW19462   4.658   4.280   6.177 -0.5172  0.0996 -0.5398
 2610SOL    HW119463   4.612   4.200   6.153 -0.2939  0.2657 -1.5220
 2610SOL    HW219464   4.711   4.301   6.101 -0.4088  1.6330 -0.0519
 2611SOL     OW19465   0.351   1.413  13.674 -0.3070  0.4230 -0.1556
 2611SOL    HW119466   0.378   1.483  13.734  0.1403 -0.3076  0.4958
 2611SOL    HW219467   0.377   1.343  13.733 -3.0779  0.0817  0.6592
 2612SOL     OW19468   1.374   2.075   0.525  0.1103 -0.2132 -0.3207
 2612SOL    HW119469   1.345   2.068   0.616  0.2211 -2.1057 -0.4178
 2612SOL    HW219470   1.452   2.019   0.522  1.5588  1.7237  1.4825
 2613SOL     OW19471   3.047   3.428   4.859  0.8877  0.8212  0.0676
 2613SOL    HW119472   3.009   3.515   4.868 -0.7977  0.2355 -1.3766
 2613SOL    HW219473   3.032   3.400   4.949 -0.9133  0.0702 -0.4793
 2614SOL     OW19474   2.546   4.041  13.941  0.2145 -0.2616  0.4024
 2614SOL    HW119475   2.505   4.127  13.947  2.0520  0.6348  0.0086
 2614SOL    HW219476   2.629   4.045  13.989 -0.3116 -1.9461  1.4735
 2615SOL     OW19477   2.087   0.805   8.693 -0.0354  0.0718 -0.0438
 2615SOL    HW119478   2.159   0.864   8.717 -1.8796  2.4934 -0.5066
 2615SOL    HW219479   2.128   0.719   8.703  0.3699  0.2166 -0.4275
 2616SOL     OW19480   2.352   2.594   1.947  0.5269 -0.1919  0.1797
 2616SOL    HW119481   2.387   2.669   1.899  1.1650  0.4975  1.7070
 2616SOL    HW219482   2.290   2.642   2.002 -2.0889  0.3985 -3.3309
 2617SOL     OW19483   2.078   2.344   0.737 -0.5150 -0.2924 -0.0092
 2617SOL    HW119484   2.146   2.378   0.679 -1.0524  1.9975  0.6945
 2617SOL    HW219485   1.994   2.377   0.703  0.6064  2.2644 -0.3403
 2618SOL     OW19486   1.085   4.125   5.203 -0.0890 -0.0323  0.4581
 2618SOL    HW119487   1.055   4.138   5.293  0.6297  0.2546  0.6476
 2618SOL    HW219488   1.026   4.171   5.143 -0.2256 -2.0440 -0.9864
 2619SOL     OW19489   1.261   3.920   8.853  0.0825 -0.3234 -0.3758
 2619SOL    HW119490   1.198   3.945   8.919 -0.4355  1.3228 -1.4981
 2619SOL    HW219491   1.256   3.824   8.859  1.0413 -0.4797 -1.9698
 2620SOL     OW19492   2.026   0.337   9.100  0.2154  0.4653 -0.1647
 2620SOL    HW119493   2.014   0.409   9.162  0.1686  0.1953  0.1386
 2620SOL    HW219494   1.992   0.383   9.022 -0.7918 -1.4554 -0.8558
 2621SOL     OW19495   2.878   3.072   2.021 -1.2039 -0.2415  0.4745
 2621SOL    HW119496   2.918   2.985   2.015 -0.3599 -0.0630  3.5721
 2621SOL    HW219497   2.950   3.129   1.993  1.2399 -1.9311  3.3686
 2622SOL     OW19498   0.974   3.555   6.147  1.0012 -0.4182  0.3876
 2622SOL    HW119499   0.983   3.527   6.055 -2.2830  0.3012 -0.1429
 2622SOL    HW219500   0.971   3.650   6.149 -0.0949 -0.4970  2.4393
 2623SOL     OW19501   1.335   0.787   7.347 -0.5812  1.0654  0.0541
 2623SOL    HW119502   1.308   0.729   7.276 -0.7686 -0.5825  1.4799
 2623SOL    HW219503   1.325   0.869   7.298 -0.3014  2.3144  2.0759
 2624SOL     OW19504   1.896   3.441   5.605 -0.7743  0.1670 -0.1909
 2624SOL    HW119505   1.919   3.418   5.695  0.7112  1.9756 -0.1129
 2624SOL    HW219506   1.921   3.533   5.605 -0.2921  0.0248 -1.5177
 2625SOL     OW19507   2.605   2.675  12.317  0.4187 -0.4128  0.4930
 2625SOL    HW119508   2.530   2.718  12.359  1.8305  1.5296  1.0111
 2625SOL    HW219509   2.565   2.595  12.283 -0.8808  0.8348 -0.9381
 2626SOL     OW19510   2.992   3.907  17.206 -0.0312  0.1178 -0.4734
 2626SOL    HW119511   3.077   3.892  17.247 -0.5729  3.4931  1.8506
 2626SOL    HW219512   2.948   3.934  17.286  0.1369  1.6361 -0.9009
 2627SOL     OW19513   1.051   0.994   0.760 -0.5700 -0.4382  0.3548
 2627SOL    HW119514   1.076   0.954   0.676  0.9794 -0.0799  0.6374
 2627SOL    HW219515   0.972   0.943   0.776  0.5499 -1.5912  2.1731
 2628SOL     OW19516   3.630   4.229  16.817 -0.5990 -0.3085 -0.2797
 2628SOL    HW119517   3.540   4.260  16.813 -0.8780 -1.3803 -1.9074
 2628SOL    HW219518   3.681   4.304  16.847 -0.1257 -0.4691 -0.6874
 2629SOL     OW19519   1.765   2.838   2.832 -0.0827  0.5454 -0.9486
 2629SOL    HW119520   1.748   2.744   2.837  0.7572  0.4846  1.0715
 2629SOL    HW219521   1.837   2.843   2.895 -1.7097  1.7164  0.8045
 2630SOL     OW19522   0.061   3.490   4.764  0.1883  0.5807 -0.0005
 2630SOL    HW119523   0.001   3.462   4.695 -0.2855  1.3315  0.1111
 2630SOL    HW219524   0.134   3.428   4.756 -2.5133 -2.5536 -0.3712
 2631SOL     OW19525   1.675   1.158   9.391  0.3827  0.5888  0.0422
 2631SOL    HW119526   1.587   1.132   9.364  0.5600 -0.4901  0.5420
 2631SOL    HW219527   1.707   1.069   9.399  0.2551  0.4149 -1.3428
 2632SOL     OW19528   1.336   3.630   3.995  0.1047 -0.6540 -0.2720
 2632SOL    HW119529   1.366   3.542   3.973  1.2139 -0.0665 -1.1042
 2632SOL    HW219530   1.245   3.631   3.966  0.4607 -0.7427 -1.3901
 2633SOL     OW19531   2.492   2.631   6.667 -0.1304 -0.0924 -0.3897
 2633SOL    HW119532   2.479   2.568   6.596  0.3877 -0.7512  0.0951
 2633SOL    HW219533   2.515   2.704   6.609 -2.5814  1.4577  0.6337
 2634SOL     OW19534   3.515   4.102  10.381  0.2088  0.2909  0.0598
 2634SOL    HW119535   3.608   4.119  10.399  0.1929  0.5604 -0.1042
 2634SOL    HW219536   3.496   4.053  10.461 -0.9207  0.5641 -0.0428
 2635SOL     OW19537   1.405   4.467   7.893  0.0582  0.0417  0.2109
 2635SOL    HW119538   1.382   4.559   7.879  1.8204  0.4879  0.2154
 2635SOL    HW219539   1.501   4.472   7.896  0.0397 -0.4245  1.7068
 2636SOL     OW19540   3.124   3.940   7.166 -0.1322 -0.2621  0.3568
 2636SOL    HW119541   3.194   3.989   7.122 -1.1433  0.4178 -0.4830
 2636SOL    HW219542   3.059   4.000   7.202  0.0230 -0.1089  0.3858
 2637SOL     OW19543   3.444   4.000   2.278 -0.2440  0.5775 -0.6677
 2637SOL    HW119544   3.538   4.020   2.271  0.2695 -1.1844  1.1645
 2637SOL    HW219545   3.407   4.084   2.254  0.8007  0.7945 -1.5294
 2638SOL     OW19546   3.809   1.550   9.876  0.2338  0.2708 -0.5548
 2638SOL    HW119547   3.724   1.582   9.844 -1.2440 -1.8669  1.2428
 2638SOL    HW219548   3.862   1.630   9.873 -0.6443  0.8010 -1.8878
 2639SOL     OW19549   2.607   3.180   4.718 -0.0801 -0.2532  0.5147
 2639SOL    HW119550   2.665   3.168   4.794  1.0082  1.2763 -0.0569
 2639SOL    HW219551   2.663   3.209   4.646 -0.0657 -0.6457  0.3722
 2640SOL     OW19552   4.645   0.619   9.760 -0.0890 -0.6978  0.0393
 2640SOL    HW119553   4.566   0.565   9.766  0.6151 -1.6199  1.0341
 2640SOL    HW219554   4.716   0.556   9.776 -0.1103 -0.4652  1.0926
 2641SOL     OW19555   2.608   0.371   7.495  0.4264 -0.0455  0.9285
 2641SOL    HW119556   2.597   0.334   7.582  1.2061 -1.4038  0.4492
 2641SOL    HW219557   2.686   0.423   7.514  0.4220  1.0680 -2.0842
 2642SOL     OW19558   2.565   3.669  11.177 -0.6287 -0.3259 -0.2783
 2642SOL    HW119559   2.576   3.589  11.125  0.8617 -2.1445  2.8704
 2642SOL    HW219560   2.541   3.636  11.263 -1.0051 -1.7124 -0.9036
 2643SOL     OW19561   2.490   0.753   3.937  0.1175 -0.1774  0.2824
 2643SOL    HW119562   2.578   0.720   3.920 -0.3556 -0.2470 -2.0348
 2643SOL    HW219563   2.478   0.713   4.024  0.6736  0.7620  0.7981
 2644SOL     OW19564   3.194   2.684   9.425 -0.0702 -0.3111 -0.2510
 2644SOL    HW119565   3.158   2.765   9.390 -0.8263 -0.8889 -0.7919
 2644SOL    HW219566   3.137   2.687   9.502 -0.2014  1.3299 -0.4185
 2645SOL     OW19567   1.074   3.118   6.652  0.3085  0.1075 -0.2650
 2645SOL    HW119568   1.017   3.076   6.717  1.5932  0.0142  0.7909
 2645SOL    HW219569   1.087   3.209   6.680 -1.3362  0.0533  0.6861
 2646SOL     OW19570   1.736   0.469   8.274 -0.4347 -0.6027 -0.5488
 2646SOL    HW119571   1.679   0.470   8.198  0.6077 -0.5490 -1.3314
 2646SOL    HW219572   1.825   0.468   8.239  0.1307 -1.3979  0.8927
 2647SOL     OW19573   1.103   3.811   5.597 -0.4896 -0.1360 -0.5054
 2647SOL    HW119574   1.148   3.808   5.682  1.2241  1.4807 -1.3484
 2647SOL    HW219575   1.131   3.730   5.555 -0.0692  0.4119 -1.2776
 2648SOL     OW19576   0.906   0.252   1.003 -0.5827  0.4025 -0.4502
 2648SOL    HW119577   0.890   0.345   0.989  0.1350  0.7770  1.2176
 2648SOL    HW219578   0.919   0.225   0.912 -0.2479  1.9531 -0.8444
 2649SOL     OW19579   3.047   2.193   6.133 -0.1642  0.3136 -0.0964
 2649SOL    HW119580   3.052   2.105   6.097 -0.5002 -0.1692  1.0285
 2649SOL    HW219581   2.973   2.226   6.082 -0.1396  0.5318  0.0068
 2650SOL     OW19582   3.667   0.437  13.572  0.3390 -0.4696 -0.0523
 2650SOL    HW119583   3.657   0.488  13.652  1.7134  1.6748 -1.2697
 2650SOL    HW219584   3.757   0.454  13.543  0.4311  1.8560  1.6021
 2651SOL     OW19585   3.392   2.374  13.813 -0.3382 -0.5140  0.3782
 2651SOL    HW119586   3.301   2.392  13.840 -0.6357 -0.1633 -0.8370
 2651SOL    HW219587   3.438   2.438  13.867 -2.4355 -0.2761  1.8863
 2652SOL     OW19588   0.039   2.856   2.500 -0.2411  0.0500 -0.1617
 2652SOL    HW119589   0.050   2.761   2.490  1.4354 -0.1108  3.1156
 2652SOL    HW219590   0.051   2.876   2.593  0.4230  0.4415 -0.3259
 2653SOL     OW19591   0.019   0.687   2.795 -0.0389  0.1207 -0.0601
 2653SOL    HW119592   4.727   0.622   2.859 -0.3732  0.7322  0.4130
 2653SOL    HW219593   4.673   0.725   2.768  0.0617  0.0673 -0.4435
 2654SOL     OW19594   0.679   3.069   1.611  0.2621  0.1770 -0.2251
 2654SOL    HW119595   0.630   2.989   1.630  2.2545 -1.4542 -2.0220
 2654SOL    HW219596   0.675   3.111   1.698  0.2171  2.3407 -1.2691
 2655SOL     OW19597   0.253   2.110   8.648 -0.0673 -0.2879  0.3861
 2655SOL    HW119598   0.329   2.060   8.678  0.7396 -0.7503 -2.3799
 2655SOL    HW219599   0.245   2.066   8.563 -0.7456  0.1584  0.2276
 2656SOL     OW19600   3.428   0.398   4.483 -0.4761 -1.1814  0.3036
 2656SOL    HW119601   3.490   0.384   4.412  0.0977  2.4318  0.1046
 2656SOL    HW219602   3.487   0.421   4.554 -1.7259  1.1726  0.5708
 2657SOL     OW19603   3.171   3.147  11.247 -0.6542 -0.0997 -0.1774
 2657SOL    HW119604   3.189   3.123  11.338 -1.4396  1.9522  0.5200
 2657SOL    HW219605   3.174   3.242  11.246  1.6937 -0.1763  1.9053
 2658SOL     OW19606   3.617   3.404  12.483 -0.2262  0.1631 -0.4625
 2658SOL    HW119607   3.546   3.378  12.542  0.9752 -1.3201  0.3405
 2658SOL    HW219608   3.659   3.483  12.516 -1.7159  0.4669  0.7072
 2659SOL     OW19609   3.854   1.505   6.158  0.4742 -0.0153  0.7624
 2659SOL    HW119610   3.914   1.567   6.199  1.6543 -1.8228  1.7501
 2659SOL    HW219611   3.910   1.448   6.105 -1.7935  0.4454 -2.1134
 2660SOL     OW19612   3.850   2.881   0.890  0.1219 -0.0515  0.3138
 2660SOL    HW119613   3.824   2.792   0.912  2.3865 -1.0400 -1.0697
 2660SOL    HW219614   3.873   2.913   0.977 -0.5084 -1.6170  1.0454
 2661SOL     OW19615   2.582   0.562   1.746  0.3954 -0.5519  0.0986
 2661SOL    HW119616   2.497   0.568   1.789  1.6879  1.5269  2.3487
 2661SOL    HW219617   2.633   0.584   1.824  1.4788  2.1022 -1.3678
 2662SOL     OW19618   0.597   0.728  11.190 -0.4321 -0.0641 -0.4961
 2662SOL    HW119619   0.519   0.766  11.149 -0.7959  2.0158  2.1028
 2662SOL    HW219620   0.634   0.662  11.132  0.7078  0.1161  0.0319
 2663SOL     OW19621   0.745   1.751  17.313  0.0566 -0.0934  0.0655
 2663SOL    HW119622   0.691   1.718  17.241 -0.0946  0.5948 -0.1390
 2663SOL    HW219623   0.720   1.843  17.324  0.8137  0.0383  0.7210
 2664SOL     OW19624   0.717   1.029   3.381 -0.6874  0.3941 -0.1156
 2664SOL    HW119625   0.702   1.122   3.362  0.0193  0.8149  1.3083
 2664SOL    HW219626   0.646   0.997   3.325 -1.5174  3.2424 -0.6895
 2665SOL     OW19627   3.189   2.838   2.923 -0.1685  0.1729  0.6140
 2665SOL    HW119628   3.235   2.789   2.991 -0.4911  0.7907  1.2866
 2665SOL    HW219629   3.110   2.871   2.967 -0.3009  1.4573 -0.5937
 2666SOL     OW19630   3.928   4.319   0.530  0.4033 -0.2138 -0.1405
 2666SOL    HW119631   4.019   4.312   0.501  1.2778  1.1189  2.2818
 2666SOL    HW219632   3.889   4.262   0.463 -0.8915 -0.5620  0.8999
 2667SOL     OW19633   4.496   4.621   4.808 -0.5161 -0.2497 -0.3469
 2667SOL    HW119634   4.470   4.578   4.727 -2.2681  0.5653 -0.2200
 2667SOL    HW219635   4.486   4.714   4.787  0.6981 -0.4103 -1.6306
 2668SOL     OW19636   2.701   4.655   6.154  0.3091 -0.5820 -0.1009
 2668SOL    HW119637   2.680   4.711   6.079 -4.6831 -2.1524  0.1457
 2668SOL    HW219638   2.789   4.688   6.173  0.4171  0.7437 -2.8656
 2669SOL     OW19639   3.129   1.299   4.829  0.6042 -0.6000  0.1965
 2669SOL    HW119640   3.105   1.229   4.890 -0.0325 -0.8773 -0.3752
 2669SOL    HW219641   3.221   1.320   4.847  0.2725  0.7135  0.3550
 2670SOL     OW19642   2.223   1.628   4.535  0.2825  0.5227  0.1660
 2670SOL    HW119643   2.250   1.668   4.452  0.2165 -1.2515 -0.7112
 2670SOL    HW219644   2.311   1.610   4.567  1.1249 -0.1630 -2.5137
 2671SOL     OW19645   3.723   0.120  11.732 -0.3085  0.2744 -0.1688
 2671SOL    HW119646   3.754   0.196  11.781 -1.6604  2.0342 -2.0200
 2671SOL    HW219647   3.809   0.079  11.719 -1.3088 -1.5310 -1.1124
 2672SOL     OW19648   0.547   0.082  15.330 -0.4425  0.4811  0.2105
 2672SOL    HW119649   0.618   0.034  15.286 -1.2379  2.0103 -2.7101
 2672SOL    HW219650   0.486   0.078  15.256  0.9264 -0.6834 -0.8627
 2673SOL     OW19651   3.684   0.107   8.741 -0.1309  0.1725 -0.3386
 2673SOL    HW119652   3.613   0.048   8.765 -1.4618  2.7534  2.0554
 2673SOL    HW219653   3.748   0.094   8.810  0.5660  3.1734 -0.3927
 2674SOL     OW19654   0.586   1.223   8.564  0.3245  0.2566 -0.0481
 2674SOL    HW119655   0.590   1.127   8.560 -0.9687  0.2991 -1.9545
 2674SOL    HW219656   0.493   1.239   8.581 -0.3911 -2.2649 -1.5969
 2675SOL     OW19657   3.695   4.509  14.708 -0.8687  0.7083 -0.2926
 2675SOL    HW119658   3.785   4.482  14.724 -1.0346  0.5968  0.4283
 2675SOL    HW219659   3.651   4.483  14.789  1.3151 -1.9188  0.0317
 2676SOL     OW19660   1.037   2.647  16.775 -0.0273 -0.4915  0.3769
 2676SOL    HW119661   1.052   2.710  16.846  0.3104  0.0062 -0.1330
 2676SOL    HW219662   1.119   2.600  16.793  1.3842  2.6160  2.1182
 2677SOL     OW19663   2.666   3.829  10.651 -0.0723  1.1400 -0.1963
 2677SOL    HW119664   2.755   3.817  10.684  0.1375  2.1374 -0.3916
 2677SOL    HW219665   2.621   3.842  10.735 -0.6399 -0.1409 -0.3092
 2678SOL     OW19666   0.571   2.607   2.245  0.1896  0.2689 -0.5239
 2678SOL    HW119667   0.622   2.639   2.320 -1.2583  0.9108  0.1804
 2678SOL    HW219668   0.511   2.545   2.285 -1.8948  1.5448 -1.6893
 2679SOL     OW19669   4.153   0.881   5.492  0.0138 -0.1187 -0.4942
 2679SOL    HW119670   4.066   0.906   5.522 -0.5687 -1.3711 -1.1369
 2679SOL    HW219671   4.139   0.844   5.404  1.4876  0.5998 -1.0403
 2680SOL     OW19672   3.706   4.413  15.899 -0.7437  0.1868 -1.1083
 2680SOL    HW119673   3.695   4.452  15.986  1.7206 -0.1455 -0.6746
 2680SOL    HW219674   3.615   4.385  15.883  0.0315 -2.2450 -1.2665
 2681SOL     OW19675   2.559   0.719   4.478  0.2559 -0.2095 -0.3047
 2681SOL    HW119676   2.622   0.787   4.456  0.7634 -0.6515 -0.2242
 2681SOL    HW219677   2.588   0.649   4.420  1.1397 -2.0892  2.3759
 2682SOL     OW19678   2.599   0.598   9.667  0.2547  0.0184 -0.2150
 2682SOL    HW119679   2.543   0.549   9.606  1.1631  0.6119 -1.5135
 2682SOL    HW219680   2.668   0.547   9.709  0.7868  0.6657 -0.3029
 2683SOL     OW19681   3.570   0.296   6.078 -0.1799  0.2282 -0.0423
 2683SOL    HW119682   3.619   0.335   6.005 -0.5639  1.1907  0.2163
 2683SOL    HW219683   3.630   0.306   6.152  0.9006 -1.3748 -0.6970
 2684SOL     OW19684   1.625   3.614   3.391  0.1689 -0.4794  0.3994
 2684SOL    HW119685   1.691   3.591   3.456  0.9653 -0.5648 -0.4314
 2684SOL    HW219686   1.581   3.529   3.389  0.0594 -0.4126  0.0190
 2685SOL     OW19687   1.846   1.386   4.028 -0.3549  0.0592  0.1728
 2685SOL    HW119688   1.782   1.340   3.973 -1.2233  1.1630  0.2447
 2685SOL    HW219689   1.830   1.350   4.115 -1.5762  1.4339  0.5201
 2686SOL     OW19690   4.552   0.219   7.131  0.0147 -0.0223 -0.0817
 2686SOL    HW119691   4.516   0.230   7.043 -2.8071  0.9767  1.2082
 2686SOL    HW219692   4.644   0.244   7.126 -0.2103  0.7777 -0.3792
 2687SOL     OW19693   3.307   4.049   9.941 -0.5409  0.3167 -0.5573
 2687SOL    HW119694   3.243   4.006   9.884 -0.8218  1.7810 -1.3264
 2687SOL    HW219695   3.248   4.080  10.010 -0.6118  0.0183 -0.4810
 2688SOL     OW19696   1.024   3.894   2.295 -0.4436 -0.2115 -0.2784
 2688SOL    HW119697   1.093   3.887   2.361 -1.5536  0.3673  0.9363
 2688SOL    HW219698   0.965   3.823   2.322 -0.9894  0.2517 -0.2427
 2689SOL     OW19699   3.534   3.351   8.046 -0.2545 -0.0530  0.4930
 2689SOL    HW119700   3.456   3.397   8.014 -0.3521 -0.2328  0.4733
 2689SOL    HW219701   3.518   3.357   8.140 -0.7768  0.4706  0.3694
 2690SOL     OW19702   2.124   3.562   4.299  0.5010 -0.4434 -0.9835
 2690SOL    HW119703   2.203   3.583   4.249  0.7950  2.3095  0.6015
 2690SOL    HW219704   2.168   3.550   4.384 -1.6699 -1.9963 -0.0810
 2691SOL     OW19705   1.330   1.666  14.874 -0.1531 -0.1009 -0.4278
 2691SOL    HW119706   1.354   1.657  14.782  2.1543 -2.9418  0.4936
 2691SOL    HW219707   1.365   1.750  14.904 -0.2467 -1.0703  2.3116
 2692SOL     OW19708   0.429   4.224   8.578  0.3301  1.0281 -0.1406
 2692SOL    HW119709   0.496   4.202   8.643 -0.6759  0.3454  0.6857
 2692SOL    HW219710   0.362   4.164   8.611  0.9769  0.1195 -0.4700
 2693SOL     OW19711   3.418   2.375   4.739 -1.1134 -0.4047 -0.0675
 2693SOL    HW119712   3.429   2.304   4.802 -0.3702 -1.8133 -1.8063
 2693SOL    HW219713   3.439   2.442   4.804 -0.6955 -1.1384  0.5553
 2694SOL     OW19714   1.664   4.386   2.755  0.0850  0.3000  0.2609
 2694SOL    HW119715   1.670   4.431   2.671  1.2179  2.8254  1.7117
 2694SOL    HW219716   1.656   4.295   2.725 -2.4333  1.1259 -1.5849
 2695SOL     OW19717   1.345   2.379  10.863  0.4400 -0.1326 -0.0867
 2695SOL    HW119718   1.344   2.325  10.941 -1.1845  0.4427  0.2975
 2695SOL    HW219719   1.435   2.405  10.841  0.8381 -0.5851  1.0326
 2696SOL     OW19720   0.393   3.732   7.362  0.3873 -0.3807 -0.1488
 2696SOL    HW119721   0.400   3.799   7.430 -0.3133 -0.3568 -0.1096
 2696SOL    HW219722   0.469   3.675   7.373 -0.7325 -1.8099  0.1228
 2697SOL     OW19723   0.159   4.037  12.745 -0.2635 -0.4765 -0.3327
 2697SOL    HW119724   0.248   4.049  12.710 -0.9713  0.0349 -1.9167
 2697SOL    HW219725   0.131   3.959  12.697  0.9562 -1.1648  0.0400
 2698SOL     OW19726   4.284   4.325  13.044  0.2462  0.5988  0.8695
 2698SOL    HW119727   4.253   4.237  13.023 -0.7319  0.7830  1.5214
 2698SOL    HW219728   4.335   4.342  12.965 -0.2057 -0.9320  0.2463
 2699SOL     OW19729   2.995   1.259   9.105  0.0132  0.4576 -0.3138
 2699SOL    HW119730   3.014   1.346   9.070 -2.9887  1.3549  0.3206
 2699SOL    HW219731   3.024   1.220   9.023 -0.8000  1.2403 -0.9713
 2700SOL     OW19732   4.022   0.127   2.714 -0.0797 -0.4580 -0.4209
 2700SOL    HW119733   3.939   0.170   2.736  0.4271  1.2699 -1.9049
 2700SOL    HW219734   4.000   0.036   2.696  2.5465 -0.9847 -0.9424
 2701SOL     OW19735   1.118   3.267   3.099  0.9342 -0.1349  0.0096
 2701SOL    HW119736   1.173   3.332   3.143  0.3423  0.6945 -0.4805
 2701SOL    HW219737   1.070   3.320   3.035 -1.0725  0.4567  1.9728
 2702SOL     OW19738   2.283   2.253   0.873 -0.7035  0.1974  0.3376
 2702SOL    HW119739   2.371   2.269   0.841 -0.5722  1.9181  1.5638
 2702SOL    HW219740   2.214   2.288   0.816 -0.0014  0.5046 -0.3103
 2703SOL     OW19741   2.806   3.788   5.896  0.0001 -0.4643 -0.2415
 2703SOL    HW119742   2.867   3.823   5.831  0.2756 -1.2893 -0.4295
 2703SOL    HW219743   2.858   3.723   5.943  1.6464  0.7099 -0.4567
 2704SOL     OW19744   2.591   2.521   4.743  0.1930  0.6248 -0.1352
 2704SOL    HW119745   2.555   2.607   4.720 -1.9308 -0.2059  0.1166
 2704SOL    HW219746   2.635   2.547   4.824 -3.0818 -0.2081  1.9242
 2705SOL     OW19747   3.330   0.356   6.784  0.1838 -0.0594  0.1235
 2705SOL    HW119748   3.263   0.423   6.768 -0.2462 -0.0425  1.9985
 2705SOL    HW219749   3.387   0.366   6.708 -1.5988  1.3488 -1.0203
 2706SOL     OW19750   4.730   1.659   3.009  0.1399  0.0553 -0.0517
 2706SOL    HW119751   0.057   1.596   2.976  0.9161  1.0690 -0.4885
 2706SOL    HW219752   4.652   1.604   3.001 -0.9503  1.8109 -1.3935
 2707SOL     OW19753   3.636   3.154   7.912 -0.2086  0.3234 -0.4522
 2707SOL    HW119754   3.730   3.172   7.918 -0.1968 -0.0938  0.6193
 2707SOL    HW219755   3.604   3.222   7.971  0.3476 -0.2229  0.4728
 2708SOL     OW19756   1.870   0.933  11.922  0.8004  0.2038 -0.7650
 2708SOL    HW119757   1.798   0.888  11.877  1.0894  0.7995 -1.8236
 2708SOL    HW219758   1.840   0.910  12.010 -1.4706  0.8139 -1.3714
 2709SOL     OW19759   1.654   3.649   4.989 -0.0148 -0.2442  0.8939
 2709SOL    HW119760   1.735   3.674   4.946  0.1454 -1.6087  0.3940
 2709SOL    HW219761   1.583   3.693   4.943  2.1250  0.7317 -1.4411
 2710SOL     OW19762   2.319   0.109   0.131 -0.2235  0.2826 -0.2181
 2710SOL    HW119763   2.261   0.069   0.195 -1.6093  0.9746 -1.0529
 2710SOL    HW219764   2.312   0.035   0.070  0.0803  0.0087  0.0761
 2711SOL     OW19765   4.654   3.244   9.135 -0.6722 -0.2241 -0.3029
 2711SOL    HW119766   4.701   3.315   9.092 -0.2322 -0.5161 -0.3101
 2711SOL    HW219767   4.715   3.172   9.153  0.6090  0.9875  0.2292
 2712SOL     OW19768   3.591   2.295   5.399  0.5732  0.3880 -0.9252
 2712SOL    HW119769   3.606   2.202   5.417 -1.1397  0.4870  1.1007
 2712SOL    HW219770   3.495   2.295   5.394  0.7199  2.1336 -3.3642
 2713SOL     OW19771   4.574   3.417   0.727 -0.1704 -0.5087 -0.0417
 2713SOL    HW119772   4.601   3.474   0.799  1.4256  0.6256 -1.5286
 2713SOL    HW219773   4.657   3.371   0.715  0.2537  0.4964 -0.9818
 2714SOL     OW19774   3.225   4.044   3.429  0.3099 -0.4669  0.3001
 2714SOL    HW119775   3.170   4.118   3.455  1.2415  0.1091  0.6220
 2714SOL    HW219776   3.310   4.078   3.455 -0.4796  0.4545  1.6224
 2715SOL     OW19777   3.590   2.547  10.946  0.9270  0.2154 -0.3801
 2715SOL    HW119778   3.583   2.580  10.856 -2.2107 -1.9575 -0.9423
 2715SOL    HW219779   3.599   2.628  10.997  1.9196 -0.2056  0.1093
 2716SOL     OW19780   4.122   3.781  10.113 -0.3365 -0.0456 -0.0830
 2716SOL    HW119781   4.166   3.780  10.028  0.7297  0.4538  0.4567
 2716SOL    HW219782   4.143   3.694  10.148  0.6310  0.8830  1.6607
 2717SOL     OW19783   0.719   3.296   7.595 -0.3510 -0.3289  0.1536
 2717SOL    HW119784   0.664   3.284   7.673  0.8199 -0.0183  1.0247
 2717SOL    HW219785   0.806   3.282   7.634 -0.5713  1.0117  1.1188
 2718SOL     OW19786   2.825   3.671   3.105 -0.3248 -0.6443 -0.1405
 2718SOL    HW119787   2.844   3.764   3.091  0.3210 -0.8475 -0.5948
 2718SOL    HW219788   2.848   3.668   3.198  0.9122 -0.7114 -0.4531
 2719SOL     OW19789   0.532   4.111   4.766  0.1039  0.0892  0.4236
 2719SOL    HW119790   0.504   4.174   4.833 -1.5137  0.4509 -0.5842
 2719SOL    HW219791   0.601   4.063   4.812  1.3173  2.7268  1.3420
 2720SOL     OW19792   1.235   1.584   7.965  0.0229 -0.8046 -0.3500
 2720SOL    HW119793   1.261   1.574   7.873  1.1275  2.0708 -0.3355
 2720SOL    HW219794   1.285   1.660   7.993 -0.0122 -0.9555  0.1128
 2721SOL     OW19795   3.324   3.496   7.961 -0.0489 -0.6470 -0.3268
 2721SOL    HW119796   3.374   3.550   7.900  0.4918 -0.8433 -0.0504
 2721SOL    HW219797   3.263   3.462   7.895  0.8550  0.6032 -1.8101
 2722SOL     OW19798   0.408   2.534   7.479  0.3236  0.2706  0.3652
 2722SOL    HW119799   0.382   2.584   7.556  1.0819 -1.5771  1.8455
 2722SOL    HW219800   0.485   2.497   7.523 -0.2210  0.8859  1.8483
 2723SOL     OW19801   4.026   2.424   1.758 -0.8410 -0.6616  0.5540
 2723SOL    HW119802   4.042   2.330   1.762 -1.4102 -0.7472  0.8365
 2723SOL    HW219803   4.031   2.439   1.663 -0.0875  0.3609  0.7584
 2724SOL     OW19804   1.059   0.668   2.596  0.3794  0.2611  0.3063
 2724SOL    HW119805   1.068   0.583   2.639  0.1267 -0.8700 -1.8869
 2724SOL    HW219806   0.966   0.655   2.578 -0.0137 -0.1004  2.6107
 2725SOL     OW19807   2.473   3.539   8.325 -0.4817 -0.3166  0.4589
 2725SOL    HW119808   2.558   3.575   8.353 -0.7018 -0.2185  0.9907
 2725SOL    HW219809   2.496   3.494   8.243 -0.6609 -0.8982  0.7367
 2726SOL     OW19810   0.593   0.955  10.824  0.0636 -0.1752 -0.1925
 2726SOL    HW119811   0.561   0.957  10.734  0.7857  0.3379 -0.4448
 2726SOL    HW219812   0.607   0.861  10.832 -0.4184 -0.1733  0.6136
 2727SOL     OW19813   0.936   3.182   7.323 -0.7910  0.6443  0.2918
 2727SOL    HW119814   0.881   3.117   7.368  1.0496 -1.6758 -0.8149
 2727SOL    HW219815   0.975   3.133   7.251  0.4385  0.3098  1.1800
 2728SOL     OW19816   2.194   0.560  11.895 -0.4206  0.0801  0.4172
 2728SOL    HW119817   2.152   0.646  11.895 -2.1395 -0.7695  2.2841
 2728SOL    HW219818   2.128   0.514  11.842  0.4698  0.9649 -1.4794
 2729SOL     OW19819   1.150   1.064   4.481 -0.0501  0.2587 -0.1698
 2729SOL    HW119820   1.229   1.058   4.427  0.6825  2.1257  0.6758
 2729SOL    HW219821   1.075   1.072   4.422 -0.2593  0.8162  0.1657
 2730SOL     OW19822   4.001   4.472   6.957 -0.2042  0.0899  0.2742
 2730SOL    HW119823   4.051   4.418   6.895  1.9076  2.2806  0.0412
 2730SOL    HW219824   3.967   4.540   6.898 -1.3065  0.0599  0.8863
 2731SOL     OW19825   1.213   3.305   7.694 -0.2998 -0.1133  0.1809
 2731SOL    HW119826   1.218   3.320   7.599 -0.6973  0.4706  0.2527
 2731SOL    HW219827   1.293   3.253   7.704 -0.7662 -1.4791 -3.1460
 2732SOL     OW19828   4.260   0.842   8.685  0.0296 -0.7908 -0.5678
 2732SOL    HW119829   4.206   0.857   8.608 -0.8223  3.6489  0.8994
 2732SOL    HW219830   4.235   0.916   8.741 -1.7227 -1.0455 -1.0298
 2733SOL     OW19831   3.432   4.373   6.358 -0.0408 -0.1908  0.1475
 2733SOL    HW119832   3.471   4.286   6.349 -2.3712 -1.1320 -0.9838
 2733SOL    HW219833   3.504   4.422   6.399  0.1660 -0.7628  0.4599
 2734SOL     OW19834   0.055   3.357   6.108  0.7351 -0.6650  0.2217
 2734SOL    HW119835   0.093   3.387   6.191  0.0269  1.0707 -0.0766
 2734SOL    HW219836   0.080   3.429   6.050 -1.1271 -1.2125 -1.2335
 2735SOL     OW19837   0.613   2.010  10.441 -0.5161 -0.2754  0.4429
 2735SOL    HW119838   0.593   2.097  10.475 -1.2133 -0.3731  0.2852
 2735SOL    HW219839   0.692   1.988  10.491 -1.2742 -1.6224  1.0411
 2736SOL     OW19840   3.203   2.163  14.487  0.0153 -0.3560 -0.1892
 2736SOL    HW119841   3.215   2.249  14.528 -0.1940 -0.5706  0.3252
 2736SOL    HW219842   3.279   2.121  14.527  0.0422 -0.4989 -0.3895
 2737SOL     OW19843   0.055   4.582  15.009  0.3487  0.0062  0.4497
 2737SOL    HW119844   4.708   4.613  15.039  0.4175  1.1565 -0.5252
 2737SOL    HW219845   0.087   4.667  14.977  1.8938 -0.0692  1.7853
 2738SOL     OW19846   0.193   3.079   7.589 -0.2055 -0.1640 -0.4863
 2738SOL    HW119847   0.126   3.100   7.524  1.2053 -2.6007 -2.7351
 2738SOL    HW219848   0.166   3.135   7.662  1.4023  0.1431 -0.1302
 2739SOL     OW19849   3.377   1.071   8.464  0.3584  0.0011  0.0208
 2739SOL    HW119850   3.432   1.148   8.452 -0.6535  0.7180 -0.0178
 2739SOL    HW219851   3.430   1.037   8.537  0.3661 -0.6118 -0.2713
 2740SOL     OW19852   1.722   3.038   5.875 -0.0871 -0.2563  0.4860
 2740SOL    HW119853   1.766   2.991   5.946  1.3121  2.3337  1.3187
 2740SOL    HW219854   1.695   3.123   5.910  0.3228  0.0005  0.1856
 2741SOL     OW19855   1.600   0.743   4.123 -0.8353 -0.4080  0.0845
 2741SOL    HW119856   1.625   0.708   4.038 -1.7450 -0.2183 -0.2614
 2741SOL    HW219857   1.529   0.801   4.098 -0.9655 -0.7279 -0.2904
 2742SOL     OW19858   0.215   2.844  12.627  0.9541 -0.1295  0.0223
 2742SOL    HW119859   0.131   2.798  12.626  1.0112 -0.2574  1.0472
 2742SOL    HW219860   0.259   2.792  12.560 -2.3637 -2.8970 -0.0275
 2743SOL     OW19861   1.551   0.829   7.842 -0.0153  0.5721  0.1818
 2743SOL    HW119862   1.602   0.909   7.833  0.6342  0.3858  2.2547
 2743SOL    HW219863   1.578   0.803   7.930 -0.0086 -2.6593 -0.7723
 2744SOL     OW19864   4.692   2.668  11.408 -0.2027 -0.0394 -0.6128
 2744SOL    HW119865   4.696   2.693  11.500  2.5123  1.3084 -1.1125
 2744SOL    HW219866   0.028   2.718  11.373  1.7556 -0.9112  2.2685
 2745SOL     OW19867   2.036   3.852   4.403  0.0215 -0.2260 -0.7425
 2745SOL    HW119868   2.006   3.798   4.330 -4.0368  0.8228  0.1658
 2745SOL    HW219869   1.956   3.897   4.430 -1.2797 -3.3614  0.6825
 2746SOL     OW19870   2.307   3.137   9.136  0.5661  0.7098 -1.1028
 2746SOL    HW119871   2.327   3.135   9.230 -1.1413 -1.5295 -0.8075
 2746SOL    HW219872   2.261   3.221   9.141  3.7465  2.2952  1.4460
 2747SOL     OW19873   1.203   2.286   7.478 -0.2021 -0.3274 -0.2963
 2747SOL    HW119874   1.169   2.236   7.403  0.8117 -3.2455  1.1645
 2747SOL    HW219875   1.214   2.216   7.543 -0.0970 -0.1349 -0.1048
 2748SOL     OW19876   1.326   3.740   3.258  0.1794  0.0055  1.0169
 2748SOL    HW119877   1.282   3.793   3.191 -0.6699 -2.3042 -0.2913
 2748SOL    HW219878   1.419   3.752   3.243  0.2781  0.4389  2.0095
 2749SOL     OW19879   0.871   2.804   7.227 -0.2756  0.2665 -0.2295
 2749SOL    HW119880   0.834   2.892   7.218  0.7266  0.8802  1.5205
 2749SOL    HW219881   0.856   2.800   7.322  0.2333  0.8714 -0.1170
 2750SOL     OW19882   3.024   3.037  10.689  0.0326  0.1903  0.1693
 2750SOL    HW119883   3.104   2.985  10.685  0.0469  0.2902 -1.0032
 2750SOL    HW219884   2.984   2.989  10.616 -1.2248  0.5873  0.6106
 2751SOL     OW19885   0.699   3.426   5.946 -0.2719 -0.0284 -0.1858
 2751SOL    HW119886   0.791   3.402   5.959  0.2710  2.3043  0.3090
 2751SOL    HW219887   0.658   3.342   5.922  2.5982 -1.5241  0.2084
 2752SOL     OW19888   0.017   4.076   2.632  0.1351 -0.0700 -0.0003
 2752SOL    HW119889   4.689   4.058   2.564  1.4841 -1.8227 -0.8569
 2752SOL    HW219890   0.036   4.164   2.600 -0.7480  0.6461  1.4887
 2753SOL     OW19891   1.945   2.633  17.015 -0.2294 -0.6233 -0.1292
 2753SOL    HW119892   1.922   2.581  16.938 -0.9170 -1.9856  0.9812
 2753SOL    HW219893   2.027   2.590  17.039  0.8164  0.8362 -1.1047
 2754SOL     OW19894   2.832   4.301   6.050 -0.3036  0.6427 -0.3086
 2754SOL    HW119895   2.820   4.395   6.044  2.7381  1.1268  1.2741
 2754SOL    HW219896   2.906   4.283   6.108 -1.3928 -1.3873  0.4763
 2755SOL     OW19897   3.032   1.536   9.045  0.7975  0.2073  0.5298
 2755SOL    HW119898   3.083   1.564   8.969  2.3345 -0.7207  1.2013
 2755SOL    HW219899   3.053   1.601   9.113  0.1336 -0.9331  1.8392
 2756SOL     OW19900   1.973   1.514   6.992  0.1347 -0.0422  0.6655
 2756SOL    HW119901   2.036   1.477   7.055  1.4866  0.0000 -0.6507
 2756SOL    HW219902   2.013   1.583   6.939 -1.2952 -0.7249 -1.2820
 2757SOL     OW19903   3.848   3.082  12.035 -0.0725  0.0827 -0.4864
 2757SOL    HW119904   3.764   3.035  12.035 -0.9404  1.6011 -2.2519
 2757SOL    HW219905   3.833   3.161  11.983 -0.6230  0.4945  0.3051
 2758SOL     OW19906   1.603   3.128   2.759 -0.2720  0.0928 -0.1007
 2758SOL    HW119907   1.543   3.097   2.826 -0.0201  1.3220  0.6856
 2758SOL    HW219908   1.661   3.052   2.756 -0.8766 -0.5064  4.3377
 2759SOL     OW19909   1.486   4.281   8.946  0.2501 -0.0677 -0.0190
 2759SOL    HW119910   1.462   4.372   8.929 -1.2169 -0.8183 -1.8589
 2759SOL    HW219911   1.508   4.292   9.039  0.8628 -1.9578  0.0568
 2760SOL     OW19912   4.212   2.280   4.792  0.1783 -0.3570 -0.2921
 2760SOL    HW119913   4.229   2.367   4.756 -2.2739  0.1630 -0.1578
 2760SOL    HW219914   4.258   2.222   4.732 -2.0006 -0.7099 -1.6271
 2761SOL     OW19915   0.174   2.869   0.867  0.1959  0.0388 -0.4884
 2761SOL    HW119916   0.166   2.923   0.788 -1.0866 -0.6504 -0.8364
 2761SOL    HW219917   0.132   2.785   0.848 -2.4115  1.0012  0.9030
 2762SOL     OW19918   3.151   2.248   7.894  0.0266  0.5420 -0.4209
 2762SOL    HW119919   3.087   2.274   7.960  0.0480  1.8091 -0.8915
 2762SOL    HW219920   3.225   2.306   7.912  0.8545 -0.6434 -0.0297
 2763SOL     OW19921   2.268   1.203  14.977  0.2878 -0.0793  0.3292
 2763SOL    HW119922   2.343   1.161  15.019  0.0720  0.2801  1.0865
 2763SOL    HW219923   2.288   1.202  14.883  0.6972 -0.0531  0.4150
 2764SOL     OW19924   4.092   2.415  15.158 -0.4818 -0.0030 -0.0253
 2764SOL    HW119925   4.051   2.492  15.119 -1.4045  0.4158  1.7407
 2764SOL    HW219926   4.017   2.356  15.163 -2.0636  2.0439  0.2098
 2765SOL     OW19927   2.832   4.088   8.515  0.3467 -0.3768  0.6705
 2765SOL    HW119928   2.846   3.994   8.513  4.5472  0.3132 -1.6665
 2765SOL    HW219929   2.782   4.100   8.596 -0.7401  1.2005 -0.2323
 2766SOL     OW19930   0.304   1.755  16.996  0.1637  0.1711  0.3908
 2766SOL    HW119931   0.329   1.744  16.904  0.5616 -2.0603  0.7615
 2766SOL    HW219932   0.222   1.705  16.994 -1.0940  2.2064  0.9871
 2767SOL     OW19933   2.589   0.170   3.849 -0.4415 -1.1287  0.3712
 2767SOL    HW119934   2.594   0.210   3.762  3.2518 -1.7227  0.3005
 2767SOL    HW219935   2.648   0.095   3.838  2.3778  1.3597 -1.4037
 2768SOL     OW19936   0.307   0.643   8.659 -0.5138  0.3343 -0.2889
 2768SOL    HW119937   0.326   0.684   8.575  1.3604 -1.1966 -0.6003
 2768SOL    HW219938   0.371   0.668   8.726 -1.6971  2.7790 -0.0523
 2769SOL     OW19939   2.139   0.467  12.146 -0.0967 -0.0562 -0.1941
 2769SOL    HW119940   2.173   0.378  12.161 -1.1805 -0.3092  0.7384
 2769SOL    HW219941   2.180   0.501  12.066  0.1967  0.1482  0.0410
 2770SOL     OW19942   0.341   0.677   7.054  0.9467 -0.0288  0.2255
 2770SOL    HW119943   0.395   0.624   7.113  1.0874 -1.3776 -1.1192
 2770SOL    HW219944   0.305   0.610   6.998 -0.0679 -0.5500  1.5017
 2771SOL     OW19945   3.466   0.008   9.134  0.1764 -0.1978 -0.0177
 2771SOL    HW119946   3.403   0.074   9.162 -2.8853 -1.4611 -3.8935
 2771SOL    HW219947   3.481   4.693   9.213 -1.3214 -1.4997 -0.6082
 2772SOL     OW19948   2.355   2.451  16.358 -0.1086 -0.7956 -0.2297
 2772SOL    HW119949   2.348   2.390  16.284 -1.6596  0.3183 -0.9891
 2772SOL    HW219950   2.401   2.524  16.316 -0.8396 -0.0344  0.2959
 2773SOL     OW19951   2.312   2.780  13.133 -0.1592 -0.8118  0.5223
 2773SOL    HW119952   2.292   2.712  13.198  0.2344  0.6020  2.1107
 2773SOL    HW219953   2.285   2.859  13.181  0.4895  0.5189 -1.3355
 2774SOL     OW19954   1.668   3.273   8.176 -0.3803  0.2883 -0.1292
 2774SOL    HW119955   1.629   3.200   8.223  2.1954 -0.5640  0.6393
 2774SOL    HW219956   1.747   3.282   8.228  1.1668  0.2786 -2.4765
 2775SOL     OW19957   2.932   1.457   1.826  0.3814  0.2475  0.3328
 2775SOL    HW119958   2.988   1.457   1.903 -1.8042  0.9610  1.9124
 2775SOL    HW219959   2.858   1.506   1.861 -0.3050 -0.3603 -0.2538
 2776SOL     OW19960   2.229   2.984   3.477 -0.0143 -0.3794 -0.0020
 2776SOL    HW119961   2.232   3.053   3.410  0.8753 -0.5532 -0.1464
 2776SOL    HW219962   2.289   2.917   3.443 -0.8009 -1.9894  1.7920
 2777SOL     OW19963   2.998   2.549   2.592  0.2399  0.4395  0.2733
 2777SOL    HW119964   3.093   2.534   2.586  0.3688  1.7743 -1.0256
 2777SOL    HW219965   3.005   2.643   2.571 -0.1634  0.8546  1.9665
 2778SOL     OW19966   1.567   4.509   6.742 -0.5139  0.2099 -0.2466
 2778SOL    HW119967   1.567   4.420   6.706 -0.9450 -0.4924  1.4952
 2778SOL    HW219968   1.645   4.505   6.797  0.5752  0.8796 -1.7249
 2779SOL     OW19969   0.430   1.668   4.066  0.0873  0.2744  0.0071
 2779SOL    HW119970   0.373   1.610   4.014 -0.2433  0.0113  0.6660
 2779SOL    HW219971   0.495   1.695   4.001  0.3023 -1.4843 -0.5155
 2780SOL     OW19972   3.508   0.244   2.620 -0.0635 -0.0938  0.5139
 2780SOL    HW119973   3.523   0.150   2.628 -2.0660 -0.2859  1.8611
 2780SOL    HW219974   3.493   0.271   2.711  1.4529 -2.2718  1.4123
 2781SOL     OW19975   4.504   0.432   5.505  0.1618 -0.1443  0.4187
 2781SOL    HW119976   4.557   0.359   5.536  0.5353 -1.2008 -2.6566
 2781SOL    HW219977   4.451   0.399   5.432 -1.7339 -2.2897  2.8075
 2782SOL     OW19978   2.816   0.413   6.104 -0.6711 -0.1273 -0.3587
 2782SOL    HW119979   2.817   0.428   6.199 -1.9024 -0.4953 -0.2809
 2782SOL    HW219980   2.880   0.343   6.090 -0.8137 -0.2990 -0.1430
 2783SOL     OW19981   3.792   3.696   9.490  0.5135 -0.4142 -0.1589
 2783SOL    HW119982   3.710   3.660   9.522  0.6994 -1.2027 -0.5598
 2783SOL    HW219983   3.835   3.716   9.573  0.5883 -0.4121 -0.1974
 2784SOL     OW19984   0.974   3.157   2.673  0.0379 -0.0888 -0.5202
 2784SOL    HW119985   0.976   3.211   2.752 -1.3146 -2.2654  1.0105
 2784SOL    HW219986   1.053   3.103   2.677 -1.3005 -2.0936 -0.7527
 2785SOL     OW19987   3.434   4.625   2.842  0.3194 -0.0959  0.2776
 2785SOL    HW119988   3.501   4.632   2.910 -1.4950 -0.3784  2.0846
 2785SOL    HW219989   3.481   4.654   2.765 -0.3914  0.9708  0.2521
 2786SOL     OW19990   1.911   1.859   7.947  0.3274  0.2126 -0.1432
 2786SOL    HW119991   1.935   1.824   8.033 -0.6792 -1.5019 -0.5624
 2786SOL    HW219992   1.979   1.825   7.888  1.5357  0.7920  0.9237
 2787SOL     OW19993   3.186   3.901  17.570  0.8276 -0.1884  0.2126
 2787SOL    HW119994   3.210   3.880  17.480 -0.0686 -1.7539  0.3397
 2787SOL    HW219995   3.247   3.971  17.592 -0.9275  1.3220  0.2456
 2788SOL     OW19996   2.703   2.923  13.940  0.0860  0.0027  0.2768
 2788SOL    HW119997   2.643   2.997  13.931 -0.8767 -0.4969  2.5068
 2788SOL    HW219998   2.732   2.932  14.031 -0.5514 -0.5256  0.5295
 2789SOL     OW19999   1.515   4.072   0.763 -0.2866 -0.5089  0.1404
 2789SOL    HW120000   1.454   4.003   0.736 -0.1429 -0.6943  0.2892
 2789SOL    HW220001   1.484   4.148   0.714  0.2211 -0.5012 -0.1658
 2790SOL     OW20002   0.447   0.432   5.134 -0.1395  0.6133 -0.4501
 2790SOL    HW120003   0.404   0.422   5.219  2.5218 -1.5808  0.6201
 2790SOL    HW220004   0.494   0.349   5.125 -0.1312  0.5076  0.5680
 2791SOL     OW20005   2.307   4.586   6.996  0.7558 -0.4586  0.1814
 2791SOL    HW120006   2.335   4.676   7.011 -1.2973 -0.2392  2.5309
 2791SOL    HW220007   2.380   4.539   7.036 -0.0468 -1.5520  0.3498
 2792SOL     OW20008   0.786   0.904   2.907  0.0388  0.7170 -0.5060
 2792SOL    HW120009   0.741   0.880   2.826 -2.1043  1.1433  0.5366
 2792SOL    HW220010   0.726   0.976   2.926  0.1451  0.7448 -0.2800
 2793SOL     OW20011   3.839   1.102  14.160  0.1124  0.5919 -0.1509
 2793SOL    HW120012   3.783   1.179  14.174 -0.6013 -0.2376  1.5304
 2793SOL    HW220013   3.829   1.096  14.065  1.6276  0.4011 -0.2953
 2794SOL     OW20014   3.544   2.322   3.973  0.1310  0.0552 -0.6193
 2794SOL    HW120015   3.605   2.303   3.902 -0.9639  1.4589 -1.9322
 2794SOL    HW220016   3.550   2.236   4.015 -2.3192 -0.0037 -0.3962
 2795SOL     OW20017   3.123   4.632  10.226  0.2567  0.3334 -0.2349
 2795SOL    HW120018   3.086   4.670  10.306 -0.6825 -1.5096  0.2239
 2795SOL    HW220019   3.105   4.545  10.261 -1.8358  0.8135 -0.0694
 2796SOL     OW20020   1.038   3.397   8.555 -0.2443  0.3411 -0.2002
 2796SOL    HW120021   1.131   3.394   8.575 -0.4369  1.5653  0.8600
 2796SOL    HW220022   1.024   3.305   8.534  0.9568 -0.2175  1.4553
 2797SOL     OW20023   4.119   2.721   5.335 -0.0102  0.4049  0.6895
 2797SOL    HW120024   4.175   2.647   5.357 -1.1362 -1.0491 -1.3164
 2797SOL    HW220025   4.054   2.705   5.403  0.6698  0.1192  1.2745
 2798SOL     OW20026   4.286   3.302   7.896  0.5069 -0.4238 -0.1317
 2798SOL    HW120027   4.218   3.321   7.961  2.8478 -0.7971  2.4406
 2798SOL    HW220028   4.264   3.364   7.826 -0.4431  0.4627  0.9413
 2799SOL     OW20029   1.919   2.250   9.076 -0.4532 -0.8839  0.0226
 2799SOL    HW120030   1.958   2.185   9.134 -0.3394 -1.8772 -1.1756
 2799SOL    HW220031   1.893   2.202   8.997 -0.9513  2.9955 -2.1760
 2800SOL     OW20032   3.498   0.244  15.428  0.2283 -0.8186 -0.3649
 2800SOL    HW120033   3.461   0.303  15.361  0.1579  0.3684  0.7188
 2800SOL    HW220034   3.588   0.235  15.397  0.8034  1.8364  0.5023
 2801SOL     OW20035   3.970   2.953   1.151 -0.1642  0.2861 -0.3731
 2801SOL    HW120036   3.960   3.047   1.167 -1.1530 -0.0177  0.7541
 2801SOL    HW220037   3.975   2.922   1.241  0.9963  0.9323 -0.2136
 2802SOL     OW20038   1.593   1.229   1.821  0.0189 -0.1692 -0.3447
 2802SOL    HW120039   1.573   1.320   1.801  1.4504  0.4013  0.7570
 2802SOL    HW220040   1.590   1.229   1.917  1.6073  1.9335 -0.2887
 2803SOL     OW20041   2.957   0.570  15.029 -0.6630 -0.0315 -0.4873
 2803SOL    HW120042   2.889   0.576  14.961 -1.1220 -1.2335 -0.1296
 2803SOL    HW220043   3.028   0.533  14.977 -0.4618  1.6307 -1.4194
 2804SOL     OW20044   0.029   3.006  17.383 -0.0147  0.3903 -0.0914
 2804SOL    HW120045   0.067   3.030  17.298  0.6561  2.2597  0.7306
 2804SOL    HW220046   4.672   2.999  17.376  0.1504 -1.5280 -0.3602
 2805SOL     OW20047   2.324   1.974   4.598 -0.6387  0.8109  0.1536
 2805SOL    HW120048   2.266   1.911   4.641 -2.8034  1.8958 -1.2166
 2805SOL    HW220049   2.312   2.060   4.639 -0.1917  1.0484 -0.2014
 2806SOL     OW20050   3.541   1.957   2.782  0.5298  0.2451 -0.3503
 2806SOL    HW120051   3.491   1.879   2.759 -2.6609  2.1791  0.0328
 2806SOL    HW220052   3.468   2.007   2.818 -1.4652 -1.7016 -1.7155
 2807SOL     OW20053   3.169   4.100   4.484 -0.0427  0.1254  0.1633
 2807SOL    HW120054   3.126   4.057   4.558  1.0012  1.2526  1.4465
 2807SOL    HW220055   3.146   4.051   4.405 -0.0140 -2.0629  1.5096
 2808SOL     OW20056   3.382   1.134   7.229  0.3832  0.1052 -0.4331
 2808SOL    HW120057   3.394   1.217   7.275 -0.2519  1.3610 -2.5134
 2808SOL    HW220058   3.410   1.073   7.297 -1.3327  0.5241  0.6385
 2809SOL     OW20059   0.480   1.010  10.261  0.4538 -0.1932 -0.0139
 2809SOL    HW120060   0.391   1.041  10.282 -1.3345 -4.6867 -1.0874
 2809SOL    HW220061   0.526   1.084  10.302  2.3421 -0.6934 -1.2259
 2810SOL     OW20062   0.069   3.554   5.951 -0.2025  0.3986  0.3382
 2810SOL    HW120063   4.728   3.521   5.908 -0.0166  0.5799 -0.1387
 2810SOL    HW220064   0.029   3.641   5.961 -1.7228 -0.3150  0.5898
 2811SOL     OW20065   1.409   2.591   5.854  0.3797  0.0669 -0.4983
 2811SOL    HW120066   1.322   2.600   5.816  1.0058  1.7250 -1.5665
 2811SOL    HW220067   1.412   2.665   5.915  1.5782  0.2509 -0.7780
 2812SOL     OW20068   1.913   2.736  11.807 -0.2117 -0.1620 -0.7191
 2812SOL    HW120069   1.871   2.708  11.889 -0.3581  2.3895  0.0776
 2812SOL    HW220070   2.005   2.717  11.826  0.0064  1.2113 -0.3574
 2813SOL     OW20071   3.046   0.627   2.985 -0.0503 -0.1697 -0.1775
 2813SOL    HW120072   3.059   0.699   2.924 -0.7565 -0.3943 -0.5984
 2813SOL    HW220073   3.131   0.614   3.026  0.0774 -1.0168 -0.7070
 2814SOL     OW20074   1.656   0.124   1.772 -0.1537 -0.8878 -0.7834
 2814SOL    HW120075   1.579   0.142   1.825  0.2482  1.3435 -0.9810
 2814SOL    HW220076   1.627   0.175   1.697  1.4706  1.9845  0.5427
 2815SOL     OW20077   2.142   2.469  17.134  0.1211  0.0862  0.2983
 2815SOL    HW120078   2.117   2.390  17.181 -0.7724  0.8620  1.1439
 2815SOL    HW220079   2.179   2.430  17.055 -0.6142  1.4824 -0.7485
 2816SOL     OW20080   0.935   1.550   5.093  0.9966 -0.2300 -0.8046
 2816SOL    HW120081   0.992   1.622   5.120 -0.8084  0.5136  1.0441
 2816SOL    HW220082   0.938   1.484   5.163  1.3304 -2.0486 -2.5339
 2817SOL     OW20083   3.203   3.793   5.157 -0.9614  0.2772  0.2848
 2817SOL    HW120084   3.271   3.794   5.089 -1.1937  2.4037  0.0910
 2817SOL    HW220085   3.216   3.883   5.186  0.6383  0.1663 -0.0483
 2818SOL     OW20086   2.117   4.710   8.551 -0.1932  0.0488 -0.2750
 2818SOL    HW120087   2.082   4.699   8.463 -0.7293  1.0966 -0.1939
 2818SOL    HW220088   2.210   4.700   8.528 -0.2626 -2.4100  0.6009
 2819SOL     OW20089   1.464   3.313   8.501  0.5398  0.2556  0.6311
 2819SOL    HW120090   1.423   3.238   8.542  0.9960 -0.6487 -0.5714
 2819SOL    HW220091   1.509   3.265   8.431 -1.7257 -0.2376 -0.4797
 2820SOL     OW20092   3.672   0.589   2.173 -0.2813 -0.0004  0.5839
 2820SOL    HW120093   3.605   0.537   2.128 -1.6724  1.0124  1.4947
 2820SOL    HW220094   3.744   0.571   2.113  0.1721  0.4462  1.0026
 2821SOL     OW20095   3.707   0.581  15.169  0.3394  0.0023 -0.2138
 2821SOL    HW120096   3.657   0.589  15.088  0.0079 -1.2905 -0.1456
 2821SOL    HW220097   3.792   0.554  15.135 -0.2006  0.6134 -2.0409
 2822SOL     OW20098   3.133   0.966   8.386  0.2429 -0.1105  0.1082
 2822SOL    HW120099   3.215   1.002   8.420 -0.3064  2.6778 -1.5232
 2822SOL    HW220100   3.132   1.002   8.297  0.8007  0.8133  0.4692
 2823SOL     OW20101   3.029   4.194   5.616 -0.3561 -0.1579  0.0251
 2823SOL    HW120102   3.002   4.204   5.708 -4.1214 -0.7084 -1.0416
 2823SOL    HW220103   3.104   4.255   5.612  0.8541 -1.6459  0.0843
 2824SOL     OW20104   3.289   2.745   5.475  0.0054  0.0826 -0.3008
 2824SOL    HW120105   3.213   2.802   5.461  0.0616  0.5067  1.2082
 2824SOL    HW220106   3.257   2.661   5.443  1.1022 -0.3904 -0.1258
 2825SOL     OW20107   3.915   3.522  13.591 -0.2472  0.0820 -0.0775
 2825SOL    HW120108   3.913   3.514  13.496  1.6495 -0.4613 -0.0766
 2825SOL    HW220109   3.926   3.433  13.624  0.4589  0.9654  2.0431
 2826SOL     OW20110   2.862   3.762   5.127  0.3570  0.3967  0.2126
 2826SOL    HW120111   2.771   3.762   5.154  0.3110 -1.5465  0.0547
 2826SOL    HW220112   2.899   3.700   5.189  2.3322 -0.1473 -1.4899
 2827SOL     OW20113   4.035   0.207   6.312  0.3732 -0.0573 -0.8034
 2827SOL    HW120114   4.016   0.118   6.343 -0.3264  0.3581 -0.0595
 2827SOL    HW220115   4.042   0.191   6.218 -0.7070  0.1059 -0.9163
 2828SOL     OW20116   2.493   1.324   3.848 -0.3817  0.1511  0.0181
 2828SOL    HW120117   2.426   1.358   3.789  1.0068 -0.2438 -1.7789
 2828SOL    HW220118   2.447   1.276   3.917 -0.2716  0.8845  0.6062
 2829SOL     OW20119   1.609   3.118   4.531 -0.1687  0.3010 -0.0118
 2829SOL    HW120120   1.526   3.117   4.579 -0.9645  0.5067 -1.3940
 2829SOL    HW220121   1.669   3.136   4.604  1.5573  0.0922 -1.3808
 2830SOL     OW20122   2.490   4.448   8.652  0.5187 -0.1055 -0.1330
 2830SOL    HW120123   2.474   4.542   8.660 -1.2975 -0.2930 -1.6077
 2830SOL    HW220124   2.580   4.449   8.620  0.2703 -1.1983 -0.8668
 2831SOL     OW20125   0.493   1.434  12.846 -0.4594  0.7183 -0.4687
 2831SOL    HW120126   0.399   1.419  12.844 -0.1627 -1.4238  1.2383
 2831SOL    HW220127   0.500   1.524  12.878 -2.2296  1.1428 -1.2484
 2832SOL     OW20128   1.402   3.271   5.590 -0.2623  0.1969 -0.4280
 2832SOL    HW120129   1.425   3.199   5.532  0.5390 -0.3253  0.5378
 2832SOL    HW220130   1.472   3.333   5.567 -3.3941  3.5712 -0.8139
 2833SOL     OW20131   2.797   4.492   2.581 -0.3145  0.5609  0.0994
 2833SOL    HW120132   2.872   4.465   2.634  0.6421 -0.0203 -1.5326
 2833SOL    HW220133   2.835   4.570   2.539  2.0450 -0.5419  0.1455
 2834SOL     OW20134   1.991   1.542  17.471 -0.5718  0.0447 -0.0921
 2834SOL    HW120135   2.021   1.580  17.388  0.9331 -0.1603  0.3580
 2834SOL    HW220136   1.992   1.450  17.442  2.1134  0.2524 -0.7080
 2835SOL     OW20137   2.240   2.896   6.478  0.4040 -0.0440 -0.1222
 2835SOL    HW120138   2.153   2.923   6.507 -0.0608 -1.2703 -0.3881
 2835SOL    HW220139   2.210   2.829   6.416  0.0146 -1.0982  1.2015
 2836SOL     OW20140   3.887   4.625   2.774  0.4785  0.9742  0.3205
 2836SOL    HW120141   3.850   4.582   2.851 -2.5593  2.1555 -0.4772
 2836SOL    HW220142   3.909   4.563   2.704  3.1069  0.5358  1.5383
 2837SOL     OW20143   4.490   0.681  13.541  0.4327 -0.4290  0.1356
 2837SOL    HW120144   4.517   0.645  13.456 -0.1660  1.3911 -0.8218
 2837SOL    HW220145   4.572   0.719  13.571 -0.2334 -0.5159  2.0597
 2838SOL     OW20146   3.489   1.300   8.408 -0.1451 -0.5068 -0.3571
 2838SOL    HW120147   3.477   1.345   8.324  1.7348 -0.7297 -0.7265
 2838SOL    HW220148   3.583   1.284   8.415 -0.5525 -1.5761  2.6454
 2839SOL     OW20149   1.477   3.897  10.699 -0.0984 -0.2599  0.3047
 2839SOL    HW120150   1.507   3.922  10.611  0.1646  0.0268  0.4723
 2839SOL    HW220151   1.439   3.810  10.697 -0.5971 -0.0389  0.2078
 2840SOL     OW20152   3.686   3.122   1.510 -0.9423 -0.0440 -0.2242
 2840SOL    HW120153   3.679   3.032   1.480  1.8228 -0.4350  0.3234
 2840SOL    HW220154   3.754   3.117   1.578 -2.4726  1.2731  1.4050
 2841SOL     OW20155   1.742   4.560   4.363  0.2009 -0.7731  0.1426
 2841SOL    HW120156   1.655   4.567   4.324  0.5723 -0.4070 -0.6379
 2841SOL    HW220157   1.771   4.484   4.314 -1.4408 -1.6289  0.4989
 2842SOL     OW20158   1.341   0.404   3.161  0.0885 -0.5630  0.3084
 2842SOL    HW120159   1.259   0.387   3.209 -0.8869 -1.8580 -1.7929
 2842SOL    HW220160   1.398   0.335   3.196  0.0262 -1.1886 -0.8322
 2843SOL     OW20161   3.153   3.683   9.603 -0.3852 -0.3482  0.4619
 2843SOL    HW120162   3.213   3.757   9.603  1.0590 -1.5097 -1.8014
 2843SOL    HW220163   3.125   3.682   9.694 -0.8651 -0.5685  0.3083
 2844SOL     OW20164   3.761   2.576  15.315 -0.1227  0.4994 -0.3494
 2844SOL    HW120165   3.750   2.639  15.386  0.0712  0.0317  0.0974
 2844SOL    HW220166   3.804   2.627  15.246  0.5035  0.8445  0.3036
 2845SOL     OW20167   0.009   2.628   9.399  0.1419  0.5894 -0.1611
 2845SOL    HW120168   4.691   2.676   9.338 -0.7694 -1.1141 -0.6569
 2845SOL    HW220169   0.080   2.606   9.338  0.0216  0.0510 -0.1129
 2846SOL     OW20170   4.222   1.114   5.288 -0.0607 -0.2889  0.3437
 2846SOL    HW120171   4.264   1.040   5.244 -2.4593 -2.1063  1.1346
 2846SOL    HW220172   4.252   1.191   5.240 -1.4678 -1.5100 -2.4928
 2847SOL     OW20173   3.509   4.299   4.706 -0.4629 -0.1586  0.5874
 2847SOL    HW120174   3.528   4.392   4.692 -0.9605 -0.2177 -0.4403
 2847SOL    HW220175   3.415   4.296   4.723 -0.6344 -2.4686 -0.8500
 2848SOL     OW20176   4.494   1.122   4.892  0.0137  0.1569 -0.3180
 2848SOL    HW120177   4.428   1.055   4.906  1.2926 -1.0937 -0.2251
 2848SOL    HW220178   4.431   1.194   4.891  1.1770  1.1892  0.0924
 2849SOL     OW20179   0.718   2.735  17.416 -0.1749  0.3561 -0.1668
 2849SOL    HW120180   0.785   2.797  17.445 -0.9562  2.4070 -2.7531
 2849SOL    HW220181   0.702   2.754  17.324  1.2312  1.6285 -0.1419
 2850SOL     OW20182   2.184   0.162  12.154  0.3949 -0.6328  0.2962
 2850SOL    HW120183   2.191   0.073  12.189  2.8731 -1.1494 -1.4897
 2850SOL    HW220184   2.204   0.144  12.062  1.6710  2.2252  0.0271
 2851SOL     OW20185   0.790   1.077  14.236  0.2606  0.3545  0.0228
 2851SOL    HW120186   0.858   1.097  14.300  1.1210  1.2728 -1.2104
 2851SOL    HW220187   0.712   1.123  14.267 -0.7193 -1.4539  0.2491
 2852SOL     OW20188   2.595   2.486   1.374  0.2973  0.3035  0.6624
 2852SOL    HW120189   2.558   2.554   1.430  1.7698  2.1441 -0.5733
 2852SOL    HW220190   2.534   2.414   1.390  0.3917  0.1351  0.2793
 2853SOL     OW20191   2.702   4.562   4.640  0.3874 -0.1158 -0.1489
 2853SOL    HW120192   2.677   4.490   4.583 -0.7114  0.1834 -0.0302
 2853SOL    HW220193   2.743   4.511   4.709  0.8898  0.5588  0.0536
 2854SOL     OW20194   3.844   4.470   7.610 -0.2289 -0.3146 -0.5699
 2854SOL    HW120195   3.794   4.487   7.689  0.4164 -0.3803 -0.1501
 2854SOL    HW220196   3.804   4.392   7.571 -0.1109 -0.9198  0.5388
 2855SOL     OW20197   3.232   4.338  16.185  0.1512 -0.2038 -0.5499
 2855SOL    HW120198   3.203   4.383  16.106  2.6232 -0.2204 -1.4725
 2855SOL    HW220199   3.205   4.247  16.169 -0.8199  0.3293 -1.9410
 2856SOL     OW20200   4.662   2.712   1.484  0.4771  0.2247  0.0992
 2856SOL    HW120201   0.008   2.668   1.497 -0.5893 -1.7531  0.3070
 2856SOL    HW220202   4.681   2.739   1.395 -1.6123  0.9770 -0.1121
 2857SOL     OW20203   3.590   2.807   2.311  0.1559  0.7224  0.0136
 2857SOL    HW120204   3.642   2.729   2.293 -0.2647 -0.2723  3.1231
 2857SOL    HW220205   3.635   2.832   2.391  1.5283 -2.3456  0.2088
 2858SOL     OW20206   3.395   1.184   4.014 -0.2723 -0.2827 -0.0287
 2858SOL    HW120207   3.370   1.180   4.106 -2.1483 -0.9339 -0.5644
 2858SOL    HW220208   3.379   1.278   4.005  1.2636  0.1036  1.3237
 2859SOL     OW20209   2.255   3.971   6.110  0.0051 -0.1476 -0.0015
 2859SOL    HW120210   2.313   4.022   6.054 -1.2162  1.3102  0.0508
 2859SOL    HW220211   2.316   3.937   6.175  1.3535 -0.6406 -1.5200
 2860SOL     OW20212   0.118   2.794   6.470  0.1174  0.0482  0.6651
 2860SOL    HW120213   0.077   2.719   6.512  1.3609  0.0668  1.9291
 2860SOL    HW220214   0.129   2.771   6.377  0.0578  0.5056  0.5429
 2861SOL     OW20215   2.856   1.726   8.803 -0.3131 -0.0485 -0.0769
 2861SOL    HW120216   2.943   1.686   8.797 -0.1008  0.7020 -2.0023
 2861SOL    HW220217   2.886   1.816   8.787  2.0779 -0.6964  0.6762
 2862SOL     OW20218   0.581   4.499  14.590  0.2704  0.2040  0.0074
 2862SOL    HW120219   0.496   4.488  14.631  0.3735 -1.7337 -0.3271
 2862SOL    HW220220   0.591   4.593  14.610 -1.2271  0.2257  0.6332
 2863SOL     OW20221   2.907   4.568  11.513 -0.0220 -0.1189 -0.6398
 2863SOL    HW120222   2.905   4.579  11.608 -2.8737  2.2123 -0.9800
 2863SOL    HW220223   2.896   4.473  11.504  1.1566 -0.4645  1.6140
 2864SOL     OW20224   4.586   1.354   0.872  0.3277  0.1344  0.9575
 2864SOL    HW120225   4.624   1.350   0.785  2.5115  0.0996  1.9124
 2864SOL    HW220226   4.650   1.408   0.919  1.5049  0.4340 -0.9894
 2865SOL     OW20227   2.446   1.085   1.359 -0.2046  0.1335 -0.4264
 2865SOL    HW120228   2.450   0.989   1.356 -0.5629  0.0984  0.1098
 2865SOL    HW220229   2.537   1.092   1.388  0.6603 -2.3228 -2.5694
 2866SOL     OW20230   2.638   1.182   1.599 -0.2088 -0.1182  0.3341
 2866SOL    HW120231   2.688   1.130   1.536 -1.2526 -1.1784  0.3835
 2866SOL    HW220232   2.640   1.269   1.558  0.2406 -0.8575 -1.2215
 2867SOL     OW20233   1.712   2.581   2.776  0.0944  0.0728 -0.4466
 2867SOL    HW120234   1.633   2.553   2.731 -0.5813  1.6667 -0.2323
 2867SOL    HW220235   1.774   2.508   2.770 -1.2217 -1.2188  1.5439
 2868SOL     OW20236   0.252   0.224   4.146  0.7517  0.4857  0.0356
 2868SOL    HW120237   0.197   0.298   4.173  0.0454  0.0285 -0.1543
 2868SOL    HW220238   0.187   0.164   4.108  0.2292 -0.1225  1.8858
 2869SOL     OW20239   4.017   3.116  15.452  0.2336  0.0653  0.5658
 2869SOL    HW120240   3.994   3.167  15.531 -1.8368  3.6560 -2.3513
 2869SOL    HW220241   4.112   3.114  15.454  0.2551  1.4855  1.2325
 2870SOL     OW20242   4.010   3.252  12.257  0.3609 -0.5752 -0.1345
 2870SOL    HW120243   3.968   3.196  12.192 -0.0777 -1.2090  0.6963
 2870SOL    HW220244   4.083   3.197  12.285  0.2130 -1.3057 -1.1994
 2871SOL     OW20245   2.529   4.469  16.582  0.1244 -0.5066  0.1626
 2871SOL    HW120246   2.438   4.442  16.564 -0.2906  0.5357  0.7000
 2871SOL    HW220247   2.557   4.483  16.492 -0.2141 -2.9800 -0.3399
 2872SOL     OW20248   0.547   2.590   7.826  0.2557  0.7019  0.8340
 2872SOL    HW120249   0.590   2.675   7.835  0.1300  0.9038 -0.5068
 2872SOL    HW220250   0.615   2.528   7.852 -0.6986 -0.8943 -0.4708
 2873SOL     OW20251   3.734   1.681   7.395  0.3511 -0.7894  0.1786
 2873SOL    HW120252   3.767   1.669   7.306  1.5641  0.3860  0.4734
 2873SOL    HW220253   3.707   1.771   7.381  0.8480 -0.6537  0.1082
 2874SOL     OW20254   3.195   0.549  15.330 -0.0295 -0.0279 -0.4077
 2874SOL    HW120255   3.273   0.509  15.368  0.7562 -1.0134 -3.0369
 2874SOL    HW220256   3.181   0.471  15.276  0.0974 -0.2531 -0.1183
 2875SOL     OW20257   1.992   0.312   7.558 -0.3240  0.2161 -0.0604
 2875SOL    HW120258   2.027   0.260   7.485  2.4158  1.1413  0.6101
 2875SOL    HW220259   1.918   0.258   7.586 -0.7556  1.1030  0.5209
 2876SOL     OW20260   4.698   0.063  16.306  0.0257 -0.1768  0.7610
 2876SOL    HW120261   4.634   4.730  16.313 -0.4053  0.2195  0.8401
 2876SOL    HW220262   4.657   0.148  16.288 -2.6684 -1.3212  1.4605
 2877SOL     OW20263   4.329   1.146   2.302 -0.4452 -0.4857 -0.7441
 2877SOL    HW120264   4.358   1.194   2.224  0.2944  1.0628  0.4704
 2877SOL    HW220265   4.364   1.059   2.286  1.5789  0.0417  0.7547
 2878SOL     OW20266   3.903   2.118   4.357  0.3270 -0.1065 -0.2822
 2878SOL    HW120267   3.859   2.097   4.439  1.1943 -0.1564  0.1704
 2878SOL    HW220268   3.842   2.187   4.329  2.0202  0.6938 -2.0448
 2879SOL     OW20269   0.004   0.945   2.948 -0.3129 -0.4983 -0.3474
 2879SOL    HW120270   0.098   0.937   2.933  0.1713  4.1041  0.2652
 2879SOL    HW220271   4.704   0.903   2.872 -1.9049 -2.1963  1.3842
 2880SOL     OW20272   1.310   1.387  16.398 -0.0208  0.3462 -0.2861
 2880SOL    HW120273   1.333   1.462  16.342  0.7206 -0.4986 -1.1053
 2880SOL    HW220274   1.272   1.319  16.343 -0.2525  0.4248 -0.2246
 2881SOL     OW20275   1.031   3.932   8.205  0.3202 -0.5141 -0.2352
 2881SOL    HW120276   1.077   3.857   8.166 -1.0973 -1.9733  0.8800
 2881SOL    HW220277   1.083   4.004   8.172 -1.0148  0.6396  0.2002
 2882SOL     OW20278   3.353   3.793   8.782 -0.0685 -0.1030 -0.7195
 2882SOL    HW120279   3.401   3.874   8.769  2.9132 -1.6775  0.4944
 2882SOL    HW220280   3.340   3.798   8.876  3.9551 -2.5395 -0.0099
 2883SOL     OW20281   1.752   2.760   9.599  0.0324 -0.1196  0.4298
 2883SOL    HW120282   1.707   2.819   9.538  2.6280 -0.4826 -1.8708
 2883SOL    HW220283   1.783   2.687   9.545 -0.5142  1.2872 -1.7727
 2884SOL     OW20284   0.483   3.378   1.551 -0.0981  0.4239 -0.6258
 2884SOL    HW120285   0.395   3.396   1.585  0.1984  1.3247 -0.3505
 2884SOL    HW220286   0.460   3.315   1.482 -0.4355 -1.8710  1.5664
 2885SOL     OW20287   2.893   2.484   3.263  0.3661 -0.0786 -0.0056
 2885SOL    HW120288   2.942   2.496   3.181  0.4005  2.2244  0.3380
 2885SOL    HW220289   2.888   2.389   3.262 -1.2239 -0.0015  0.2744
 2886SOL     OW20290   3.827   3.069  15.256 -0.0857  0.4681  0.1639
 2886SOL    HW120291   3.749   3.055  15.310  0.2815  0.9517  0.8271
 2886SOL    HW220292   3.897   3.073  15.320  1.6949 -2.2713 -1.6281
 2887SOL     OW20293   2.360   1.817  14.815  0.2003 -0.4250  0.9793
 2887SOL    HW120294   2.415   1.893  14.799 -0.5970  0.2187  1.3130
 2887SOL    HW220295   2.275   1.830  14.773  0.8486 -0.6772 -0.4099
 2888SOL     OW20296   3.012   3.391   6.736 -0.0035  0.1414  0.2125
 2888SOL    HW120297   3.049   3.376   6.823  2.4600  0.2573 -0.7942
 2888SOL    HW220298   3.062   3.470   6.713  1.2053 -1.0110 -1.1520
 2889SOL     OW20299   0.175   2.098   4.711  0.1464 -0.4006  0.1260
 2889SOL    HW120300   0.114   2.024   4.708  1.5807 -1.4638 -2.6559
 2889SOL    HW220301   0.252   2.043   4.723  1.4325  0.7276 -2.8424
 2890SOL     OW20302   2.368   0.741   3.631 -0.0344 -0.6714 -0.7789
 2890SOL    HW120303   2.359   0.705   3.719  1.1077  0.2671 -0.2941
 2890SOL    HW220304   2.447   0.794   3.641 -0.3195 -0.3351 -0.3411
 2891SOL     OW20305   2.423   2.068  14.693  0.3213  0.1690 -0.2116
 2891SOL    HW120306   2.329   2.079  14.684  0.3040  0.8905  0.8392
 2891SOL    HW220307   2.459   2.128  14.628 -2.3854  1.3172 -0.6111
 2892SOL     OW20308   1.513   3.310  15.254  0.1825  0.1384  0.6899
 2892SOL    HW120309   1.536   3.368  15.182  0.2305 -3.3887 -2.1195
 2892SOL    HW220310   1.448   3.253  15.214 -0.0250 -0.1326  1.4146
 2893SOL     OW20311   4.391   3.231   2.428 -0.3277  0.1182 -0.0952
 2893SOL    HW120312   4.391   3.254   2.521 -1.2117  0.9791 -0.3110
 2893SOL    HW220313   4.376   3.315   2.384  0.9369 -0.5457 -1.8025
 2894SOL     OW20314   4.434   3.818   5.806 -0.1331  0.3614  0.0721
 2894SOL    HW120315   4.360   3.871   5.835  0.0981  0.3247  0.7486
 2894SOL    HW220316   4.396   3.792   5.723 -0.2085  1.4244 -0.2280
 2895SOL     OW20317   3.080   3.113   2.352 -0.3462  0.1486  0.0833
 2895SOL    HW120318   3.166   3.076   2.375  0.2002  1.7339  0.5554
 2895SOL    HW220319   3.037   3.042   2.305  0.6279 -0.4848  0.1340
 2896SOL     OW20320   1.595   2.365   2.360  0.1410 -0.3474  0.5557
 2896SOL    HW120321   1.556   2.445   2.326  3.1227  0.8274 -0.0790
 2896SOL    HW220322   1.675   2.408   2.391  0.1875  0.0450 -0.1152
 2897SOL     OW20323   0.372   1.714  14.777 -0.1464  0.4711 -0.4685
 2897SOL    HW120324   0.357   1.798  14.820  1.0396 -0.6286  2.1401
 2897SOL    HW220325   0.284   1.678  14.788 -0.6348  1.3195 -1.5808
 2898SOL     OW20326   1.587   2.756   0.377 -0.3585 -0.5065 -0.1148
 2898SOL    HW120327   1.649   2.737   0.447 -1.0832  0.3840  0.7754
 2898SOL    HW220328   1.531   2.679   0.385  0.2490 -0.7424  1.7437
 2899SOL     OW20329   0.885   2.504   1.853  0.4535  0.1807 -0.2271
 2899SOL    HW120330   0.911   2.414   1.831  1.5567  0.3591  0.3211
 2899SOL    HW220331   0.970   2.541   1.877  0.5437 -0.8124  1.0099
 2900SOL     OW20332   0.973   1.968  16.544  0.1724  0.4528 -0.0805
 2900SOL    HW120333   0.922   2.047  16.525  0.2361  0.5669  0.2235
 2900SOL    HW220334   1.042   2.016  16.590  2.1709  0.1338 -2.7343
 2901SOL     OW20335   1.803   2.915   6.117 -0.2249  0.4918 -0.7583
 2901SOL    HW120336   1.842   2.893   6.201  0.2913 -0.2043 -1.1801
 2901SOL    HW220337   1.744   2.839   6.120 -1.2297  1.2937 -0.2613
 2902SOL     OW20338   4.097   2.149   5.954  0.7742  0.5803 -0.2464
 2902SOL    HW120339   4.083   2.114   5.866 -0.1723 -0.4003  0.2866
 2902SOL    HW220340   4.017   2.131   6.005  1.5030 -0.0122  0.6933
 2903SOL     OW20341   0.839   2.414   7.920  0.3980  0.8601  0.3248
 2903SOL    HW120342   0.871   2.393   7.832 -0.1134  1.5551 -0.0278
 2903SOL    HW220343   0.910   2.381   7.975  0.1848  0.4256  0.3347
 2904SOL     OW20344   1.315   4.231   8.026 -0.3273  0.2219  0.0397
 2904SOL    HW120345   1.301   4.280   8.108  1.8899 -0.2294  0.6921
 2904SOL    HW220346   1.344   4.309   7.979  2.3863 -0.6122  0.3537
 2905SOL     OW20347   2.475   3.546  14.052 -0.5925 -0.2940  0.7158
 2905SOL    HW120348   2.477   3.557  14.147  0.9663 -1.8239  0.8640
 2905SOL    HW220349   2.506   3.628  14.013 -2.6403  0.4277  0.5919
 2906SOL     OW20350   0.738   0.138   4.007  1.0080  0.3588  0.3754
 2906SOL    HW120351   0.656   0.153   4.055  0.0047 -0.6144 -1.0457
 2906SOL    HW220352   0.701   0.153   3.921 -0.2187  0.6792  0.9569
 2907SOL     OW20353   1.164   3.141   5.454 -0.2163  0.1460  0.0703
 2907SOL    HW120354   1.081   3.187   5.463  0.1763  0.5799  1.4675
 2907SOL    HW220355   1.222   3.214   5.476  0.4195 -0.0428 -0.9525
 2908SOL     OW20356   2.564   0.503   5.087  0.3899  0.2685  0.6708
 2908SOL    HW120357   2.575   0.443   5.161  1.9194 -0.0929  0.1307
 2908SOL    HW220358   2.568   0.573   5.154 -0.7973  0.3874  0.6275
 2909SOL     OW20359   2.420   0.583   3.121 -0.6282 -0.5052 -0.5361
 2909SOL    HW120360   2.465   0.646   3.178  0.1605 -2.7420  1.3492
 2909SOL    HW220361   2.389   0.641   3.052 -2.0491 -0.4550  0.1547
 2910SOL     OW20362   2.744   2.030   7.641  0.0903 -0.2325 -0.1818
 2910SOL    HW120363   2.707   1.942   7.642 -2.5852  0.8677 -0.8249
 2910SOL    HW220364   2.780   2.028   7.729  0.2089 -1.0371 -0.2534
 2911SOL     OW20365   3.042   3.174   9.108  0.2461 -0.1272  0.0170
 2911SOL    HW120366   2.970   3.142   9.163  1.5382 -2.3410  0.4014
 2911SOL    HW220367   3.012   3.172   9.017 -1.5101 -4.1986  0.6958
 2912SOL     OW20368   1.250   1.010   7.213 -0.2258 -0.2533 -0.2025
 2912SOL    HW120369   1.209   1.053   7.288 -1.6282 -1.0216 -0.5143
 2912SOL    HW220370   1.172   1.026   7.159  0.7688 -0.5598 -1.7275
 2913SOL     OW20371   3.417   3.804  17.093  0.1919 -0.1759  0.3199
 2913SOL    HW120372   3.439   3.840  17.007 -1.1047 -0.3285 -0.0735
 2913SOL    HW220373   3.486   3.740  17.105  0.1847 -0.2728 -0.1340
 2914SOL     OW20374   2.937   2.727  12.642 -0.0493  0.5443 -0.6299
 2914SOL    HW120375   2.911   2.637  12.662 -1.0205  0.7802 -0.8190
 2914SOL    HW220376   3.016   2.735  12.696 -0.1421  1.3187 -0.6033
 2915SOL     OW20377   1.571   3.360  12.001 -0.0500 -0.4878  0.5786
 2915SOL    HW120378   1.642   3.420  12.022 -1.4985  1.2970  0.4311
 2915SOL    HW220379   1.623   3.317  11.933 -1.4186 -2.6684  0.9282
 2916SOL     OW20380   1.063   1.551  15.718  0.0188 -0.6557  0.0573
 2916SOL    HW120381   1.005   1.527  15.646  0.6758 -0.4126 -0.5529
 2916SOL    HW220382   1.145   1.578  15.677 -0.2967  0.9742  0.4684
 2917SOL     OW20383   3.284   0.695   0.445 -0.1548 -0.7305 -0.2848
 2917SOL    HW120384   3.274   0.687   0.540 -0.6230  3.3554  0.0097
 2917SOL    HW220385   3.192   0.674   0.428 -0.4860 -0.8021  1.6160
 2918SOL     OW20386   3.706   2.575   6.181  0.2688 -0.0289  0.4441
 2918SOL    HW120387   3.629   2.630   6.194 -0.0331  0.3915 -3.2163
 2918SOL    HW220388   3.666   2.494   6.151 -0.3583  0.6676 -0.6084
 2919SOL     OW20389   1.519   2.413   7.068 -0.1169 -0.5723  0.0038
 2919SOL    HW120390   1.473   2.361   7.002  0.1118 -0.5948 -0.1406
 2919SOL    HW220391   1.519   2.351   7.142 -0.5663 -1.3541 -0.6512
 2920SOL     OW20392   3.685   4.375   8.977  0.6749  0.9300  0.2308
 2920SOL    HW120393   3.736   4.444   9.019  1.1848 -0.0430  1.2085
 2920SOL    HW220394   3.638   4.429   8.913  0.1949 -0.3579 -0.5050
 2921SOL     OW20395   1.335   1.003  12.625 -0.0576 -0.1859  0.0345
 2921SOL    HW120396   1.396   1.038  12.561 -0.1277  1.3713  0.8230
 2921SOL    HW220397   1.370   1.041  12.706  1.1761  1.0727 -1.0852
 2922SOL     OW20398   1.038   3.989   5.968 -0.2420  0.1094 -0.9413
 2922SOL    HW120399   1.124   3.955   5.945  0.3437  2.5754 -2.3852
 2922SOL    HW220400   1.052   4.080   5.995 -2.3137 -0.9601  3.7542
 2923SOL     OW20401   3.219   4.212   7.588  0.3777 -0.2552 -0.0193
 2923SOL    HW120402   3.200   4.119   7.574  0.8285 -0.9481  3.8867
 2923SOL    HW220403   3.204   4.224   7.682  1.4675  0.2725  0.0866
 2924SOL     OW20404   1.126   2.894   9.208 -0.0264 -0.1858 -0.0175
 2924SOL    HW120405   1.157   2.904   9.118 -1.8565 -0.4096 -0.6680
 2924SOL    HW220406   1.031   2.897   9.195  0.1559  1.3156 -1.0053
 2925SOL     OW20407   0.489   2.830   1.620 -0.0867 -0.4393 -0.4483
 2925SOL    HW120408   0.570   2.779   1.613  0.2995  0.4494 -2.5865
 2925SOL    HW220409   0.447   2.769   1.680  2.8854 -0.7449  1.3191
 2926SOL     OW20410   4.507   0.858   2.276  0.3303  0.7132  0.3694
 2926SOL    HW120411   4.501   0.899   2.191  2.0872 -0.4333 -0.3110
 2926SOL    HW220412   4.582   0.801   2.260 -0.4173 -0.9082  2.5223
 2927SOL     OW20413   2.138   3.367   3.667 -0.2270 -0.0207 -0.2706
 2927SOL    HW120414   2.221   3.347   3.625 -0.3373  0.1601 -0.5766
 2927SOL    HW220415   2.134   3.461   3.679 -1.2474  0.1451 -1.8933
 2928SOL     OW20416   3.846   4.386  17.125 -0.3308  0.1345 -0.2666
 2928SOL    HW120417   3.770   4.443  17.116  0.7172  1.5328 -0.2172
 2928SOL    HW220418   3.906   4.435  17.069  1.9983 -1.2964  0.9658
 2929SOL     OW20419   4.409   4.599   7.750  0.7031 -0.1602 -0.2458
 2929SOL    HW120420   4.459   4.521   7.773 -0.9694 -1.3633 -0.6842
 2929SOL    HW220421   4.438   4.663   7.815 -1.8510  0.9216 -0.1855
 2930SOL     OW20422   0.423   2.736  16.561  0.1863 -0.5601 -0.2844
 2930SOL    HW120423   0.327   2.732  16.563  0.1266  1.3567  0.3101
 2930SOL    HW220424   0.432   2.666  16.626 -2.2919  0.7971  1.5163
 2931SOL     OW20425   1.602   2.842   3.854 -0.4461 -0.1347  0.3404
 2931SOL    HW120426   1.623   2.893   3.932  3.1378 -0.5797 -0.3259
 2931SOL    HW220427   1.626   2.753   3.880 -2.0812  0.1963  2.9186
 2932SOL     OW20428   4.644   0.110   8.855 -0.9457  0.4905  0.1245
 2932SOL    HW120429   4.656   0.205   8.862 -1.3490  0.4486  1.5544
 2932SOL    HW220430   4.595   0.094   8.936  1.3537  0.1038  1.4349
 2933SOL     OW20431   0.882   2.938   2.337  0.3849  0.1920  0.3262
 2933SOL    HW120432   0.870   3.022   2.382 -2.0253 -0.6553  1.2561
 2933SOL    HW220433   0.963   2.910   2.380  1.0930  0.4748 -0.8326
 2934SOL     OW20434   2.724   2.219   1.862 -0.6344  0.8518 -0.0519
 2934SOL    HW120435   2.695   2.129   1.846  2.4376 -0.0144 -0.7124
 2934SOL    HW220436   2.650   2.267   1.899 -0.4252  0.3129  1.0601
 2935SOL     OW20437   1.742   0.398   8.697 -0.6232  0.0780 -0.3117
 2935SOL    HW120438   1.720   0.481   8.738 -0.9360 -0.3853  0.4528
 2935SOL    HW220439   1.826   0.412   8.652 -1.2053  0.2733 -1.3323
 2936SOL     OW20440   2.820   3.253   6.992 -0.0208  0.2860 -0.7089
 2936SOL    HW120441   2.915   3.248   6.986 -0.1513 -0.9067 -1.7415
 2936SOL    HW220442   2.805   3.213   7.078  2.3970  2.4484  0.6967
 2937SOL     OW20443   4.467   4.568  11.986  0.3195  0.1191 -0.6684
 2937SOL    HW120444   4.405   4.606  12.048  1.4624  0.1506  0.4446
 2937SOL    HW220445   4.516   4.511  12.045  2.1074  0.4631 -1.8286
 2938SOL     OW20446   1.457   2.882   1.679 -0.1255  0.2278 -0.1664
 2938SOL    HW120447   1.441   2.894   1.585 -0.1069 -2.5229 -0.5197
 2938SOL    HW220448   1.552   2.878   1.687  0.0661  1.4686 -1.6811
 2939SOL     OW20449   4.421   4.111   3.468 -0.6343  0.1951  0.5207
 2939SOL    HW120450   4.430   4.130   3.374 -0.7402 -1.1383  0.2452
 2939SOL    HW220451   4.340   4.060   3.472 -0.2446 -0.3316  1.5648
 2940SOL     OW20452   4.548   2.537   5.286 -0.0437 -0.7700 -0.3903
 2940SOL    HW120453   4.622   2.503   5.235  1.0764  0.5192  0.3793
 2940SOL    HW220454   4.594   2.554   5.368  1.1213 -0.5809 -1.0790
 2941SOL     OW20455   0.780   4.018   2.089  0.2671 -0.2319  0.7119
 2941SOL    HW120456   0.813   4.059   2.169  1.3046  0.2710  0.0297
 2941SOL    HW220457   0.864   3.996   2.047 -0.6245 -1.5460 -0.3602
 2942SOL     OW20458   2.230   1.770   0.758  0.2425  0.2735  0.1522
 2942SOL    HW120459   2.177   1.723   0.823  1.4898  0.0696  1.0164
 2942SOL    HW220460   2.156   1.817   0.719  1.5587  3.4001  1.4303
 2943SOL     OW20461   4.005   0.848   1.992 -0.0745 -1.2883 -0.1810
 2943SOL    HW120462   4.020   0.920   1.930 -0.5770 -0.2468  0.8989
 2943SOL    HW220463   4.091   0.845   2.034  0.4168 -1.0645 -1.1806
 2944SOL     OW20464   3.136   1.795   8.190 -0.6488 -0.4185 -0.0543
 2944SOL    HW120465   3.196   1.724   8.213  0.7975  0.2208 -1.7697
 2944SOL    HW220466   3.152   1.861   8.257 -1.7918  2.0284 -2.1586
 2945SOL     OW20467   2.926   3.724   4.863 -0.0946  0.0891  0.2978
 2945SOL    HW120468   2.848   3.739   4.809 -0.9923 -1.2093  1.2559
 2945SOL    HW220469   2.892   3.745   4.950 -2.1044  0.9930 -0.7187
 2946SOL     OW20470   3.164   4.181  17.456 -0.1916 -0.5493  0.0303
 2946SOL    HW120471   3.258   4.199  17.458 -0.3689  0.4365 -0.4356
 2946SOL    HW220472   3.137   4.208  17.368 -2.1163 -2.6902 -0.0446
 2947SOL     OW20473   1.495   0.597   1.129  0.2489  0.0328  0.4803
 2947SOL    HW120474   1.567   0.617   1.189  0.7640 -1.4121  0.3528
 2947SOL    HW220475   1.419   0.645   1.160  0.3141  0.2375  0.3152
 2948SOL     OW20476   1.059   4.192   5.483  0.1799  0.0536 -0.2362
 2948SOL    HW120477   1.026   4.281   5.486 -0.5556 -0.2544  1.2033
 2948SOL    HW220478   1.120   4.188   5.557 -1.4408  0.4580  1.1225
 2949SOL     OW20479   4.041   1.796   9.015 -0.2760  0.5362  0.6460
 2949SOL    HW120480   4.044   1.701   9.023 -3.2698  0.1130 -2.8070
 2949SOL    HW220481   4.006   1.820   9.101 -0.4090  0.6305  0.5666
 2950SOL     OW20482   3.751   1.532   4.433  0.0599 -0.2142  0.4623
 2950SOL    HW120483   3.765   1.622   4.462  2.9372 -0.2085 -0.9836
 2950SOL    HW220484   3.829   1.520   4.380  0.9095  0.6992  1.4931
 2951SOL     OW20485   0.677   2.946  14.317 -0.0571 -0.6732  0.1578
 2951SOL    HW120486   0.755   2.894  14.337 -1.2851 -2.2229  0.8941
 2951SOL    HW220487   0.678   2.942  14.222 -1.9849 -2.6349  0.2362
 2952SOL     OW20488   1.367   3.161   4.715 -0.7328 -0.2342 -0.0061
 2952SOL    HW120489   1.311   3.183   4.789  0.0525  0.0258  0.5078
 2952SOL    HW220490   1.370   3.065   4.724  2.0962 -0.1767 -0.3003
 2953SOL     OW20491   3.965   0.774  15.734  0.3733 -0.0920  0.6004
 2953SOL    HW120492   3.923   0.716  15.798  0.9080 -1.2146 -0.0691
 2953SOL    HW220493   3.891   0.780  15.674  1.1370  0.0009 -0.3206
 2954SOL     OW20494   1.564   3.893   9.632  0.3718 -0.1475  0.1690
 2954SOL    HW120495   1.543   3.911   9.724  0.0636 -2.0490  0.4835
 2954SOL    HW220496   1.557   3.797   9.635 -1.4594 -0.0174  0.2660
 2955SOL     OW20497   2.193   1.940  13.070 -0.1221 -0.4982 -0.1147
 2955SOL    HW120498   2.103   1.911  13.086 -0.1104 -1.6893 -2.1544
 2955SOL    HW220499   2.192   2.030  13.101 -1.6733 -0.7140  0.4502
 2956SOL     OW20500   1.003   1.528   0.531  0.1727  0.0071  0.2054
 2956SOL    HW120501   1.006   1.444   0.576 -0.2313 -0.5757 -0.8629
 2956SOL    HW220502   1.042   1.586   0.597 -0.1955 -0.0471  0.4680
 2957SOL     OW20503   2.148   2.066   4.072 -0.2247 -0.4678  0.2088
 2957SOL    HW120504   2.091   2.142   4.086  1.1723  0.8094 -0.9515
 2957SOL    HW220505   2.222   2.117   4.038 -1.7987  1.2257 -0.7120
 2958SOL     OW20506   2.073   2.968   8.148 -0.1737  0.4880 -0.0646
 2958SOL    HW120507   2.038   2.988   8.235 -0.6671  0.1165 -0.1751
 2958SOL    HW220508   2.144   2.911   8.178  2.1717  3.6150  0.3027
 2959SOL     OW20509   3.301   3.427   2.123 -0.5176  0.0295 -0.5315
 2959SOL    HW120510   3.387   3.435   2.164 -0.7092 -0.4600 -0.0328
 2959SOL    HW220511   3.321   3.409   2.031 -1.4639 -1.3393 -0.4711
 2960SOL     OW20512   4.577   3.100   3.730 -1.0194 -0.2217  0.6956
 2960SOL    HW120513   4.565   3.023   3.786 -1.9573  0.2370  1.1257
 2960SOL    HW220514   4.657   3.072   3.686 -1.0821  1.4423 -0.4468
 2961SOL     OW20515   4.210   4.339  10.327 -0.3843 -0.2576  0.0558
 2961SOL    HW120516   4.233   4.286  10.403 -0.6551 -1.9249 -1.0259
 2961SOL    HW220517   4.179   4.418  10.371  0.1059  0.0214 -0.0967
 2962SOL     OW20518   4.037   2.640   9.788 -0.6409  0.7677  0.2486
 2962SOL    HW120519   3.956   2.675   9.825 -0.7738  0.7410 -0.0195
 2962SOL    HW220520   4.081   2.721   9.764  1.0121 -0.3463 -0.3961
 2963SOL     OW20521   0.575   1.281   1.134  0.1729  0.0817 -0.0828
 2963SOL    HW120522   0.518   1.258   1.207  1.1674  1.2375  1.0553
 2963SOL    HW220523   0.515   1.325   1.074 -1.0438 -1.2096  0.2111
 2964SOL     OW20524   0.534   3.543   3.523 -0.6179  0.2203  0.3536
 2964SOL    HW120525   0.617   3.524   3.566  0.0229 -1.3639 -1.5840
 2964SOL    HW220526   0.511   3.452   3.502  1.6449 -0.5008  1.0876
 2965SOL     OW20527   1.722   3.981  11.329 -0.0958 -0.0060 -0.5076
 2965SOL    HW120528   1.670   4.038  11.385  1.4704 -1.1648  2.1280
 2965SOL    HW220529   1.762   3.920  11.390  1.2778  1.3321 -0.0599
 2966SOL     OW20530   3.325   4.094  17.010  0.3496  0.2890 -0.1592
 2966SOL    HW120531   3.318   4.010  16.964  2.2512  0.1916 -0.2420
 2966SOL    HW220532   3.280   4.150  16.946 -0.3562 -0.4850 -0.3509
 2967SOL     OW20533   0.694   1.220   9.316 -0.1912  0.2996  0.2012
 2967SOL    HW120534   0.732   1.293   9.364 -2.4053  1.1657  0.6154
 2967SOL    HW220535   0.622   1.266   9.273  0.3929 -0.9280 -2.1331
 2968SOL     OW20536   1.577   3.737   9.289 -0.6397 -0.0595 -0.4686
 2968SOL    HW120537   1.532   3.811   9.330  1.2512  1.0043 -0.3118
 2968SOL    HW220538   1.659   3.781   9.266 -0.1219 -0.2451  1.0710
 2969SOL     OW20539   0.657   2.043  12.161  0.3022 -0.0584 -0.0749
 2969SOL    HW120540   0.616   2.093  12.090  1.4766 -1.1224 -1.4920
 2969SOL    HW220541   0.606   1.962  12.168  1.2406 -0.4480  2.2431
 2970SOL     OW20542   1.352   3.207   9.185 -0.5332 -0.3063  0.0787
 2970SOL    HW120543   1.266   3.221   9.144 -0.3659 -0.8371 -0.4331
 2970SOL    HW220544   1.331   3.263   9.260  0.3170  0.9434 -0.6191
 2971SOL     OW20545   0.509   1.861   2.304  0.1571 -0.5209 -0.2125
 2971SOL    HW120546   0.555   1.944   2.310 -0.4515 -0.3494  1.8546
 2971SOL    HW220547   0.553   1.813   2.374  1.0917  1.1578  0.3399
 2972SOL     OW20548   1.406   4.039  13.270  0.2715  0.0896 -0.6269
 2972SOL    HW120549   1.451   3.957  13.248  0.4369  0.5271 -1.9240
 2972SOL    HW220550   1.474   4.092  13.229 -0.3199  1.0946 -0.3111
 2973SOL     OW20551   0.726   3.518  15.073  0.4808 -0.7060  0.0354
 2973SOL    HW120552   0.766   3.557  15.151  1.8214  0.2849 -1.1452
 2973SOL    HW220553   0.643   3.565  15.062 -1.4712 -3.9051  0.9923
 2974SOL     OW20554   1.934   1.138   8.149  0.0978 -1.1973 -0.6255
 2974SOL    HW120555   1.969   1.056   8.113 -1.6733 -1.2756 -2.1608
 2974SOL    HW220556   1.843   1.149   8.123 -0.6625 -1.4307  1.9752
 2975SOL     OW20557   0.520   3.840   8.417  0.1004  0.2201  0.0206
 2975SOL    HW120558   0.581   3.780   8.460  0.5992  1.2480  0.7311
 2975SOL    HW220559   0.579   3.906   8.382  0.5858 -0.1886  0.0719
 2976SOL     OW20560   0.610   0.600   5.947  0.1393  0.3870 -0.1860
 2976SOL    HW120561   0.542   0.664   5.930 -0.5052  0.3645  2.3379
 2976SOL    HW220562   0.640   0.601   5.856  1.6906 -0.2286  0.3128
 2977SOL     OW20563   1.013   1.472   0.259 -0.0916 -0.0432 -0.4304
 2977SOL    HW120564   1.015   1.478   0.354  0.1640  1.1535 -0.5130
 2977SOL    HW220565   1.102   1.502   0.240  0.4250 -0.4773  1.3716
 2978SOL     OW20566   4.465   2.193   8.742  0.2852 -0.5039  0.6423
 2978SOL    HW120567   4.432   2.117   8.694  4.1051 -1.9506  0.3355
 2978SOL    HW220568   4.560   2.198   8.733  0.0484  0.0106 -1.4246
 2979SOL     OW20569   0.740   2.796   2.118 -0.4679 -0.2837 -0.3417
 2979SOL    HW120570   0.716   2.713   2.160  0.2563 -0.0578  0.5153
 2979SOL    HW220571   0.799   2.835   2.183 -0.2639 -1.1119 -0.0314
 2980SOL     OW20572   0.388   2.195   0.399  0.3959 -0.6549  0.4160
 2980SOL    HW120573   0.329   2.148   0.340  1.0861 -2.1979  0.9589
 2980SOL    HW220574   0.429   2.255   0.336 -1.0024  0.1435  0.2616
 2981SOL     OW20575   4.459   1.980   9.055  0.2238 -0.4886 -0.3789
 2981SOL    HW120576   4.396   1.995   8.984 -1.5880 -0.4659  1.2213
 2981SOL    HW220577   4.419   2.006   9.139 -0.3827 -0.6474 -0.6190
 2982SOL     OW20578   0.960   1.785   1.760 -0.3955 -0.1222  0.0567
 2982SOL    HW120579   1.055   1.781   1.767 -0.2176 -0.8842 -2.9834
 2982SOL    HW220580   0.933   1.719   1.824 -0.7123 -0.9670 -0.9588
 2983SOL     OW20581   4.636   2.011   0.318 -0.1122 -0.3231 -0.3019
 2983SOL    HW120582   4.611   2.063   0.241  0.0354  1.6328  0.9857
 2983SOL    HW220583   4.732   2.014   0.316 -0.0841 -0.5519  1.1130
 2984SOL     OW20584   4.412   4.671  17.438 -0.5846  0.3165  0.2907
 2984SOL    HW120585   4.394   4.730  17.511 -2.1522  0.8542 -0.5171
 2984SOL    HW220586   4.497   4.700  17.405  0.2450  0.3902  2.5207
 2985SOL     OW20587   2.250   1.479   6.799 -0.0470  0.4904 -0.6799
 2985SOL    HW120588   2.263   1.403   6.855 -1.0934  0.6144 -0.2803
 2985SOL    HW220589   2.340   1.492   6.769  0.5257  0.8305  1.1832
 2986SOL     OW20590   2.896   4.707   2.791  0.4259 -0.1363 -0.5868
 2986SOL    HW120591   2.939   4.622   2.789  0.2745 -0.2081 -0.8136
 2986SOL    HW220592   2.937   0.019   2.861 -2.7212  2.3198 -0.4273
 2987SOL     OW20593   0.324   1.321   8.530  0.2435  0.1306  0.0657
 2987SOL    HW120594   0.336   1.361   8.445 -0.5376  0.8187  0.2733
 2987SOL    HW220595   0.230   1.341   8.537 -0.0950 -1.6418  0.4969
 2988SOL     OW20596   3.104   0.861  16.937  0.0889  0.0773  0.0288
 2988SOL    HW120597   3.104   0.799  16.863 -2.0314  2.1015 -1.6538
 2988SOL    HW220598   3.176   0.921  16.917  0.6155 -0.9135 -1.0454
 2989SOL     OW20599   4.666   3.512   2.158 -0.3506 -0.0530  0.3843
 2989SOL    HW120600   4.733   3.579   2.148 -0.6487  0.7544  3.8581
 2989SOL    HW220601   4.610   3.541   2.229  1.4221  1.3991  1.1932
 2990SOL     OW20602   2.397   0.411   6.528  0.1096  0.3722  0.7031
 2990SOL    HW120603   2.471   0.462   6.561  2.4943 -1.1505 -2.2616
 2990SOL    HW220604   2.362   0.445   6.445  3.2654  2.7179  0.2991
 2991SOL     OW20605   2.152   0.389   2.344  0.4788  0.1142 -0.6221
 2991SOL    HW120606   2.107   0.341   2.414  0.7615  1.8368  0.7284
 2991SOL    HW220607   2.089   0.393   2.271  1.2810  1.3076 -1.2424
 2992SOL     OW20608   1.097   4.049   6.578  0.2648 -0.2658 -0.3932
 2992SOL    HW120609   1.033   4.054   6.649  1.2707  0.8762  0.4150
 2992SOL    HW220610   1.181   4.046   6.624 -0.2458 -4.3180  0.2871
 2993SOL     OW20611   4.272   4.235  16.299  0.1725  0.7137 -0.1412
 2993SOL    HW120612   4.330   4.275  16.363 -0.6074  2.1482 -0.3305
 2993SOL    HW220613   4.312   4.150  16.284 -1.4551 -0.4355  2.1187
 2994SOL     OW20614   3.511   3.904   8.516 -0.4086 -0.2339  0.2012
 2994SOL    HW120615   3.594   3.942   8.543 -1.7384  2.2249  0.8840
 2994SOL    HW220616   3.478   3.861   8.595  0.1307  1.0269  1.1150
 2995SOL     OW20617   0.139   2.533   5.852 -0.4068 -0.2392 -0.3441
 2995SOL    HW120618   0.109   2.468   5.916 -0.2982  0.6889  0.6552
 2995SOL    HW220619   0.115   2.615   5.895  1.2550  0.5649 -0.9390
 2996SOL     OW20620   1.973   3.926   0.960  0.4372 -0.5940  0.6511
 2996SOL    HW120621   1.930   3.941   1.044  0.2757  1.8359  0.1424
 2996SOL    HW220622   2.007   4.014   0.944  2.2744 -1.2964  0.7128
 2997SOL     OW20623   0.239   2.639   4.178 -0.1263 -0.6956  0.3366
 2997SOL    HW120624   0.224   2.646   4.084 -0.1824 -3.4321  0.1221
 2997SOL    HW220625   0.176   2.698   4.219 -1.0216 -0.6738 -1.0641
 2998SOL     OW20626   1.628   3.371   5.038 -0.3231 -0.4097  0.3836
 2998SOL    HW120627   1.609   3.448   4.984  1.0561  0.9183  1.7985
 2998SOL    HW220628   1.611   3.412   5.123  0.3424  0.3998  0.1222
 2999SOL     OW20629   0.317   4.526   2.652 -0.3809  0.0602  0.1382
 2999SOL    HW120630   0.242   4.508   2.709  0.6567 -0.2570  1.4160
 2999SOL    HW220631   0.360   4.601   2.692 -1.2251 -1.2361  3.5720
 3000SOL     OW20632   1.643   0.779   6.990  0.3824  0.0869  0.6528
 3000SOL    HW120633   1.632   0.779   6.894  0.0153  0.3179  0.6957
 3000SOL    HW220634   1.596   0.861   7.005  2.0927  1.2454 -0.2299
 3001SOL     OW20635   4.024   0.409   6.556  0.2195  0.3111  0.4731
 3001SOL    HW120636   3.988   0.338   6.610 -1.6597 -0.6568 -2.0579
 3001SOL    HW220637   4.011   0.391   6.463  0.6108 -1.7539  0.8076
 3002SOL     OW20638   1.484   4.709   5.402  0.3005 -0.3576  0.0454
 3002SOL    HW120639   1.467   4.682   5.493 -0.8169 -1.4458 -0.4967
 3002SOL    HW220640   1.530   0.055   5.416 -2.1647  0.9223  0.4551
 3003SOL     OW20641   0.543   3.627   9.726 -0.2468 -0.4269  0.0516
 3003SOL    HW120642   0.543   3.689   9.653  1.9169  0.5364  0.8758
 3003SOL    HW220643   0.452   3.613   9.752  0.0767  0.1172  1.5220
 3004SOL     OW20644   1.007   1.108   3.726  0.4582  0.1112  0.0168
 3004SOL    HW120645   0.982   1.200   3.722  0.3571  0.1605  1.5045
 3004SOL    HW220646   0.976   1.075   3.642  0.3021 -0.7998  0.4355
 3005SOL     OW20647   1.730   4.287  17.480  0.5143 -0.1243  0.3213
 3005SOL    HW120648   1.657   4.336  17.518  0.5933  0.9157 -0.8702
 3005SOL    HW220649   1.805   4.341  17.504  0.3537  0.9364 -1.6074
 3006SOL     OW20650   3.000   3.286   3.866 -0.1323 -0.1335 -0.3038
 3006SOL    HW120651   3.006   3.302   3.771 -1.2574 -1.6001 -0.6150
 3006SOL    HW220652   3.025   3.375   3.893  2.3162 -0.6737 -0.7899
 3007SOL     OW20653   2.198   3.818   6.995  0.5420  0.2380  0.6118
 3007SOL    HW120654   2.149   3.900   7.009  0.1323  0.1994 -0.5749
 3007SOL    HW220655   2.290   3.840   7.011  0.6984  0.1018 -0.1065
 3008SOL     OW20656   3.240   1.423   6.663  0.0302  0.2008  0.1481
 3008SOL    HW120657   3.200   1.341   6.634  1.4346  0.2759 -1.9876
 3008SOL    HW220658   3.259   1.387   6.750 -1.9725 -0.8641  0.1350
 3009SOL     OW20659   1.654   1.726   2.708 -0.1812 -0.2881  0.1529
 3009SOL    HW120660   1.660   1.653   2.646 -0.7012  1.0649 -1.5146
 3009SOL    HW220661   1.733   1.779   2.694 -2.0705  2.5026  0.0704
 3010SOL     OW20662   3.128   2.187  16.319  0.2135  0.7351 -0.1578
 3010SOL    HW120663   3.217   2.217  16.340  0.7651 -1.3981  0.4581
 3010SOL    HW220664   3.112   2.227  16.233  0.5148 -2.5595 -1.7371
 3011SOL     OW20665   0.829   3.690   8.255  0.0510  0.2294  0.7619
 3011SOL    HW120666   0.816   3.773   8.210  0.3029  0.1696  0.5795
 3011SOL    HW220667   0.840   3.625   8.186 -3.4603  1.5840 -1.0860
 3012SOL     OW20668   0.728   1.614   6.621  0.3292  0.0674  0.2546
 3012SOL    HW120669   0.805   1.651   6.576 -0.1875 -1.1466 -1.6496
 3012SOL    HW220670   0.710   1.539   6.564 -0.8015  1.6480 -1.4639
 3013SOL     OW20671   3.579   2.728   8.752 -0.2147 -0.6017  0.3537
 3013SOL    HW120672   3.571   2.659   8.686  0.8543 -0.6870  0.3206
 3013SOL    HW220673   3.636   2.792   8.709 -2.5078  1.4658  0.3306
 3014SOL     OW20674   1.558   3.854   2.674  0.7826  0.2666 -0.5587
 3014SOL    HW120675   1.641   3.819   2.641 -0.7184 -1.8735 -2.0779
 3014SOL    HW220676   1.558   3.935   2.623 -0.8502 -0.0714 -1.1012
 3015SOL     OW20677   0.119   0.313   6.965 -0.0650 -0.1627  0.2274
 3015SOL    HW120678   0.056   0.280   6.901  0.3247  0.5870 -0.5390
 3015SOL    HW220679   0.127   0.229   7.010 -1.4084 -1.2546 -1.5907
 3016SOL     OW20680   0.771   2.564   4.611  0.2863  0.4188  0.1029
 3016SOL    HW120681   0.736   2.532   4.694 -2.0019  0.2727 -0.9167
 3016SOL    HW220682   0.865   2.546   4.619  0.2593  1.0552  1.7689
 3017SOL     OW20683   2.297   0.307   3.745 -0.1979  0.0710  0.3971
 3017SOL    HW120684   2.329   0.397   3.749  1.3474 -0.4783  0.4391
 3017SOL    HW220685   2.367   0.263   3.697 -2.9255 -1.1327 -2.4852
 3018SOL     OW20686   1.287   4.626   5.975 -0.0910 -0.0545  0.2316
 3018SOL    HW120687   1.374   4.664   5.986 -0.4192  0.9467 -0.5224
 3018SOL    HW220688   1.305   4.532   5.979  1.1845  0.2534  1.6891
 3019SOL     OW20689   3.150   1.799   3.318 -0.5651  0.1258 -0.2856
 3019SOL    HW120690   3.166   1.878   3.370  1.9215 -1.3410  1.1395
 3019SOL    HW220691   3.226   1.786   3.262  0.4893  4.1995  0.1704
 3020SOL     OW20692   3.379   3.548  11.502 -0.6343  0.2466  0.0148
 3020SOL    HW120693   3.439   3.622  11.491 -0.1487  0.2583  2.6811
 3020SOL    HW220694   3.296   3.592  11.522 -0.3633  1.0249 -0.5814
 3021SOL     OW20695   4.008   3.040  11.731  0.3279 -0.2691 -0.4202
 3021SOL    HW120696   4.002   3.093  11.810  0.3128 -0.6438 -0.1687
 3021SOL    HW220697   4.056   2.963  11.761  0.2972 -0.3666 -0.6179
 3022SOL     OW20698   2.811   4.358   4.905  0.3904 -0.2602  0.9002
 3022SOL    HW120699   2.776   4.272   4.880  0.6253 -0.4501  1.2316
 3022SOL    HW220700   2.729   4.385   4.946 -0.4980  1.1950 -1.8198
 3023SOL     OW20701   0.368   1.622  13.848  0.0646 -0.0021 -0.5695
 3023SOL    HW120702   0.292   1.667  13.884  0.6143  0.1805  0.3551
 3023SOL    HW220703   0.410   1.701  13.813 -1.1287 -0.4797 -3.0635
 3024SOL     OW20704   4.177   3.521  10.196 -0.0131 -0.6421  0.6840
 3024SOL    HW120705   4.244   3.505  10.130 -0.3315 -0.4098  0.3060
 3024SOL    HW220706   4.205   3.453  10.258  0.1926  1.3591  2.7586
 3025SOL     OW20707   1.335   1.666   5.021 -0.3039  0.3942 -0.0421
 3025SOL    HW120708   1.389   1.592   4.992  1.6221  0.7282  2.6709
 3025SOL    HW220709   1.276   1.668   4.946  1.1141  0.2691 -1.1542
 3026SOL     OW20710   2.722   4.215   2.563  0.3321 -0.0159 -0.1299
 3026SOL    HW120711   2.738   4.308   2.550  0.1046 -0.2827 -2.2543
 3026SOL    HW220712   2.731   4.192   2.471  3.2871  1.2473 -0.1452
 3027SOL     OW20713   0.463   1.639   7.587 -0.0334 -0.8102  0.4394
 3027SOL    HW120714   0.518   1.713   7.614 -1.1333  1.1686 -2.7399
 3027SOL    HW220715   0.438   1.668   7.499  0.5307  0.4001  0.6685
 3028SOL     OW20716   4.053   4.161   3.289  0.4673 -0.7891  0.4462
 3028SOL    HW120717   3.998   4.238   3.278  0.3167 -0.8476  0.7885
 3028SOL    HW220718   4.121   4.186   3.226  2.4650  0.0594  2.9885
 3029SOL     OW20719   0.439   3.239   3.973 -0.3515 -0.4932 -0.0899
 3029SOL    HW120720   0.367   3.190   4.014  3.1057 -3.2319  2.6954
 3029SOL    HW220721   0.446   3.302   4.044 -1.2543 -0.7759  0.2557
 3030SOL     OW20722   2.298   2.418  15.881 -0.4939 -0.2934  0.2341
 3030SOL    HW120723   2.217   2.406  15.831  1.1269 -2.2797 -1.9096
 3030SOL    HW220724   2.366   2.397  15.818 -0.4452  3.5535 -0.9963
 3031SOL     OW20725   4.239   3.086  12.357 -0.1418 -0.3472 -0.1798
 3031SOL    HW120726   4.284   3.009  12.322  0.3560  0.0694 -0.4493
 3031SOL    HW220727   4.261   3.154  12.293  1.3719 -2.5811 -2.0243
 3032SOL     OW20728   0.908   0.703   3.070 -0.0159  0.2096  0.2919
 3032SOL    HW120729   0.866   0.769   3.016  1.3068  0.1401 -0.8223
 3032SOL    HW220730   0.861   0.629   3.032 -2.4486  2.2546 -0.6455
 3033SOL     OW20731   2.021   3.284  14.626 -0.2607 -0.1886 -0.0532
 3033SOL    HW120732   1.955   3.247  14.568 -0.1335  0.9591 -0.9256
 3033SOL    HW220733   2.047   3.213  14.684  0.4859  0.8608  0.8961
 3034SOL     OW20734   0.371   3.616  12.657 -0.4054  0.5498 -0.2441
 3034SOL    HW120735   0.396   3.525  12.674 -1.2418  0.2077 -0.8423
 3034SOL    HW220736   0.447   3.658  12.697  0.2271 -0.3612 -0.4965
 3035SOL     OW20737   0.668   0.947   0.229 -0.4233  0.5707 -0.1619
 3035SOL    HW120738   0.578   0.914   0.232 -0.2243  0.0268 -0.1038
 3035SOL    HW220739   0.640   1.038   0.241 -0.1038  0.6612 -0.1284
 3036SOL     OW20740   1.440   2.318  13.979 -0.1555  0.2017 -0.1247
 3036SOL    HW120741   1.529   2.285  13.989  0.7219  2.0536 -1.8195
 3036SOL    HW220742   1.449   2.356  13.892 -1.1896 -0.2798 -0.4377
 3037SOL     OW20743   3.105   1.803   7.925 -0.0779  0.8171 -0.5562
 3037SOL    HW120744   3.155   1.724   7.905  1.5505  1.1261  2.2720
 3037SOL    HW220745   3.135   1.834   8.011  0.2936  1.5787 -0.9533
 3038SOL     OW20746   0.147   0.359   2.311  0.1551 -0.5618  0.3660
 3038SOL    HW120747   0.123   0.294   2.377  1.0001 -0.4026  0.8228
 3038SOL    HW220748   0.063   0.401   2.295 -0.7709 -3.2081 -1.6579
 3039SOL     OW20749   1.028   3.519   4.700  0.4021  1.1093  0.2527
 3039SOL    HW120750   0.944   3.567   4.703  0.2851  0.9061  0.2073
 3039SOL    HW220751   1.019   3.493   4.608  0.4344 -0.9460  0.8502
 3040SOL     OW20752   3.588   3.960   3.656  0.0515 -0.3613 -0.4249
 3040SOL    HW120753   3.504   4.002   3.673  0.5682  0.2989  0.5072
 3040SOL    HW220754   3.640   3.975   3.736 -1.4343  1.7137  0.1419
 3041SOL     OW20755   0.661   2.741   5.167 -0.3043  0.0147 -0.3095
 3041SOL    HW120756   0.754   2.758   5.179  0.0810 -0.5002 -2.6654
 3041SOL    HW220757   0.650   2.674   5.236  0.9442  2.8824  2.6817
 3042SOL     OW20758   1.411   2.276  10.213  0.3560  0.1412 -0.3885
 3042SOL    HW120759   1.371   2.194  10.184 -0.7026  0.4451  0.2016
 3042SOL    HW220760   1.383   2.343  10.150 -1.3406 -1.0654 -0.9307
 3043SOL     OW20761   0.579   0.319   2.872  0.2868 -0.4555  0.2793
 3043SOL    HW120762   0.509   0.375   2.905  0.5916 -0.2338  0.5625
 3043SOL    HW220763   0.572   0.236   2.919  0.5522  0.4841  1.9920
 3044SOL     OW20764   2.006   2.640  14.481  0.1513  0.6490 -0.0499
 3044SOL    HW120765   2.054   2.718  14.506 -0.8756  1.4784 -0.6781
 3044SOL    HW220766   2.040   2.577  14.544  1.5821  3.4045  1.9050
 3045SOL     OW20767   4.728   1.542   8.089 -0.4247  0.4364  0.3059
 3045SOL    HW120768   0.015   1.588   8.169  0.6614 -0.4909  0.5047
 3045SOL    HW220769   4.664   1.474   8.112 -1.6572  1.2760 -0.6083
 3046SOL     OW20770   2.703   0.637   1.975 -0.1648  0.3187  0.0916
 3046SOL    HW120771   2.795   0.660   1.965  0.2762 -1.4998 -0.1699
 3046SOL    HW220772   2.696   0.662   2.067 -2.4188 -0.9030  0.2649
 3047SOL     OW20773   0.384   0.820   9.664  0.1070  0.2746 -0.0328
 3047SOL    HW120774   0.360   0.806   9.755  0.5379 -0.1244  0.0151
 3047SOL    HW220775   0.479   0.824   9.660  0.0008  1.0876 -2.0499
 3048SOL     OW20776   4.040   3.228   1.893  0.5985 -0.5590  0.3164
 3048SOL    HW120777   4.066   3.213   1.802  1.0565 -0.6439  0.4605
 3048SOL    HW220778   4.091   3.156   1.930  0.5229 -1.4177 -1.2463
 3049SOL     OW20779   2.729   1.260   7.770 -0.1609 -0.2748  0.6341
 3049SOL    HW120780   2.709   1.223   7.856  0.8666 -2.2958 -0.0153
 3049SOL    HW220781   2.738   1.185   7.712  0.3586 -0.4512  0.9443
 3050SOL     OW20782   0.999   0.615   8.905 -0.3337  0.0021 -0.2039
 3050SOL    HW120783   0.949   0.534   8.903  0.5190 -0.6030  2.2816
 3050SOL    HW220784   0.969   0.650   8.989 -2.6375  0.0572 -1.0602
 3051SOL     OW20785   1.960   1.455   2.306  0.0558 -0.0547  0.0784
 3051SOL    HW120786   1.936   1.435   2.216 -2.1662  0.9003  0.4511
 3051SOL    HW220787   1.874   1.459   2.348  0.1151 -0.4035  0.2358
 3052SOL     OW20788   2.771   3.787   6.197  0.1226 -0.0321 -0.0089
 3052SOL    HW120789   2.755   3.829   6.113 -0.7864  0.0033  0.1732
 3052SOL    HW220790   2.765   3.694   6.175  0.4731 -0.1837  0.5520
 3053SOL     OW20791   1.278   3.190   2.566  0.6464 -0.0616 -0.0280
 3053SOL    HW120792   1.253   3.115   2.513 -1.4001  0.0475  0.8166
 3053SOL    HW220793   1.252   3.160   2.653 -1.6692  0.5139 -0.5198
 3054SOL     OW20794   1.136   4.066  15.449 -0.0984  0.3026  0.2985
 3054SOL    HW120795   1.081   4.107  15.383  0.5353 -0.5284 -0.7616
 3054SOL    HW220796   1.225   4.089  15.423 -0.1602 -0.8475 -0.9593
 3055SOL     OW20797   1.977   2.083  13.520  0.8226 -0.1742 -0.2729
 3055SOL    HW120798   2.039   2.040  13.580 -0.1988 -0.9177  0.2590
 3055SOL    HW220799   1.891   2.042  13.528  1.5205 -1.6631 -0.3356
 3056SOL     OW20800   4.685   4.693   2.899  0.1893  0.0944 -0.2227
 3056SOL    HW120801   4.675   0.044   2.863  1.4528  0.6441  0.7585
 3056SOL    HW220802   0.033   4.697   2.942  0.4972  1.5545 -0.9766
 3057SOL     OW20803   3.613   1.689   8.163 -0.0844  0.0056 -0.1871
 3057SOL    HW120804   3.604   1.693   8.068  0.4538  3.1795 -0.0779
 3057SOL    HW220805   3.700   1.726   8.178  0.2948 -1.1181  0.4122
 3058SOL     OW20806   2.635   2.536   9.097 -0.0566  0.0228  0.1980
 3058SOL    HW120807   2.574   2.468   9.067 -0.1832  0.2857 -0.1405
 3058SOL    HW220808   2.718   2.513   9.055  0.1835 -1.5264  1.5140
 3059SOL     OW20809   3.017   2.168   6.496  0.7777  0.5413  0.0975
 3059SOL    HW120810   3.066   2.097   6.454  0.5621  1.2584 -1.3684
 3059SOL    HW220811   3.039   2.145   6.587  1.0229  2.3914  0.5182
 3060SOL     OW20812   4.700   2.011   0.701  0.3107 -0.3013  0.3470
 3060SOL    HW120813   0.051   2.045   0.701  0.4689 -0.7557  2.1691
 3060SOL    HW220814   4.648   2.080   0.742 -0.9188 -0.6276 -0.6535
 3061SOL     OW20815   2.580   3.919   5.539  0.1800  0.2221 -0.6461
 3061SOL    HW120816   2.621   4.005   5.531  1.0632  0.0700  2.3437
 3061SOL    HW220817   2.566   3.915   5.633  1.2663 -1.6826 -0.5606
 3062SOL     OW20818   1.862   1.098   4.790 -0.3945  0.0207  0.3653
 3062SOL    HW120819   1.898   1.187   4.783 -0.1178 -0.2593 -1.8642
 3062SOL    HW220820   1.926   1.068   4.855 -0.0595  1.2565  0.6067
 3063SOL     OW20821   4.153   4.012   4.379 -0.4604  0.4114  0.2740
 3063SOL    HW120822   4.161   4.047   4.468 -1.3858  0.4325  0.3492
 3063SOL    HW220823   4.096   4.077   4.337 -1.4233  0.3659  1.5114
 3064SOL     OW20824   4.226   1.607   8.649  0.1560  0.0209 -0.2635
 3064SOL    HW120825   4.131   1.592   8.656  0.3706 -1.0094  0.3379
 3064SOL    HW220826   4.257   1.519   8.669 -1.1335 -0.8613 -2.1109
 3065SOL     OW20827   4.091   2.876   9.650 -0.0246  0.5023  0.1300
 3065SOL    HW120828   4.028   2.894   9.581  1.1626 -1.7557 -1.5530
 3065SOL    HW220829   4.174   2.908   9.617 -0.4103  0.1859 -1.1480
 3066SOL     OW20830   0.109   1.255   0.477 -0.5845 -0.0410 -0.3599
 3066SOL    HW120831   0.065   1.257   0.562 -0.3581  1.0417 -0.2731
 3066SOL    HW220832   0.061   1.320   0.427  1.0049 -0.1911 -2.0951
 3067SOL     OW20833   0.330   0.217   4.664 -0.4128 -0.3057 -0.2738
 3067SOL    HW120834   0.338   0.122   4.677 -2.1961 -0.2918  0.8909
 3067SOL    HW220835   0.253   0.205   4.609 -1.7593 -0.7091  1.6731
 3068SOL     OW20836   2.320   3.331  13.172 -0.3741 -0.0552  0.0144
 3068SOL    HW120837   2.311   3.247  13.216  1.3290 -0.6616 -0.8142
 3068SOL    HW220838   2.230   3.364  13.180  0.5716  1.9971  1.9784
 3069SOL     OW20839   1.034   1.657  12.705  0.3768 -0.3135 -0.4517
 3069SOL    HW120840   1.044   1.681  12.612 -1.4162  2.6126  0.1216
 3069SOL    HW220841   0.955   1.606  12.689  0.6378 -0.8117 -0.1177
 3070SOL     OW20842   2.448   2.442  10.150  0.3146 -0.0927  0.1579
 3070SOL    HW120843   2.376   2.380  10.135  1.0779 -1.1466  0.8371
 3070SOL    HW220844   2.521   2.380  10.145 -0.1390 -0.6026 -0.1393
 3071SOL     OW20845   2.833   3.825   7.332  0.3792  0.0327  0.4047
 3071SOL    HW120846   2.856   3.857   7.419  0.7634 -0.0527  0.3318
 3071SOL    HW220847   2.907   3.770   7.308 -1.7954 -2.4458 -0.6001
 3072SOL     OW20848   2.360   4.725   8.419  0.2141 -1.0775 -0.2199
 3072SOL    HW120849   2.405   4.694   8.498 -2.4403 -0.6004  1.4659
 3072SOL    HW220850   2.430   0.044   8.386 -2.2645  2.8256  1.2070
 3073SOL     OW20851   1.703   0.157   5.760  0.0805 -0.4934 -0.2181
 3073SOL    HW120852   1.784   0.116   5.731  0.7564  1.1449 -0.6306
 3073SOL    HW220853   1.637   0.099   5.722  1.4263 -0.9423 -1.8771
 3074SOL     OW20854   3.022   3.420   6.092  0.0850  0.2339  0.3696
 3074SOL    HW120855   2.929   3.423   6.111  0.4266 -1.7547  2.3657
 3074SOL    HW220856   3.062   3.400   6.176  2.1666  0.3012 -0.5999
 3075SOL     OW20857   0.195   2.914   3.075 -0.1890  0.3221  0.2120
 3075SOL    HW120858   0.155   3.001   3.076 -0.9855 -0.0470  1.1416
 3075SOL    HW220859   0.283   2.939   3.103 -0.8836  2.1500  0.7421
 3076SOL     OW20860   4.591   1.945   6.481 -0.3851  0.0395 -0.5612
 3076SOL    HW120861   4.563   1.909   6.397  1.5420  1.0099 -1.6316
 3076SOL    HW220862   4.597   2.037   6.455 -0.0813  0.2340  0.1944
 3077SOL     OW20863   4.521   2.324   1.062 -0.1925  0.4690  0.2007
 3077SOL    HW120864   4.429   2.326   1.037 -0.2583  0.3246  0.4336
 3077SOL    HW220865   4.547   2.404   1.017  0.5424  0.6490  0.9402
 3078SOL     OW20866   0.840   1.992   7.270 -0.3685  0.4417 -0.0849
 3078SOL    HW120867   0.832   1.940   7.190 -1.9295  2.4411 -1.1928
 3078SOL    HW220868   0.903   1.938   7.319  0.9154  1.9188 -0.1200
 3079SOL     OW20869   2.856   0.489   3.128  0.3022  0.5727 -0.2671
 3079SOL    HW120870   2.867   0.518   3.218  2.4190  1.4106 -0.8022
 3079SOL    HW220871   2.942   0.509   3.091  0.2166 -1.6966 -1.6815
 3080SOL     OW20872   2.241   4.419   1.330 -0.4686 -0.0678  0.2995
 3080SOL    HW120873   2.293   4.495   1.305  1.4128 -1.8077 -1.0720
 3080SOL    HW220874   2.152   4.453   1.315  0.1489  0.8663 -1.1989
 3081SOL     OW20875   3.417   2.680  14.585 -0.2237  0.2503  0.8436
 3081SOL    HW120876   3.448   2.724  14.505  0.1622 -2.9000 -0.7383
 3081SOL    HW220877   3.415   2.589  14.554 -0.8151  0.4722  0.2051
 3082SOL     OW20878   2.070   4.340   4.594 -0.9151  0.0722 -0.8163
 3082SOL    HW120879   2.112   4.413   4.641 -1.4655  0.7650 -1.4096
 3082SOL    HW220880   2.073   4.378   4.507 -1.7214  0.5803 -0.6212
 3083SOL     OW20881   4.288   0.862   6.966 -0.3628 -0.0048  0.3586
 3083SOL    HW120882   4.376   0.824   6.969  0.0549  1.1516  2.7221
 3083SOL    HW220883   4.272   0.875   7.059 -1.0615  2.3225 -0.0742
 3084SOL     OW20884   1.272   4.571  13.232 -0.3633  0.4904 -0.2095
 3084SOL    HW120885   1.330   4.496  13.243 -1.8535 -0.8629 -1.5115
 3084SOL    HW220886   1.335   4.643  13.229  0.3520 -0.2899 -4.2083
 3085SOL     OW20887   1.801   3.819  10.763 -0.2879 -0.0971  0.2938
 3085SOL    HW120888   1.750   3.877  10.819  0.6479  1.1547 -0.1420
 3085SOL    HW220889   1.732   3.753  10.766 -0.2888 -0.0200  1.6915
 3086SOL     OW20890   3.070   4.380   7.305 -0.3019 -0.1994 -0.5343
 3086SOL    HW120891   3.048   4.444   7.238 -0.1737 -0.0750 -0.4564
 3086SOL    HW220892   3.127   4.323   7.253 -1.2236 -2.7701  1.2324
 3087SOL     OW20893   4.151   2.823   1.517 -0.4630 -0.4450  0.1637
 3087SOL    HW120894   4.185   2.736   1.499  2.9872  1.0911 -0.6000
 3087SOL    HW220895   4.058   2.815   1.494 -0.9360 -0.6795  2.1943
 3088SOL     OW20896   3.820   2.443   1.524  0.0640 -0.3970  0.6573
 3088SOL    HW120897   3.786   2.420   1.610  1.4304  0.9084  1.5414
 3088SOL    HW220898   3.740   2.436   1.472  0.2788 -2.5668  0.5923
 3089SOL     OW20899   3.622   3.013   4.767  0.3807  0.1089  0.4142
 3089SOL    HW120900   3.690   2.968   4.816  1.6956  0.4657 -1.1091
 3089SOL    HW220901   3.672   3.064   4.704 -0.5928 -0.4252 -0.7946
 3090SOL     OW20902   2.067   2.765   8.692 -0.1607  0.3064  0.0988
 3090SOL    HW120903   2.015   2.808   8.760  2.0124  1.3920  1.0923
 3090SOL    HW220904   2.156   2.795   8.711 -0.5004  0.4918  1.3860
 3091SOL     OW20905   2.697   1.359   6.940 -0.7111  0.0990  0.6471
 3091SOL    HW120906   2.782   1.386   6.903 -1.6428  0.7828 -0.9712
 3091SOL    HW220907   2.713   1.265   6.944  1.4745  0.4503  0.4142
 3092SOL     OW20908   1.476   3.629   1.896  0.0669 -0.5782 -0.3502
 3092SOL    HW120909   1.407   3.663   1.840 -0.2538 -0.4812  0.1008
 3092SOL    HW220910   1.466   3.693   1.967 -2.6770 -0.7839 -0.5679
 3093SOL     OW20911   4.449   2.550  12.476 -0.2084  0.1171 -0.1749
 3093SOL    HW120912   4.460   2.596  12.559  0.0743  0.3523 -0.3410
 3093SOL    HW220913   4.511   2.478  12.488  0.6557  1.2476  2.1156
 3094SOL     OW20914   0.335   0.269  10.122 -0.3424  0.2804 -0.6062
 3094SOL    HW120915   0.346   0.189  10.071 -0.5504  1.3178 -2.3199
 3094SOL    HW220916   0.429   0.283  10.132 -0.1658 -0.9389 -0.6080
 3095SOL     OW20917   0.160   0.644   8.212 -0.4436 -0.3474 -0.4948
 3095SOL    HW120918   0.085   0.597   8.246 -1.3063  2.0862  0.9426
 3095SOL    HW220919   0.126   0.654   8.123  0.4029  0.9311 -0.6845
 3096SOL     OW20920   4.407   3.623  12.290 -0.2968  0.2612  0.0968
 3096SOL    HW120921   4.321   3.591  12.262  0.0682 -1.6951  1.2215
 3096SOL    HW220922   4.460   3.549  12.259 -0.4829 -0.0922  0.6282
 3097SOL     OW20923   1.708   0.420   5.030  0.8487  0.2597 -0.1614
 3097SOL    HW120924   1.638   0.363   5.062  0.3991  0.5601 -0.6196
 3097SOL    HW220925   1.712   0.401   4.937  2.7757 -0.1099 -0.0061
 3098SOL     OW20926   1.213   3.458   9.166 -0.2687  0.1691  0.1542
 3098SOL    HW120927   1.175   3.538   9.128  0.5858  0.4766 -0.0447
 3098SOL    HW220928   1.188   3.389   9.105  0.0295 -0.3371  0.6074
 3099SOL     OW20929   1.797   4.185  13.363  0.2035 -0.3532 -0.4249
 3099SOL    HW120930   1.887   4.195  13.394  0.8211 -2.1391 -1.6455
 3099SOL    HW220931   1.752   4.259  13.404 -0.2172 -0.0029 -1.5397
 3100SOL     OW20932   2.091   4.250  13.341 -0.0733  0.3323  0.0375
 3100SOL    HW120933   2.152   4.180  13.366  0.2726  0.6145 -0.0233
 3100SOL    HW220934   2.128   4.276  13.257 -0.8580 -1.3517 -0.8286
 3101SOL     OW20935   4.078   3.162   3.004  0.1694  0.6863 -0.0515
 3101SOL    HW120936   4.047   3.074   3.024  3.2038 -0.0230  1.4227
 3101SOL    HW220937   3.996   3.182   2.958  0.6624 -0.5518 -1.4709
 3102SOL     OW20938   3.691   4.686   3.805 -0.4344 -0.9117  0.2038
 3102SOL    HW120939   3.743   4.627   3.749  0.4511 -0.3451  0.4312
 3102SOL    HW220940   3.747   4.707   3.880 -0.3549  0.2431 -0.1799
 3103SOL     OW20941   3.327   1.958  17.121  0.1439 -0.5710  0.4748
 3103SOL    HW120942   3.243   1.986  17.158  0.3156 -0.1237  0.5216
 3103SOL    HW220943   3.329   1.863  17.131 -1.8804 -0.3356  3.2108
 3104SOL     OW20944   0.770   2.210   4.071  0.2870  0.0532 -0.2674
 3104SOL    HW120945   0.763   2.254   4.155  2.9753  0.6884 -0.3834
 3104SOL    HW220946   0.843   2.153   4.093 -1.0670 -0.9013  1.7597
 3105SOL     OW20947   1.812   1.558  11.747 -0.1967 -0.1478  0.6620
 3105SOL    HW120948   1.899   1.537  11.780  0.4903  0.4573 -0.7941
 3105SOL    HW220949   1.839   1.599  11.665  0.7189  0.0045  1.0395
 3106SOL     OW20950   4.666   2.530   2.901  0.5859  0.2860  0.1318
 3106SOL    HW120951   4.596   2.480   2.943 -0.6498  1.7340 -0.1911
 3106SOL    HW220952   4.714   2.573   2.971  1.1949 -0.8602  0.4119
 3107SOL     OW20953   4.537   3.501   5.207  0.0232 -0.1320  0.0419
 3107SOL    HW120954   4.609   3.523   5.147 -0.3872  0.3276 -0.2834
 3107SOL    HW220955   4.514   3.430   5.147  0.2203  0.4985 -0.7919
 3108SOL     OW20956   1.993   2.008  14.202 -0.3995 -0.2651  0.3749
 3108SOL    HW120957   2.004   1.920  14.237  1.4079 -0.1573  0.1056
 3108SOL    HW220958   1.954   1.981  14.119 -0.9296  1.1122  0.1777
 3109SOL     OW20959   0.111   3.258  16.461 -0.0990  0.1769  0.3450
 3109SOL    HW120960   0.084   3.175  16.422  0.4505 -0.0147  0.3629
 3109SOL    HW220961   0.074   3.322  16.400 -0.1918  0.5580  0.8052
 3110SOL     OW20962   3.969   2.906   2.842 -0.0312  0.6261  0.5986
 3110SOL    HW120963   4.032   2.834   2.853 -1.0595 -0.0498  2.0642
 3110SOL    HW220964   3.902   2.889   2.908 -0.0644  0.4106  0.5116
 3111SOL     OW20965   1.426   2.661   6.509 -0.5076  1.0297  0.3847
 3111SOL    HW120966   1.428   2.749   6.546  1.0501  0.5464  1.4760
 3111SOL    HW220967   1.333   2.655   6.487 -0.0774  0.2634 -1.2065
 3112SOL     OW20968   2.630   4.320   9.473 -0.4632 -0.2824  0.6659
 3112SOL    HW120969   2.625   4.263   9.396  1.2171 -4.7205  3.8998
 3112SOL    HW220970   2.597   4.403   9.438  1.8264 -0.4220 -1.8246
 3113SOL     OW20971   3.493   2.861  12.990 -0.6136  0.0676  0.0399
 3113SOL    HW120972   3.501   2.831  12.899  0.9532  0.7118 -0.0398
 3113SOL    HW220973   3.419   2.922  12.987 -0.6393  0.1327  2.3244
 3114SOL     OW20974   0.208   2.034   0.239 -0.0844  0.3435  0.1548
 3114SOL    HW120975   0.173   2.022   0.151 -0.7861 -1.4598  0.6731
 3114SOL    HW220976   0.279   1.970   0.238 -0.1479  0.2857 -0.2969
 3115SOL     OW20977   0.837   4.657   4.984  0.0867 -0.5670 -0.4574
 3115SOL    HW120978   0.780   4.581   4.973  1.3901 -1.4097 -1.4148
 3115SOL    HW220979   0.815   4.687   5.072  0.9857  0.7639 -0.6827
 3116SOL     OW20980   3.653   1.822   5.865 -0.1742  0.4802 -0.3385
 3116SOL    HW120981   3.591   1.748   5.872 -1.7223  1.8626  0.4736
 3116SOL    HW220982   3.591   1.889   5.893  1.8975  1.8000  1.0124
 3117SOL     OW20983   2.370   0.749   5.739  0.0842 -0.3741 -0.2034
 3117SOL    HW120984   2.337   0.663   5.765 -0.0364 -1.1409 -2.8617
 3117SOL    HW220985   2.308   0.802   5.788 -0.2148 -0.9458  0.0269
 3118SOL     OW20986   0.719   1.907   5.068 -0.0651 -0.6346  0.6138
 3118SOL    HW120987   0.781   1.879   5.136  0.6132 -0.7979 -0.0716
 3118SOL    HW220988   0.636   1.885   5.111 -0.6039  0.6363  0.2120
 3119SOL     OW20989   2.155   2.701  16.218 -0.3692  0.3036  1.3542
 3119SOL    HW120990   2.161   2.781  16.165  1.1567 -1.2929 -0.9133
 3119SOL    HW220991   2.214   2.646  16.166  1.4469  1.3459  2.3091
 3120SOL     OW20992   1.401   4.344   6.022  0.0323 -0.1564  0.5044
 3120SOL    HW120993   1.448   4.420   6.056 -1.1556  0.7403  0.1486
 3120SOL    HW220994   1.460   4.315   5.953 -2.1474 -3.1958 -0.0824
 3121SOL     OW20995   4.099   2.947   3.629 -0.0870  0.2593 -0.1348
 3121SOL    HW120996   4.107   3.000   3.708  0.4335 -0.4005  0.2523
 3121SOL    HW220997   4.165   2.974   3.564 -0.8074 -0.8008 -1.3111
 3122SOL     OW20998   3.357   3.569   1.364  0.6619 -0.9290 -0.2584
 3122SOL    HW120999   3.287   3.611   1.314 -1.6983 -4.1596  0.3368
 3122SOL    HW221000   3.341   3.479   1.338 -1.8031 -0.7547  0.6465
 3123SOL     OW21001   1.636   2.911   2.542 -0.3611  0.1431 -0.2399
 3123SOL    HW121002   1.722   2.887   2.576  0.4318  2.2662 -0.7471
 3123SOL    HW221003   1.619   2.855   2.466 -1.0150 -1.5251  1.1191
 3124SOL     OW21004   3.953   1.294   2.304  0.1587  0.0810  0.3749
 3124SOL    HW121005   3.932   1.334   2.389 -0.4038  0.4323  0.0760
 3124SOL    HW221006   4.036   1.257   2.334  0.3362  1.4566  1.5590
 3125SOL     OW21007   4.667   3.699   0.665 -0.4511 -0.4858 -0.6659
 3125SOL    HW121008   4.702   3.788   0.663  1.3944 -1.1351  2.4507
 3125SOL    HW221009   4.575   3.721   0.684 -0.0401  0.8757 -0.2111
 3126SOL     OW21010   3.604   0.499   2.884 -0.1608 -0.2390  0.0641
 3126SOL    HW121011   3.649   0.483   2.801 -0.1993  2.9186 -0.5678
 3126SOL    HW221012   3.631   0.423   2.936  0.6529 -0.0717 -0.1165
 3127SOL     OW21013   1.724   0.317   9.746  0.1843  0.4696  0.2600
 3127SOL    HW121014   1.740   0.270   9.665 -1.3128  0.8326 -0.2328
 3127SOL    HW221015   1.769   0.255   9.803 -0.3502 -0.3659 -0.2289
 3128SOL     OW21016   2.211   1.415   3.463  0.3079  0.4208  0.2160
 3128SOL    HW121017   2.250   1.412   3.550  0.6752  0.2029  0.0455
 3128SOL    HW221018   2.269   1.362   3.408 -0.2317  1.4671 -1.3650
 3129SOL     OW21019   0.602   4.422   6.999  0.2492 -0.6776  0.2345
 3129SOL    HW121020   0.641   4.460   7.078 -1.3057  0.4840  0.4480
 3129SOL    HW221021   0.508   4.424   7.016  0.5820 -1.5107  2.2023
 3130SOL     OW21022   1.685   4.534   0.568  0.3152  0.1988  0.3804
 3130SOL    HW121023   1.710   4.625   0.553 -1.4574  0.7472  0.7100
 3130SOL    HW221024   1.604   4.555   0.615  0.5369  0.8491  0.4624
 3131SOL     OW21025   2.397   2.473   4.544  0.4952  0.3827  0.6383
 3131SOL    HW121026   2.449   2.484   4.624  0.9277 -1.3457  0.5953
 3131SOL    HW221027   2.313   2.514   4.567  0.9809  0.4243  2.3399
 3132SOL     OW21028   3.501   3.172  11.202  0.0621 -0.0299 -0.8395
 3132SOL    HW121029   3.487   3.235  11.274 -1.4172  3.7360 -4.4060
 3132SOL    HW221030   3.596   3.180  11.192 -0.0807  2.1185 -0.6377
 3133SOL     OW21031   1.371   2.364   9.963 -0.4052  0.0276 -0.1398
 3133SOL    HW121032   1.444   2.342   9.906 -0.6130  0.4800 -0.5772
 3133SOL    HW221033   1.305   2.397   9.903 -0.2245 -1.9141 -1.4133
 3134SOL     OW21034   2.176   3.655   1.985 -0.1229  0.1975  0.1461
 3134SOL    HW121035   2.138   3.642   2.071 -0.8193  1.0331 -0.0420
 3134SOL    HW221036   2.256   3.704   2.001  0.9262 -0.9623 -1.5105
 3135SOL     OW21037   0.800   0.654  16.619 -0.0646 -0.3437  0.2057
 3135SOL    HW121038   0.889   0.629  16.595 -0.0927  0.9367 -1.1606
 3135SOL    HW221039   0.756   0.574  16.649 -0.3083 -0.2505  0.0935
 3136SOL     OW21040   3.139   2.933   4.983 -0.7066 -0.1384 -0.2127
 3136SOL    HW121041   3.216   2.981   4.953  0.4704 -2.2325 -0.5286
 3136SOL    HW221042   3.125   2.968   5.072  1.1288  1.0634 -0.3898
 3137SOL     OW21043   1.850   0.754   8.325 -0.4211 -0.3297 -0.1238
 3137SOL    HW121044   1.809   0.739   8.410  0.8369 -0.6281  0.4226
 3137SOL    HW221045   1.924   0.812   8.341 -0.8024  0.3491 -0.7979
 3138SOL     OW21046   3.213   0.212   2.794 -0.7314 -0.6355 -0.1458
 3138SOL    HW121047   3.303   0.243   2.800 -1.3769  1.5187 -1.6276
 3138SOL    HW221048   3.201   0.234   2.702  0.5971  0.2375 -0.0973
 3139SOL     OW21049   0.544   1.759  17.128 -0.2805 -0.2160  0.3731
 3139SOL    HW121050   0.609   1.776  17.059 -2.5473  0.3075 -1.6374
 3139SOL    HW221051   0.464   1.780  17.079 -1.2422 -1.1453  1.5528
 3140SOL     OW21052   2.291   2.266  16.145 -0.0298  0.1695  0.5220
 3140SOL    HW121053   2.295   2.299  16.055  3.1637  0.3225  0.7186
 3140SOL    HW221054   2.210   2.216  16.157  0.0786  0.1158  1.0032
 3141SOL     OW21055   1.445   1.247  14.715  0.4561  0.0753 -0.4662
 3141SOL    HW121056   1.507   1.222  14.647  1.9864  2.2017  0.1464
 3141SOL    HW221057   1.498   1.219  14.790 -0.7240 -1.7510 -0.3238
 3142SOL     OW21058   2.147   0.707  12.308  0.2555  0.2646 -0.0484
 3142SOL    HW121059   2.151   0.626  12.257  0.4990  0.3387 -0.1475
 3142SOL    HW221060   2.051   0.705  12.312  0.3537 -2.7696  0.6355
 3143SOL     OW21061   0.330   4.088   6.471  0.4812 -0.0115 -0.2713
 3143SOL    HW121062   0.285   4.164   6.507 -0.5041 -0.1814 -1.1261
 3143SOL    HW221063   0.368   4.058   6.553  1.1718  1.4046 -0.0813
 3144SOL     OW21064   0.785   4.003   8.271 -0.2075 -0.0180  0.3709
 3144SOL    HW121065   0.792   4.044   8.358 -1.0992  1.8158 -0.4126
 3144SOL    HW221066   0.872   3.971   8.250  0.1473  0.7328  0.7025
 3145SOL     OW21067   3.352   2.859   6.751  0.7034  0.0286 -0.4120
 3145SOL    HW121068   3.370   2.874   6.844  0.0882  0.4713 -0.3666
 3145SOL    HW221069   3.418   2.917   6.713  0.6604  1.7407  2.1287
 3146SOL     OW21070   4.184   3.216  16.975  0.3759 -0.1960  0.0520
 3146SOL    HW121071   4.105   3.197  16.923  0.7093 -2.2949  0.3415
 3146SOL    HW221072   4.155   3.304  17.002  0.5090  0.2663 -1.2915
 3147SOL     OW21073   1.271   0.744  12.585 -0.3084  0.0392  0.4308
 3147SOL    HW121074   1.287   0.833  12.555  0.9350  0.6198  2.8088
 3147SOL    HW221075   1.338   0.734  12.652  1.1145 -0.5909 -1.0972
 3148SOL     OW21076   1.019   1.532  16.754  0.5227  0.3538 -0.4667
 3148SOL    HW121077   0.975   1.447  16.756 -1.0809  1.1523 -3.4075
 3148SOL    HW221078   1.111   1.509  16.768  1.3983  3.4094 -1.3566
 3149SOL     OW21079   0.625   3.288  12.291  0.0954 -0.3919 -0.1449
 3149SOL    HW121080   0.712   3.271  12.257 -0.1760 -0.4467 -0.8132
 3149SOL    HW221081   0.641   3.275  12.385 -1.2557  2.4062  0.4746
 3150SOL     OW21082   3.584   4.082  10.787  0.1894 -0.4248 -0.7143
 3150SOL    HW121083   3.577   4.174  10.812  1.1781 -1.0556  1.8201
 3150SOL    HW221084   3.677   4.065  10.802 -0.3790  0.2754  3.4994
 3151SOL     OW21085   0.646   0.372   8.756 -0.4764  0.4273 -0.1532
 3151SOL    HW121086   0.718   0.326   8.713  0.9714  2.2201  0.3830
 3151SOL    HW221087   0.591   0.386   8.678 -0.4520  1.6988  0.0569
 3152SOL     OW21088   3.061   4.531   3.330 -0.1768  0.0766  0.9210
 3152SOL    HW121089   3.087   4.617   3.362 -0.7142  1.7803 -3.2294
 3152SOL    HW221090   2.979   4.518   3.378 -0.7564  0.4662  0.0264
 3153SOL     OW21091   1.492   4.600   4.850 -0.0950 -0.2646  0.0022
 3153SOL    HW121092   1.486   4.624   4.757  3.3116  2.6424  0.5286
 3153SOL    HW221093   1.512   4.687   4.885 -0.0125  0.6139 -2.1843
 3154SOL     OW21094   3.139   4.463  15.970 -0.1210 -1.1533 -0.0354
 3154SOL    HW121095   3.065   4.523  15.963  1.0139  0.2501  0.0803
 3154SOL    HW221096   3.128   4.407  15.893  0.1990  1.8117 -2.2122
 3155SOL     OW21097   4.689   3.010  12.966  0.7735 -0.3325 -0.6509
 3155SOL    HW121098   0.044   3.017  12.944  0.8480 -2.8324 -1.0948
 3155SOL    HW221099   4.690   2.984  13.059 -0.7108  1.0231 -0.2589
 3156SOL     OW21100   3.722   2.164   7.756  0.2521  0.3073  0.6221
 3156SOL    HW121101   3.638   2.157   7.802 -0.1134  2.2251  0.2479
 3156SOL    HW221102   3.742   2.257   7.767 -1.6296  0.8557 -0.5814
 3157SOL     OW21103   1.805   0.927   2.665 -0.1183 -0.1614 -0.2356
 3157SOL    HW121104   1.804   0.833   2.646  0.6489  0.0405 -1.2698
 3157SOL    HW221105   1.716   0.959   2.649  0.2602  1.7820  1.4797
 3158SOL     OW21106   3.469   0.212   0.910 -0.1579  1.1746 -0.2960
 3158SOL    HW121107   3.457   0.118   0.895 -1.3949  0.8364  2.8479
 3158SOL    HW221108   3.546   0.218   0.854 -0.0915  0.7839 -0.2420
 3159SOL     OW21109   2.899   0.484   7.244  0.6940 -0.2191 -0.9110
 3159SOL    HW121110   2.974   0.429   7.265  0.8931  0.3158 -0.2417
 3159SOL    HW221111   2.873   0.525   7.326  0.6170 -1.6701 -0.2218
 3160SOL     OW21112   3.031   3.347   9.471  0.0324  0.2328  0.2332
 3160SOL    HW121113   2.960   3.406   9.495  2.4825  2.7109  1.4195
 3160SOL    HW221114   2.973   3.279   9.438  0.4790  1.4306 -3.0326
 3161SOL     OW21115   2.397   1.992   5.281  0.0799 -0.2680 -0.2682
 3161SOL    HW121116   2.406   2.038   5.365 -0.6244  1.7195 -1.2934
 3161SOL    HW221117   2.431   1.911   5.321 -0.6145  0.6782  2.2757
 3162SOL     OW21118   3.725   0.796   7.298 -0.1226  0.1094  0.1733
 3162SOL    HW121119   3.719   0.887   7.268 -0.2678  0.1742  0.3971
 3162SOL    HW221120   3.752   0.755   7.216  0.5269 -3.1168  2.0206
 3163SOL     OW21121   3.746   0.971   8.794  0.7947 -0.0779 -0.1549
 3163SOL    HW121122   3.767   1.046   8.849 -1.0988  0.7752 -0.5868
 3163SOL    HW221123   3.803   0.987   8.719  2.7091  0.4839  1.4246
 3164SOL     OW21124   3.908   2.004  14.654  0.0997 -0.2555  0.0401
 3164SOL    HW121125   3.950   1.924  14.686 -1.6870 -1.3306 -0.2921
 3164SOL    HW221126   3.981   2.052  14.617 -0.3799 -0.4093 -1.1177
 3165SOL     OW21127   3.354   0.815   6.836 -0.0488  0.0864 -0.3849
 3165SOL    HW121128   3.329   0.772   6.918  0.2580  2.6426  1.0425
 3165SOL    HW221129   3.324   0.906   6.844  0.3933  0.3191 -1.4398
 3166SOL     OW21130   0.835   2.054   6.135  0.0798  0.3822  0.1637
 3166SOL    HW121131   0.766   2.053   6.069  0.6422 -0.6156 -0.4073
 3166SOL    HW221132   0.793   2.096   6.210 -1.4235 -0.7768 -0.0397
 3167SOL     OW21133   1.137   4.496   4.958 -0.1506 -0.3333  0.2658
 3167SOL    HW121134   1.068   4.431   4.973  1.1680 -1.7977 -0.0904
 3167SOL    HW221135   1.129   4.523   4.867  1.5071  1.6936  0.7254
 3168SOL     OW21136   0.267   4.022   4.566 -0.8469 -0.1109 -0.1581
 3168SOL    HW121137   0.341   4.082   4.557  0.7633 -1.6974  2.5849
 3168SOL    HW221138   0.265   3.993   4.474  0.2239  1.9744 -0.8441
 3169SOL     OW21139   3.019   2.678   4.438 -0.6321 -0.5897 -0.2166
 3169SOL    HW121140   2.941   2.637   4.475 -1.5304  0.8916 -0.4361
 3169SOL    HW221141   3.081   2.610   4.464 -1.1623 -1.3518 -0.9799
 3170SOL     OW21142   2.898   3.244  10.907 -0.4237  0.7529  0.2830
 3170SOL    HW121143   2.987   3.221  10.878 -0.7022 -0.6740  0.5961
 3170SOL    HW221144   2.883   3.161  10.951  0.7669  0.7436  0.6832
 3171SOL     OW21145   3.014   0.561   2.241 -0.0192  0.2774  0.4411
 3171SOL    HW121146   2.995   0.472   2.213 -1.3276  0.6512  0.1107
 3171SOL    HW221147   3.098   0.559   2.285 -0.0813 -1.8150  0.4270
 3172SOL     OW21148   1.395   3.048   2.956  0.0207 -0.4997 -0.3386
 3172SOL    HW121149   1.425   2.958   2.960  0.7027 -0.2271  0.4752
 3172SOL    HW221150   1.347   3.057   3.038 -1.1640  0.2169 -1.1089
 3173SOL     OW21151   2.170   2.406  10.170 -0.1365 -0.0684  0.4424
 3173SOL    HW121152   2.144   2.412  10.078 -1.0188 -0.0658  0.6860
 3173SOL    HW221153   2.081   2.392  10.202  0.7153 -0.3973  2.6956
 3174SOL     OW21154   1.909   4.677  15.016 -0.0489 -0.1901  0.2736
 3174SOL    HW121155   1.953   4.688  14.932 -0.4670 -0.0811  0.0656
 3174SOL    HW221156   1.874   0.028  15.020  2.4540  0.8453 -0.8422
 3175SOL     OW21157   3.662   4.654   7.878 -0.4474  0.2219  0.6869
 3175SOL    HW121158   3.748   4.616   7.897  0.2324  1.2162 -0.4450
 3175SOL    HW221159   3.619   4.580   7.835 -0.6913  0.1840  0.9950
 3176SOL     OW21160   4.203   0.509   6.840 -0.1858 -0.5481  0.4027
 3176SOL    HW121161   4.204   0.604   6.854  0.9289 -0.1469 -2.1582
 3176SOL    HW221162   4.116   0.487   6.872 -1.2731  1.9585 -0.7946
 3177SOL     OW21163   0.238   1.769   1.551  0.0768 -0.0195 -0.5215
 3177SOL    HW121164   0.181   1.795   1.624 -1.2483 -3.2118 -0.4160
 3177SOL    HW221165   0.162   1.769   1.492 -0.2222  0.4126 -0.1343
 3178SOL     OW21166   1.047   2.257   6.531  0.2191 -0.5339 -0.4958
 3178SOL    HW121167   0.991   2.242   6.607  2.1796 -1.6277  0.7556
 3178SOL    HW221168   0.995   2.302   6.464 -1.6486 -0.2679  1.1384
 3179SOL     OW21169   1.021   1.066   8.649  0.2444 -0.1769 -0.3670
 3179SOL    HW121170   0.962   1.124   8.697  0.0898 -1.5847  1.1542
 3179SOL    HW221171   1.096   1.060   8.709  0.0563 -1.1959 -0.2386
 3180SOL     OW21172   1.611   1.975  14.390  0.5791  0.0227 -0.2100
 3180SOL    HW121173   1.645   2.009  14.307  1.7796  2.7707  1.3971
 3180SOL    HW221174   1.572   1.893  14.360 -0.3008 -0.2099  1.6125
 3181SOL     OW21175   1.010   1.423   8.464 -0.2562  0.4190  0.1835
 3181SOL    HW121176   0.920   1.451   8.445  0.2032 -0.4633 -3.3255
 3181SOL    HW221177   0.999   1.393   8.554  3.4766 -1.6562 -0.0784
 3182SOL     OW21178   1.044   0.794   0.200 -0.0393  0.3828  0.4905
 3182SOL    HW121179   0.986   0.835   0.136 -0.0328 -2.0428 -1.0574
 3182SOL    HW221180   1.093   0.731   0.148 -0.3149  1.6227 -1.2623
 3183SOL     OW21181   2.179   1.900  14.550 -0.1342  0.1962 -0.1543
 3183SOL    HW121182   2.142   1.822  14.591 -1.8520  0.9763 -0.2478
 3183SOL    HW221183   2.104   1.944  14.511 -0.2435  0.6107  0.5291
 3184SOL     OW21184   4.204   3.947   3.447  0.0390 -0.6879  0.1108
 3184SOL    HW121185   4.163   3.861   3.460 -1.2191  0.2324  2.3181
 3184SOL    HW221186   4.132   4.006   3.424  1.7191  0.9823 -0.7921
 3185SOL     OW21187   1.222   2.182   9.035 -0.0032 -0.3184 -0.0674
 3185SOL    HW121188   1.128   2.176   9.018  0.2997 -2.0628 -1.1226
 3185SOL    HW221189   1.247   2.253   8.977  0.5590 -0.1037  0.4356
 3186SOL     OW21190   2.109   0.075   8.257 -0.4637 -0.0438  0.1441
 3186SOL    HW121191   2.137   0.151   8.308  0.7871 -1.0412  0.9298
 3186SOL    HW221192   2.185   0.023   8.282  0.1832  1.2748  0.9095
 3187SOL     OW21193   1.890   2.201   6.491 -0.7163 -0.2872  0.1740
 3187SOL    HW121194   1.893   2.195   6.586  1.6927 -0.1677  0.1145
 3187SOL    HW221195   1.822   2.265   6.469 -0.6471 -0.6333 -1.1034
 3188SOL     OW21196   1.013   2.209   8.606 -1.3161 -0.5810 -0.1338
 3188SOL    HW121197   1.082   2.159   8.562  0.1601  1.0673  0.3061
 3188SOL    HW221198   0.940   2.179   8.551 -0.1466 -1.0143 -1.4537
 3189SOL     OW21199   3.423   2.782   4.375 -0.1905 -0.3314 -0.8072
 3189SOL    HW121200   3.379   2.865   4.356  1.4647  0.4394 -1.2479
 3189SOL    HW221201   3.430   2.752   4.285  2.0112 -0.2460 -0.6512
 3190SOL     OW21202   0.499   3.419   6.441 -0.0378 -0.5429 -0.0166
 3190SOL    HW121203   0.592   3.416   6.460 -0.0256  1.2808  0.1877
 3190SOL    HW221204   0.498   3.367   6.360 -2.2399 -0.8290  0.1805
 3191SOL     OW21205   3.139   0.742   5.080  0.5689 -0.4900  0.5573
 3191SOL    HW121206   3.213   0.683   5.067 -1.0425 -2.5209  0.6332
 3191SOL    HW221207   3.181   0.822   5.049  0.3152 -0.0127  1.4257
 3192SOL     OW21208   1.222   0.805  10.155 -0.4759  0.4979  0.3874
 3192SOL    HW121209   1.131   0.800  10.125 -0.6371 -0.1718  0.9911
 3192SOL    HW221210   1.230   0.900  10.168 -3.5720  0.6234  1.6157
 3193SOL     OW21211   1.203   0.136   1.101 -0.0163  0.2134  0.0413
 3193SOL    HW121212   1.261   0.211   1.116  0.1584  0.2544 -0.8476
 3193SOL    HW221213   1.131   0.164   1.158  0.8479  1.4566  0.5241
 3194SOL     OW21214   4.420   1.386   2.882 -0.0098 -0.8306 -0.1877
 3194SOL    HW121215   4.483   1.407   2.813 -0.7509 -0.7179 -0.8293
 3194SOL    HW221216   4.348   1.441   2.852 -0.1942 -0.3595  1.1112
 3195SOL     OW21217   0.897   2.932   4.580  0.1040 -0.3433 -0.2346
 3195SOL    HW121218   0.956   2.943   4.506 -1.5951 -0.6473 -1.6281
 3195SOL    HW221219   0.960   2.913   4.649  1.3824  1.1733 -0.9778
 3196SOL     OW21220   3.876   3.253   9.628  0.0074 -0.1820  0.4138
 3196SOL    HW121221   3.832   3.304   9.695 -0.0830  0.6042 -0.2441
 3196SOL    HW221222   3.899   3.317   9.561 -0.5079  2.6883  3.0168
 3197SOL     OW21223   4.528   3.789   9.770 -0.3322 -0.1520  0.3076
 3197SOL    HW121224   4.501   3.786   9.678  2.1932 -0.4614 -0.4258
 3197SOL    HW221225   4.545   3.698   9.793  1.2731  0.1501  0.3047
 3198SOL     OW21226   2.396   2.922  11.710  0.1688 -0.5046  0.1380
 3198SOL    HW121227   2.461   2.893  11.647  1.5528  1.7330  0.5223
 3198SOL    HW221228   2.317   2.919  11.657 -0.2843 -0.0338  0.7853
 3199SOL     OW21229   3.844   4.460   4.202  0.0438 -0.1824 -0.3495
 3199SOL    HW121230   3.889   4.498   4.126  1.8094  0.5420  1.0437
 3199SOL    HW221231   3.753   4.484   4.190 -0.5832 -0.6862  3.3391
 3200SOL     OW21232   1.406   2.335   0.895  0.5676 -0.2750  0.0059
 3200SOL    HW121233   1.390   2.324   0.989  2.1286 -2.5583  0.0315
 3200SOL    HW221234   1.470   2.264   0.882  0.6112 -0.4705  1.3134
 3201SOL     OW21235   2.052   2.424  12.207 -0.2432  0.0567 -0.2478
 3201SOL    HW121236   2.110   2.357  12.244 -0.4701 -0.2656 -0.4857
 3201SOL    HW221237   2.109   2.480  12.154 -0.6535  0.3256 -0.4032
 3202SOL     OW21238   1.963   2.907   3.019 -0.1220  0.2969  0.1053
 3202SOL    HW121239   1.902   2.976   3.045  0.4440 -0.1537  2.6975
 3202SOL    HW221240   2.003   2.904   3.106  0.4241 -0.6221 -0.1893
 3203SOL     OW21241   4.532   0.134   5.724 -0.2155  0.5542  0.3061
 3203SOL    HW121242   4.593   0.085   5.779 -0.9385  0.7850  1.3250
 3203SOL    HW221243   4.465   0.159   5.788 -1.5524 -0.7707 -0.5958
 3204SOL     OW21244   2.165   2.881   6.849  0.2582 -0.3853  0.3247
 3204SOL    HW121245   2.244   2.898   6.901 -1.1642  2.3817  1.6068
 3204SOL    HW221246   2.184   2.797   6.808  2.6961  0.1298  0.4243
 3205SOL     OW21247   4.172   0.140   7.854  0.0576 -0.0425  0.5250
 3205SOL    HW121248   4.106   0.199   7.819  1.2375  0.9644 -0.0252
 3205SOL    HW221249   4.161   0.064   7.797  0.1341 -0.0182  0.4764
 3206SOL     OW21250   1.061   0.138  15.459  0.4498  0.1099  0.3446
 3206SOL    HW121251   1.052   0.061  15.403  1.7212  0.3491 -0.1987
 3206SOL    HW221252   0.967   0.145  15.474  0.0772  1.7793 -2.7136
 3207SOL     OW21253   4.680   0.429   3.283 -0.1959  0.8933  0.1649
 3207SOL    HW121254   4.670   0.336   3.262  2.2300 -0.0581  3.1513
 3207SOL    HW221255   4.672   0.431   3.378  0.7037  1.6660  0.2248
 3208SOL     OW21256   2.593   4.724  16.733 -0.1051  0.1059 -0.1253
 3208SOL    HW121257   2.552   4.658  16.789  3.6523 -2.8315 -0.8641
 3208SOL    HW221258   2.579   4.676  16.651 -1.5926 -2.7343  1.7722
 3209SOL     OW21259   4.017   4.187  10.886  0.5077  0.3268  0.6356
 3209SOL    HW121260   4.047   4.211  10.974 -0.8956  0.7914  0.9833
 3209SOL    HW221261   4.067   4.249  10.833 -0.0032 -0.0663 -0.2924
 3210SOL     OW21262   3.039   2.356   3.687 -0.3391  0.1097  0.2920
 3210SOL    HW121263   3.106   2.287   3.692 -0.5354 -0.1813 -1.1050
 3210SOL    HW221264   3.091   2.433   3.707 -0.8673  1.2884 -2.9697
 3211SOL     OW21265   3.591   4.714   7.189  0.2256 -0.2913  0.2027
 3211SOL    HW121266   3.564   0.053   7.239  2.2708 -0.5032  1.6007
 3211SOL    HW221267   3.644   4.670   7.255 -0.2793  1.8860  2.0521
 3212SOL     OW21268   2.148   0.887   5.888  0.6393  0.2851  0.0128
 3212SOL    HW121269   2.171   0.976   5.915 -3.0913  1.0378  0.6846
 3212SOL    HW221270   2.087   0.901   5.816 -0.3830 -0.7830  0.6636
 3213SOL     OW21271   2.938   2.588   8.326 -0.1330 -0.0231 -0.7286
 3213SOL    HW121272   3.030   2.576   8.348 -1.2074 -0.7090  3.3682
 3213SOL    HW221273   2.956   2.634   8.244  0.9318  1.9271  0.6010
 3214SOL     OW21274   1.818   0.183  15.025  0.5955  0.3494 -0.4194
 3214SOL    HW121275   1.740   0.220  14.983  0.4186 -0.0496 -0.4353
 3214SOL    HW221276   1.872   0.253  15.062 -0.5823  1.5939 -1.0271
 3215SOL     OW21277   1.502   2.613   4.990  0.0215 -0.1607  0.1720
 3215SOL    HW121278   1.556   2.535   5.002 -0.6004 -0.7905 -1.1369
 3215SOL    HW221279   1.569   2.681   4.997  0.2623 -0.4863  1.0664
 3216SOL     OW21280   1.947   1.506   2.047  0.2630 -0.6503 -0.3355
 3216SOL    HW121281   1.870   1.559   2.027  0.0415 -0.9143 -0.1740
 3216SOL    HW221282   2.015   1.547   1.994  0.4129  0.3127  0.6125
 3217SOL     OW21283   0.635   3.101   2.222 -0.0704  0.1728  0.3275
 3217SOL    HW121284   0.693   3.131   2.292 -1.7114 -2.1491  2.6630
 3217SOL    HW221285   0.689   3.034   2.181  0.3642  0.5345  0.3058
 3218SOL     OW21286   4.047   3.948   7.212  0.5185  0.6230 -0.0876
 3218SOL    HW121287   4.102   3.873   7.194  0.2695  0.4158  0.0162
 3218SOL    HW221288   4.009   3.918   7.295  1.8921 -0.3227  0.1924
 3219SOL     OW21289   0.841   2.014  17.458  0.5872 -0.1846 -0.6245
 3219SOL    HW121290   0.833   2.108  17.444  0.8568 -0.1886 -0.8025
 3219SOL    HW221291   0.842   2.007  17.553  0.7109 -5.3156 -0.9838
 3220SOL     OW21292   1.293   0.509   4.852 -0.6557 -0.6364  0.4262
 3220SOL    HW121293   1.323   0.424   4.883 -3.6178 -0.6379  3.3782
 3220SOL    HW221294   1.372   0.562   4.859 -1.2020 -0.1406  2.9151
 3221SOL     OW21295   1.648   1.252   3.861  0.0089 -0.1494 -0.2244
 3221SOL    HW121296   1.643   1.202   3.780  1.9365 -1.4128  0.4410
 3221SOL    HW221297   1.562   1.232   3.899  0.0746  0.5625  0.3006
 3222SOL     OW21298   0.938   1.781   8.516  0.5484 -0.1937  0.2885
 3222SOL    HW121299   0.892   1.715   8.464 -1.3331  2.7007 -1.7346
 3222SOL    HW221300   0.881   1.789   8.593  0.6560 -0.6431  0.4167
 3223SOL     OW21301   1.504   2.738  14.294 -0.3386  0.0408 -0.1740
 3223SOL    HW121302   1.578   2.685  14.322 -0.1325  1.6863  2.3612
 3223SOL    HW221303   1.467   2.705  14.212 -0.5321  0.4378 -0.2438
 3224SOL     OW21304   1.991   3.666   7.047  0.2673  0.0439 -0.0244
 3224SOL    HW121305   2.065   3.711   7.007 -0.2107  1.8112  1.0701
 3224SOL    HW221306   2.018   3.692   7.135 -0.2046 -1.3637  0.5442
 3225SOL     OW21307   2.479   4.617   9.150 -0.7938 -0.1654  0.5305
 3225SOL    HW121308   2.507   4.545   9.093 -0.0830  0.6479 -0.1489
 3225SOL    HW221309   2.386   4.599   9.159 -1.1384  0.4816 -1.6653
 3226SOL     OW21310   1.896   1.810   3.735 -0.2393  0.2365  0.7972
 3226SOL    HW121311   1.895   1.899   3.700  1.2185 -0.0499  0.0246
 3226SOL    HW221312   1.940   1.833   3.817  1.4222 -1.1880  0.2913
 3227SOL     OW21313   0.214   1.851   8.462  0.4030  0.1883  0.3132
 3227SOL    HW121314   0.303   1.820   8.444  0.1070 -0.7595  0.5049
 3227SOL    HW221315   0.190   1.889   8.378  0.2701 -0.4022  0.0865
 3228SOL     OW21316   1.250   0.941   8.162  0.2540  0.0565  0.1770
 3228SOL    HW121317   1.251   0.969   8.071  0.5247  1.0018  0.4735
 3228SOL    HW221318   1.211   1.020   8.198 -2.7198 -1.2293 -0.2635
 3229SOL     OW21319   3.696   2.678   1.768 -0.3398 -0.1305 -0.7999
 3229SOL    HW121320   3.788   2.693   1.788 -0.3061 -1.8790  0.3574
 3229SOL    HW221321   3.660   2.629   1.842  2.5624 -1.8339 -0.5068
 3230SOL     OW21322   4.641   2.351   0.474 -0.2172  0.3984 -0.0383
 3230SOL    HW121323   4.713   2.414   0.483 -1.2795  1.7250 -0.8264
 3230SOL    HW221324   4.662   2.288   0.543 -0.0614  0.6852  0.1771
 3231SOL     OW21325   1.777   1.942   5.475 -0.1536 -0.1690 -0.4223
 3231SOL    HW121326   1.763   2.035   5.456  0.1737 -0.0780 -0.2389
 3231SOL    HW221327   1.688   1.914   5.455 -0.1132  0.2391 -1.1750
 3232SOL     OW21328   3.943   1.767   1.095 -0.8107 -0.2822  0.3148
 3232SOL    HW121329   4.039   1.767   1.086 -0.9192  0.3415 -0.8700
 3232SOL    HW221330   3.927   1.859   1.114  0.8011  0.0479  0.0481
 3233SOL     OW21331   4.467   1.423   3.140 -0.1210 -0.0269  0.1258
 3233SOL    HW121332   4.382   1.440   3.182 -0.3623  0.7818 -0.6903
 3233SOL    HW221333   4.434   1.408   3.052 -1.0816  2.5980  0.0353
 3234SOL     OW21334   2.177   1.827  17.292  0.1539 -0.4637  0.0599
 3234SOL    HW121335   2.251   1.885  17.273 -0.9944  0.3955 -1.8536
 3234SOL    HW221336   2.108   1.884  17.325  1.5110  0.8125  0.6774
 3235SOL     OW21337   4.269   0.710   8.296  0.5734 -0.4312  0.5852
 3235SOL    HW121338   4.350   0.716   8.245 -0.2654  0.7666 -0.6201
 3235SOL    HW221339   4.263   0.618   8.319  0.2846 -0.4154  0.5793
 3236SOL     OW21340   2.145   4.027  14.555 -0.4417 -0.2312 -0.2820
 3236SOL    HW121341   2.166   3.947  14.603 -1.1996  1.3644  2.7060
 3236SOL    HW221342   2.060   3.999  14.523 -0.4788  0.4067 -0.7459
 3237SOL     OW21343   3.751   2.685   1.177  0.2213 -0.3479 -0.1692
 3237SOL    HW121344   3.696   2.753   1.139 -0.8743 -0.9486  0.3366
 3237SOL    HW221345   3.778   2.649   1.092 -2.2247 -2.3591 -0.1008
 3238SOL     OW21346   2.294   1.823   4.320 -0.0555 -0.7209  0.5615
 3238SOL    HW121347   2.313   1.894   4.381  0.5597 -1.3740  1.1247
 3238SOL    HW221348   2.215   1.847   4.270  0.5701 -3.7914 -1.9002
 3239SOL     OW21349   4.716   3.022   6.370 -0.3394  0.4358 -0.4956
 3239SOL    HW121350   0.000   2.943   6.419  1.9444  0.3912 -1.5956
 3239SOL    HW221351   4.650   3.059   6.428 -1.3753 -1.8500 -0.2026
 3240SOL     OW21352   0.790   3.648   4.723  0.8196 -0.2013 -0.3653
 3240SOL    HW121353   0.769   3.712   4.655  1.1952  2.0871  1.6843
 3240SOL    HW221354   0.714   3.657   4.780  1.5790  0.2939  0.5598
 3241SOL     OW21355   2.504   3.273   6.007 -0.0570  0.6280 -0.1924
 3241SOL    HW121356   2.531   3.286   6.098  0.1694  2.5925 -0.5471
 3241SOL    HW221357   2.518   3.178   6.002 -0.5442  0.5447  0.0967
 3242SOL     OW21358   0.741   0.817   9.616 -0.0320  0.1308 -0.2648
 3242SOL    HW121359   0.802   0.748   9.592 -1.0095 -0.6129 -0.6319
 3242SOL    HW221360   0.773   0.869   9.689 -0.4414 -3.8742  2.7994
 3243SOL     OW21361   0.896   3.268   4.029 -0.0853  0.3084 -0.6848
 3243SOL    HW121362   0.861   3.200   4.086  1.0025  0.9017  0.6708
 3243SOL    HW221363   0.833   3.340   4.031 -0.2634  0.0756  2.3723
 3244SOL     OW21364   4.451   2.565   4.531 -0.1583  0.4359  0.1098
 3244SOL    HW121365   4.360   2.589   4.512 -0.4013  0.0243  0.7577
 3244SOL    HW221366   4.494   2.632   4.477 -2.1869 -1.5496 -3.9663
 3245SOL     OW21367   2.898   2.458   2.815  0.6478 -0.2376  0.1598
 3245SOL    HW121368   2.930   2.493   2.731 -0.2453  1.8735  0.6869
 3245SOL    HW221369   2.806   2.478   2.799  0.8404  1.2726  0.8864
 3246SOL     OW21370   2.774   2.223   5.189  0.3587  0.4376 -0.1161
 3246SOL    HW121371   2.810   2.226   5.101  0.0519  1.6441 -0.1982
 3246SOL    HW221372   2.831   2.163   5.237 -2.9646 -1.8673  0.9162
 3247SOL     OW21373   1.200   1.178   3.465 -0.2293 -0.3954 -0.0058
 3247SOL    HW121374   1.289   1.210   3.470  0.2485 -1.8307  0.8009
 3247SOL    HW221375   1.168   1.198   3.553 -0.9528  1.5931 -0.7275
 3248SOL     OW21376   1.445   1.096   6.662 -0.5316 -0.0881  0.0707
 3248SOL    HW121377   1.428   1.066   6.572  1.3686 -3.4883  0.8244
 3248SOL    HW221378   1.540   1.110   6.667 -0.2351 -2.1863  0.6976
 3249SOL     OW21379   0.692   2.604  11.274 -0.4400  0.2365  0.8950
 3249SOL    HW121380   0.725   2.606  11.184 -0.2316 -0.8418  0.9502
 3249SOL    HW221381   0.748   2.675  11.307  0.5653 -0.1956  0.1241
 3250SOL     OW21382   4.208   4.194   9.771 -0.1529 -0.4547  0.2747
 3250SOL    HW121383   4.292   4.196   9.818  0.8979  0.1276 -1.6184
 3250SOL    HW221384   4.152   4.175   9.846  0.0729  2.2017  1.1214
 3251SOL     OW21385   3.390   2.698   5.767 -0.2263 -0.3031 -0.0980
 3251SOL    HW121386   3.357   2.746   5.691 -0.6948  1.9039  1.4919
 3251SOL    HW221387   3.412   2.617   5.721 -1.9421 -0.5871 -0.4065
 3252SOL     OW21388   3.732   1.029   8.141 -0.2730  0.3955  0.2091
 3252SOL    HW121389   3.639   1.021   8.164 -0.4694  0.9389 -0.3717
 3252SOL    HW221390   3.733   1.087   8.065 -0.9743 -0.3067 -0.3404
 3253SOL     OW21391   4.505   3.594  12.661  0.1464 -0.2283 -0.4719
 3253SOL    HW121392   4.509   3.498  12.662 -1.4684 -0.2877  0.1376
 3253SOL    HW221393   4.569   3.610  12.591  0.3150 -1.0143 -0.4954
 3254SOL     OW21394   1.911   1.358  14.229  0.2809  0.0130  0.1885
 3254SOL    HW121395   1.819   1.335  14.221  0.4928  0.5855 -3.8847
 3254SOL    HW221396   1.938   1.405  14.150 -0.7054 -1.5333 -1.0651
 3255SOL     OW21397   0.666   1.595  15.588 -0.2715  0.2488 -0.6981
 3255SOL    HW121398   0.678   1.507  15.622  1.7524  1.1656  0.9803
 3255SOL    HW221399   0.594   1.574  15.530 -1.6842 -0.3413  1.2672
 3256SOL     OW21400   1.707   2.550   5.824 -0.0240  0.3205 -0.2152
 3256SOL    HW121401   1.658   2.632   5.833 -0.2624  0.1054  0.4490
 3256SOL    HW221402   1.639   2.497   5.782  0.1449 -0.1871  0.1564
 3257SOL     OW21403   0.186   4.327   4.093  0.5413 -0.2653 -0.2897
 3257SOL    HW121404   0.100   4.312   4.054  1.6362 -1.2584 -2.3153
 3257SOL    HW221405   0.238   4.261   4.047  0.3830  0.4115 -1.4410
 3258SOL     OW21406   1.600   1.914   9.716  0.4159  0.8121  0.1262
 3258SOL    HW121407   1.615   1.901   9.809  0.2815  0.7512  0.1402
 3258SOL    HW221408   1.686   1.932   9.679 -0.5022  0.3514 -2.2642
 3259SOL     OW21409   3.051   1.154   3.185 -0.1071  0.0928 -0.7463
 3259SOL    HW121410   2.972   1.142   3.132 -0.6889 -0.6700  0.3016
 3259SOL    HW221411   3.040   1.074   3.236  1.0545  0.6093  0.3186
 3260SOL     OW21412   3.363   4.183   9.576  0.3714  0.1720 -0.1276
 3260SOL    HW121413   3.319   4.265   9.599  1.5358  1.1655 -1.4209
 3260SOL    HW221414   3.444   4.228   9.551  0.6558 -0.6236 -0.6254
 3261SOL     OW21415   3.027   1.480   1.027 -0.3367 -0.5778  0.6238
 3261SOL    HW121416   3.075   1.533   1.090 -0.0293  0.4198 -0.4445
 3261SOL    HW221417   2.993   1.405   1.076 -0.2753  0.4352  2.1950
 3262SOL     OW21418   3.372   2.011   6.541  0.0541 -0.3422 -0.0157
 3262SOL    HW121419   3.366   1.916   6.551 -0.2016 -0.1839  1.3073
 3262SOL    HW221420   3.460   2.035   6.513  1.0911 -3.2726  0.7556
 3263SOL     OW21421   2.115   3.338   2.412  0.4043  0.6024 -0.1558
 3263SOL    HW121422   2.200   3.325   2.454 -0.8487  0.4437  2.3591
 3263SOL    HW221423   2.084   3.417   2.457 -0.2566 -0.2913  0.9749
 3264SOL     OW21424   2.840   2.948   6.601  0.2135  1.1921 -0.1906
 3264SOL    HW121425   2.918   2.995   6.631 -0.5460  1.2949  1.6229
 3264SOL    HW221426   2.776   2.982   6.663  2.2841 -0.1058  2.6978
 3265SOL     OW21427   2.528   3.947   4.676 -0.0804 -0.0772  0.4469
 3265SOL    HW121428   2.493   3.951   4.765  0.4661 -0.0686  0.6650
 3265SOL    HW221429   2.448   3.936   4.625  0.5854 -0.0430 -0.6073
 3266SOL     OW21430   3.640   3.614   7.049  0.1943 -0.3846 -0.0523
 3266SOL    HW121431   3.717   3.644   7.002  0.2352  0.9009  0.8559
 3266SOL    HW221432   3.625   3.540   6.989 -0.9352 -0.4038  0.2577
 3267SOL     OW21433   3.400   0.662   5.867  0.0462  0.2141  0.1706
 3267SOL    HW121434   3.345   0.682   5.792 -0.3899 -1.4849  0.0336
 3267SOL    HW221435   3.360   0.729   5.923  0.8455  1.5489 -0.8661
 3268SOL     OW21436   1.456   2.415   7.534 -0.0123 -0.0038  0.4804
 3268SOL    HW121437   1.511   2.358   7.481 -0.8501 -0.5392  0.1821
 3268SOL    HW221438   1.375   2.371   7.509  0.7676  0.7494 -3.3064
 3269SOL     OW21439   0.889   2.001   2.613  0.3510  0.1736  0.3121
 3269SOL    HW121440   0.867   1.956   2.532  0.8444 -1.4017  1.0464
 3269SOL    HW221441   0.858   1.950   2.688  1.2436 -3.0170 -1.5333
 3270SOL     OW21442   2.225   1.818   5.001 -0.5121  0.3151 -0.0646
 3270SOL    HW121443   2.306   1.855   4.966  0.4695 -1.0396  0.7988
 3270SOL    HW221444   2.166   1.870   4.946  0.6788 -0.3913 -2.0099
 3271SOL     OW21445   0.991   0.795   8.244  0.5023 -0.5136  0.5849
 3271SOL    HW121446   1.009   0.717   8.192  1.9348  0.9346 -1.0757
 3271SOL    HW221447   1.079   0.831   8.254  0.5500 -0.3072 -0.6106
 3272SOL     OW21448   0.584   0.877   2.688 -0.1952  0.2742 -0.0305
 3272SOL    HW121449   0.519   0.947   2.676  1.0430  1.2843 -0.8290
 3272SOL    HW221450   0.596   0.854   2.596  0.5498  0.1422  0.1043
 3273SOL     OW21451   0.158   1.962   1.133 -0.2835  0.2600  0.7948
 3273SOL    HW121452   0.131   2.051   1.112  0.8902  0.6345  0.8734
 3273SOL    HW221453   0.162   1.916   1.048  0.5507  0.2169  0.8547
 3274SOL     OW21454   1.932   2.914   3.290 -0.1167  0.3874 -0.1510
 3274SOL    HW121455   1.839   2.895   3.274 -0.2822  2.7426 -2.0508
 3274SOL    HW221456   1.938   3.002   3.327 -1.4463 -0.0345  1.0481
 3275SOL     OW21457   0.917   0.836   4.236  0.4718 -0.4017 -0.2913
 3275SOL    HW121458   0.921   0.895   4.160 -0.0838 -1.3905 -1.0830
 3275SOL    HW221459   0.980   0.771   4.205  0.9104 -0.8747  1.6015
 3276SOL     OW21460   1.495   0.734   1.786  0.1404  0.1748  0.1395
 3276SOL    HW121461   1.560   0.678   1.743 -1.1978 -1.3752  0.1284
 3276SOL    HW221462   1.532   0.820   1.766  2.2163 -0.7754 -0.0967
 3277SOL     OW21463   0.903   1.009   3.976  0.1763 -0.4748  0.3110
 3277SOL    HW121464   0.924   1.082   3.918  1.2702 -0.2475  0.9801
 3277SOL    HW221465   0.849   0.961   3.914 -0.5323  0.4975  0.1659
 3278SOL     OW21466   1.220   1.510   5.554 -0.3487 -0.0116  0.2737
 3278SOL    HW121467   1.209   1.581   5.491 -1.8978 -0.5321 -0.0534
 3278SOL    HW221468   1.302   1.534   5.598 -0.9289  2.3729  0.0288
 3279SOL     OW21469   3.735   0.748   2.921 -0.0322  0.6263  0.4572
 3279SOL    HW121470   3.673   0.676   2.910 -0.3220  0.8151  0.8423
 3279SOL    HW221471   3.808   0.725   2.863 -1.1688  0.1072 -0.7580
 3280SOL     OW21472   0.296   2.340   5.437 -0.0803  0.3398  0.1725
 3280SOL    HW121473   0.212   2.320   5.397 -0.3107 -0.3523  1.0144
 3280SOL    HW221474   0.269   2.365   5.526  0.0660  0.7117  0.1109
 3281SOL     OW21475   1.242   4.095   7.014 -0.1084  0.1038  0.5583
 3281SOL    HW121476   1.227   4.050   7.097  1.6233  0.4835  1.0863
 3281SOL    HW221477   1.181   4.050   6.957  0.7322  2.3692 -2.1674
 3282SOL     OW21478   4.026   4.018   8.340  0.1721 -0.3363 -0.4343
 3282SOL    HW121479   4.079   3.966   8.399 -0.5940  0.7283  1.1831
 3282SOL    HW221480   4.041   4.106   8.375 -1.6912 -0.9367  1.8350
 3283SOL     OW21481   0.929   2.405   3.512 -0.5861 -0.8242 -0.0007
 3283SOL    HW121482   0.905   2.429   3.602  1.3292  0.5388  0.1663
 3283SOL    HW221483   1.008   2.352   3.522  0.2795  0.5991  0.8780
 3284SOL     OW21484   1.176   2.738   5.955 -0.1546  0.3499 -0.5727
 3284SOL    HW121485   1.237   2.811   5.940 -0.4306  0.5600 -0.6643
 3284SOL    HW221486   1.229   2.701   6.026 -0.3014 -2.2873 -1.8403
 3285SOL     OW21487   1.900   1.199   7.425 -0.4272  0.6372 -0.0950
 3285SOL    HW121488   1.849   1.137   7.373 -1.1403 -0.8040  2.3761
 3285SOL    HW221489   1.899   1.269   7.359  2.0391 -0.8082 -1.6939
 3286SOL     OW21490   1.079   3.652   6.726 -0.3324  0.2650  0.2139
 3286SOL    HW121491   1.085   3.577   6.668  0.4173  0.7200 -0.2986
 3286SOL    HW221492   1.133   3.720   6.686  0.9728  0.2420  1.9067
 3287SOL     OW21493   2.001   2.208   5.330 -0.3111 -0.1992  0.2765
 3287SOL    HW121494   2.080   2.215   5.278 -0.4162  2.0453  0.4188
 3287SOL    HW221495   2.035   2.238   5.415  0.5889  2.1116 -0.9062
 3288SOL     OW21496   3.537   0.326   5.506  0.0332  0.2818  0.4177
 3288SOL    HW121497   3.513   0.336   5.599  1.6549  0.0604  0.8531
 3288SOL    HW221498   3.490   0.245   5.487  0.8065  0.4316 -2.1214
 3289SOL     OW21499   1.946   4.337   8.389 -0.5087 -0.3513  0.5924
 3289SOL    HW121500   1.861   4.370   8.420 -0.3549 -0.8875  1.5987
 3289SOL    HW221501   1.961   4.401   8.320  0.0406 -1.0340  0.0810
 3290SOL     OW21502   2.929   2.599   3.506  0.4994 -0.4494 -0.1631
 3290SOL    HW121503   2.909   2.574   3.416 -1.7353  2.0445 -0.3705
 3290SOL    HW221504   3.016   2.638   3.501 -0.2042  0.9936 -1.2677
 3291SOL     OW21505   0.725   3.239  15.082 -0.0121  0.0276 -0.0064
 3291SOL    HW121506   0.754   3.216  14.994  0.8402  1.2565 -0.0517
 3291SOL    HW221507   0.727   3.335  15.082  0.0529  0.0406  2.3493
 3292SOL     OW21508   3.538   0.257  13.005 -0.2592 -0.0888  0.4564
 3292SOL    HW121509   3.583   0.315  12.944  0.8311 -1.1114  0.3001
 3292SOL    HW221510   3.447   0.287  13.003  0.5242  2.0147 -2.8244
 3293SOL     OW21511   3.893   2.619   6.380  0.3629 -0.2434 -0.3520
 3293SOL    HW121512   3.974   2.649   6.338 -0.5110  1.6549 -0.7087
 3293SOL    HW221513   3.828   2.599   6.313  0.8194  1.3636 -1.2920
 3294SOL     OW21514   3.004   2.759   3.888  0.1381  0.0536 -0.0155
 3294SOL    HW121515   3.014   2.718   3.974  0.5893  0.6870  0.2374
 3294SOL    HW221516   3.074   2.714   3.841 -1.1397  0.4538 -2.2953
 3295SOL     OW21517   1.867   2.826   8.911  0.2983  0.7347  0.2325
 3295SOL    HW121518   1.783   2.829   8.958  0.1722  0.4195  0.0269
 3295SOL    HW221519   1.898   2.912   8.940  1.3186  0.2387  0.6228
 3296SOL     OW21520   2.872   3.338  10.627  0.1842  0.4154  0.9105
 3296SOL    HW121521   2.927   3.306  10.555  0.1279  0.2428  0.9455
 3296SOL    HW221522   2.900   3.305  10.712  0.9927  1.1342  0.9216
 3297SOL     OW21523   1.411   0.930   4.374  0.0004  0.1753 -0.2354
 3297SOL    HW121524   1.495   0.974   4.387  0.1686  0.1951 -1.3493
 3297SOL    HW221525   1.408   0.942   4.279 -0.9756  1.8555  0.0122
 3298SOL     OW21526   1.681   3.889   0.215  0.1851 -0.0800  0.1777
 3298SOL    HW121527   1.632   3.962   0.253 -0.2679 -1.1120  1.5449
 3298SOL    HW221528   1.741   3.878   0.289  3.1717 -3.8563 -2.7866
 3299SOL     OW21529   3.124   4.234  17.177 -0.0287  0.1163  0.5097
 3299SOL    HW121530   3.093   4.299  17.113 -0.0934  0.5910  1.0237
 3299SOL    HW221531   3.144   4.158  17.123 -0.8142 -0.1362  0.5683
 3300SOL     OW21532   2.169   2.513   3.158  0.2096 -0.3197  0.0806
 3300SOL    HW121533   2.116   2.577   3.207  1.3990  0.2924  0.5811
 3300SOL    HW221534   2.243   2.573   3.146 -0.3713  0.5292  0.6737
 3301SOL     OW21535   3.221   4.409   4.480 -0.0330  0.4600 -0.6588
 3301SOL    HW121536   3.205   4.484   4.536 -1.1328  0.2711 -0.7257
 3301SOL    HW221537   3.147   4.351   4.499  2.4842 -2.2403  1.0754
 3302SOL     OW21538   2.414   4.182   6.438  0.3726 -0.6643  0.6382
 3302SOL    HW121539   2.430   4.225   6.522  1.8930 -0.7586  0.4124
 3302SOL    HW221540   2.350   4.240   6.397  0.0227 -1.0375  0.6679
 3303SOL     OW21541   0.179   1.438   2.945 -0.3377  0.0786 -0.3143
 3303SOL    HW121542   0.225   1.358   2.920 -0.7253 -0.5583  1.0133
 3303SOL    HW221543   0.226   1.463   3.025  1.9381  1.4139 -2.0823
 3304SOL     OW21544   0.583   1.613   7.047 -0.2837 -0.1148  0.1255
 3304SOL    HW121545   0.578   1.678   6.977 -1.9474  0.4561  0.7589
 3304SOL    HW221546   0.533   1.538   7.015  0.9504 -0.4023 -1.1394
 3305SOL     OW21547   1.495   2.205  12.033 -0.2823 -0.2682  0.2755
 3305SOL    HW121548   1.437   2.231  12.105 -0.1005 -1.8832  1.0002
 3305SOL    HW221549   1.477   2.259  11.956 -0.8720  3.8516  3.2781
 3306SOL     OW21550   0.125   2.797   4.846  0.1411 -0.4412  0.1762
 3306SOL    HW121551   0.129   2.823   4.754 -1.2412  0.0976  0.2584
 3306SOL    HW221552   0.182   2.859   4.891 -0.3009 -0.0662  0.2236
 3307SOL     OW21553   4.492   1.344   9.285  0.1031  0.4455  0.4001
 3307SOL    HW121554   4.509   1.395   9.206  1.4494  0.5054  0.7159
 3307SOL    HW221555   4.439   1.405   9.336 -0.0463 -0.1948  1.0027
 3308SOL     OW21556   1.040   4.737  15.215  0.1882 -0.3736 -0.2457
 3308SOL    HW121557   1.116   4.680  15.207 -1.1450 -2.3603  1.0833
 3308SOL    HW221558   0.987   4.729  15.136 -2.4097 -1.1202  1.5181
 3309SOL     OW21559   0.541   4.504  12.162  0.1946  0.2939 -0.8217
 3309SOL    HW121560   0.537   4.598  12.145 -1.0005  0.6315  1.2956
 3309SOL    HW221561   0.631   4.479  12.143 -0.4681 -1.6825 -1.3756
 3310SOL     OW21562   2.756   4.236   7.435  0.1018 -0.2768 -0.3823
 3310SOL    HW121563   2.765   4.292   7.512  0.1329 -0.6268 -0.1327
 3310SOL    HW221564   2.662   4.238   7.420 -0.3211 -2.6884  2.1148
 3311SOL     OW21565   3.629   0.646  13.027 -0.2477  0.1235 -0.0459
 3311SOL    HW121566   3.642   0.579  12.959 -3.8832 -1.0033  0.3923
 3311SOL    HW221567   3.536   0.664  13.016 -0.4015 -0.7126 -0.1537
 3312SOL     OW21568   0.752   2.906   2.680 -0.4766 -0.5909 -0.5522
 3312SOL    HW121569   0.749   3.002   2.677 -1.7790 -0.6340 -0.4312
 3312SOL    HW221570   0.711   2.888   2.764 -2.3735  3.2346 -0.6716
 3313SOL     OW21571   3.681   4.577   9.764 -0.1532  0.5319  0.8475
 3313SOL    HW121572   3.726   4.551   9.845 -1.6666  1.1227  1.8739
 3313SOL    HW221573   3.621   4.504   9.752 -0.6646  0.6939  2.4498
 3314SOL     OW21574   3.204   0.741  16.684  0.0950 -0.4571 -0.2365
 3314SOL    HW121575   3.252   0.819  16.714  0.0183 -1.2690  1.9743
 3314SOL    HW221576   3.157   0.775  16.608 -1.9226  0.8486  1.5839
 3315SOL     OW21577   3.887   3.764   8.648 -1.2347 -0.0258  0.1313
 3315SOL    HW121578   3.869   3.854   8.676 -2.5361 -0.4869  0.8027
 3315SOL    HW221579   3.810   3.721   8.685 -0.7984  0.4668  1.6060
 3316SOL     OW21580   1.458   2.892   9.931 -0.1607 -0.2001 -0.2189
 3316SOL    HW121581   1.450   2.797   9.920  2.0243 -0.3716 -0.2269
 3316SOL    HW221582   1.376   2.915   9.975 -0.7572 -2.5771 -0.0812
 3317SOL     OW21583   4.590   3.892  16.688 -0.1261  0.2973 -0.0831
 3317SOL    HW121584   4.663   3.844  16.649 -0.4797  0.4695 -0.9676
 3317SOL    HW221585   4.535   3.821  16.721  0.3690 -0.2286 -0.3988
 3318SOL     OW21586   0.832   3.170  16.368 -0.2823 -0.6645 -0.4047
 3318SOL    HW121587   0.792   3.092  16.332 -0.8057 -0.4419 -0.3009
 3318SOL    HW221588   0.898   3.136  16.429  1.6229 -0.5175 -2.3607
 3319SOL     OW21589   3.708   3.355   1.007 -0.1210  0.3521 -0.7892
 3319SOL    HW121590   3.776   3.420   0.994 -2.1513  2.6954  0.1802
 3319SOL    HW221591   3.647   3.408   1.058  1.2754 -1.5593  2.9120
 3320SOL     OW21592   1.376   3.949   5.000 -0.0146  0.4804  0.5560
 3320SOL    HW121593   1.400   3.935   5.092 -2.0301  0.2686  1.0646
 3320SOL    HW221594   1.426   3.878   4.962 -1.3964  1.1166 -2.4144
 3321SOL     OW21595   1.019   2.089   4.182  0.4800 -0.4669  0.0861
 3321SOL    HW121596   1.082   2.017   4.189  1.9889  0.7856 -0.5494
 3321SOL    HW221597   0.944   2.041   4.216  0.6890  1.3470  3.1149
 3322SOL     OW21598   3.862   3.277   2.876  0.0771 -0.6395 -0.2136
 3322SOL    HW121599   3.803   3.302   2.805 -0.8403 -0.2456  0.6929
 3322SOL    HW221600   3.897   3.365   2.890 -0.4771 -0.1489 -1.9135
 3323SOL     OW21601   1.681   2.471   8.532 -0.3314  0.2359  0.2026
 3323SOL    HW121602   1.659   2.557   8.567 -1.0064  0.6559 -1.2734
 3323SOL    HW221603   1.613   2.449   8.468  0.8558 -0.5262 -0.8188
 3324SOL     OW21604   3.581   0.339   7.834 -0.0914 -0.2961  0.0784
 3324SOL    HW121605   3.662   0.304   7.870 -1.2153 -0.2326  2.7063
 3324SOL    HW221606   3.563   0.415   7.890 -1.1439 -0.8685  0.5229
 3325SOL     OW21607   0.424   2.089   6.732  0.1080  0.4806 -0.2959
 3325SOL    HW121608   0.427   2.099   6.827 -1.0334  1.5385 -0.3693
 3325SOL    HW221609   0.439   2.180   6.704 -1.9956  0.5966 -1.0681
 3326SOL     OW21610   3.101   1.432  12.326  0.6691  0.8373 -0.0097
 3326SOL    HW121611   3.116   1.399  12.237 -1.1732 -2.0950  0.7465
 3326SOL    HW221612   3.068   1.521  12.315  1.4981  0.8926 -1.9744
 3327SOL     OW21613   4.724   1.778   2.218  0.2085 -0.2866 -0.2577
 3327SOL    HW121614   0.039   1.848   2.181  2.0266 -2.1213 -1.1757
 3327SOL    HW221615   0.048   1.734   2.277 -0.2929  1.3340  1.4498
 3328SOL     OW21616   0.410   4.719   8.502 -0.3210 -0.5372 -1.0175
 3328SOL    HW121617   0.425   4.684   8.414  1.4842 -3.8406  0.6242
 3328SOL    HW221618   0.497   4.732   8.540 -0.9978 -0.6487  0.5639
 3329SOL     OW21619   1.366   4.435   5.664  0.6112  0.1472 -0.0599
 3329SOL    HW121620   1.362   4.409   5.572 -0.3484  0.2283 -0.0431
 3329SOL    HW221621   1.296   4.501   5.665 -2.1106 -2.7120  0.2729
 3330SOL     OW21622   2.513   0.054   8.939 -0.3766  0.2092 -0.2526
 3330SOL    HW121623   2.588   0.089   8.987 -1.0105 -2.0063  2.3485
 3330SOL    HW221624   2.481   4.730   9.004  0.9074  0.6278  0.7777
 3331SOL     OW21625   2.857   0.653   8.002  0.1578  0.8928 -0.0943
 3331SOL    HW121626   2.875   0.561   8.022  1.1906  0.9966 -0.5522
 3331SOL    HW221627   2.772   0.656   8.044  0.3683  3.0329  0.1925
 3332SOL     OW21628   4.231   1.094   9.683 -0.6484  0.1903  0.3945
 3332SOL    HW121629   4.145   1.088   9.725 -0.2583  1.9866  1.4701
 3332SOL    HW221630   4.272   1.009   9.697 -2.0768 -0.0561  3.0378
 3333SOL     OW21631   1.297   3.943   9.899 -0.5311  0.0574  0.4104
 3333SOL    HW121632   1.271   3.853   9.921 -1.9359  0.1063 -1.0178
 3333SOL    HW221633   1.385   3.944   9.935  0.4179  0.7320 -1.9025
 3334SOL     OW21634   0.598   0.210   5.080 -0.5868 -0.0105 -0.4125
 3334SOL    HW121635   0.661   0.156   5.127 -1.3401 -0.8737 -0.3929
 3334SOL    HW221636   0.535   0.140   5.064  0.0647 -0.2575 -1.9534
 3335SOL     OW21637   4.003   1.039   7.332  0.2974  0.4606 -0.0732
 3335SOL    HW121638   3.994   0.946   7.350 -1.0998  0.5548 -0.2961
 3335SOL    HW221639   4.096   1.049   7.350  0.4305 -2.3154  0.8258
 3336SOL     OW21640   2.675   3.655   4.086  0.3447 -0.0051 -0.4906
 3336SOL    HW121641   2.669   3.560   4.082  0.2033  0.0385 -1.3186
 3336SOL    HW221642   2.768   3.664   4.108  0.1976 -0.6060  0.3565
 3337SOL     OW21643   2.223   2.573  12.044 -0.0776  0.1333 -0.1762
 3337SOL    HW121644   2.220   2.656  11.996 -0.3747 -0.3839 -1.0525
 3337SOL    HW221645   2.196   2.520  11.969  1.4068  2.3085 -2.2778
 3338SOL     OW21646   2.882   1.228   3.852  0.3992 -0.2266  0.5565
 3338SOL    HW121647   2.849   1.318   3.846  0.6198 -0.2698 -1.4029
 3338SOL    HW221648   2.965   1.243   3.806  0.0477  1.6962  0.5263
 3339SOL     OW21649   3.204   1.223   6.456  0.2496  0.3217 -0.9504
 3339SOL    HW121650   3.210   1.140   6.408 -2.0222  0.9386 -2.3209
 3339SOL    HW221651   3.118   1.222   6.497  0.2960  2.4371 -0.7823
 3340SOL     OW21652   3.398   3.708   5.759 -0.4543 -0.1015  0.3206
 3340SOL    HW121653   3.355   3.785   5.796  2.1155  2.5008 -2.0548
 3340SOL    HW221654   3.360   3.713   5.671  1.3826  0.0665 -0.4606
 3341SOL     OW21655   2.370   2.929  16.813  0.0249 -0.3684  0.0013
 3341SOL    HW121656   2.400   2.929  16.904  1.6062  1.0159 -0.5274
 3341SOL    HW221657   2.278   2.956  16.818 -0.2262 -0.7888 -2.7014
 3342SOL     OW21658   0.654   2.767   8.616  0.2156  0.1825  0.0472
 3342SOL    HW121659   0.712   2.737   8.546 -0.2568 -1.7417  0.4666
 3342SOL    HW221660   0.718   2.798   8.680 -0.0015  0.0534  0.3262
 3343SOL     OW21661   0.095   1.049   6.048  0.1423 -0.1608  0.6618
 3343SOL    HW121662   0.087   1.030   5.954  2.0397 -0.5290  0.5736
 3343SOL    HW221663   0.143   1.132   6.041  2.2020 -1.3112  0.8911
 3344SOL     OW21664   3.848   3.665   5.260  0.1070  0.2389 -0.5742
 3344SOL    HW121665   3.870   3.664   5.167  3.3304  0.7780  0.1969
 3344SOL    HW221666   3.920   3.606   5.283  1.1985  0.7747 -2.6815
 3345SOL     OW21667   4.222   3.043   2.314  0.6361 -0.8154 -0.2308
 3345SOL    HW121668   4.300   3.089   2.346 -0.2027  0.4815 -0.0671
 3345SOL    HW221669   4.178   3.030   2.398  0.7117 -0.2781 -0.1078
 3346SOL     OW21670   4.355   1.522   0.654  0.0888 -0.8533  0.0104
 3346SOL    HW121671   4.423   1.587   0.668 -1.2672  0.9623 -1.7265
 3346SOL    HW221672   4.407   1.444   0.634  0.8475 -0.1941 -0.5674
 3347SOL     OW21673   4.029   3.483   7.358  0.0788  0.0565 -0.0350
 3347SOL    HW121674   4.063   3.562   7.315  0.2727 -0.6664 -1.2038
 3347SOL    HW221675   4.094   3.415   7.345  0.7744  0.5787  0.7034
 3348SOL     OW21676   2.100   2.853   7.392 -0.4072  0.1059 -0.3347
 3348SOL    HW121677   2.016   2.895   7.378  0.5904  1.7827 -1.2768
 3348SOL    HW221678   2.167   2.910   7.354  1.8608 -1.8221  0.7433
 3349SOL     OW21679   0.111   0.938   8.597  1.5564  0.0415 -0.9691
 3349SOL    HW121680   0.106   0.905   8.508  0.5148  0.7535 -1.1741
 3349SOL    HW221681   0.072   1.026   8.588 -2.6220 -1.9427 -2.3891
 3350SOL     OW21682   3.186   0.551   5.356  0.0748  0.1820  0.2493
 3350SOL    HW121683   3.274   0.533   5.322  0.9126  3.9610  0.4300
 3350SOL    HW221684   3.169   0.629   5.304  0.5009  2.0391  2.9285
 3351SOL     OW21685   3.361   0.971  15.463  0.5732 -0.1884 -0.3092
 3351SOL    HW121686   3.302   0.896  15.467 -1.4635  1.3172 -2.1897
 3351SOL    HW221687   3.407   0.961  15.547 -2.4774 -0.0916  1.3747
 3352SOL     OW21688   3.427   1.609   6.409  0.4158  0.0364 -0.3450
 3352SOL    HW121689   3.437   1.650   6.495 -1.6559 -1.7874  0.7569
 3352SOL    HW221690   3.503   1.648   6.365 -1.3075  0.4566 -2.9593
 3353SOL     OW21691   0.010   1.743  17.311  0.2104  0.0898 -0.8165
 3353SOL    HW121692   4.662   1.700  17.314  0.6786 -0.6948  1.0998
 3353SOL    HW221693   4.714   1.829  17.332 -0.1478 -0.4560  0.8061
 3354SOL     OW21694   1.931   3.703   4.121 -0.5755 -0.5903  0.8185
 3354SOL    HW121695   1.982   3.642   4.174  1.2261  0.8194  0.6971
 3354SOL    HW221696   1.841   3.677   4.144 -1.1291 -1.0464 -1.9060
 3355SOL     OW21697   2.780   1.535   7.194 -0.5863  1.0372  0.0006
 3355SOL    HW121698   2.757   1.479   7.119  0.0804  1.2506 -0.3685
 3355SOL    HW221699   2.807   1.470   7.258  1.0108  3.0684  1.3901
 3356SOL     OW21700   1.682   0.561  10.546  0.0080 -0.3080  0.5468
 3356SOL    HW121701   1.690   0.656  10.533 -1.0726 -0.1509  1.0066
 3356SOL    HW221702   1.680   0.536  10.454  3.0449 -1.1056  0.7092
 3357SOL     OW21703   1.104   4.004   2.074 -0.2265  0.4017 -0.1632
 3357SOL    HW121704   1.112   3.911   2.051 -1.1847  1.1863 -3.6614
 3357SOL    HW221705   1.067   3.984   2.160  0.0596 -0.5370 -0.2523
 3358SOL     OW21706   3.247   0.211  16.623  0.6870  0.0142 -0.3126
 3358SOL    HW121707   3.340   0.198  16.605  0.2537 -1.5518 -1.4504
 3358SOL    HW221708   3.229   0.293  16.578 -2.7428 -0.9515 -0.6905
 3359SOL     OW21709   1.378   2.307   5.847 -0.1633  0.6514  0.0830
 3359SOL    HW121710   1.357   2.339   5.759 -2.1699 -0.8664 -0.0032
 3359SOL    HW221711   1.377   2.392   5.891  0.1761  0.8516 -0.2971
 3360SOL     OW21712   0.253   2.564   1.108 -0.2347  0.4798  0.4278
 3360SOL    HW121713   0.191   2.602   1.046 -1.2035 -0.8729  0.5771
 3360SOL    HW221714   0.336   2.599   1.074 -0.3772  2.2563  1.9263
 3361SOL     OW21715   1.170   1.768   9.450  0.0176  0.3192  0.1273
 3361SOL    HW121716   1.203   1.708   9.517  0.3075 -0.0897 -0.3799
 3361SOL    HW221717   1.169   1.848   9.502  0.6155 -1.1163  2.3490
 3362SOL     OW21718   1.523   0.168  11.156 -0.3150  0.0918 -0.0147
 3362SOL    HW121719   1.476   0.104  11.102 -2.8863  1.0877  1.0348
 3362SOL    HW221720   1.469   0.247  11.147 -1.9769 -0.8038  1.9932
 3363SOL     OW21721   3.213   0.540   4.681  0.1070 -0.2886 -0.4250
 3363SOL    HW121722   3.285   0.578   4.631 -1.2308  0.6699 -1.6528
 3363SOL    HW221723   3.185   0.615   4.733 -0.8924 -0.5844 -0.5368
 3364SOL     OW21724   2.921   3.735   0.497  0.6198  0.2810 -0.3326
 3364SOL    HW121725   2.830   3.764   0.506  0.7623  0.7778 -0.4843
 3364SOL    HW221726   2.963   3.814   0.531 -1.7870  1.1239  0.6720
 3365SOL     OW21727   4.486   1.676   4.458 -0.5292 -0.0310  0.0353
 3365SOL    HW121728   4.456   1.766   4.469 -1.0040 -0.1266 -0.5185
 3365SOL    HW221729   4.580   1.693   4.457 -0.5633  0.0202 -1.7688
 3366SOL     OW21730   3.222   2.237  13.443  0.3448 -0.0929  0.8543
 3366SOL    HW121731   3.224   2.164  13.382  0.4396 -0.1353  0.9081
 3366SOL    HW221732   3.241   2.198  13.529  1.5467 -0.0521  0.6129
 3367SOL     OW21733   3.011   0.072   9.171 -0.1384  0.0712  0.2584
 3367SOL    HW121734   3.034   0.126   9.247  2.3546 -1.9606  0.9405
 3367SOL    HW221735   2.961   0.003   9.215 -2.2380  0.4875 -1.4400
 3368SOL     OW21736   4.666   1.627   4.131 -0.1954  0.4685  0.0479
 3368SOL    HW121737   4.641   1.715   4.104  0.6524  0.5706 -0.4142
 3368SOL    HW221738   4.580   1.586   4.128  0.5209 -1.0487 -0.0198
 3369SOL     OW21739   1.027   0.472   4.381 -0.2694 -0.3136  0.1634
 3369SOL    HW121740   0.935   0.498   4.387 -0.6648 -0.9206 -3.1730
 3369SOL    HW221741   1.062   0.562   4.383  0.5975 -0.6791  1.2662
 3370SOL     OW21742   1.665   2.981   4.093  0.0586  0.4624  0.0910
 3370SOL    HW121743   1.699   2.930   4.167  0.7786 -2.0495 -1.9549
 3370SOL    HW221744   1.727   3.053   4.088 -0.2190  0.5432 -1.8956
 3371SOL     OW21745   1.413   4.703   1.149 -0.2286  0.0937 -0.4916
 3371SOL    HW121746   1.464   0.019   1.210 -0.8599 -0.6466  0.6798
 3371SOL    HW221747   1.330   0.011   1.142 -1.6196 -2.3216  0.3351
 3372SOL     OW21748   3.022   1.486  12.831  0.5250 -0.3398  0.5956
 3372SOL    HW121749   2.939   1.514  12.869  1.1543  1.6579  0.5028
 3372SOL    HW221750   3.076   1.497  12.909 -1.2428 -0.3022  1.8107
 3373SOL     OW21751   1.063   2.092  14.752  0.1364 -0.2022  0.2725
 3373SOL    HW121752   1.089   2.009  14.713 -0.2326 -0.4725  0.6047
 3373SOL    HW221753   1.074   2.078  14.845  1.5068  0.3849  0.1864
 3374SOL     OW21754   3.519   0.778   2.309 -0.1614 -0.4503  0.3929
 3374SOL    HW121755   3.425   0.761   2.311 -0.2235 -0.0719  1.0226
 3374SOL    HW221756   3.559   0.695   2.285  1.5236 -0.0615  1.8381
 3375SOL     OW21757   1.014   0.635   1.631  0.5342  0.1971  0.1124
 3375SOL    HW121758   1.015   0.545   1.663 -1.7808  0.9901  2.4438
 3375SOL    HW221759   1.083   0.679   1.680  0.9672 -1.4691  0.9772
 3376SOL     OW21760   3.508   1.742   5.468 -0.0542 -0.2187 -0.6708
 3376SOL    HW121761   3.416   1.715   5.470 -0.4475  1.0555 -2.0875
 3376SOL    HW221762   3.550   1.686   5.534  2.1315 -0.0401 -1.9275
 3377SOL     OW21763   0.845   1.178   4.658 -0.2473  0.2053 -0.2932
 3377SOL    HW121764   0.841   1.116   4.585  2.1705  0.1830 -0.3913
 3377SOL    HW221765   0.829   1.253   4.601  2.3345  0.9236 -0.0706
 3378SOL     OW21766   2.213   1.205  12.695  0.1289  0.0656 -0.0866
 3378SOL    HW121767   2.258   1.247  12.768  0.3125  1.2509 -0.8830
 3378SOL    HW221768   2.278   1.205  12.625 -0.4276 -0.5615 -0.6042
 3379SOL     OW21769   4.393   2.986  14.462  0.1583  0.1040  0.6859
 3379SOL    HW121770   4.385   3.058  14.523  0.9761  1.2492 -0.5436
 3379SOL    HW221771   4.488   2.975  14.450 -0.0422  0.7358 -1.5636
 3380SOL     OW21772   0.142   2.466   0.537  0.6054 -0.1150 -0.2113
 3380SOL    HW121773   0.234   2.453   0.560  0.0574 -2.5083  0.5769
 3380SOL    HW221774   0.127   2.555   0.572 -1.8715 -0.5820 -0.0558
 3381SOL     OW21775   2.807   0.323  15.182 -0.2086  0.4990 -0.5076
 3381SOL    HW121776   2.750   0.379  15.131 -0.6427  1.4964  1.0829
 3381SOL    HW221777   2.874   0.299  15.118 -0.0576  0.8616 -0.4862
 3382SOL     OW21778   1.884   2.365   9.510 -0.3094  0.1829 -0.3405
 3382SOL    HW121779   1.959   2.323   9.468 -0.0440  0.5113 -0.1900
 3382SOL    HW221780   1.816   2.299   9.496 -0.6779 -0.0271  2.4238
 3383SOL     OW21781   4.572   1.371  15.265  0.4753  0.1468  0.0622
 3383SOL    HW121782   4.637   1.362  15.335  0.4825 -2.4826 -0.3003
 3383SOL    HW221783   4.594   1.308  15.196  3.2648  0.1214  0.9979
 3384SOL     OW21784   4.266   3.724   2.871  0.0448  0.0113  0.3314
 3384SOL    HW121785   4.253   3.733   2.966 -1.2318 -1.2390  0.2768
 3384SOL    HW221786   4.355   3.758   2.859 -1.6879  4.3403 -0.1777
 3385SOL     OW21787   3.937   0.865  14.497 -0.7867  0.4115 -0.4450
 3385SOL    HW121788   3.943   0.887  14.590  0.6211  1.3591 -0.7687
 3385SOL    HW221789   3.964   0.944  14.450 -0.1639 -0.2975 -1.2824
 3386SOL     OW21790   4.001   4.292   8.407 -0.0019 -0.4174  0.1372
 3386SOL    HW121791   3.926   4.312   8.464 -0.0353  0.3145 -0.1748
 3386SOL    HW221792   3.990   4.351   8.333  1.8575 -1.7880 -1.2332
 3387SOL     OW21793   2.623   3.366   8.103 -0.4469 -0.4890 -0.3627
 3387SOL    HW121794   2.625   3.298   8.171 -0.3040  1.4805  1.6026
 3387SOL    HW221795   2.717   3.383   8.108 -0.6257 -0.0433  1.6595
 3388SOL     OW21796   1.413   3.508   7.612  0.1790 -0.4002  0.3647
 3388SOL    HW121797   1.440   3.457   7.535 -2.5598 -0.1473 -0.7614
 3388SOL    HW221798   1.469   3.473   7.681  2.1556  2.0422  0.0125
 3389SOL     OW21799   0.800   0.024   7.439 -0.5058  0.1297 -0.0411
 3389SOL    HW121800   0.846   0.056   7.516  2.8234  0.3457 -2.1037
 3389SOL    HW221801   0.869   0.002   7.376  0.0547 -0.9169  0.9426
 3390SOL     OW21802   4.117   2.750   1.064  0.6543  0.1673  0.2403
 3390SOL    HW121803   4.144   2.740   1.156  0.2154 -0.4867  0.2962
 3390SOL    HW221804   4.060   2.827   1.070 -1.3261 -1.1911 -1.1890
 3391SOL     OW21805   3.293   0.001  11.902  0.0397  0.0660 -0.4452
 3391SOL    HW121806   3.269   4.649  11.880 -0.0351  0.5886 -2.4573
 3391SOL    HW221807   3.382   4.736  11.865  1.1158  2.9108  1.9153
 3392SOL     OW21808   1.286   0.616  13.524  0.4551  0.9654  0.1338
 3392SOL    HW121809   1.328   0.702  13.514  1.5547  0.4905  0.5859
 3392SOL    HW221810   1.239   0.619  13.441  0.6717 -2.4044 -0.0790
 3393SOL     OW21811   4.130   0.199   5.557 -0.0646  0.3375  0.4577
 3393SOL    HW121812   4.221   0.175   5.538 -0.7536 -0.6652 -1.5295
 3393SOL    HW221813   4.137   0.288   5.592  0.2225  0.0383  1.1563
 3394SOL     OW21814   4.180   2.882   8.389 -0.1559  0.3633 -0.6098
 3394SOL    HW121815   4.232   2.804   8.368 -1.8272 -0.0344 -3.3310
 3394SOL    HW221816   4.230   2.912   8.465 -1.9652  0.1836  0.6503
 3395SOL     OW21817   1.046   2.121  11.029  0.5508  0.0583 -0.3399
 3395SOL    HW121818   1.138   2.145  11.039  0.8401 -0.9108 -0.5814
 3395SOL    HW221819   1.016   2.206  10.998 -3.8465 -0.7949  1.5562
 3396SOL     OW21820   3.300   2.908   6.191  0.1879 -0.0789 -0.5647
 3396SOL    HW121821   3.311   2.980   6.254  1.9415 -0.4890 -0.4052
 3396SOL    HW221822   3.253   2.834   6.229  1.4247 -0.0348  1.0178
 3397SOL     OW21823   0.683   2.006   1.211  0.1347 -0.7781  0.0638
 3397SOL    HW121824   0.708   1.970   1.296  0.3998 -0.6923  0.0226
 3397SOL    HW221825   0.588   1.997   1.209 -0.1194  1.4917  1.6454
 3398SOL     OW21826   0.195   2.976  16.412 -0.4691  0.2630  0.0903
 3398SOL    HW121827   0.214   2.963  16.505  2.2782  0.7842 -0.3746
 3398SOL    HW221828   0.124   2.912  16.412  1.0806 -1.4409  0.5506
 3399SOL     OW21829   0.005   1.191   3.503  0.2649  0.2028 -0.3500
 3399SOL    HW121830   4.651   1.200   3.478  0.5679 -2.1833 -2.3565
 3399SOL    HW221831   0.022   1.268   3.557  0.4301  0.4080 -0.6988
 3400SOL     OW21832   0.125   2.545   2.231 -0.2903 -0.0400  0.0121
 3400SOL    HW121833   0.179   2.625   2.223 -0.9657  0.4583  0.4210
 3400SOL    HW221834   0.100   2.536   2.139  0.5170 -1.6342 -0.0391
 3401SOL     OW21835   4.310   0.801   2.493  0.3882  0.4034 -0.4286
 3401SOL    HW121836   4.350   0.778   2.409  2.3103  0.5462  0.4625
 3401SOL    HW221837   4.310   0.897   2.485  2.7438  0.5185  0.8938
 3402SOL     OW21838   2.050   1.383  15.002 -0.0203 -0.0449  0.5524
 3402SOL    HW121839   2.126   1.335  14.969  0.1332  0.6378 -0.0826
 3402SOL    HW221840   1.993   1.305  15.001  1.2323 -0.9231 -1.7958
 3403SOL     OW21841   1.198   1.329   7.257  0.4382  0.4185 -0.3721
 3403SOL    HW121842   1.230   1.363   7.173 -0.0629 -0.1426 -0.7896
 3403SOL    HW221843   1.112   1.300   7.226  0.4779 -0.3589  0.2616
 3404SOL     OW21844   0.513   1.451   4.783  0.2518 -0.2854 -0.0321
 3404SOL    HW121845   0.537   1.416   4.697  1.1665  0.2906 -0.0120
 3404SOL    HW221846   0.585   1.417   4.835  2.3523  2.8997 -0.8609
 3405SOL     OW21847   0.132   3.407   8.391 -0.4952  0.9755 -0.2678
 3405SOL    HW121848   0.120   3.485   8.445 -2.0626  0.2547  0.4324
 3405SOL    HW221849   0.043   3.397   8.356 -1.4498  3.6324  1.3712
 3406SOL     OW21850   4.325   1.362   3.592 -0.2918 -0.1737  0.1947
 3406SOL    HW121851   4.384   1.318   3.532 -0.7626 -0.9248  0.2847
 3406SOL    HW221852   4.313   1.444   3.543 -1.5877 -1.4227 -1.5771
 3407SOL     OW21853   3.208   3.196   4.520  0.5055 -0.6042  0.3118
 3407SOL    HW121854   3.158   3.130   4.568  0.9921 -0.0211  1.6328
 3407SOL    HW221855   3.284   3.144   4.495 -0.3651 -1.2070 -1.0622
 3408SOL     OW21856   2.143   1.881  12.808  0.0299 -0.3460  0.1876
 3408SOL    HW121857   2.181   1.892  12.895 -0.4313  0.8047  0.2439
 3408SOL    HW221858   2.051   1.856  12.818  0.1078 -1.0173 -0.7023
 3409SOL     OW21859   3.577   0.400   4.267  0.3989  0.8566 -0.6916
 3409SOL    HW121860   3.655   0.437   4.308  1.1229 -1.4442  0.0039
 3409SOL    HW221861   3.610   0.351   4.191  1.3377 -0.7760  0.7737
 3410SOL     OW21862   3.099   2.945   4.570 -0.1469  0.1569 -0.1454
 3410SOL    HW121863   3.061   2.863   4.536 -0.9697  0.9253 -1.0699
 3410SOL    HW221864   3.189   2.929   4.596 -0.3396 -0.3807  0.2015
 3411SOL     OW21865   0.138   3.452  13.510 -0.0817  0.4017  0.1837
 3411SOL    HW121866   0.163   3.361  13.495  0.2422  0.8148 -1.8551
 3411SOL    HW221867   0.045   3.441  13.490  0.0963  1.2160 -1.1146
 3412SOL     OW21868   0.117   0.032   6.885 -0.1089  0.2316 -0.0057
 3412SOL    HW121869   0.079   0.062   6.803 -0.7867 -0.2752  0.1164
 3412SOL    HW221870   0.160   4.688   6.860  0.0215  1.1623 -2.8085
 3413SOL     OW21871   3.745   2.713   4.542 -0.2115 -0.1893  0.1136
 3413SOL    HW121872   3.733   2.727   4.636  1.9113  0.1200  0.3208
 3413SOL    HW221873   3.675   2.651   4.521 -1.7472  1.5427  0.0541
 3414SOL     OW21874   1.143   0.363   4.136  0.2982 -0.1759 -0.8186
 3414SOL    HW121875   1.080   0.360   4.208  0.9702  0.8365 -0.1933
 3414SOL    HW221876   1.109   0.305   4.068 -2.5062  0.5660 -0.0430
 3415SOL     OW21877   2.277   3.949   2.917 -0.1663  0.2227 -0.2573
 3415SOL    HW121878   2.252   3.908   2.834  1.8476  1.5737 -1.5434
 3415SOL    HW221879   2.369   3.971   2.904 -0.3025  0.8154 -0.2544
 3416SOL     OW21880   3.580   4.556   4.169  0.3327  0.0713 -0.0947
 3416SOL    HW121881   3.527   4.510   4.104  1.3453  2.8730 -2.8692
 3416SOL    HW221882   3.535   4.521   4.246 -0.3282  0.1899 -0.4221
 3417SOL     OW21883   3.075   0.912   9.165 -0.1121  0.1601 -0.7766
 3417SOL    HW121884   3.085   0.941   9.256 -1.5772 -1.4234 -0.1205
 3417SOL    HW221885   3.004   0.848   9.165  0.3479 -0.3544  1.5819
 3418SOL     OW21886   2.808   0.053   8.349 -0.0539  0.1977  0.6696
 3418SOL    HW121887   2.824   0.141   8.317 -1.2576  0.3728  0.5453
 3418SOL    HW221888   2.806   0.002   8.268  1.4268  1.5162 -0.1832
 3419SOL     OW21889   3.079   1.466  16.589 -0.8503  0.0228 -0.2180
 3419SOL    HW121890   3.110   1.553  16.563 -2.4066  0.7176  0.2677
 3419SOL    HW221891   3.070   1.424  16.503 -1.1093 -0.5662  0.0981
 3420SOL     OW21892   2.511   2.518   5.985 -0.8038  0.6254  0.2117
 3420SOL    HW121893   2.418   2.522   6.005 -0.9893 -0.6884 -0.4321
 3420SOL    HW221894   2.552   2.547   6.067 -0.9281  2.3651 -0.3443
 3421SOL     OW21895   0.753   0.313   1.976  0.3556 -0.4046  0.2022
 3421SOL    HW121896   0.808   0.258   2.032 -0.5149 -0.7302  0.7432
 3421SOL    HW221897   0.690   0.344   2.042  0.0734 -0.7240  0.0804
 3422SOL     OW21898   3.490   4.192   5.012 -0.5248  0.0736  0.0543
 3422SOL    HW121899   3.566   4.250   5.010 -1.0212  0.7818  1.1007
 3422SOL    HW221900   3.521   4.125   4.951 -0.8603  1.9099 -2.1117
 3423SOL     OW21901   3.746   0.254   2.945  0.7533 -0.7483 -0.3673
 3423SOL    HW121902   3.750   0.189   3.015 -1.3010 -0.3048  0.1662
 3423SOL    HW221903   3.837   0.275   2.924  0.7984 -1.5462 -0.9890
 3424SOL     OW21904   0.940   1.892   6.793 -0.7807  0.0893 -0.2837
 3424SOL    HW121905   1.026   1.934   6.791 -0.0712 -1.3332  0.0668
 3424SOL    HW221906   0.907   1.897   6.703  0.4450 -0.3095 -0.7627
 3425SOL     OW21907   3.212   3.249   8.437  0.6476  0.9774  0.2671
 3425SOL    HW121908   3.144   3.314   8.453  0.2061  0.4968  0.3370
 3425SOL    HW221909   3.239   3.224   8.525 -0.6222 -0.0330  0.3710
 3426SOL     OW21910   0.313   4.291   9.427  0.1283 -0.1411  0.0224
 3426SOL    HW121911   0.262   4.230   9.374  0.0564  1.0571 -1.2653
 3426SOL    HW221912   0.328   4.236   9.505  1.6099  0.3429  0.0769
 3427SOL     OW21913   2.129   2.076  10.000  0.3872  0.1311  0.2432
 3427SOL    HW121914   2.109   2.070  10.093 -1.2254  0.4588 -0.0739
 3427SOL    HW221915   2.098   2.165   9.983  2.1743  0.8450  0.7965
 3428SOL     OW21916   4.468   2.240   5.143 -0.7479  0.4070  0.2578
 3428SOL    HW121917   4.415   2.255   5.065  0.1946 -0.5666 -0.5687
 3428SOL    HW221918   4.546   2.286   5.113  0.3491 -1.0941  0.8456
 3429SOL     OW21919   4.068   3.933   2.274 -0.3255  0.3070 -0.3361
 3429SOL    HW121920   4.089   3.840   2.259  2.3307  0.9476 -0.7265
 3429SOL    HW221921   4.008   3.947   2.201 -1.9274  2.2363  1.3621
 3430SOL     OW21922   2.300   1.119   7.972 -0.1034  0.1288 -0.4907
 3430SOL    HW121923   2.285   1.111   8.067 -2.0227  0.5129 -0.7528
 3430SOL    HW221924   2.224   1.174   7.952  0.6517  1.5308  0.5295
 3431SOL     OW21925   1.193   2.010   8.466  0.3703  0.2875  0.1218
 3431SOL    HW121926   1.257   1.976   8.404  0.0705 -1.0689  0.5398
 3431SOL    HW221927   1.182   1.933   8.522 -1.7230 -0.3694 -1.1803
 3432SOL     OW21928   3.835   0.705   9.983  0.5419 -0.5485 -0.6043
 3432SOL    HW121929   3.790   0.669  10.059 -1.0063  0.7345 -0.9132
 3432SOL    HW221930   3.820   0.798  10.000 -2.2582 -0.6193 -2.7011
 3433SOL     OW21931   3.877   2.658   2.689  0.1329  0.0428 -0.3157
 3433SOL    HW121932   3.949   2.597   2.708  1.0145  0.5552 -1.9678
 3433SOL    HW221933   3.929   2.724   2.642 -0.5377 -0.0981 -1.2413
 3434SOL     OW21934   2.129   2.536  13.563 -0.1006  0.0868  0.0426
 3434SOL    HW121935   2.158   2.445  13.567 -2.9789 -0.7955  1.4682
 3434SOL    HW221936   2.036   2.525  13.587  0.4776 -0.2902  2.1030
 3435SOL     OW21937   0.116   1.509   6.708  0.2702 -0.0832  0.1374
 3435SOL    HW121938   0.094   1.597   6.677  0.8444  0.7220  2.0176
 3435SOL    HW221939   0.202   1.533   6.742  1.0334  0.5238 -2.2193
 3436SOL     OW21940   3.566   4.570   4.576  0.2974 -0.0362  0.6191
 3436SOL    HW121941   3.529   4.513   4.509  0.9114  2.1950 -1.5943
 3436SOL    HW221942   3.587   4.653   4.534 -2.0468 -0.0309 -0.5098
 3437SOL     OW21943   2.325   1.537   6.156 -0.2822 -0.2213  0.4786
 3437SOL    HW121944   2.254   1.498   6.105  1.8238 -0.3460 -2.3453
 3437SOL    HW221945   2.296   1.511   6.243 -1.1138  0.5288  0.4117
 3438SOL     OW21946   0.863   3.585   3.870 -0.0362 -0.5200 -0.1061
 3438SOL    HW121947   0.807   3.602   3.794  1.0672 -0.7112 -0.9506
 3438SOL    HW221948   0.807   3.534   3.928 -0.3690 -0.9015 -0.7647
 3439SOL     OW21949   1.133   2.193   5.942  0.5513 -0.5412 -0.5812
 3439SOL    HW121950   1.059   2.238   5.901  0.7779 -1.4737 -2.0201
 3439SOL    HW221951   1.206   2.254   5.926  0.2035 -0.1860 -0.8107
 3440SOL     OW21952   3.323   4.679   3.448 -0.6224 -0.3382  0.3499
 3440SOL    HW121953   3.236   4.717   3.447 -0.7903 -0.7366 -0.0881
 3440SOL    HW221954   3.360   4.722   3.525 -2.5565  1.7133  0.1060
 3441SOL     OW21955   4.460   2.718  14.611 -0.1403  0.5328 -0.1587
 3441SOL    HW121956   4.408   2.789  14.573 -1.0275  0.4017  0.7918
 3441SOL    HW221957   4.436   2.715  14.704  0.0166 -0.8882 -0.1674
 3442SOL     OW21958   2.580   2.112   0.875 -0.1742  0.5697  0.3071
 3442SOL    HW121959   2.578   2.126   0.780  0.3931 -0.3624  0.1645
 3442SOL    HW221960   2.668   2.077   0.887  0.1243  0.9784 -0.7114
 3443SOL     OW21961   2.713   1.333   3.496 -0.3893  0.3306 -0.1828
 3443SOL    HW121962   2.670   1.277   3.561 -3.9003  1.8279 -1.1861
 3443SOL    HW221963   2.756   1.396   3.554  1.3505 -1.5440  0.5561
 3444SOL     OW21964   3.304   1.347   4.363 -0.0808  0.2451  0.0674
 3444SOL    HW121965   3.396   1.348   4.390  0.1676 -0.9798 -0.7157
 3444SOL    HW221966   3.272   1.427   4.404  3.1288  0.3741  2.3301
 3445SOL     OW21967   1.041   1.775   4.447  0.1130 -0.1785 -0.0514
 3445SOL    HW121968   0.989   1.718   4.505 -1.6027  0.5290 -0.9083
 3445SOL    HW221969   1.125   1.739   4.474 -0.0312 -0.5751 -0.1174
 3446SOL     OW21970   2.598   2.576   7.660  0.6586  0.6870  0.3120
 3446SOL    HW121971   2.669   2.583   7.595 -0.5093  2.9315 -0.7345
 3446SOL    HW221972   2.531   2.532   7.608 -0.2546  2.4694 -0.0171
 3447SOL     OW21973   4.030   3.614   2.290  0.3551  0.2538  0.4243
 3447SOL    HW121974   3.949   3.641   2.245  0.2926 -0.5808  0.0284
 3447SOL    HW221975   4.097   3.624   2.222  0.4372  1.3656  0.6709
 3448SOL     OW21976   1.712   3.187   7.224 -0.2883  0.4443  0.0896
 3448SOL    HW121977   1.673   3.269   7.253  4.9703  2.5864  1.2210
 3448SOL    HW221978   1.665   3.176   7.142 -1.0714  0.0142  0.5980
 3449SOL     OW21979   1.522   2.161   5.616  0.0618 -0.2667  0.1714
 3449SOL    HW121980   1.576   2.228   5.573  0.1813  0.7485  1.8958
 3449SOL    HW221981   1.488   2.216   5.686 -1.6203 -0.9640 -0.1121
 3450SOL     OW21982   2.356   3.077  14.002  0.5410 -0.7497 -0.7127
 3450SOL    HW121983   2.405   3.096  14.082 -1.6718  1.6106  0.0557
 3450SOL    HW221984   2.356   3.163  13.961 -2.4293 -1.0208 -1.2249
 3451SOL     OW21985   4.368   0.812  15.116 -0.0430 -0.3115  0.0772
 3451SOL    HW121986   4.365   0.883  15.052 -1.3839  0.0353  0.5122
 3451SOL    HW221987   4.422   0.851  15.184 -0.3655 -2.7855  1.7486
 3452SOL     OW21988   4.390   2.959   7.610  0.1049 -0.4647  0.1239
 3452SOL    HW121989   4.422   2.982   7.697  2.9141 -1.8979 -0.5387
 3452SOL    HW221990   4.444   2.883   7.589  0.0330 -0.5982  0.4177
 3453SOL     OW21991   4.734   2.203   2.332 -0.5311 -0.8063  0.5510
 3453SOL    HW121992   0.091   2.202   2.346 -0.5626  3.9387  1.1362
 3453SOL    HW221993   4.720   2.109   2.325 -1.9725 -0.5985  0.6756
 3454SOL     OW21994   2.479   4.371   4.726  0.2271 -0.4220 -0.0680
 3454SOL    HW121995   2.397   4.402   4.689  1.0002  1.7503  0.0096
 3454SOL    HW221996   2.527   4.380   4.644  1.4392  1.0110  0.7866
 3455SOL     OW21997   1.674   2.681  17.110  0.0402  0.3037  0.4843
 3455SOL    HW121998   1.678   2.609  17.173  0.7998 -0.1470 -0.0776
 3455SOL    HW221999   1.752   2.654  17.061  0.5802  2.1008  0.3242
 3456SOL     OW22000   4.447   3.382   4.795 -0.4244  0.8568  0.1885
 3456SOL    HW122001   4.503   3.368   4.719  0.3655  1.0664  0.7324
 3456SOL    HW222002   4.360   3.362   4.760  0.7952 -0.5709 -2.0505
 3457SOL     OW22003   0.206   0.500   3.239 -0.8168  0.3199 -0.0954
 3457SOL    HW122004   0.185   0.590   3.261 -3.2257 -0.5542  1.1818
 3457SOL    HW222005   0.122   0.454   3.248 -1.6532  2.0650  1.0418
 3458SOL     OW22006   3.900   2.237  15.166  0.2536  0.2335 -0.7430
 3458SOL    HW122007   3.810   2.209  15.181  0.7266 -0.3833  0.8971
 3458SOL    HW222008   3.888   2.236  15.071 -0.6002 -2.1540 -0.6032
 3459SOL     OW22009   4.026   2.047   9.457 -0.3143  0.3888 -0.0317
 3459SOL    HW122010   4.094   2.024   9.520  0.1816 -3.1587 -1.8412
 3459SOL    HW222011   4.015   2.139   9.481  0.0851 -0.3660  2.9409
 3460SOL     OW22012   2.515   1.232   9.582  0.6059  0.3987 -0.0094
 3460SOL    HW122013   2.573   1.304   9.556  2.6063 -1.5889 -1.0665
 3460SOL    HW222014   2.510   1.244   9.677  0.1864  2.8149 -0.3340
 3461SOL     OW22015   2.898   0.451   3.431 -0.3375  0.4007 -0.5171
 3461SOL    HW122016   2.981   0.497   3.418  0.1090 -0.7459 -1.6771
 3461SOL    HW222017   2.909   0.365   3.390 -1.9205  0.0433 -0.1690
 3462SOL     OW22018   1.810   0.433   7.138  0.4717  0.6620  1.0212
 3462SOL    HW122019   1.781   0.524   7.140 -0.2252  0.4388  0.8292
 3462SOL    HW222020   1.800   0.409   7.046  2.8382 -2.7347  1.6453
 3463SOL     OW22021   3.506   2.816  12.730  0.2190 -0.1745 -0.4852
 3463SOL    HW122022   3.446   2.757  12.685 -0.6287 -1.1853  1.9697
 3463SOL    HW222023   3.578   2.755  12.748  0.9532  0.0468 -2.6717
 3464SOL     OW22024   4.145   4.666  16.770  0.3914  0.1169 -0.5739
 3464SOL    HW122025   4.183   4.603  16.830  0.1788 -0.1358 -0.7038
 3464SOL    HW222026   4.126   4.616  16.690 -1.2190 -0.6838  0.3256
 3465SOL     OW22027   3.202   4.565  10.851 -0.0246 -0.1195  0.2857
 3465SOL    HW122028   3.204   4.498  10.919  3.8035 -1.5069 -1.2380
 3465SOL    HW222029   3.119   4.607  10.878  1.6576  3.3999  0.0345
 3466SOL     OW22030   2.727   3.395   6.775 -0.0742  0.6693 -0.2422
 3466SOL    HW122031   2.720   3.349   6.859  0.8975 -0.1663 -0.6206
 3466SOL    HW222032   2.804   3.358   6.731 -1.3782 -0.8055 -1.2745
 3467SOL     OW22033   4.215   3.215   7.210 -0.5309  0.0184  0.0867
 3467SOL    HW122034   4.230   3.122   7.225  2.3480  0.0231 -2.6129
 3467SOL    HW222035   4.307   3.241   7.205 -0.9660  1.3767 -1.0659
 3468SOL     OW22036   3.921   1.162   1.433 -0.5467 -0.2182  0.0849
 3468SOL    HW122037   3.905   1.178   1.526  0.8169 -0.4677  0.3682
 3468SOL    HW222038   3.918   1.252   1.401  1.7504  0.0939  0.7212
 3469SOL     OW22039   2.835   1.155   5.674 -0.3755  0.1084  0.1017
 3469SOL    HW122040   2.778   1.205   5.615 -1.2309  0.8594  1.5570
 3469SOL    HW222041   2.805   1.065   5.657 -0.4407  0.2757 -0.6779
 3470SOL     OW22042   0.710   0.978  15.307 -0.3478 -0.0264  0.0302
 3470SOL    HW122043   0.757   1.025  15.375  3.3064 -1.2200 -1.6757
 3470SOL    HW222044   0.790   0.955  15.259 -0.3819  0.2429 -0.1571
 3471SOL     OW22045   1.849   3.037  10.288  0.5743 -0.4282 -0.5242
 3471SOL    HW122046   1.798   3.040  10.207 -0.5746 -0.8361  0.1732
 3471SOL    HW222047   1.898   3.119  10.281 -0.5203  0.2078 -0.6899
 3472SOL     OW22048   3.220   3.264   5.402 -0.0740 -0.2357 -0.0106
 3472SOL    HW122049   3.290   3.247   5.339  1.3604  1.2774  1.1641
 3472SOL    HW222050   3.151   3.208   5.368 -0.0702  1.4306 -2.7693
 3473SOL     OW22051   1.953   4.274   6.402 -0.4715 -0.4088  0.3102
 3473SOL    HW122052   1.868   4.302   6.368 -0.1300  0.7540  0.4122
 3473SOL    HW222053   1.976   4.359   6.440 -2.2643  1.0508 -1.8156
 3474SOL     OW22054   2.896   0.918  13.250  0.0588 -0.1272  0.1192
 3474SOL    HW122055   2.825   0.864  13.286 -0.4377  0.9146  0.6799
 3474SOL    HW222056   2.905   0.984  13.319 -0.2110  0.7298 -0.6631
 3475SOL     OW22057   3.166   0.277   5.363  0.0257  0.8452 -0.0842
 3475SOL    HW122058   3.162   0.276   5.267 -0.7151 -2.0947 -0.0181
 3475SOL    HW222059   3.144   0.367   5.385 -0.0218  0.4082  1.6231
 3476SOL     OW22060   2.495   1.380   4.381  0.2866 -0.2208 -0.2649
 3476SOL    HW122061   2.402   1.358   4.389  0.4462 -0.7976  0.0189
 3476SOL    HW222062   2.525   1.308   4.325 -0.9691  0.5238 -1.9269
 3477SOL     OW22063   4.031   2.153   8.812  0.5795  0.7089  0.4990
 3477SOL    HW122064   3.984   2.236   8.821 -0.9302 -0.0723 -0.1749
 3477SOL    HW222065   4.024   2.149   8.717 -1.5179 -0.1327  0.7027
 3478SOL     OW22066   2.308   1.192   7.474  0.4703  0.0768  0.9608
 3478SOL    HW122067   2.325   1.245   7.396 -2.5562 -0.1969  0.1109
 3478SOL    HW222068   2.326   1.244   7.552 -0.2171 -1.7036  2.3258
 3479SOL     OW22069   3.755   0.824   6.087  0.0946  0.3703  0.4049
 3479SOL    HW122070   3.698   0.750   6.068 -1.3581  1.0048  2.3063
 3479SOL    HW222071   3.705   0.905   6.078 -0.7952 -0.1762  0.3991
 3480SOL     OW22072   2.990   2.530  11.479  0.6717  0.7886 -0.4101
 3480SOL    HW122073   3.040   2.484  11.546 -2.1235 -2.1337 -0.3366
 3480SOL    HW222074   3.055   2.527  11.409  0.3754  0.0404 -0.6523
 3481SOL     OW22075   2.521   4.174   8.977  0.0639 -0.4371  0.6833
 3481SOL    HW122076   2.462   4.135   9.041 -1.2978  0.0780 -0.2569
 3481SOL    HW222077   2.566   4.097   8.943 -0.3867 -0.0260 -0.8451
 3482SOL     OW22078   2.284   0.461  14.585  0.0063  0.4101  0.2891
 3482SOL    HW122079   2.349   0.449  14.515  0.3581  0.7796  0.5533
 3482SOL    HW222080   2.255   0.547  14.554  2.7513  1.3797  0.3939
 3483SOL     OW22081   2.953   2.396   9.378  0.5125  0.0016  0.0928
 3483SOL    HW122082   2.901   2.462   9.423 -2.0104 -1.7731 -0.1981
 3483SOL    HW222083   2.964   2.443   9.295  0.3545  2.2373  1.3459
 3484SOL     OW22084   0.006   0.884   8.925  0.5175 -0.5131  0.0526
 3484SOL    HW122085   0.002   0.796   8.962 -1.0531 -0.4722 -0.0054
 3484SOL    HW222086   4.687   0.888   8.848  0.5719  1.2404  0.1043
 3485SOL     OW22087   4.589   4.527   3.731 -0.4510  0.0897  0.0710
 3485SOL    HW122088   4.679   4.552   3.752 -0.1297 -0.8246 -0.2101
 3485SOL    HW222089   4.611   4.440   3.697 -3.3238 -0.5357 -0.1594
 3486SOL     OW22090   2.561   3.656   2.479 -0.0863  0.1836  0.1923
 3486SOL    HW122091   2.646   3.618   2.461 -1.7126 -1.9725 -2.8463
 3486SOL    HW222092   2.580   3.745   2.448  1.2241  0.3917  1.6274
 3487SOL     OW22093   0.365   0.930   5.653 -0.2332  0.5229  0.4851
 3487SOL    HW122094   0.424   0.910   5.726  0.1949  1.1100  0.2994
 3487SOL    HW222095   0.283   0.909   5.697  1.0685  1.7300  3.4960
 3488SOL     OW22096   4.382   1.481   3.832 -0.1811  0.3006 -0.1676
 3488SOL    HW122097   4.367   1.426   3.754 -0.7177 -2.2769  1.7628
 3488SOL    HW222098   4.322   1.553   3.813  1.4946  1.2244 -2.0080
 3489SOL     OW22099   3.235   0.121   5.750  0.6731  0.1388 -0.2372
 3489SOL    HW122100   3.212   0.198   5.802 -0.3304  0.5680 -1.3163
 3489SOL    HW222101   3.166   0.127   5.684  0.7972  0.5887 -0.3262
 3490SOL     OW22102   0.448   2.203  11.733  0.1587  0.2924 -0.3443
 3490SOL    HW122103   0.494   2.149  11.668 -0.4362  0.9329 -1.2836
 3490SOL    HW222104   0.396   2.255  11.673  0.9419  2.8389  1.1898
 3491SOL     OW22105   1.688   4.262   6.635  0.4041  0.4560  0.3871
 3491SOL    HW122106   1.722   4.177   6.607  0.6781 -0.1702  2.6276
 3491SOL    HW222107   1.707   4.259   6.729  1.7125 -2.0050  0.0278
 3492SOL     OW22108   2.214   2.342   3.404  0.3298 -0.1562  0.4035
 3492SOL    HW122109   2.306   2.335   3.377  0.4800  1.5655  0.4773
 3492SOL    HW222110   2.192   2.422   3.357  3.4104  0.8543  0.7091
 3493SOL     OW22111   0.435   2.773   8.421 -0.1889  0.4738  0.0573
 3493SOL    HW122112   0.512   2.715   8.419 -1.5965 -1.4218  1.0136
 3493SOL    HW222113   0.478   2.857   8.407  1.7118 -0.3129  1.0958
 3494SOL     OW22114   1.231   1.970   9.894 -0.0311  0.0821 -0.4612
 3494SOL    HW122115   1.166   2.040   9.895 -1.4173 -1.1992 -0.6172
 3494SOL    HW222116   1.297   2.022   9.849  0.0656 -1.5841 -2.2812
 3495SOL     OW22117   2.620   2.103   2.708 -0.1519 -0.4974  0.2435
 3495SOL    HW122118   2.626   2.147   2.793 -0.9149  0.0233  0.0174
 3495SOL    HW222119   2.537   2.135   2.674  1.4915  2.1617 -1.2939
 3496SOL     OW22120   1.802   3.394   9.621  0.2678 -0.0573  0.3971
 3496SOL    HW122121   1.894   3.412   9.601 -0.5378  0.5309 -2.7984
 3496SOL    HW222122   1.805   3.306   9.657 -2.1113 -0.0699  0.5630
 3497SOL     OW22123   0.147   3.170  16.741 -0.0824 -0.3008  0.2497
 3497SOL    HW122124   0.138   3.223  16.662  0.1868 -2.3563 -1.1502
 3497SOL    HW222125   0.058   3.174  16.778 -0.0029 -0.1274  0.4265
 3498SOL     OW22126   4.680   1.104   7.323 -0.1441 -0.6826  0.1920
 3498SOL    HW122127   4.694   1.190   7.283 -1.6674  1.4008  4.1043
 3498SOL    HW222128   0.015   1.103   7.385 -0.8719 -4.1843  0.9753
 3499SOL     OW22129   3.790   0.739  13.406 -0.0972 -0.2827 -0.0605
 3499SOL    HW122130   3.817   0.649  13.427  2.0101 -0.0139 -1.6936
 3499SOL    HW222131   3.797   0.770  13.497 -0.3863 -1.5315  0.3844
 3500SOL     OW22132   0.091   0.785   4.006  0.3877  0.2454  0.9342
 3500SOL    HW122133   0.134   0.737   3.935 -2.1320 -0.8144  0.1305
 3500SOL    HW222134   0.083   0.872   3.968 -1.5137 -0.9022 -1.3110
 3501SOL     OW22135   4.288   4.035   9.186 -0.0474  0.1294  0.0479
 3501SOL    HW122136   4.213   4.072   9.233 -1.5263 -0.8938 -1.4945
 3501SOL    HW222137   4.296   3.942   9.207 -0.1074  0.1556  0.1860
 3502SOL     OW22138   3.066   1.039  16.419  0.2203  0.1792 -0.2506
 3502SOL    HW122139   2.983   1.082  16.400 -0.8443 -2.2439 -0.9999
 3502SOL    HW222140   3.036   0.961  16.466  0.2399  1.5658  2.1077
 3503SOL     OW22141   2.049   0.944   1.479  0.1591 -0.5044 -0.1340
 3503SOL    HW122142   2.023   1.016   1.421 -3.8038  0.0452  2.3304
 3503SOL    HW222143   2.137   0.974   1.503  0.3642 -0.8990 -0.3959
 3504SOL     OW22144   0.099   4.674   8.162 -0.1346  0.3666  0.0086
 3504SOL    HW122145   0.018   4.634   8.133 -0.6822  0.0649  1.9493
 3504SOL    HW222146   0.129   4.602   8.218  0.2376  1.0437  0.6786
 3505SOL     OW22147   4.045   3.019  12.531  0.0337  0.2997 -0.0439
 3505SOL    HW122148   4.000   3.103  12.541  0.1917  0.5333 -1.1878
 3505SOL    HW222149   4.114   3.029  12.465 -1.1132  1.8057 -1.0241
 3506SOL     OW22150   0.808   1.458   9.451 -0.1905 -0.2593 -0.0319
 3506SOL    HW122151   0.792   1.552   9.440 -1.6004 -0.6683 -1.4901
 3506SOL    HW222152   0.899   1.471   9.476 -0.0069 -2.3868  0.3751
 3507SOL     OW22153   0.118   1.236  16.049  0.4826 -0.1520 -0.2902
 3507SOL    HW122154   0.052   1.207  16.111 -0.1085  1.3723 -0.2013
 3507SOL    HW222155   0.089   1.326  16.036 -2.2519 -0.8939  0.7331
 3508SOL     OW22156   2.396   0.268  10.544  0.6283 -0.3833 -0.4500
 3508SOL    HW122157   2.333   0.252  10.474 -0.1083  1.2086 -0.1711
 3508SOL    HW222158   2.391   0.364  10.548 -0.6288 -0.4451 -0.4528
 3509SOL     OW22159   3.875   4.608   6.768 -0.3258 -0.3617  1.1685
 3509SOL    HW122160   3.811   4.665   6.812 -2.5171 -1.8863 -0.0504
 3509SOL    HW222161   3.885   4.663   6.690  0.7606 -0.7927  0.9993
 3510SOL     OW22162   1.547   1.661   7.488  0.0601 -0.2464 -0.1656
 3510SOL    HW122163   1.632   1.635   7.453  0.6393 -0.3388  1.2991
 3510SOL    HW222164   1.566   1.644   7.580 -1.0466  0.3078  0.1743
 3511SOL     OW22165   2.954   4.632   5.908 -0.0678 -0.1204 -0.3747
 3511SOL    HW122166   2.967   4.615   6.002 -1.4920 -0.4069 -0.2374
 3511SOL    HW222167   2.887   4.701   5.910  0.4230  0.3294  1.0399
 3512SOL     OW22168   4.197   3.681   0.790  0.2867  0.5362  0.2807
 3512SOL    HW122169   4.188   3.717   0.878 -1.6567  2.3395 -0.6533
 3512SOL    HW222170   4.175   3.588   0.801  2.4642 -0.2296 -1.5922
 3513SOL     OW22171   0.872   0.169   5.473 -0.2749 -0.1870 -0.4304
 3513SOL    HW122172   0.946   0.217   5.511  0.0065 -1.9558  1.2508
 3513SOL    HW222173   0.822   0.246   5.446  0.3219  0.4887  0.3872
 3514SOL     OW22174   4.580   3.692   9.207 -0.0534  0.4240 -0.7173
 3514SOL    HW122175   4.634   3.740   9.144  0.5518 -0.5474 -0.9385
 3514SOL    HW222176   4.641   3.671   9.277 -0.3750  3.1335  0.3888
 3515SOL     OW22177   1.569   4.555   3.257 -0.0026 -0.3907 -0.0218
 3515SOL    HW122178   1.605   4.620   3.318 -0.4339 -0.5846  0.4356
 3515SOL    HW222179   1.648   4.502   3.244  0.9259  1.1642 -0.7069
 3516SOL     OW22180   2.028   4.352   3.127  0.3179 -0.5236 -0.3450
 3516SOL    HW122181   2.097   4.415   3.150  1.1234 -1.5510  0.0561
 3516SOL    HW222182   1.981   4.391   3.054  1.7082 -0.6561 -1.3061
 3517SOL     OW22183   3.727   1.242   5.945 -0.5329 -0.0245  0.3657
 3517SOL    HW122184   3.739   1.230   5.851 -0.7690 -2.8360  0.6723
 3517SOL    HW222185   3.732   1.337   5.955 -0.8560  0.0348 -0.0729
 3518SOL     OW22186   0.722   3.206   4.601  0.1197 -0.2414  0.1443
 3518SOL    HW122187   0.750   3.281   4.547  1.6133 -1.3648 -0.6362
 3518SOL    HW222188   0.797   3.148   4.596  0.4392  0.0371  1.7919
 3519SOL     OW22189   1.879   0.501   6.311 -0.4994 -0.2262  0.1534
 3519SOL    HW122190   1.819   0.427   6.313 -0.1284 -0.5458 -0.4273
 3519SOL    HW222191   1.816   0.564   6.274 -0.0962 -0.0111 -0.1716
 3520SOL     OW22192   2.832   4.285   9.671  0.2678 -0.1735 -0.1862
 3520SOL    HW122193   2.769   4.294   9.600  0.8071 -1.8051 -0.8641
 3520SOL    HW222194   2.896   4.234   9.621  0.0749 -1.9427  1.3560
 3521SOL     OW22195   4.179   1.566   7.002 -0.0555  0.4786  0.1167
 3521SOL    HW122196   4.178   1.579   6.908 -1.2861 -1.8114 -0.1905
 3521SOL    HW222197   4.094   1.522   7.013 -0.1529  0.4584 -0.7518
 3522SOL     OW22198   4.699   1.306   1.347 -0.1231  0.2321 -0.0726
 3522SOL    HW122199   4.619   1.256   1.366 -0.1228 -0.1753 -1.1631
 3522SOL    HW222200   4.675   1.396   1.373  1.5082  0.5746  0.2320
 3523SOL     OW22201   2.095   0.197   3.113  0.0616 -0.5588  0.5233
 3523SOL    HW122202   2.088   0.259   3.186 -1.4703  0.3102 -0.3437
 3523SOL    HW222203   2.178   0.152   3.127  0.3264 -0.2520 -0.0503
 3524SOL     OW22204   4.706   3.383   0.155 -0.1255 -0.0648  0.2509
 3524SOL    HW122205   4.730   3.290   0.160 -0.4003 -0.3173 -3.1509
 3524SOL    HW222206   4.720   3.405   0.247  4.6595 -0.2811 -0.4692
 3525SOL     OW22207   0.157   2.342   1.234 -0.4778 -0.5522 -1.1994
 3525SOL    HW122208   0.193   2.420   1.192 -1.4028  0.2102 -0.5468
 3525SOL    HW222209   0.098   2.305   1.169 -1.9231  0.5104 -0.4822
 3526SOL     OW22210   0.278   1.995  11.449  0.0192 -0.3043  0.4589
 3526SOL    HW122211   0.367   2.026  11.434  0.2054 -0.9302  0.2748
 3526SOL    HW222212   0.297   1.941  11.526  1.0046 -0.6253 -0.0095
 3527SOL     OW22213   2.228   0.799   9.100  0.3101 -1.0931 -0.9198
 3527SOL    HW122214   2.297   0.764   9.157 -1.2925 -0.7055  1.2702
 3527SOL    HW222215   2.145   0.788   9.145  0.5813 -0.6065 -0.3028
 3528SOL     OW22216   4.486   3.159   2.057  0.5200 -0.1237  0.7087
 3528SOL    HW122217   4.573   3.185   2.088 -0.3016  2.2594  0.9702
 3528SOL    HW222218   4.498   3.065   2.042  0.4454 -0.2106  1.2114
 3529SOL     OW22219   2.677   0.902   5.451 -0.0435 -0.0722  0.0467
 3529SOL    HW122220   2.742   0.924   5.384 -0.5763 -0.0012 -0.4384
 3529SOL    HW222221   2.710   0.815   5.475 -0.9519 -0.0804  1.2937
 3530SOL     OW22222   2.097   1.073   2.042 -0.2833  0.5932 -0.0731
 3530SOL    HW122223   2.025   1.076   2.105  0.0346 -0.3620  0.3480
 3530SOL    HW222224   2.075   1.152   1.994  0.7963 -0.2691 -2.0143
 3531SOL     OW22225   3.820   2.279   5.255 -0.1345  0.2253  0.1390
 3531SOL    HW122226   3.778   2.342   5.313 -0.0682 -0.2765  0.7385
 3531SOL    HW222227   3.762   2.203   5.266  0.6980 -0.1350  2.0865
 3532SOL     OW22228   3.730   3.262  11.810 -0.2947 -0.3008  0.1406
 3532SOL    HW122229   3.640   3.265  11.780 -0.1461  0.1604 -0.2648
 3532SOL    HW222230   3.770   3.199  11.751 -0.7253  2.2065 -2.8084
 3533SOL     OW22231   2.452   0.597   4.150  0.1155  0.2770 -0.4675
 3533SOL    HW122232   2.506   0.544   4.210  0.2142  1.7594  0.7454
 3533SOL    HW222233   2.365   0.565   4.174 -0.2777  0.1636 -2.0519
 3534SOL     OW22234   2.950   4.011   8.176  0.4035  0.3027 -0.8942
 3534SOL    HW122235   2.913   4.098   8.187 -0.0377 -0.0728  0.5479
 3534SOL    HW222236   3.007   4.002   8.252 -0.3747  0.2554 -0.3186
 3535SOL     OW22237   0.063   2.519  11.128 -0.4236 -0.2116  0.2887
 3535SOL    HW122238   0.037   2.551  11.215  0.3564  1.2000  0.0107
 3535SOL    HW222239   4.712   2.501  11.099 -0.9006  2.6855 -0.0961
 3536SOL     OW22240   4.184   0.329   7.154  0.5328  0.3054 -0.0514
 3536SOL    HW122241   4.101   0.349   7.111 -0.9765 -2.3107  1.7043
 3536SOL    HW222242   4.218   0.277   7.082 -1.1290 -1.3107  0.3399
 3537SOL     OW22243   0.624   3.426  16.628 -0.0468  0.2391  0.5749
 3537SOL    HW122244   0.620   3.415  16.533 -0.0297  1.2138  0.4599
 3537SOL    HW222245   0.688   3.498  16.631  0.5684 -0.2458 -0.7164
 3538SOL     OW22246   4.693   1.121   4.219 -0.1076  0.5001  0.3233
 3538SOL    HW122247   0.003   1.194   4.260 -0.0279  0.5631  0.1167
 3538SOL    HW222248   0.006   1.109   4.140  0.6968 -1.2293  1.1172
 3539SOL     OW22249   0.866   4.496  11.289  0.3375 -0.4654  0.6027
 3539SOL    HW122250   0.782   4.506  11.332 -0.2766 -2.3642 -0.1475
 3539SOL    HW222251   0.921   4.489  11.367  2.0157 -1.4446 -0.6515
 3540SOL     OW22252   3.503   3.466   0.805  0.3561 -0.2141  0.0818
 3540SOL    HW122253   3.560   3.523   0.858 -1.2005  1.3385  0.0772
 3540SOL    HW222254   3.426   3.523   0.803  1.6074  1.4543 -1.2517
 3541SOL     OW22255   4.114   2.015   7.718 -0.7129  0.3020 -0.2337
 3541SOL    HW122256   4.186   1.976   7.669 -0.4826  0.2236  0.1787
 3541SOL    HW222257   4.143   2.104   7.740 -1.6560  0.4938  0.2375
 3542SOL     OW22258   3.568   1.757   5.085  0.0196 -0.5430 -0.4757
 3542SOL    HW122259   3.612   1.790   5.006 -0.1166  1.4299  0.2678
 3542SOL    HW222260   3.479   1.788   5.067  0.4295  0.1930 -1.2865
 3543SOL     OW22261   4.694   3.027   2.789  0.5475 -0.3331 -0.1770
 3543SOL    HW122262   0.035   3.066   2.750  1.2822 -0.8619  0.7641
 3543SOL    HW222263   4.726   3.032   2.880  1.0660  1.0153 -0.4315
 3544SOL     OW22264   4.612   3.137   6.592 -0.1520 -0.7975  0.2253
 3544SOL    HW122265   4.543   3.186   6.636 -1.5088 -0.7190 -1.9574
 3544SOL    HW222266   4.686   3.196   6.609 -1.4042  0.7826  0.1939
 3545SOL     OW22267   4.241   3.681   7.565 -0.6771 -0.1595  0.2345
 3545SOL    HW122268   4.177   3.752   7.558 -2.3855 -1.8145 -0.8271
 3545SOL    HW222269   4.328   3.722   7.568 -0.6841 -0.1794  0.6309
 3546SOL     OW22270   3.097   3.434   5.832  0.0821 -0.2919 -0.6953
 3546SOL    HW122271   3.070   3.428   5.923 -2.0472  1.0848 -1.2364
 3546SOL    HW222272   3.191   3.450   5.838  0.0190 -0.4565  0.7033
 3547SOL     OW22273   3.900   0.740   5.828  0.2770  0.3163  0.4084
 3547SOL    HW122274   3.893   0.763   5.920 -0.5209  0.2409  0.3647
 3547SOL    HW222275   3.837   0.804   5.795  3.2460  3.3271  0.5695
 3548SOL     OW22276   0.562   0.978   8.456 -0.5178  0.0710 -0.4036
 3548SOL    HW122277   0.635   0.944   8.405 -0.6900 -0.4025 -0.3288
 3548SOL    HW222278   0.498   0.975   8.386 -3.6062 -0.6110  2.4724
 3549SOL     OW22279   4.563   2.489  16.039 -0.3026 -0.4301 -0.5720
 3549SOL    HW122280   4.630   2.489  16.107  0.9934 -0.7896 -1.8699
 3549SOL    HW222281   4.610   2.487  15.956  1.0638 -2.7035  0.2713
 3550SOL     OW22282   3.501   3.998   6.036 -0.5263  0.7090  0.1858
 3550SOL    HW122283   3.575   3.951   5.996  0.5658  0.0459  2.9436
 3550SOL    HW222284   3.538   3.974   6.121 -0.8365  1.5948  0.5629
 3551SOL     OW22285   3.493   3.216   2.138  0.2919 -0.4379  0.0288
 3551SOL    HW122286   3.429   3.176   2.079  0.6705 -0.5730 -0.2920
 3551SOL    HW222287   3.566   3.233   2.078 -1.9122  0.5519 -2.3868
 3552SOL     OW22288   2.680   1.019   5.954  0.1681 -0.2290 -0.2845
 3552SOL    HW122289   2.628   1.072   5.893  1.2088  0.3338 -0.6929
 3552SOL    HW222290   2.625   1.013   6.031 -0.1843  1.6210 -0.3952
 3553SOL     OW22291   0.625   0.860  10.541 -0.0535 -0.1202  0.3313
 3553SOL    HW122292   0.534   0.866  10.512  0.3098 -1.9016 -1.1658
 3553SOL    HW222293   0.674   0.850  10.459  0.2225 -0.3832  0.5305
 3554SOL     OW22294   3.927   3.637   6.976 -0.3834 -0.0160 -0.2312
 3554SOL    HW122295   3.950   3.658   6.886 -2.0780  0.0025 -0.6586
 3554SOL    HW222296   3.965   3.550   6.992 -0.5140 -0.3568 -1.7573
 3555SOL     OW22297   4.365   3.075   1.267  0.5863  0.1237 -0.1381
 3555SOL    HW122298   4.386   3.080   1.361 -1.7530 -1.9992  0.4846
 3555SOL    HW222299   4.312   3.155   1.261 -3.1891 -2.4852 -1.2147
 3556SOL     OW22300   1.120   4.463   4.059  0.3928 -0.5240 -0.0177
 3556SOL    HW122301   1.084   4.478   4.146 -1.4796  0.0556 -0.8762
 3556SOL    HW222302   1.208   4.436   4.084  0.8902  1.4425  0.3532
 3557SOL     OW22303   3.086   1.352   2.460  0.3559  0.2341  0.3033
 3557SOL    HW122304   3.123   1.280   2.512 -0.3764  0.4793  1.1696
 3557SOL    HW222305   3.057   1.307   2.381 -1.1949  0.9178  0.4796
 3558SOL     OW22306   1.858   2.728   7.012  0.0851 -0.0018 -0.2797
 3558SOL    HW122307   1.773   2.718   6.971  1.0387 -3.7574 -1.3648
 3558SOL    HW222308   1.836   2.681   7.093 -0.0085 -4.7912 -3.0813
 3559SOL     OW22309   4.462   4.563   5.782  0.2377  0.6445 -0.2836
 3559SOL    HW122310   4.378   4.584   5.740 -0.8624  0.7220  1.9610
 3559SOL    HW222311   4.496   4.479   5.750 -1.0736  0.1463 -0.3616
 3560SOL     OW22312   2.088   2.257  12.735  0.6079  0.9653 -0.4508
 3560SOL    HW122313   2.139   2.338  12.740  2.0748  0.0123  0.0376
 3560SOL    HW222314   1.998   2.290  12.736  1.2082  2.5907 -0.0673
 3561SOL     OW22315   2.826   1.322  12.995 -0.2664  0.7565  0.3290
 3561SOL    HW122316   2.780   1.381  12.935  0.8402 -0.7711 -2.0354
 3561SOL    HW222317   2.752   1.284  13.042 -0.0090 -0.0513  0.0858
 3562SOL     OW22318   1.805   4.343   4.229 -0.0201 -0.2015 -0.1462
 3562SOL    HW122319   1.778   4.378   4.144  2.4483  0.7505 -0.5414
 3562SOL    HW222320   1.832   4.253   4.208 -0.0325 -0.2776  0.1616
 3563SOL     OW22321   0.778   4.107   2.714  0.4547  0.1361 -0.4968
 3563SOL    HW122322   0.691   4.119   2.675 -0.8293 -2.6599  1.4989
 3563SOL    HW222323   0.746   4.063   2.793  0.3566  0.1627 -0.5209
 3564SOL     OW22324   2.548   1.317  11.578  0.4442  0.3980 -0.0947
 3564SOL    HW122325   2.495   1.359  11.511  0.9513  2.6370  0.9165
 3564SOL    HW222326   2.579   1.243  11.526 -1.6896  2.2480 -3.9800
 3565SOL     OW22327   0.990   4.195   1.458  0.5802 -0.3051  0.1934
 3565SOL    HW122328   0.960   4.124   1.515 -1.5799  0.0397 -0.5354
 3565SOL    HW222329   0.991   4.265   1.524  1.3851  0.9618 -1.1539
 3566SOL     OW22330   1.797   4.462   5.750 -0.1156 -0.6538 -0.1789
 3566SOL    HW122331   1.719   4.412   5.728 -0.9806  0.2248  0.8884
 3566SOL    HW222332   1.791   4.471   5.845  1.8864 -1.1612 -0.0026
 3567SOL     OW22333   0.822   3.183   2.437 -0.3426  0.0734 -0.0894
 3567SOL    HW122334   0.882   3.193   2.510  2.3751  1.6632 -2.5295
 3567SOL    HW222335   0.750   3.238   2.469  0.6362  0.6729  1.0663
 3568SOL     OW22336   4.040   1.839   6.271  0.4292 -0.3061  0.3674
 3568SOL    HW122337   4.023   1.857   6.178 -2.6310 -2.3795  0.5102
 3568SOL    HW222338   3.952   1.825   6.307  0.0974  1.8606  0.3677
 3569SOL     OW22339   3.239   1.105  10.444  0.2590 -0.0602 -0.5867
 3569SOL    HW122340   3.147   1.112  10.470 -0.5467 -0.9834 -3.1494
 3569SOL    HW222341   3.232   1.038  10.375 -2.3901  2.2567 -2.5384
 3570SOL     OW22342   3.498   3.892   5.162 -0.0506  0.2362 -0.7004
 3570SOL    HW122343   3.489   3.972   5.215  2.5011 -1.0553  1.6923
 3570SOL    HW222344   3.474   3.826   5.228  1.5886 -2.1171 -2.4763
 3571SOL     OW22345   3.481   3.065  17.309  0.0252 -0.0146  0.6077
 3571SOL    HW122346   3.399   3.087  17.353  0.8283 -0.6751  2.4520
 3571SOL    HW222347   3.544   3.124  17.351  0.7723 -1.2011  1.1577
 3572SOL     OW22348   1.773   1.903   7.375 -0.1420  0.1844  0.0378
 3572SOL    HW122349   1.759   1.809   7.372  0.3020  0.1483 -0.7670
 3572SOL    HW222350   1.786   1.921   7.282  0.7605  0.0112  0.1320
 3573SOL     OW22351   0.595   1.170   7.671  0.0117  0.2488 -0.2027
 3573SOL    HW122352   0.594   1.255   7.627  0.8255  0.6523  0.5443
 3573SOL    HW222353   0.523   1.169   7.733 -1.3436 -1.8404 -1.8111
 3574SOL     OW22354   1.080   4.533   4.672  0.9318 -0.4040 -0.1856
 3574SOL    HW122355   1.140   4.487   4.613  0.8788  0.6834 -1.0885
 3574SOL    HW222356   1.084   4.623   4.639  1.7441 -0.2182  0.4282
 3575SOL     OW22357   2.898   0.030  16.228  0.2671 -0.1557 -0.4883
 3575SOL    HW122358   2.993   0.020  16.228  0.4562  1.5392  1.3548
 3575SOL    HW222359   2.872   4.713  16.154  0.1002  1.0682 -1.3410
 3576SOL     OW22360   2.283   0.731   4.379  0.1684  0.0413  0.4180
 3576SOL    HW122361   2.359   0.692   4.422  0.5485 -0.7170 -0.9268
 3576SOL    HW222362   2.259   0.657   4.324 -2.4800  1.9874 -1.0501
 3577SOL     OW22363   1.191   2.044   1.877  0.2269 -0.2635  0.2868
 3577SOL    HW122364   1.270   2.087   1.909  0.3248  0.1367 -0.5060
 3577SOL    HW222365   1.220   1.958   1.846 -0.1865 -0.8519  1.5326
 3578SOL     OW22366   1.749   2.450   6.677  0.0300 -0.1418  0.2443
 3578SOL    HW122367   1.801   2.528   6.656  1.4662 -1.4961 -1.1918
 3578SOL    HW222368   1.696   2.495   6.743  0.2750 -2.1064  1.7655
 3579SOL     OW22369   3.334   1.972  15.467  0.3625 -0.2674  0.0773
 3579SOL    HW122370   3.279   1.986  15.390  1.2798 -0.5108 -0.6188
 3579SOL    HW222371   3.418   1.969  15.421  0.8714 -1.6203  1.0888
 3580SOL     OW22372   4.732   2.762   6.869  0.2583 -0.2294 -0.4269
 3580SOL    HW122373   4.715   2.735   6.779  0.3292  0.3172 -0.6080
 3580SOL    HW222374   4.659   2.817   6.899  1.0389  1.4294 -1.5515
 3581SOL     OW22375   0.819   3.366   1.940  0.2357 -0.5346 -0.1348
 3581SOL    HW122376   0.763   3.414   2.001 -0.5115  0.5023 -1.6267
 3581SOL    HW222377   0.862   3.442   1.901  1.2551 -0.7221  0.6373
 3582SOL     OW22378   2.246   3.054   9.725  0.4876  0.1295 -0.5227
 3582SOL    HW122379   2.173   2.996   9.703 -0.4347  0.7746  0.7980
 3582SOL    HW222380   2.227   3.072   9.817  1.5393  1.0186 -0.4699
 3583SOL     OW22381   3.939   4.406  11.463 -0.0024 -0.2435  0.4635
 3583SOL    HW122382   3.984   4.490  11.453 -0.6950  0.3223  2.1152
 3583SOL    HW222383   4.014   4.352  11.488  0.1989 -0.2216 -0.0971
 3584SOL     OW22384   3.964   4.428   8.162 -0.0685  1.0409  0.0133
 3584SOL    HW122385   4.052   4.461   8.143  0.8296 -0.8237  0.9953
 3584SOL    HW222386   3.940   4.368   8.092 -0.1688 -2.1704  2.7917
 3585SOL     OW22387   1.443   0.876   9.103 -0.1072 -0.2109  0.3149
 3585SOL    HW122388   1.438   0.967   9.133  1.1009  0.4236 -1.4025
 3585SOL    HW222389   1.467   0.878   9.010  0.3032 -1.0844  0.4095
 3586SOL     OW22390   0.625   3.417  15.372  0.3141 -0.3271  0.1170
 3586SOL    HW122391   0.685   3.490  15.388 -0.5957  0.5463 -0.4212
 3586SOL    HW222392   0.599   3.410  15.281 -0.4466  1.3577  0.2027
 3587SOL     OW22393   3.814   2.863   3.073  0.0920 -0.2251 -1.0677
 3587SOL    HW122394   3.836   2.949   3.110 -3.8401  0.6026 -0.7109
 3587SOL    HW222395   3.724   2.877   3.044 -1.7555 -4.1374  2.7681
 3588SOL     OW22396   4.558   1.860   7.023  0.8251 -0.1190 -0.3797
 3588SOL    HW122397   4.498   1.935   7.022 -1.9362 -2.3336  1.2430
 3588SOL    HW222398   4.504   1.799   6.974 -0.6297  0.5586  0.3679
 3589SOL     OW22399   1.678   2.149   5.034  0.6703  0.1555 -0.2407
 3589SOL    HW122400   1.701   2.171   5.124  0.4045  0.7629 -0.3253
 3589SOL    HW222401   1.583   2.151   5.049  0.7359 -2.1809  0.5469
 3590SOL     OW22402   2.712   3.746   4.714 -0.0852  0.4648  0.1979
 3590SOL    HW122403   2.647   3.723   4.780  0.2983 -1.7617 -0.2124
 3590SOL    HW222404   2.677   3.832   4.691 -0.5346  0.8073  2.1531
 3591SOL     OW22405   3.315   2.591  11.343  0.1128  0.1241 -0.8317
 3591SOL    HW122406   3.341   2.509  11.386  0.7882  0.1053 -1.2822
 3591SOL    HW222407   3.332   2.569  11.252  0.1488  0.6019 -0.9360
 3592SOL     OW22408   0.797   1.818   3.104  0.2047  0.0749  0.5584
 3592SOL    HW122409   0.710   1.795   3.138 -0.9408  1.1688 -1.6037
 3592SOL    HW222410   0.791   1.914   3.103  3.2560  0.2703  1.2857
 3593SOL     OW22411   2.320   0.665   7.022 -0.2962 -0.0516  0.0688
 3593SOL    HW122412   2.263   0.599   7.063  0.0295  0.2525  1.0214
 3593SOL    HW222413   2.322   0.730   7.092  0.7450  0.6755 -0.6313
 3594SOL     OW22414   3.167   4.055   5.230 -0.1708 -0.5651 -0.1661
 3594SOL    HW122415   3.126   4.082   5.148 -2.7868  1.7601  1.9389
 3594SOL    HW222416   3.095   4.077   5.288  1.2655  2.2552  0.5123
 3595SOL     OW22417   2.745   4.383   8.556 -0.4011 -0.1656  0.3265
 3595SOL    HW122418   2.728   4.296   8.594  0.6801 -1.1053 -1.3197
 3595SOL    HW222419   2.815   4.411   8.615  1.1457 -0.4904 -1.3804
 3596SOL     OW22420   1.868   1.743   1.859 -0.1332 -0.1135  0.3947
 3596SOL    HW122421   1.956   1.710   1.845 -0.8597 -2.3210  1.0515
 3596SOL    HW222422   1.838   1.769   1.771  0.8838  1.1796  0.4345
 3597SOL     OW22423   2.123   1.486   5.367  0.6039 -0.2924 -0.0269
 3597SOL    HW122424   2.102   1.466   5.276  0.6896 -1.1847  0.1451
 3597SOL    HW222425   2.150   1.576   5.351 -2.3265  0.8819  1.6614
 3598SOL     OW22426   1.911   3.573   5.937  0.3500 -0.1012  0.5991
 3598SOL    HW122427   1.826   3.551   5.976  0.5278 -0.3414  0.8504
 3598SOL    HW222428   1.959   3.497   5.970  2.6719  1.0904 -0.0382
 3599SOL     OW22429   1.255   2.197  17.503 -0.2851 -0.1757  0.4650
 3599SOL    HW122430   1.331   2.213  17.559 -0.0436 -0.8524  0.3277
 3599SOL    HW222431   1.177   2.216  17.555 -2.3560 -2.3092 -1.8342
 3600SOL     OW22432   0.366   4.081   9.594  0.1853 -0.1300  0.0022
 3600SOL    HW122433   0.280   4.046   9.620 -0.8516  0.6129 -2.3996
 3600SOL    HW222434   0.401   4.007   9.544 -1.0729 -0.6658 -0.1143
 3601SOL     OW22435   2.151   0.554   5.847 -0.0785 -0.0892  0.3837
 3601SOL    HW122436   2.226   0.499   5.825 -1.8169 -1.8185 -1.1911
 3601SOL    HW222437   2.104   0.555   5.763 -1.2024  0.1404  1.0120
 3602SOL     OW22438   2.732   3.560   5.747  0.6622 -0.2047  0.1560
 3602SOL    HW122439   2.723   3.651   5.775  0.5175 -0.1593 -0.0394
 3602SOL    HW222440   2.724   3.505   5.825  1.3116 -0.7417 -0.1524
 3603SOL     OW22441   0.216   3.125   6.505  0.2854  0.0182  0.6196
 3603SOL    HW122442   0.182   3.044   6.544  1.4309 -1.4205 -1.3711
 3603SOL    HW222443   0.157   3.130   6.430 -2.8018  0.1576  3.0593
 3604SOL     OW22444   0.117   1.428  17.540  0.2296 -0.6370  0.0568
 3604SOL    HW122445   0.205   1.420  17.506 -0.4687  3.0256 -2.6325
 3604SOL    HW222446   0.103   1.339  17.573 -0.7916  0.2263  1.9702
 3605SOL     OW22447   1.717   1.096   2.984 -0.8914 -0.7292  0.5789
 3605SOL    HW122448   1.628   1.061   2.990 -0.3613 -2.3625 -1.1063
 3605SOL    HW222449   1.763   1.048   3.053 -0.7679 -1.6195 -0.1209
 3606SOL     OW22450   2.210   1.676   5.823  0.2382  0.2938 -0.4775
 3606SOL    HW122451   2.293   1.633   5.801  1.6469  1.4090  2.7018
 3606SOL    HW222452   2.153   1.607   5.789  0.7675  0.7331 -2.2377
 3607SOL     OW22453   4.485   2.521   8.111  0.0084  0.8033  0.6663
 3607SOL    HW122454   4.448   2.600   8.071 -1.2370  0.0179  0.2762
 3607SOL    HW222455   4.443   2.526   8.197  0.7507 -1.1583  1.1439
 3608SOL     OW22456   0.263   1.141   1.051 -0.2606  0.2932  0.2480
 3608SOL    HW122457   0.202   1.215   1.045 -0.0814  0.4236  0.0098
 3608SOL    HW222458   0.213   1.086   1.111  0.0706  0.0059  0.2602
 3609SOL     OW22459   2.185   4.271   7.759  0.0510  0.5818 -0.5015
 3609SOL    HW122460   2.258   4.289   7.818  0.1483  0.1991 -0.5090
 3609SOL    HW222461   2.208   4.319   7.679 -2.1730 -3.4544 -3.5375
 3610SOL     OW22462   0.528   1.999   2.972  0.3756 -0.4713  0.4034
 3610SOL    HW122463   0.484   2.082   2.953  1.3830 -0.2464 -0.9363
 3610SOL    HW222464   0.512   1.938   2.900  1.2982  3.1550 -2.8612
 3611SOL     OW22465   2.274   4.481  14.635  0.0508 -0.1757 -0.5964
 3611SOL    HW122466   2.264   4.400  14.584 -1.5740 -0.2161 -0.2114
 3611SOL    HW222467   2.357   4.512  14.599  1.0274  0.9516  2.6617
 3612SOL     OW22468   0.286   2.323  10.380 -0.0901  0.1824 -0.5390
 3612SOL    HW122469   0.320   2.412  10.372 -0.0389  0.1610 -0.5619
 3612SOL    HW222470   0.239   2.302  10.299 -2.1015  1.6355  0.2411
 3613SOL     OW22471   1.488   4.521   6.241  0.0186  0.2613 -0.0805
 3613SOL    HW122472   1.455   4.585   6.305  0.3751  0.8313 -0.4657
 3613SOL    HW222473   1.409   4.467   6.237 -1.6868  2.8300 -0.8714
 3614SOL     OW22474   0.716   1.792   2.070  0.2817  0.2628 -0.3973
 3614SOL    HW122475   0.623   1.773   2.064  0.1902  0.5423  0.2119
 3614SOL    HW222476   0.762   1.709   2.053  0.0667  0.3550 -1.4087
 3615SOL     OW22477   3.913   4.286  16.036 -0.3406  0.4390 -0.0388
 3615SOL    HW122478   3.905   4.352  16.106 -1.5316 -1.0161  1.1879
 3615SOL    HW222479   3.853   4.313  15.967 -0.9811 -1.9285 -0.3997
 3616SOL     OW22480   3.613   2.331   0.087 -0.6409  0.5226  1.0502
 3616SOL    HW122481   3.707   2.315   0.074 -1.1111  0.1721 -1.8686
 3616SOL    HW222482   3.584   2.242   0.071 -0.5817  0.9127 -1.2545
 3617SOL     OW22483   3.765   1.204   5.675 -0.3590 -0.3705  0.1985
 3617SOL    HW122484   3.738   1.237   5.590  0.1976  0.3053  0.2881
 3617SOL    HW222485   3.839   1.257   5.702 -0.6075  0.5819 -1.0431
 3618SOL     OW22486   0.396   0.923   4.579 -0.0524  0.1127  0.0188
 3618SOL    HW122487   0.351   0.970   4.509  1.9097 -0.2404 -1.4919
 3618SOL    HW222488   0.423   0.844   4.532  0.0225 -0.3172  0.7832
 3619SOL     OW22489   3.897   1.802   5.683  0.2542  0.3880  0.6209
 3619SOL    HW122490   3.829   1.780   5.746 -0.2044  0.7407  0.2474
 3619SOL    HW222491   3.844   1.792   5.605  0.7649 -1.5703  0.5476
 3620SOL     OW22492   0.993   4.317   1.719  0.0618  0.2054  0.7704
 3620SOL    HW122493   0.917   4.361   1.681 -1.4352 -1.4136  1.9318
 3620SOL    HW222494   0.975   4.306   1.812 -1.6682 -3.2821  0.0102
 3621SOL     OW22495   2.146   0.928   1.069  0.3349 -0.4382  0.6083
 3621SOL    HW122496   2.053   0.905   1.078  0.5369 -2.1560 -1.7013
 3621SOL    HW222497   2.160   0.900   0.979 -0.7325 -3.6999  1.4609
 3622SOL     OW22498   2.394   2.864   1.748 -0.1528 -0.1681  0.3515
 3622SOL    HW122499   2.400   2.788   1.690  1.8839  0.5180 -0.3379
 3622SOL    HW222500   2.393   2.926   1.675 -0.9439 -1.5017 -0.7609
 3623SOL     OW22501   1.894   2.150   4.361  0.5191 -0.1533  0.3846
 3623SOL    HW122502   1.880   2.176   4.270  2.6448 -0.1817  0.0527
 3623SOL    HW222503   1.803   2.162   4.389  0.6688  1.8122  0.0235
 3624SOL     OW22504   2.167   0.106  13.490 -0.3999 -0.2366  0.2883
 3624SOL    HW122505   2.205   0.048  13.424  1.5799  1.7441 -0.2897
 3624SOL    HW222506   2.158   0.191  13.448  0.5147 -1.3908 -2.2808
 3625SOL     OW22507   2.902   0.358   8.037  0.2930  0.5535 -0.0271
 3625SOL    HW122508   2.930   0.307   7.961  3.1163  3.3170 -0.8516
 3625SOL    HW222509   2.813   0.329   8.055 -0.0526  0.8324 -1.3168
 3626SOL     OW22510   1.828   4.102  11.116 -0.5038 -0.2948 -0.1855
 3626SOL    HW122511   1.790   4.056  11.191 -1.8884 -2.7857 -2.4194
 3626SOL    HW222512   1.775   4.061  11.048 -1.3412 -0.5336  0.6110
 3627SOL     OW22513   3.218   2.066   8.350  0.6394 -0.3091 -0.6608
 3627SOL    HW122514   3.215   2.043   8.443 -3.1045  0.6756 -0.5433
 3627SOL    HW222515   3.148   2.130   8.357  2.3473  1.5160 -0.3968
 3628SOL     OW22516   3.807   2.806   0.203  0.0270  0.7109  0.8015
 3628SOL    HW122517   3.836   2.745   0.270  1.1516  1.7258  1.2307
 3628SOL    HW222518   3.863   2.879   0.228 -1.4766  1.5851  1.6308
 3629SOL     OW22519   1.324   1.974  12.355 -0.2832  0.4177 -0.0361
 3629SOL    HW122520   1.328   1.917  12.278 -1.0305  1.8891 -1.1456
 3629SOL    HW222521   1.394   1.934  12.406  0.0175  1.2966  0.2323
 3630SOL     OW22522   3.904   3.282   4.046  0.0376 -0.1751  0.1750
 3630SOL    HW122523   3.903   3.362   3.993 -1.5199 -0.0741  0.3463
 3630SOL    HW222524   3.948   3.306   4.127 -2.1294 -0.2691  1.3737
 3631SOL     OW22525   3.768   0.917  12.942 -0.1797 -0.7645  0.6910
 3631SOL    HW122526   3.692   0.859  12.939  0.7277 -1.9402  0.4795
 3631SOL    HW222527   3.812   0.872  13.013  2.4989  0.1746 -0.3409
 3632SOL     OW22528   0.745   0.989  17.056  0.3286 -0.2630 -0.1009
 3632SOL    HW122529   0.755   0.937  16.976  0.5871 -1.8926  0.9947
 3632SOL    HW222530   0.680   0.940  17.107 -0.3144  1.2076  0.4963
 3633SOL     OW22531   3.699   2.508  17.501  0.0714  0.1997 -0.3168
 3633SOL    HW122532   3.788   2.505  17.536  0.1425 -1.6641 -0.6361
 3633SOL    HW222533   3.695   2.593  17.456  1.3036 -0.0386 -0.8695
 3634SOL     OW22534   3.174   2.108   1.966 -0.3925 -0.4365  0.1143
 3634SOL    HW122535   3.141   2.019   1.957  0.5205 -0.7268 -0.3287
 3634SOL    HW222536   3.215   2.100   2.052 -0.6989 -1.0221  0.2074
 3635SOL     OW22537   0.079   0.764   3.264  0.1696 -0.7980 -0.1433
 3635SOL    HW122538   0.062   0.857   3.275  1.9361 -0.6901  1.6647
 3635SOL    HW222539   0.167   0.766   3.226  0.6034  1.6802  1.0148
 3636SOL     OW22540   1.156   3.929   6.345 -0.0358 -0.1763  0.0895
 3636SOL    HW122541   1.176   3.839   6.370 -2.2627 -0.0470  2.3346
 3636SOL    HW222542   1.147   3.981   6.425 -0.0377 -0.0446  0.0033
 3637SOL     OW22543   1.576   4.291   5.804 -0.0853 -0.3235 -0.1738
 3637SOL    HW122544   1.581   4.196   5.798 -3.5704 -0.6270  1.7079
 3637SOL    HW222545   1.507   4.320   5.744 -0.4643 -1.3719 -0.2511
 3638SOL     OW22546   2.009   4.553   4.069 -0.1258 -0.0963  0.1524
 3638SOL    HW122547   2.047   4.620   4.013  1.3688 -1.7898 -0.8868
 3638SOL    HW222548   1.923   4.591   4.084  0.6589  0.9558  2.0380
 3639SOL     OW22549   4.129   0.302   0.598  0.0603  0.0946  0.5664
 3639SOL    HW122550   4.102   0.394   0.591  0.9098  0.6508  4.4578
 3639SOL    HW222551   4.048   0.253   0.613 -0.8014  2.0761  2.4149
 3640SOL     OW22552   1.423   2.675   3.593 -0.2435  0.5293 -0.3328
 3640SOL    HW122553   1.499   2.733   3.583 -0.0744  0.3154 -0.2750
 3640SOL    HW222554   1.379   2.720   3.520 -2.5250  1.3883  1.5844
 3641SOL     OW22555   2.412   0.614  13.082 -0.2497  0.6998 -0.6132
 3641SOL    HW122556   2.406   0.527  13.044 -1.6340  1.0123 -1.1244
 3641SOL    HW222557   2.391   0.607  13.175  1.1856  1.3165 -0.2383
 3642SOL     OW22558   1.260   2.084   0.778 -0.0102 -0.5584  0.8420
 3642SOL    HW122559   1.165   2.079   0.777 -0.1411  1.7003  1.0275
 3642SOL    HW222560   1.273   2.150   0.846 -0.5439  0.9380 -0.5097
 3643SOL     OW22561   3.253   4.380   3.491 -0.0660 -0.1833 -0.2308
 3643SOL    HW122562   3.240   4.473   3.472  3.3488  0.3594  0.1482
 3643SOL    HW222563   3.159   4.360   3.491 -0.0500 -0.2736 -0.6630
 3644SOL     OW22564   1.298   2.645  10.090 -0.0405 -0.1002  0.1554
 3644SOL    HW122565   1.370   2.705  10.071  1.0456 -1.7799 -1.0123
 3644SOL    HW222566   1.315   2.584  10.019 -0.0664  0.0241  0.0428
 3645SOL     OW22567   2.980   1.814   3.946 -0.3908  0.1049  0.0702
 3645SOL    HW122568   2.991   1.787   3.854 -0.2308 -3.8882  1.2625
 3645SOL    HW222569   2.886   1.832   3.954 -0.5115  0.7167 -2.7059
 3646SOL     OW22570   3.220   0.887  13.680  0.6830 -0.0918  0.4821
 3646SOL    HW122571   3.194   0.891  13.772 -2.0600  1.1804 -0.3606
 3646SOL    HW222572   3.315   0.876  13.693  0.3140 -1.6187  1.9296
 3647SOL     OW22573   4.610   2.893   4.304  0.4625  0.6067 -0.3496
 3647SOL    HW122574   4.588   2.804   4.277 -1.8420  1.4714 -1.2927
 3647SOL    HW222575   4.526   2.936   4.318  1.2986  1.9320  0.5493
 3648SOL     OW22576   1.108   4.046  13.426  0.3582  0.4405  0.7194
 3648SOL    HW122577   1.014   4.041  13.410  0.1985 -0.0205  1.8308
 3648SOL    HW222578   1.116   4.003  13.511 -0.5075  0.1432  0.6473
 3649SOL     OW22579   4.211   3.707   2.502 -0.5106  0.2305 -0.3482
 3649SOL    HW122580   4.135   3.672   2.454 -0.6957  1.4825 -0.9746
 3649SOL    HW222581   4.208   3.659   2.584 -1.9345  2.4758  0.9075
 3650SOL     OW22582   3.891   3.617   4.334 -0.2625 -0.7339  0.9706
 3650SOL    HW122583   3.890   3.708   4.363 -2.5235  0.2819 -2.3048
 3650SOL    HW222584   3.812   3.586   4.379  0.3522 -1.8050  1.3146
 3651SOL     OW22585   3.526   1.894   7.362 -0.4766 -0.2880 -0.6346
 3651SOL    HW122586   3.493   1.850   7.284 -0.0479  0.1729 -1.0690
 3651SOL    HW222587   3.497   1.984   7.342  0.4602 -0.1091 -1.1823
 3652SOL     OW22588   0.855   1.276  10.995 -0.3274 -0.1658  0.3640
 3652SOL    HW122589   0.872   1.201  11.052 -0.4909 -0.1178  0.4796
 3652SOL    HW222590   0.840   1.223  10.917  0.8697  0.9228 -0.5818
 3653SOL     OW22591   4.648   1.568  17.634  0.0970  0.1820 -0.4098
 3653SOL    HW122592   4.711   1.516  17.584 -1.1035 -1.5151 -0.1495
 3653SOL    HW222593   4.564   1.535  17.602  0.3081 -1.1901  0.4703
 3654SOL     OW22594   1.767   4.128  13.928  0.1730  0.1286  0.0820
 3654SOL    HW122595   1.717   4.122  13.846  1.4252  3.2155 -0.9144
 3654SOL    HW222596   1.722   4.065  13.984  3.9736 -3.3908 -0.8715
 3655SOL     OW22597   1.997   3.597   2.510  0.1356 -0.0903 -0.0479
 3655SOL    HW122598   2.037   3.633   2.589  0.9081  0.6993 -0.7888
 3655SOL    HW222599   1.921   3.548   2.542  0.5543 -1.1378 -0.6643
 3656SOL     OW22600   0.180   0.440  17.250 -0.0905 -0.3334  0.9131
 3656SOL    HW122601   0.267   0.410  17.276  0.4039  0.2255 -0.1036
 3656SOL    HW222602   0.206   0.478  17.167  2.0502 -2.1580  0.7251
 3657SOL     OW22603   2.031   2.699  15.631  0.2758 -0.1224 -0.0894
 3657SOL    HW122604   1.969   2.741  15.571 -0.9852 -1.2707  0.4135
 3657SOL    HW222605   2.078   2.764  15.682  1.4648  1.6652 -3.4661
 3658SOL     OW22606   4.693   2.390   5.080 -0.1856 -0.1163  0.2060
 3658SOL    HW122607   4.701   2.481   5.050 -1.4886  0.8015  2.5687
 3658SOL    HW222608   0.045   2.358   5.079 -0.6091 -1.2941  0.7834
 3659SOL     OW22609   3.576   3.567   2.208  0.8048 -0.0022 -0.2375
 3659SOL    HW122610   3.577   3.504   2.279 -0.6542  0.2156 -0.0311
 3659SOL    HW222611   3.646   3.626   2.237  0.7748 -0.3951  0.6383
 3660SOL     OW22612   3.316   4.462   3.842 -0.6220  0.2805  0.1716
 3660SOL    HW122613   3.389   4.459   3.904  0.2897  2.2863 -0.7896
 3660SOL    HW222614   3.333   4.547   3.801  1.5750 -0.8804 -1.3619
 3661SOL     OW22615   0.040   2.988   9.211  0.2391 -0.1736  0.3327
 3661SOL    HW122616   0.120   3.031   9.244  1.7690 -2.8187  0.0525
 3661SOL    HW222617   0.074   2.929   9.145 -0.3838  0.1432 -0.2747
 3662SOL     OW22618   3.938   3.271   5.357 -0.1969 -0.8209  0.0696
 3662SOL    HW122619   3.977   3.198   5.405 -0.0601 -1.4650 -1.0128
 3662SOL    HW222620   3.843   3.262   5.371 -0.1917 -0.7213  0.1642
 3663SOL     OW22621   3.988   1.858   5.035  0.2118 -0.3822 -0.0925
 3663SOL    HW122622   4.033   1.848   4.951 -0.6990  1.0297 -0.7451
 3663SOL    HW222623   4.030   1.941   5.058 -0.0350 -0.7705  1.7588
 3664SOL     OW22624   3.310   4.051  13.426 -0.7321 -0.4300 -0.0332
 3664SOL    HW122625   3.330   3.999  13.504  0.9946 -0.4934 -0.5264
 3664SOL    HW222626   3.317   3.982  13.360  1.6290 -1.5571  1.4009
 3665SOL     OW22627   2.607   1.153   3.669 -0.1843  0.1137  0.0449
 3665SOL    HW122628   2.562   1.215   3.727  0.7416  0.0035  0.8803
 3665SOL    HW222629   2.527   1.111   3.637  0.5352 -0.9182 -0.3864
 3666SOL     OW22630   4.105   4.321   4.064 -0.2701 -0.2865 -0.4629
 3666SOL    HW122631   4.155   4.333   3.982  2.2359 -2.0164  0.7896
 3666SOL    HW222632   4.027   4.270   4.044  0.4134 -1.4453 -0.2060
 3667SOL     OW22633   2.100   0.281  13.815 -0.0522  0.3346  0.1632
 3667SOL    HW122634   2.119   0.187  13.812 -0.2217  0.3623 -2.4711
 3667SOL    HW222635   2.005   0.274  13.806  0.1662 -0.7400 -1.4757
 3668SOL     OW22636   3.077   0.935   5.775  0.2329 -0.0136  0.0681
 3668SOL    HW122637   3.129   0.922   5.854 -1.9991  0.1509  1.5746
 3668SOL    HW222638   3.017   0.861   5.782  0.4751 -0.5151 -3.3140
 3669SOL     OW22639   1.177   2.341   2.313 -0.0776  0.1210  0.5623
 3669SOL    HW122640   1.167   2.342   2.217  1.2667 -1.4348  0.4141
 3669SOL    HW222641   1.096   2.391   2.324  0.8092  1.3617  1.4300
 3670SOL     OW22642   3.865   2.340  11.608 -0.6944 -0.4134 -0.2190
 3670SOL    HW122643   3.923   2.415  11.618 -0.0077 -1.0598  0.6764
 3670SOL    HW222644   3.835   2.367  11.521 -0.2053 -0.7171 -0.4848
 3671SOL     OW22645   0.770   0.070   2.588  0.1288  0.4712  0.5240
 3671SOL    HW122646   0.832   4.737   2.602 -2.8555 -2.4311 -1.1530
 3671SOL    HW222647   0.726   0.037   2.510  1.0220  2.5081 -0.8431
 3672SOL     OW22648   3.999   2.963   5.491 -0.0729  0.1262 -0.5746
 3672SOL    HW122649   3.989   2.872   5.518 -0.5220  1.0317  2.2265
 3672SOL    HW222650   4.074   2.988   5.545  0.0175 -0.2835 -0.5085
 3673SOL     OW22651   2.828   1.962   3.726  0.0770 -0.3691 -0.0935
 3673SOL    HW122652   2.847   1.946   3.634  0.9321  1.5630 -0.2533
 3673SOL    HW222653   2.905   2.014   3.749 -1.2448  2.0410 -1.1410
 3674SOL     OW22654   4.456   3.486  10.355 -0.1433  0.1943 -0.3752
 3674SOL    HW122655   4.456   3.547  10.428 -2.5014 -0.4286  0.1273
 3674SOL    HW222656   4.471   3.401  10.396  0.2272 -1.4293 -3.8327
 3675SOL     OW22657   1.530   4.182   4.055  0.2931  0.2762  0.1418
 3675SOL    HW122658   1.605   4.232   4.023  0.9778 -1.3875 -0.8276
 3675SOL    HW222659   1.513   4.118   3.987  0.8520 -2.4888  2.6110
 3676SOL     OW22660   0.254   3.495   4.392 -0.4510  0.2033  0.2819
 3676SOL    HW122661   0.189   3.565   4.396  0.7575  1.2835  0.9849
 3676SOL    HW222662   0.292   3.504   4.479 -0.1937  0.9502  0.0922
 3677SOL     OW22663   1.139   1.220  15.717 -0.0634 -0.0601 -0.2193
 3677SOL    HW122664   1.175   1.167  15.788 -0.9157 -1.6227 -0.9506
 3677SOL    HW222665   1.173   1.308  15.731  0.7110 -0.0889 -1.9115
 3678SOL     OW22666   4.312   2.183   0.152  0.2293 -0.2412  0.0435
 3678SOL    HW122667   4.257   2.233   0.212 -1.6378 -0.9994 -1.0267
 3678SOL    HW222668   4.397   2.227   0.156  0.4949 -1.0676  4.0625
 3679SOL     OW22669   1.405   1.442   9.591 -0.2800 -0.1481  0.3558
 3679SOL    HW122670   1.340   1.484   9.647  0.2849 -0.3312  1.1534
 3679SOL    HW222671   1.475   1.508   9.593  0.0155 -0.4781  0.8586
 3680SOL     OW22672   4.123   2.898   3.148  0.1056 -0.3596 -0.1316
 3680SOL    HW122673   4.100   2.872   3.059  0.7747 -2.5129  0.3260
 3680SOL    HW222674   4.186   2.829   3.168 -2.2563 -2.5087 -0.1852
 3681SOL     OW22675   4.534   2.414   5.685 -0.3521 -0.4697 -0.3171
 3681SOL    HW122676   4.567   2.360   5.757  0.2560 -0.2852 -0.4601
 3681SOL    HW222677   4.535   2.501   5.725 -1.8369 -0.1492 -0.9605
 3682SOL     OW22678   2.351   1.119   5.186  0.1056 -0.6512  0.2878
 3682SOL    HW122679   2.284   1.172   5.229  0.4293 -0.6020  0.7414
 3682SOL    HW222680   2.345   1.038   5.237 -0.1251 -0.4416  0.5906
 3683SOL     OW22681   4.617   0.904   0.707 -0.4071  0.3462  0.1290
 3683SOL    HW122682   4.580   0.955   0.635 -0.9349  1.0878  0.9284
 3683SOL    HW222683   4.699   0.865   0.676 -0.2236 -0.1460  1.2264
 3684SOL     OW22684   1.925   2.202  10.850 -0.2042  0.0478 -0.3528
 3684SOL    HW122685   1.928   2.291  10.814 -1.2078 -0.3722 -1.5106
 3684SOL    HW222686   2.017   2.185  10.867  0.0481  1.1390 -0.5856
 3685SOL     OW22687   3.518   2.044   7.062  0.5132 -0.2993 -0.4145
 3685SOL    HW122688   3.475   2.128   7.049  1.3172  0.3462  1.1852
 3685SOL    HW222689   3.443   1.995   7.096 -0.0741  1.2111  0.4160
 3686SOL     OW22690   2.970   1.658   6.246 -0.0011  0.4013 -0.7670
 3686SOL    HW122691   2.954   1.652   6.151 -0.2370 -4.3757 -0.4496
 3686SOL    HW222692   2.943   1.570   6.274 -1.2470  1.0505  0.0678
 3687SOL     OW22693   0.511   3.523   6.681  0.6629 -0.2119 -0.2335
 3687SOL    HW122694   0.488   3.611   6.651  1.3076  0.3906  1.0379
 3687SOL    HW222695   0.518   3.490   6.591  0.3703  0.9904 -0.7039
 3688SOL     OW22696   2.591   4.637  10.483  0.7135 -0.6183  0.5073
 3688SOL    HW122697   2.542   4.621  10.402  0.3426  1.3904  0.3384
 3688SOL    HW222698   2.566   4.564  10.541 -0.5725 -1.7246 -1.4276
 3689SOL     OW22699   1.394   0.994   2.017 -0.0008  0.0780  0.2008
 3689SOL    HW122700   1.378   0.932   2.088  0.7662  1.4687  1.5944
 3689SOL    HW222701   1.443   1.066   2.057  0.7963 -0.4692  0.2172
 3690SOL     OW22702   0.562   0.726   5.105  0.0738 -0.4061 -0.6306
 3690SOL    HW122703   0.595   0.658   5.164 -1.3644  0.5489  1.2710
 3690SOL    HW222704   0.470   0.700   5.113 -0.3970  1.2703 -0.7526
 3691SOL     OW22705   4.639   1.442  11.952  0.3948  0.6683  0.0009
 3691SOL    HW122706   4.713   1.468  12.007  1.0627 -1.9089  0.2970
 3691SOL    HW222707   4.577   1.411  12.018  0.4708  1.6440  0.5323
 3692SOL     OW22708   1.130   1.327  16.028  0.0112  0.1556  0.2163
 3692SOL    HW122709   1.219   1.317  16.063 -0.0100  0.3776  0.3323
 3692SOL    HW222710   1.099   1.396  16.087 -0.3890 -0.1297  0.3452
 3693SOL     OW22711   4.600   1.093   9.245 -0.4855  0.2648 -0.4042
 3693SOL    HW122712   4.555   1.177   9.257 -1.4436 -0.0478 -1.8161
 3693SOL    HW222713   4.673   1.109   9.305 -0.8980 -3.3241  1.0350
 3694SOL     OW22714   4.578   1.995   4.232 -0.2011 -0.0931 -0.1101
 3694SOL    HW122715   4.627   2.035   4.160  1.3124 -2.1355 -0.2064
 3694SOL    HW222716   4.600   2.047   4.310  1.1225 -1.7020  0.5909
 3695SOL     OW22717   1.464   1.973   8.606  0.4218 -0.1320  0.7173
 3695SOL    HW122718   1.470   2.037   8.678  0.5592  2.5711 -1.7046
 3695SOL    HW222719   1.430   1.898   8.654 -1.2926  0.2530  0.0735
 3696SOL     OW22720   0.374   2.649   4.450 -0.4558  0.1565  0.0261
 3696SOL    HW122721   0.353   2.649   4.357 -0.1816  0.8028 -0.0394
 3696SOL    HW222722   0.330   2.730   4.477 -0.5084 -0.8944  3.1226
 3697SOL     OW22723   1.620   0.021   3.455  0.7239 -0.0038  0.2439
 3697SOL    HW122724   1.567   0.079   3.509  1.6794 -1.8398  3.1760
 3697SOL    HW222725   1.671   4.715   3.524  2.4623 -0.4125 -1.2869
 3698SOL     OW22726   0.170   0.448   8.513  0.1314  0.3368 -0.1484
 3698SOL    HW122727   0.237   0.499   8.558  1.6194 -1.8494  0.0842
 3698SOL    HW222728   0.191   0.360   8.545 -1.0983  0.2387  0.3982
 3699SOL     OW22729   0.074   0.080   9.180  0.0055 -0.1478  0.1710
 3699SOL    HW122730   0.167   0.065   9.162 -1.1157 -2.7536 -3.2785
 3699SOL    HW222731   0.057   0.167   9.144  1.5738  0.2313  0.3492
 3700SOL     OW22732   1.041   4.252   2.449  0.4122  0.1691  0.0504
 3700SOL    HW122733   1.086   4.313   2.391  2.4026 -0.9338  0.4320
 3700SOL    HW222734   0.968   4.222   2.395  1.3612 -0.7857 -0.6937
 3701SOL     OW22735   2.679   1.510   3.303  0.7015  0.0203  0.3480
 3701SOL    HW122736   2.691   1.594   3.347 -2.1010  0.1833  0.7924
 3701SOL    HW222737   2.677   1.442   3.370 -1.1952  0.1648  0.4286
 3702SOL     OW22738   3.079   2.897   9.284 -0.1819 -0.4176 -0.1553
 3702SOL    HW122739   3.149   2.941   9.235  0.5622 -1.1599  0.2509
 3702SOL    HW222740   3.075   2.962   9.354 -1.8481  0.1840 -0.8096
 3703SOL     OW22741   3.069   1.003  15.745 -0.0087  0.0258 -0.4211
 3703SOL    HW122742   2.978   0.980  15.767  0.4194  0.4840  1.8136
 3703SOL    HW222743   3.067   1.022  15.651  1.1736 -0.3299 -0.5074
 3704SOL     OW22744   4.214   3.110   3.814  0.1677  0.1762 -0.0994
 3704SOL    HW122745   4.305   3.123   3.842  0.0650  1.4459 -0.3663
 3704SOL    HW222746   4.168   3.107   3.898  0.1393  1.0341 -0.0826
 3705SOL     OW22747   4.509   2.477   1.317 -0.7420 -0.2760  0.0301
 3705SOL    HW122748   4.575   2.542   1.339 -1.3603  0.7229 -1.1228
 3705SOL    HW222749   4.518   2.473   1.222  1.3111 -1.4655  0.2802
 3706SOL     OW22750   2.956   1.214  15.198 -0.2889  0.4863 -0.1485
 3706SOL    HW122751   2.974   1.132  15.151 -2.9564  1.7262 -3.3659
 3706SOL    HW222752   3.036   1.264  15.184 -0.9734  1.7696  0.5338
 3707SOL     OW22753   3.720   3.733   8.172 -0.4171 -0.4073 -0.2961
 3707SOL    HW122754   3.627   3.709   8.180 -0.7503  1.3528  1.1425
 3707SOL    HW222755   3.701   3.824   8.192 -0.1134 -0.3540 -0.2497
 3708SOL     OW22756   1.674   1.298  10.439 -0.1970 -0.7811  0.3363
 3708SOL    HW122757   1.617   1.229  10.474 -0.5744  0.0812  1.4177
 3708SOL    HW222758   1.615   1.329  10.371 -0.8391  1.5829  1.9717
 3709SOL     OW22759   4.641   2.986  14.318 -0.0584  0.4916 -0.2054
 3709SOL    HW122760   4.617   3.069  14.278  0.7962 -0.0276 -1.7870
 3709SOL    HW222761   4.715   3.010  14.373 -0.2370  0.8331 -0.1150
 3710SOL     OW22762   4.133   2.315   0.322  0.3222  0.3524  0.1612
 3710SOL    HW122763   4.093   2.285   0.404  0.4728  0.7412  0.3768
 3710SOL    HW222764   4.220   2.342   0.351  0.7890  0.1960 -1.1240
 3711SOL     OW22765   1.641   2.593   6.894  0.2530  0.1870 -0.4383
 3711SOL    HW122766   1.598   2.539   6.960 -1.6883  2.5618  0.2572
 3711SOL    HW222767   1.574   2.662   6.889 -1.0694 -1.0412  0.2633
 3712SOL     OW22768   2.548   2.475   6.883  0.2305 -0.0798 -0.0288
 3712SOL    HW122769   2.545   2.538   6.810 -0.3282  0.2796  0.3052
 3712SOL    HW222770   2.616   2.419   6.846 -1.0713 -1.0239 -1.0067
 3713SOL     OW22771   1.606   0.500  10.290 -0.1573  0.2405  0.4046
 3713SOL    HW122772   1.590   0.586  10.252  1.1193  0.5309  0.5281
 3713SOL    HW222773   1.618   0.446  10.212  1.1469 -0.8242  1.3464
 3714SOL     OW22774   4.563   4.046   6.014  0.4838 -0.5094 -0.5716
 3714SOL    HW122775   4.572   3.954   6.038 -0.9336 -0.6636 -0.6273
 3714SOL    HW222776   4.619   4.051   5.936 -0.7559 -2.5166 -1.5792
 3715SOL     OW22777   3.511   3.324   9.429  0.9109 -0.1989 -0.3547
 3715SOL    HW122778   3.513   3.298   9.522  2.3231 -0.1601 -0.3643
 3715SOL    HW222779   3.427   3.369   9.428  0.9994 -0.0207 -0.0187
 3716SOL     OW22780   0.520   0.294   6.507  0.1958  0.5702 -0.2899
 3716SOL    HW122781   0.449   0.281   6.443 -2.1701  0.1413  2.4153
 3716SOL    HW222782   0.494   0.231   6.574  0.9653  0.3151 -0.2327
 3717SOL     OW22783   3.479   3.674   1.947  0.8256 -0.0837 -0.1708
 3717SOL    HW122784   3.403   3.718   1.985  1.3762  1.1226 -0.4756
 3717SOL    HW222785   3.529   3.632   2.017  0.1478 -0.0237  0.3436
 3718SOL     OW22786   1.085   4.730  15.852  0.0074  0.1983  0.0156
 3718SOL    HW122787   1.019   0.050  15.890  1.0427  1.7385 -0.5665
 3718SOL    HW222788   1.163   0.040  15.880 -0.5036  0.3975  1.0964
 3719SOL     OW22789   3.949   1.044  16.264  0.3092 -0.4172 -0.3592
 3719SOL    HW122790   3.878   1.069  16.323  0.7914 -1.5130  0.6895
 3719SOL    HW222791   3.990   1.128  16.244  1.7361 -1.2531 -0.9795
 3720SOL     OW22792   4.016   0.602   8.771 -0.2960 -0.3220 -0.1003
 3720SOL    HW122793   3.935   0.643   8.741  0.1521  1.3028  0.8677
 3720SOL    HW222794   4.052   0.568   8.689 -1.5437  1.1623 -1.2621
 3721SOL     OW22795   0.125   3.780  16.644 -0.0737  0.2447 -0.4809
 3721SOL    HW122796   0.150   3.792  16.552 -0.6957 -0.2818 -0.7195
 3721SOL    HW222797   0.201   3.729  16.672  0.5752  0.5497 -1.6878
 3722SOL     OW22798   2.302   1.970   0.054  0.2118  0.3091  0.6248
 3722SOL    HW122799   2.283   1.885   0.093  0.1998  0.1392  0.2483
 3722SOL    HW222800   2.337   1.930  17.725 -1.3037 -1.0166  0.6250
 3723SOL     OW22801   3.782   0.400   5.360  0.0556  0.4765 -0.0925
 3723SOL    HW122802   3.712   0.350   5.402 -1.1685  0.6281 -1.9283
 3723SOL    HW222803   3.786   0.354   5.276 -0.3683  0.0781  0.1020
 3724SOL     OW22804   1.197   0.386   3.730 -0.5282  0.1748 -0.0981
 3724SOL    HW122805   1.256   0.413   3.800 -0.5223  0.9321 -0.4043
 3724SOL    HW222806   1.202   0.292   3.749  1.5733  0.3823  0.3503
 3725SOL     OW22807   0.462   1.704   2.102  0.2251 -0.0422  0.0092
 3725SOL    HW122808   0.429   1.620   2.132 -1.3897  0.6337  0.1169
 3725SOL    HW222809   0.451   1.760   2.179  0.5597  0.2190 -0.1319
 3726SOL     OW22810   2.751   3.232   4.400 -0.1924  0.1010  0.1846
 3726SOL    HW122811   2.821   3.250   4.463  0.8278 -0.0589 -0.8830
 3726SOL    HW222812   2.684   3.292   4.430 -1.2663 -0.3232 -1.3540
 3727SOL     OW22813   2.733   2.309   2.142 -0.0441  0.6867 -0.0364
 3727SOL    HW122814   2.640   2.308   2.165 -0.2547 -0.8299 -0.9819
 3727SOL    HW222815   2.730   2.337   2.051  2.3242 -3.3054 -1.3355
 3728SOL     OW22816   3.144   0.392   4.455  0.3913 -0.1285  0.1695
 3728SOL    HW122817   3.160   0.421   4.545  0.4966 -0.3671  0.2297
 3728SOL    HW222818   3.228   0.421   4.420  0.5035  1.6101  1.8745
 3729SOL     OW22819   4.227   1.803   5.485 -0.1134 -0.3057 -0.0499
 3729SOL    HW122820   4.228   1.899   5.489 -0.5344 -0.2984 -0.1832
 3729SOL    HW222821   4.273   1.782   5.566 -0.3009  0.1075  0.1598
 3730SOL     OW22822   4.133   2.524   3.921 -0.6954  0.4761  0.7333
 3730SOL    HW122823   4.106   2.477   3.842  0.6786 -1.4275  1.3829
 3730SOL    HW222824   4.060   2.505   3.981 -2.4765 -1.2975 -2.0231
 3731SOL     OW22825   3.056   0.047   7.874  0.0084 -0.4203 -0.2782
 3731SOL    HW122826   3.117   0.117   7.901  0.8145 -1.2975  0.2119
 3731SOL    HW222827   3.041   4.736   7.956  1.1396  1.6003  1.1363
 3732SOL     OW22828   0.990   2.410  12.243 -0.8282  0.0973  0.1059
 3732SOL    HW122829   0.969   2.397  12.335  0.4199  0.3282  0.4220
 3732SOL    HW222830   0.959   2.330  12.200 -0.0443  0.3648 -0.9585
 3733SOL     OW22831   4.585   4.476   6.508  0.3247 -0.0675 -0.4868
 3733SOL    HW122832   4.630   4.503   6.428 -0.9933  2.4757 -0.3536
 3733SOL    HW222833   4.542   4.558   6.530 -1.5673 -1.2285  0.1927
 3734SOL     OW22834   1.946   3.995   5.751  0.1047  0.0016  0.1785
 3734SOL    HW122835   1.939   3.960   5.840  1.1593 -0.4519  0.0787
 3734SOL    HW222836   1.969   3.919   5.697  1.2134  0.1685  0.4322
 3735SOL     OW22837   0.857   2.128  16.301 -0.5321  0.0472 -0.4218
 3735SOL    HW122838   0.782   2.186  16.313 -0.9703 -0.6658  0.2855
 3735SOL    HW222839   0.816   2.046  16.274  0.1882 -0.4736  0.0339
 3736SOL     OW22840   4.529   0.650   1.635 -0.0017  0.1025  0.6964
 3736SOL    HW122841   4.464   0.719   1.620  2.0486  1.6348 -1.2933
 3736SOL    HW222842   4.480   0.570   1.649  1.7329 -1.1387 -0.3006
 3737SOL     OW22843   4.032   0.909   2.927  0.3845 -0.8355 -0.7267
 3737SOL    HW122844   4.004   0.957   2.849  1.3360 -0.7472 -1.0089
 3737SOL    HW222845   4.047   0.822   2.889  2.4950  0.1196 -2.0884
 3738SOL     OW22846   3.162   0.235   6.298 -0.3334  0.0427 -0.2853
 3738SOL    HW122847   3.159   0.205   6.389 -1.5644  0.0413 -0.3279
 3738SOL    HW222848   3.238   0.293   6.287  0.0797 -0.7971 -1.7690
 3739SOL     OW22849   0.953   2.491  14.529 -0.1716 -0.1950  0.2839
 3739SOL    HW122850   0.861   2.484  14.555  0.3419 -2.5046  1.5421
 3739SOL    HW222851   0.954   2.458  14.439  0.6872  0.4256  0.0640
 3740SOL     OW22852   1.876   1.813  17.524  0.0874  0.2161  0.7045
 3740SOL    HW122853   1.785   1.791  17.545 -0.3303 -2.0639 -3.3160
 3740SOL    HW222854   1.894   1.749  17.455 -0.6887  1.9459 -1.1105
 3741SOL     OW22855   4.527   3.752  15.210 -0.2209 -0.3739  0.3590
 3741SOL    HW122856   4.432   3.744  15.217 -0.0852 -2.9123 -0.9312
 3741SOL    HW222857   4.535   3.839  15.170 -0.5862 -0.3282  0.3834
 3742SOL     OW22858   2.002   4.207   0.762 -0.7473  0.1746  0.0841
 3742SOL    HW122859   1.913   4.174   0.752 -1.6176  2.7735 -0.7506
 3742SOL    HW222860   1.986   4.297   0.790 -0.1908 -0.0071  0.9706
 3743SOL     OW22861   3.347   3.686   3.791 -0.5745  0.0377  0.2749
 3743SOL    HW122862   3.356   3.780   3.771 -0.8789  0.2103  0.9425
 3743SOL    HW222863   3.310   3.665   3.706 -1.0063 -0.8617  0.6905
 3744SOL     OW22864   4.100   2.511  16.077 -0.7487  0.2330 -0.5112
 3744SOL    HW122865   4.184   2.512  16.123 -1.8926  0.8855  1.5553
 3744SOL    HW222866   4.061   2.589  16.117 -0.6266  1.4598 -2.7934
 3745SOL     OW22867   1.282   4.584   7.143  0.4725 -0.1726  0.3976
 3745SOL    HW122868   1.276   4.674   7.112 -1.4664 -1.1285 -2.0322
 3745SOL    HW222869   1.367   4.561   7.106  0.1066 -0.4930 -0.2482
 3746SOL     OW22870   2.159   0.423  14.919  0.1149  0.2798  0.0551
 3746SOL    HW122871   2.087   0.376  14.961  0.4989  0.8443  1.3162
 3746SOL    HW222872   2.116   0.508  14.909  0.5252  0.5276  0.3977
 3747SOL     OW22873   2.215   4.388  11.885  0.3200  0.1853 -0.2764
 3747SOL    HW122874   2.226   4.326  11.957 -3.8339  0.6253  0.7405
 3747SOL    HW222875   2.201   4.333  11.808  1.4560  2.1130 -1.8713
 3748SOL     OW22876   3.984   2.495   2.949 -0.6675 -0.8696  0.5053
 3748SOL    HW122877   3.942   2.488   3.034  0.8896 -3.3327  1.0657
 3748SOL    HW222878   3.976   2.402   2.931 -0.8604 -0.2113 -2.9964
 3749SOL     OW22879   1.969   1.737  14.281  0.2441 -0.2243 -0.7098
 3749SOL    HW122880   1.874   1.726  14.291  0.0600  1.9971 -0.0518
 3749SOL    HW222881   2.005   1.670  14.339  2.0798 -0.7642 -2.4828
 3750SOL     OW22882   2.279   2.496   9.001 -0.1541 -0.0280 -0.1537
 3750SOL    HW122883   2.292   2.583   9.039 -1.0077  0.4114 -0.8583
 3750SOL    HW222884   2.187   2.491   8.976 -0.1785  2.0793 -0.5052
 3751SOL     OW22885   4.099   1.516   9.104 -0.1212  0.2143 -0.1502
 3751SOL    HW122886   4.143   1.589   9.147  0.1293 -2.3180  3.8613
 3751SOL    HW222887   4.167   1.482   9.046 -0.2068 -0.5372  0.1790
 3752SOL     OW22888   4.601   3.375   7.627 -0.1174  0.2533  0.5574
 3752SOL    HW122889   4.622   3.438   7.558 -0.0117  1.3428  1.5721
 3752SOL    HW222890   4.607   3.425   7.709 -3.5542 -2.3676  2.4054
 3753SOL     OW22891   4.658   1.128  15.135  0.5655  0.0917  0.2519
 3753SOL    HW122892   4.654   1.163  15.045 -2.0756  1.0849  0.7526
 3753SOL    HW222893   0.004   1.084  15.121 -0.4574 -1.6115 -0.5455
 3754SOL     OW22894   3.892   0.771  16.624  0.1177  0.1774  0.2621
 3754SOL    HW122895   3.917   0.855  16.662 -0.5205  0.5668 -0.2015
 3754SOL    HW222896   3.933   0.770  16.538 -2.2525 -1.1812 -0.8399
 3755SOL     OW22897   4.628   1.888   7.504  0.4794  0.6828  0.3198
 3755SOL    HW122898   4.702   1.834   7.477 -0.1452 -0.4917  0.9415
 3755SOL    HW222899   4.679   1.967   7.524  0.6423  0.4804  0.7000
 3756SOL     OW22900   4.526   0.710   6.957  0.0282 -0.4040  0.2300
 3756SOL    HW122901   4.569   0.736   7.039  1.8687 -1.0956 -0.4971
 3756SOL    HW222902   4.596   0.666   6.909 -0.4960  0.1226 -1.0101
 3757SOL     OW22903   0.826   0.259   0.134 -0.0616  0.4464  0.3737
 3757SOL    HW122904   0.798   0.335   0.184 -0.0552  0.4901  0.3110
 3757SOL    HW222905   0.899   0.229   0.187  1.2622  0.2021 -1.5613
 3758SOL     OW22906   1.140   1.129   0.234  1.0095 -0.3882 -0.6790
 3758SOL    HW122907   1.050   1.108   0.206  0.3464  1.3933  0.1409
 3758SOL    HW222908   1.162   1.201   0.175  1.6234 -0.1754 -0.1887
 3759SOL     OW22909   1.318   2.492   9.044 -0.0671 -0.6442  0.0115
 3759SOL    HW122910   1.229   2.477   9.013  0.5350  2.0231 -2.9670
 3759SOL    HW222911   1.359   2.521   8.963  1.0156 -1.1334  0.3698
 3760SOL     OW22912   0.797   4.492   6.011  0.7549  0.8674 -0.5423
 3760SOL    HW122913   0.824   4.455   5.927  0.9879 -0.2306  0.0077
 3760SOL    HW222914   0.703   4.473   6.004  0.5940  1.1356  0.9140
 3761SOL     OW22915   2.915   4.635  11.770  0.1287  0.2797  0.0190
 3761SOL    HW122916   2.874   4.665  11.851  2.6692  0.5050  1.2212
 3761SOL    HW222917   2.964   4.711  11.739  1.6780 -0.3364  0.9418
 3762SOL     OW22918   1.334   0.336   9.532 -0.0976  0.6826  0.2095
 3762SOL    HW122919   1.257   0.348   9.588 -1.7680 -1.7224 -1.5342
 3762SOL    HW222920   1.385   0.403   9.576  2.0358 -1.0850  0.4127
 3763SOL     OW22921   2.286   0.948   3.984 -0.1832 -0.4174 -0.4413
 3763SOL    HW122922   2.358   0.962   3.923  0.1552 -0.5053 -0.0593
 3763SOL    HW222923   2.297   0.858   4.014  0.1060  0.5018  2.2446
 3764SOL     OW22924   0.626   3.060   3.338 -0.1370 -0.1334  0.0117
 3764SOL    HW122925   0.579   3.026   3.262 -0.8586  1.6238 -0.3110
 3764SOL    HW222926   0.693   2.991   3.341 -2.0536 -1.9987 -0.7280
 3765SOL     OW22927   1.974   0.766   3.453  0.2700 -0.5364  0.1504
 3765SOL    HW122928   1.906   0.717   3.501 -0.8407  0.2473 -0.6272
 3765SOL    HW222929   1.945   0.764   3.362 -0.6713 -1.4072  0.4691
 3766SOL     OW22930   1.926   4.716   8.072 -0.2311 -0.1681  0.3379
 3766SOL    HW122931   1.889   4.677   8.150  0.4130  1.3717  1.4139
 3766SOL    HW222932   1.997   0.029   8.111 -1.1297 -0.4799  2.3397
 3767SOL     OW22933   2.725   3.936  16.856  0.3739 -0.1857 -0.2486
 3767SOL    HW122934   2.643   3.897  16.826 -0.1153  2.3131 -2.1091
 3767SOL    HW222935   2.702   3.920  16.948 -3.4419 -1.4795 -1.4364
 3768SOL     OW22936   1.646   1.923   9.319 -0.3945 -0.1803  0.1394
 3768SOL    HW122937   1.711   1.853   9.325  0.5565  0.5417 -1.7981
 3768SOL    HW222938   1.570   1.869   9.294 -0.2871 -1.2062  1.9886
 3769SOL     OW22939   1.960   4.651   3.145 -0.6118 -0.1339  0.0064
 3769SOL    HW122940   2.055   4.641   3.150 -0.7439 -0.6360  1.5506
 3769SOL    HW222941   1.928   4.565   3.171 -1.7253 -0.3137 -1.9622
 3770SOL     OW22942   1.691   4.008   6.189 -0.1618 -0.2474 -0.5035
 3770SOL    HW122943   1.744   4.085   6.210 -1.3718 -0.0582  1.8946
 3770SOL    HW222944   1.614   4.039   6.236  0.5851  2.1820 -0.8299
 3771SOL     OW22945   1.201   1.382   9.817  0.6564  0.3006 -0.5419
 3771SOL    HW122946   1.240   1.296   9.832  0.6782  0.0536 -2.0208
 3771SOL    HW222947   1.175   1.413   9.905  0.6915  0.0548 -0.4455
 3772SOL     OW22948   3.508   2.494  11.750  0.3225 -0.4332  0.1894
 3772SOL    HW122949   3.519   2.485  11.656 -2.5778  3.1986 -0.4927
 3772SOL    HW222950   3.436   2.556  11.753 -0.3535 -1.2114 -0.1694
 3773SOL     OW22951   2.204   3.594   7.395  0.1471  0.2728 -0.0984
 3773SOL    HW122952   2.214   3.566   7.304 -0.3104  0.1566 -0.1161
 3773SOL    HW222953   2.121   3.641   7.398  0.5090  0.8283  1.3020
 3774SOL     OW22954   2.160   3.941  13.584  0.7536 -0.5954  0.1633
 3774SOL    HW122955   2.225   3.891  13.634  0.5045  1.7989  2.8898
 3774SOL    HW222956   2.211   3.975  13.511 -0.6401  1.7118  0.2585
 3775SOL     OW22957   3.064   2.999   4.181 -0.8375  0.1562 -0.1780
 3775SOL    HW122958   3.015   2.920   4.159 -0.2993 -0.2156 -0.0421
 3775SOL    HW222959   3.001   3.060   4.143  0.2437  0.1447 -1.9811
 3776SOL     OW22960   0.062   0.555   2.510  0.9335 -0.5280  0.3329
 3776SOL    HW122961   0.054   0.525   2.601 -2.9933  0.3701  0.2709
 3776SOL    HW222962   0.140   0.514   2.473  1.2818  0.2877  0.1605
 3777SOL     OW22963   2.519   0.266   3.538 -0.0965  0.2456  0.0927
 3777SOL    HW122964   2.588   0.326   3.564 -0.1060 -0.3490  1.5072
 3777SOL    HW222965   2.447   0.329   3.533 -1.6735 -1.5383  0.2597
 3778SOL     OW22966   3.083   0.072   4.874  0.3341 -0.1309 -0.4449
 3778SOL    HW122967   3.143   0.054   4.946 -0.6873 -1.8302 -0.0284
 3778SOL    HW222968   3.103   0.164   4.858 -0.5336  0.1301  0.0031
 3779SOL     OW22969   0.706   0.034   5.638 -0.2314  0.3089  0.4288
 3779SOL    HW122970   0.773   0.074   5.582  0.5589  1.3990  2.1416
 3779SOL    HW222971   0.630   0.077   5.599  0.4603 -0.6431 -1.9805
 3780SOL     OW22972   2.533   0.764   8.903 -0.0538 -0.5611  0.0893
 3780SOL    HW122973   2.628   0.752   8.901  0.1357  0.9145  0.3940
 3780SOL    HW222974   2.525   0.854   8.933 -0.4288  0.1330 -2.1151
 3781SOL     OW22975   0.239   1.090   4.405 -0.2941 -0.1874  0.0600
 3781SOL    HW122976   0.258   1.102   4.312  1.2806 -0.0776  0.3840
 3781SOL    HW222977   0.244   1.179   4.441 -0.4854 -0.2416  0.2204
 3782SOL     OW22978   0.091   0.870   8.348  0.7334  0.0618 -0.6439
 3782SOL    HW122979   0.100   0.781   8.315 -1.2507 -0.1267 -0.7006
 3782SOL    HW222980   0.143   0.921   8.287  1.5037  0.8182  0.6324
 3783SOL     OW22981   1.474   3.117   7.705 -0.6167  0.1777  0.1206
 3783SOL    HW122982   1.525   3.092   7.781 -2.0305  0.0596  1.0279
 3783SOL    HW222983   1.535   3.106   7.631 -0.1893  0.0143  0.4984
 3784SOL     OW22984   4.518   4.358   4.426 -0.0638  0.0799  0.4669
 3784SOL    HW122985   4.428   4.351   4.394  0.7931 -2.0867 -1.4057
 3784SOL    HW222986   4.573   4.310   4.365  0.5878 -1.2331  2.0928
 3785SOL     OW22987   2.074   0.311  14.684 -0.0413 -0.5049  0.1567
 3785SOL    HW122988   2.082   0.347  14.772 -0.3800 -0.2510  0.0876
 3785SOL    HW222989   2.158   0.337  14.646  0.0736 -0.6451  0.3166
 3786SOL     OW22990   4.733   3.014   5.807  0.6026 -0.2397 -0.0057
 3786SOL    HW122991   0.033   3.060   5.882 -1.4308 -0.1096  0.9256
 3786SOL    HW222992   0.044   3.047   5.731  2.7185  0.1138  1.4815
 3787SOL     OW22993   1.628   3.767  11.145  0.3741  0.1712 -0.4343
 3787SOL    HW122994   1.537   3.744  11.129  0.6890 -0.8173 -0.8071
 3787SOL    HW222995   1.624   3.861  11.158 -2.5897 -0.1547  0.9148
 3788SOL     OW22996   2.291   0.356  17.452  0.5297 -0.2895  0.3865
 3788SOL    HW122997   2.257   0.323  17.535  0.4747  0.0019  0.4765
 3788SOL    HW222998   2.386   0.347  17.463  0.7869 -0.8575 -2.2049
 3789SOL     OW22999   1.529   3.167  13.753  0.3542 -0.7340  0.0629
 3789SOL    HW123000   1.595   3.161  13.822 -0.5734 -1.4564  0.8982
 3789SOL    HW223001   1.557   3.239  13.697  0.3452 -0.1613  0.7939
 3790SOL     OW23002   4.317   0.830   9.750  0.1767  0.6850  0.1622
 3790SOL    HW123003   4.270   0.775   9.812  2.4853 -2.6068 -1.0428
 3790SOL    HW223004   4.335   0.762   9.684  1.1507  1.2992 -0.2050
 3791SOL     OW23005   0.541   2.212   2.164  0.6973  0.6763 -0.3256
 3791SOL    HW123006   0.591   2.280   2.119  1.1485 -0.2692 -1.2574
 3791SOL    HW223007   0.606   2.141   2.163  1.6845  1.5788  0.4581
 3792SOL     OW23008   2.065   1.410  16.510  0.1187  0.0429  0.0531
 3792SOL    HW123009   2.107   1.325  16.503 -0.4611 -0.1350 -1.1424
 3792SOL    HW223010   2.014   1.382  16.586 -1.3766 -0.2857 -1.0952
 3793SOL     OW23011   2.269   0.917   7.195  0.2865 -0.1341 -0.1645
 3793SOL    HW123012   2.184   0.934   7.155 -0.7356 -2.9059  0.8567
 3793SOL    HW223013   2.248   0.944   7.284 -2.1254 -0.0057 -0.7718
 3794SOL     OW23014   0.412   2.148   7.284 -0.3151  0.0976 -0.1219
 3794SOL    HW123015   0.340   2.193   7.240  0.2357 -0.4633 -1.6128
 3794SOL    HW223016   0.415   2.070   7.228 -1.4791 -1.1430  1.5307
 3795SOL     OW23017   3.780   0.136  10.788  0.0054  0.2963  0.0356
 3795SOL    HW123018   3.869   0.162  10.764 -0.3152 -1.1782 -2.7392
 3795SOL    HW223019   3.794   0.041  10.787 -1.2582  0.0974  0.8994
 3796SOL     OW23020   1.505   3.118   5.391  0.0483 -0.8317  0.3699
 3796SOL    HW123021   1.568   3.188   5.405  0.4472 -1.3367  1.0861
 3796SOL    HW223022   1.552   3.080   5.316 -0.3758  0.2894 -0.4626
 3797SOL     OW23023   2.569   1.990   3.155 -0.6323 -0.7024 -0.0418
 3797SOL    HW123024   2.535   1.918   3.208 -0.4521  1.0980  2.5241
 3797SOL    HW223025   2.600   2.050   3.224 -1.2460  1.1063 -1.3396
 3798SOL     OW23026   2.062   1.189  11.339 -0.1792 -0.3387  0.0574
 3798SOL    HW123027   2.117   1.148  11.405  0.8955 -0.6383 -1.0244
 3798SOL    HW223028   2.085   1.141  11.260 -2.3680  2.1243 -2.0777
 3799SOL     OW23029   3.705   2.228   3.790 -0.0235 -0.2045  0.1959
 3799SOL    HW123030   3.783   2.183   3.823 -0.4705  0.8911  2.7363
 3799SOL    HW223031   3.738   2.279   3.717  2.1875 -1.4793  0.3022
 3800SOL     OW23032   0.011   2.670  12.605  0.1639  0.0448  0.3554
 3800SOL    HW123033   0.026   2.617  12.526 -0.7743 -0.3247  0.4292
 3800SOL    HW223034   4.671   2.713  12.570  0.2633 -0.1599 -0.1194
 3801SOL     OW23035   0.356   1.416  14.046  0.6636 -0.3978 -0.2625
 3801SOL    HW123036   0.447   1.404  14.074  0.3880 -0.1036  0.7771
 3801SOL    HW223037   0.376   1.488  13.986 -4.0435  0.4781 -0.7589
 3802SOL     OW23038   0.642   4.470   7.812 -0.6754 -0.1036  0.1752
 3802SOL    HW123039   0.728   4.440   7.784 -1.5788 -2.3972 -0.2101
 3802SOL    HW223040   0.642   4.541   7.748  0.3123  0.0002  0.2880
 3803SOL     OW23041   3.245   3.527   5.196  0.0256  0.1563  0.0742
 3803SOL    HW123042   3.218   3.619   5.195  1.6490  0.6153 -1.6600
 3803SOL    HW223043   3.322   3.532   5.253  0.8734  2.1987 -1.2404
 3804SOL     OW23044   3.445   0.880   0.303 -0.5520  0.2656 -0.0506
 3804SOL    HW123045   3.432   0.959   0.354  2.3038  1.4109 -1.1126
 3804SOL    HW223046   3.388   0.810   0.336 -3.6026  3.2719  1.0542
 3805SOL     OW23047   1.327   0.564   9.841 -0.0682 -0.6559 -0.0012
 3805SOL    HW123048   1.357   0.650   9.872  0.9498 -0.5701 -1.2300
 3805SOL    HW223049   1.232   0.565   9.851 -0.1719  1.3438 -1.2465
 3806SOL     OW23050   1.679   1.202  11.807  0.2292  0.0744 -0.5433
 3806SOL    HW123051   1.619   1.184  11.735  1.0936 -2.3557 -0.6543
 3806SOL    HW223052   1.761   1.192  11.758 -1.4988 -1.8715 -3.0648
 3807SOL     OW23053   2.392   2.543   5.075  0.1116 -0.0731  0.0449
 3807SOL    HW123054   2.469   2.555   5.021 -0.2582  0.0699 -0.4517
 3807SOL    HW223055   2.432   2.483   5.138  3.2883 -1.1962 -3.0587
 3808SOL     OW23056   3.961   0.686   2.750  0.0869  0.1162 -0.1295
 3808SOL    HW123057   3.915   0.721   2.675  2.1525  0.0985 -1.4208
 3808SOL    HW223058   4.035   0.643   2.708 -0.2287 -1.5138  0.9880
 3809SOL     OW23059   1.385   0.723   8.268 -0.3877  0.0824  0.3944
 3809SOL    HW123060   1.342   0.795   8.222  1.3275  0.1959 -1.0629
 3809SOL    HW223061   1.368   0.651   8.207 -1.3067  1.4428 -0.9633
 3810SOL     OW23062   0.600   4.077   7.299  0.1093 -0.0368  0.7237
 3810SOL    HW123063   0.617   4.171   7.305 -0.3329  0.1301 -0.6059
 3810SOL    HW223064   0.623   4.054   7.389 -0.0187  0.6029  0.9184
 3811SOL     OW23065   4.107   2.986   2.580  0.3454  1.0899  0.7115
 3811SOL    HW123066   4.102   3.080   2.600 -0.3329  1.6003 -1.8405
 3811SOL    HW223067   4.040   2.960   2.643 -0.1193 -0.1689 -0.3120
 3812SOL     OW23068   4.340   2.780  17.048  0.0412 -0.2777 -0.2592
 3812SOL    HW123069   4.352   2.739  16.963  1.3310 -0.2971 -0.0771
 3812SOL    HW223070   4.255   2.824  17.044 -0.1467 -0.6392 -0.2353
 3813SOL     OW23071   3.472   3.041   8.180  0.3414  0.7145  0.1978
 3813SOL    HW123072   3.536   3.006   8.242 -0.4427  0.1705  0.6929
 3813SOL    HW223073   3.463   3.130   8.216 -0.4585  1.2988 -1.4560
 3814SOL     OW23074   1.017   0.395   1.758 -0.7852  0.2348 -1.0179
 3814SOL    HW123075   1.064   0.313   1.742 -0.3539 -0.0218  1.5138
 3814SOL    HW223076   1.040   0.402   1.851  1.6402 -1.4795 -1.4968
 3815SOL     OW23077   2.733   0.256  15.768  0.7639  0.1215  0.4006
 3815SOL    HW123078   2.743   0.181  15.827 -3.0041  0.4019  1.3731
 3815SOL    HW223079   2.648   0.292  15.793 -0.5301 -2.6294 -0.1148
 3816SOL     OW23080   0.537   4.459   8.541  0.1666  0.4226  0.0345
 3816SOL    HW123081   0.493   4.374   8.554  0.2924  0.0858 -1.7643
 3816SOL    HW223082   0.516   4.503   8.624  1.7972  0.0259  0.6519
 3817SOL     OW23083   3.812   3.708   6.370 -0.5506 -0.1862 -0.0386
 3817SOL    HW123084   3.813   3.621   6.411 -2.0032 -0.2371 -0.1180
 3817SOL    HW223085   3.859   3.747   6.444 -1.0488 -0.7352  0.5754
 3818SOL     OW23086   4.328   2.796   9.102 -0.6431  0.2390 -0.0526
 3818SOL    HW123087   4.248   2.847   9.092 -0.3280  0.4053 -1.8178
 3818SOL    HW223088   4.296   2.715   9.142 -2.3224  1.5769  1.2641
 3819SOL     OW23089   0.071   4.737   6.567  0.5043  0.0031 -0.6095
 3819SOL    HW123090   0.141   4.685   6.527  1.4804  1.9679 -1.4364
 3819SOL    HW223091   4.732   4.685   6.543 -0.0383 -0.2971  1.7174
 3820SOL     OW23092   3.334   3.291   9.868  0.1743  0.4344  0.8498
 3820SOL    HW123093   3.282   3.325   9.941  0.4439  2.2532  0.1759
 3820SOL    HW223094   3.277   3.317   9.796 -2.2450 -1.1532  2.1759
 3821SOL     OW23095   0.174   2.172   1.449 -0.7754  0.3389  0.5168
 3821SOL    HW123096   0.185   2.229   1.374 -1.7395  0.0463  0.1534
 3821SOL    HW223097   0.260   2.185   1.489 -0.7902 -2.6081  1.5148
 3822SOL     OW23098   3.742   3.753   2.322  0.3403 -0.1069 -0.1318
 3822SOL    HW123099   3.773   3.796   2.401 -3.0842 -1.2699  1.8611
 3822SOL    HW223100   3.782   3.812   2.259  0.3941  0.8851  0.8325
 3823SOL     OW23101   1.779   3.054  13.582  0.1344 -0.5168  1.0802
 3823SOL    HW123102   1.691   3.085  13.561 -0.1525 -1.5078  0.8300
 3823SOL    HW223103   1.770   2.959  13.575 -1.9173 -0.3658  1.7945
 3824SOL     OW23104   0.003   1.296   5.608  0.5433  0.4391  0.4126
 3824SOL    HW123105   4.709   1.309   5.698 -1.4212  3.3651 -0.6987
 3824SOL    HW223106   4.662   1.300   5.554  1.4422  2.6800 -0.7231
 3825SOL     OW23107   3.791   2.329  14.653  0.6299 -0.0099  0.0412
 3825SOL    HW123108   3.828   2.367  14.573 -0.5782 -0.8650 -0.9285
 3825SOL    HW223109   3.759   2.242  14.628  3.3308 -0.2946 -2.4442
 3826SOL     OW23110   1.738   0.096   3.207  0.0199 -0.6233 -0.2037
 3826SOL    HW123111   1.825   0.080   3.171 -0.7566  0.1763 -2.4033
 3826SOL    HW223112   1.756   0.096   3.302 -3.4103 -1.7149  0.4254
 3827SOL     OW23113   1.457   2.648   9.849 -0.1163  0.0992 -0.5787
 3827SOL    HW123114   1.430   2.640   9.757 -3.9424  0.0503  0.5386
 3827SOL    HW223115   1.525   2.581   9.854 -0.3725 -0.2354 -1.6506
 3828SOL     OW23116   4.426   1.574  14.291 -0.0925  0.4444  0.4688
 3828SOL    HW123117   4.424   1.639  14.361 -1.5799 -0.7269  1.4980
 3828SOL    HW223118   4.506   1.530  14.319  1.4421  3.2016  0.4934
 3829SOL     OW23119   4.282   0.774   3.196 -0.1804  0.5430 -0.3936
 3829SOL    HW123120   4.376   0.761   3.193  0.0098  1.5179  1.5101
 3829SOL    HW223121   4.278   0.828   3.274 -1.7270  0.3593 -0.3319
 3830SOL     OW23122   3.950   3.991   0.257 -0.3335 -0.6050  0.2753
 3830SOL    HW123123   4.003   3.921   0.217  0.1149 -1.4502  2.3478
 3830SOL    HW223124   3.862   3.974   0.226 -1.4505  2.3616  1.7987
 3831SOL     OW23125   0.532   3.883   3.110 -0.0113 -0.3919 -0.2351
 3831SOL    HW123126   0.487   3.967   3.120  0.8664 -0.0946  1.2530
 3831SOL    HW223127   0.527   3.847   3.199  3.2723  0.0263  0.1267
 3832SOL     OW23128   1.038   2.446  13.698  0.0767  0.1273  0.3807
 3832SOL    HW123129   0.984   2.417  13.625  0.3041  1.9717 -0.5032
 3832SOL    HW223130   1.064   2.362  13.737 -0.4724 -0.4894 -0.6027
 3833SOL     OW23131   1.318   3.279   7.399  0.1522  0.6262  0.0974
 3833SOL    HW123132   1.399   3.300   7.353 -0.2935  0.5755 -0.7238
 3833SOL    HW223133   1.264   3.344   7.355  2.6666  2.1223 -0.7740
 3834SOL     OW23134   3.240   3.656  12.279 -1.1573  0.7089 -0.2656
 3834SOL    HW123135   3.323   3.664  12.325 -1.8279  2.2329  0.6610
 3834SOL    HW223136   3.252   3.723  12.211 -0.2612  0.6266 -0.1890
 3835SOL     OW23137   3.297   4.451   9.036 -0.5558 -0.5995 -0.6088
 3835SOL    HW123138   3.285   4.523   8.973  2.5564 -0.0175 -0.5589
 3835SOL    HW223139   3.234   4.478   9.103  0.7626  1.3419 -0.1487
 3836SOL     OW23140   0.549   4.089  16.474  0.0086  0.3594  0.2208
 3836SOL    HW123141   0.593   4.097  16.390 -0.1733  0.8688  0.1736
 3836SOL    HW223142   0.575   4.171  16.515 -1.5751  0.8057  0.3252
 3837SOL     OW23143   3.442   3.264  12.630 -0.3242  0.0603  0.2445
 3837SOL    HW123144   3.451   3.198  12.561  3.1170  1.1298 -0.3777
 3837SOL    HW223145   3.388   3.223  12.697  0.7650 -0.9177  0.5222
 3838SOL     OW23146   1.315   2.002   3.894  0.7454  0.3925 -0.3084
 3838SOL    HW123147   1.280   2.089   3.915 -0.6644 -0.4108  0.6970
 3838SOL    HW223148   1.362   1.986   3.976  1.7194  1.2436 -0.6941
 3839SOL     OW23149   0.649   1.470  14.864 -0.3520 -0.5999  0.3309
 3839SOL    HW123150   0.612   1.497  14.780 -1.9567  0.8878  1.5066
 3839SOL    HW223151   0.728   1.524  14.862  0.1815 -1.3479  1.4497
 3840SOL     OW23152   0.817   0.690   6.943 -0.3695 -0.4478  0.6984
 3840SOL    HW123153   0.838   0.601   6.916 -0.7860 -1.0969  2.4983
 3840SOL    HW223154   0.728   0.676   6.976 -1.7011  0.9982 -2.1755
 3841SOL     OW23155   2.034   2.366   4.467  0.0056 -0.2214  0.6073
 3841SOL    HW123156   2.002   2.381   4.556  0.5855  1.3429  0.5546
 3841SOL    HW223157   2.003   2.276   4.461 -2.3842  0.6313  0.2149
 3842SOL     OW23158   4.319   2.886   4.483 -0.2498 -0.6091  0.6959
 3842SOL    HW123159   4.329   2.928   4.398  1.7864  0.8950  1.6878
 3842SOL    HW223160   4.265   2.811   4.456  0.6561 -1.2337  0.6245
 3843SOL     OW23161   4.504   4.320   4.100 -0.1570 -0.0563 -0.1856
 3843SOL    HW123162   4.577   4.260   4.099  0.7017  0.9762  0.3606
 3843SOL    HW223163   4.557   4.395   4.073  1.1662 -1.4994 -1.5756
 3844SOL     OW23164   1.782   3.491   9.049  0.1156 -0.5216  0.2337
 3844SOL    HW123165   1.691   3.513   9.070 -0.6614 -2.4729 -1.1112
 3844SOL    HW223166   1.825   3.568   9.087 -0.9914  0.4448 -0.4507
 3845SOL     OW23167   1.331   3.672   5.398 -0.8458 -0.6094 -0.5119
 3845SOL    HW123168   1.381   3.691   5.477 -1.4312 -0.1540 -0.2567
 3845SOL    HW223169   1.274   3.605   5.434 -0.3611 -0.1887  1.0093
 3846SOL     OW23170   1.959   2.444   5.881  0.2880 -0.1672 -0.5402
 3846SOL    HW123171   1.928   2.357   5.909  4.2469 -1.1524  0.7165
 3846SOL    HW223172   1.875   2.486   5.861  0.1441 -0.4842 -0.6112
 3847SOL     OW23173   1.783   4.071   0.717  0.8739  0.4613  1.1242
 3847SOL    HW123174   1.805   3.981   0.739  2.5841  0.6787  0.2066
 3847SOL    HW223175   1.692   4.067   0.748  0.2373  0.5115 -0.7278
 3848SOL     OW23176   3.533   0.339   3.780  0.5838  0.1290  0.5464
 3848SOL    HW123177   3.445   0.364   3.807  0.6828  1.1922 -0.0975
 3848SOL    HW223178   3.519   0.300   3.694  0.8540  1.2054  0.0031
 3849SOL     OW23179   2.973   4.355   4.617 -0.2309  0.7032 -0.2076
 3849SOL    HW123180   2.936   4.277   4.659 -1.2423  0.6050 -1.2861
 3849SOL    HW223181   3.025   4.393   4.688  0.4503 -0.4878 -0.0642
 3850SOL     OW23182   0.504   4.279   6.658  0.4546  0.1077 -0.9019
 3850SOL    HW123183   0.500   4.225   6.736  0.9536  1.3310 -0.0358
 3850SOL    HW223184   0.570   4.237   6.601  0.4885  1.0943 -1.5949
 3851SOL     OW23185   3.415   3.035   1.561 -0.2199  0.4428 -0.4025
 3851SOL    HW123186   3.436   3.033   1.654 -0.2085  1.5869 -0.3789
 3851SOL    HW223187   3.502   3.040   1.521  0.2775  0.2038  0.6541
 3852SOL     OW23188   1.236   3.850  15.195  0.1244  0.1981 -0.2829
 3852SOL    HW123189   1.305   3.909  15.228 -0.1718 -0.4660  1.4849
 3852SOL    HW223190   1.286   3.812  15.123 -3.0993 -1.9660 -1.3373
 3853SOL     OW23191   0.522   1.070   6.498 -0.0885  0.3944 -0.0833
 3853SOL    HW123192   0.613   1.074   6.527  0.6492 -1.1046 -2.1826
 3853SOL    HW223193   0.486   1.040   6.582 -0.1268  0.9097  0.0793
 3854SOL     OW23194   4.580   0.655  17.688  0.1090 -0.6561 -0.4787
 3854SOL    HW123195   4.551   0.693  17.605  1.6945  0.3507 -0.5652
 3854SOL    HW223196   4.658   0.708  17.707 -0.9217  0.0828  1.6589
 3855SOL     OW23197   1.545   3.423   7.281 -0.0313 -0.4736  0.0329
 3855SOL    HW123198   1.497   3.493   7.237  1.2802  0.7016  0.4994
 3855SOL    HW223199   1.626   3.473   7.287 -0.4711  0.3730 -1.0365
 3856SOL     OW23200   3.876   2.213   9.128  0.0548  0.7220  0.3865
 3856SOL    HW123201   3.787   2.181   9.112  0.8829 -0.6259 -1.5914
 3856SOL    HW223202   3.918   2.186   9.046  0.2253  0.7632  0.4586
 3857SOL     OW23203   2.965   0.750   7.396  0.0515 -0.0743 -0.0998
 3857SOL    HW123204   3.000   0.772   7.482  0.3710 -0.7089 -0.0698
 3857SOL    HW223205   3.037   0.696   7.364  0.2806 -0.8840  1.8125
 3858SOL     OW23206   1.061   1.677   6.086  0.3078  0.3172 -0.3829
 3858SOL    HW123207   0.975   1.653   6.119  1.2709 -1.1320  1.0813
 3858SOL    HW223208   1.045   1.760   6.041 -0.3490  0.1182 -0.5189
 3859SOL     OW23209   3.061   1.306   8.816  0.8291 -0.3246 -0.0233
 3859SOL    HW123210   3.104   1.312   8.730 -0.6676  1.6728 -0.6309
 3859SOL    HW223211   3.097   1.221   8.841 -0.7244 -0.9187  0.1952
 3860SOL     OW23212   3.949   2.301   9.528 -0.6488  0.5143 -0.6253
 3860SOL    HW123213   3.883   2.319   9.596  0.7867  0.3449  0.8081
 3860SOL    HW223214   4.001   2.381   9.525  0.4402 -0.2068 -0.8863
 3861SOL     OW23215   0.482   3.348  12.684 -0.0747  0.4617 -0.2816
 3861SOL    HW123216   0.570   3.322  12.654  0.3321  1.6958 -0.1517
 3861SOL    HW223217   0.426   3.273  12.665  0.7004 -0.1591 -0.1410
 3862SOL     OW23218   3.437   1.553   6.099 -0.2524 -0.0158  0.2688
 3862SOL    HW123219   3.364   1.605   6.135 -1.6170 -1.4227 -0.5009
 3862SOL    HW223220   3.403   1.536   6.011  0.6050 -1.1664  0.1745
 3863SOL     OW23221   1.982   2.504   2.227 -0.4908 -0.0822  0.3310
 3863SOL    HW123222   1.926   2.495   2.304 -0.7783 -1.8280 -0.0950
 3863SOL    HW223223   1.971   2.423   2.178 -4.3111  0.4317  0.3625
 3864SOL     OW23224   2.878   1.761   8.115 -0.0225 -0.2470 -0.9967
 3864SOL    HW123225   2.874   1.701   8.190 -0.9110 -0.6142 -1.3414
 3864SOL    HW223226   2.973   1.772   8.107  0.0276  0.1115  0.0727
 3865SOL     OW23227   2.201   4.728  12.868 -0.3440 -0.2288 -0.7236
 3865SOL    HW123228   2.156   0.013  12.949  1.0841  0.2246 -0.0657
 3865SOL    HW223229   2.252   0.067  12.845  0.7928  0.0836  2.8921
 3866SOL     OW23230   3.746   2.222  17.532 -0.2043  0.0058 -0.1205
 3866SOL    HW123231   3.681   2.152  17.527  0.4796 -0.6050 -0.3205
 3866SOL    HW223232   3.697   2.298  17.499 -1.7662 -0.1421  1.8489
 3867SOL     OW23233   2.545   3.343   2.203 -0.3465 -0.3345  0.2405
 3867SOL    HW123234   2.525   3.288   2.127  0.8693 -1.7110  0.9202
 3867SOL    HW223235   2.639   3.336   2.218 -0.1561  0.6541 -0.4547
 3868SOL     OW23236   0.547   2.265  10.521  0.3185 -0.3114 -0.0484
 3868SOL    HW123237   0.527   2.337  10.461 -1.2282 -0.1848  0.6218
 3868SOL    HW223238   0.509   2.288  10.606 -2.0401  2.0550 -1.7462
 3869SOL     OW23239   2.404   1.258   3.304 -0.2422 -0.5582  0.5203
 3869SOL    HW123240   2.499   1.266   3.315 -0.2155 -1.9046  1.3489
 3869SOL    HW223241   2.397   1.242   3.210  1.0464 -1.9681  0.6550
 3870SOL     OW23242   0.132   3.156   0.821  0.5324 -0.2646  0.6322
 3870SOL    HW123243   0.044   3.142   0.786  1.5224 -2.6423 -0.8849
 3870SOL    HW223244   0.180   3.115   0.750  1.1055  1.0890  0.2599
 3871SOL     OW23245   1.523   1.211   2.113 -0.1205 -0.0445 -0.2084
 3871SOL    HW123246   1.495   1.199   2.204  0.1374  1.8932  0.1290
 3871SOL    HW223247   1.522   1.305   2.095 -2.3165 -0.1837 -0.8237
 3872SOL     OW23248   2.671   2.163   4.101  0.1949  0.2270 -0.5473
 3872SOL    HW123249   2.743   2.134   4.157  0.0691  0.9406 -0.0214
 3872SOL    HW223250   2.720   2.184   4.022  0.9910  1.9214  0.3945
 3873SOL     OW23251   3.932   1.036   8.618 -0.2462 -0.6091  0.1238
 3873SOL    HW123252   3.952   1.018   8.526  2.1112 -1.7702  0.8582
 3873SOL    HW223253   4.022   1.032   8.651  0.0873 -0.7310 -0.7780
 3874SOL     OW23254   0.527   2.888  12.205  0.3971 -0.1804  0.4541
 3874SOL    HW123255   0.445   2.905  12.251  0.4780  0.6727  0.2913
 3874SOL    HW223256   0.543   2.794  12.210 -0.4871 -0.3396  0.3105
 3875SOL     OW23257   3.335   2.573   7.412  0.0577 -0.6803 -0.3405
 3875SOL    HW123258   3.402   2.567   7.344 -0.1404 -0.0822 -0.5862
 3875SOL    HW223259   3.356   2.496   7.464 -1.7708 -1.6380 -0.9990
 3876SOL     OW23260   2.031   3.898  10.937  0.3423  0.2016  0.1392
 3876SOL    HW123261   2.104   3.959  10.952 -0.7523  1.5264  0.1050
 3876SOL    HW223262   1.983   3.921  11.016  1.6064 -0.5441  1.1138
 3877SOL     OW23263   2.057   3.095  15.984  0.4409 -0.2941 -0.4542
 3877SOL    HW123264   2.073   3.083  15.890  1.0323 -2.8279 -0.0376
 3877SOL    HW223265   1.988   3.161  15.993  1.8041  1.1193 -0.4151
 3878SOL     OW23266   3.713   2.297  13.989 -0.1222  0.3890 -0.1790
 3878SOL    HW123267   3.747   2.218  13.946  1.3461  1.5551 -1.1539
 3878SOL    HW223268   3.787   2.356  13.979  0.2022 -0.2104 -1.3951
 3879SOL     OW23269   0.710   0.754   4.868 -0.1658 -0.0737 -0.2501
 3879SOL    HW123270   0.656   0.704   4.807 -0.0781 -0.4746  0.0019
 3879SOL    HW223271   0.663   0.743   4.951  0.7697  1.5229  0.5003
 3880SOL     OW23272   3.410   1.282   6.156 -0.5689 -0.2511  0.3996
 3880SOL    HW123273   3.321   1.296   6.126 -0.7909  1.6244  1.9532
 3880SOL    HW223274   3.434   1.374   6.170 -3.1139  0.0601  2.5759
 3881SOL     OW23275   3.869   3.411   8.549 -0.1728 -0.2406 -0.1041
 3881SOL    HW123276   3.926   3.479   8.515  0.5054 -0.4350  0.6492
 3881SOL    HW223277   3.900   3.387   8.636  1.7207  1.1952 -0.4033
 3882SOL     OW23278   3.348   0.790  11.568 -0.3436 -1.1087  0.8704
 3882SOL    HW123279   3.301   0.812  11.487  1.8200 -1.0813 -0.3959
 3882SOL    HW223280   3.439   0.818  11.555 -0.3775 -0.7350  1.4273
 3883SOL     OW23281   3.070   0.743   3.555  0.0589 -0.2336  0.5432
 3883SOL    HW123282   3.082   0.801   3.631  2.6340  2.2118 -1.7672
 3883SOL    HW223283   3.074   0.659   3.602 -2.1610 -1.0917 -0.7935
 3884SOL     OW23284   2.980   4.693  10.966 -0.3025  0.3178 -0.0728
 3884SOL    HW123285   2.971   0.033  10.912  1.3494  0.3739 -0.2464
 3884SOL    HW223286   2.928   4.730  11.038  0.6814 -0.2230  0.9243
 3885SOL     OW23287   0.448   0.531   7.256  0.2613 -0.1427 -0.8153
 3885SOL    HW123288   0.426   0.523   7.349  0.7680 -2.2645 -0.8859
 3885SOL    HW223289   0.508   0.458   7.241  0.4611  0.3828 -2.4908
 3886SOL     OW23290   1.621   2.356   1.518 -0.2002  0.4730  0.0651
 3886SOL    HW123291   1.679   2.330   1.590 -1.3428  2.3239  1.6426
 3886SOL    HW223292   1.537   2.363   1.564 -0.5527  0.5254 -0.5866
 3887SOL     OW23293   2.885   0.956   5.269  0.4979  0.2511 -0.7217
 3887SOL    HW123294   2.902   1.029   5.209  1.0600  0.6771 -0.0318
 3887SOL    HW223295   2.971   0.925   5.296 -0.3208 -1.4754 -0.0821
 3888SOL     OW23296   0.357   2.441   2.352 -0.4198 -0.2968  0.3515
 3888SOL    HW123297   0.298   2.510   2.323  1.2193  0.3032 -1.5589
 3888SOL    HW223298   0.358   2.462   2.446  0.9156 -1.3564  0.5741
 3889SOL     OW23299   1.514   3.529   9.119 -0.3404 -0.5676 -0.4544
 3889SOL    HW123300   1.533   3.601   9.179 -1.2879 -0.1472 -0.6572
 3889SOL    HW223301   1.425   3.507   9.147 -1.3661  2.0983 -1.6216
 3890SOL     OW23302   3.676   0.687  10.202 -0.1752 -0.9253 -0.6900
 3890SOL    HW123303   3.725   0.652  10.277  1.6061 -0.4192 -1.6220
 3890SOL    HW223304   3.587   0.690  10.238 -0.3444 -2.0652 -1.0136
 3891SOL     OW23305   2.768   1.752   2.463 -0.4976  0.3266 -0.0447
 3891SOL    HW123306   2.819   1.793   2.533  2.1880 -1.2925 -1.0461
 3891SOL    HW223307   2.800   1.662   2.458  1.0515  0.7984  1.4308
 3892SOL     OW23308   3.734   1.898  17.588  0.1806  0.0692  0.2623
 3892SOL    HW123309   3.805   1.960  17.572  0.5929 -0.1924  1.0355
 3892SOL    HW223310   3.691   1.895  17.503  1.3972  1.5879 -0.4002
 3893SOL     OW23311   0.707   0.136  14.087 -0.4059  0.3298 -0.1354
 3893SOL    HW123312   0.651   0.079  14.139  0.5819 -0.5517 -0.0590
 3893SOL    HW223313   0.656   0.217  14.079 -2.0944 -0.5937  1.2858
 3894SOL     OW23314   4.254   4.346   8.523  0.3454  0.0927 -0.1896
 3894SOL    HW123315   4.247   4.427   8.573  1.6379  0.8862 -1.2555
 3894SOL    HW223316   4.165   4.332   8.491  0.0231 -1.0093  1.2542
 3895SOL     OW23317   3.095   3.319   6.979  0.5096 -0.3553  0.1693
 3895SOL    HW123318   3.144   3.239   6.959 -1.5780 -2.1095  2.0153
 3895SOL    HW223319   3.149   3.340   7.055  0.4029 -1.2250  0.4905
 3896SOL     OW23320   0.324   0.153   6.365 -0.3050 -0.5097 -0.4009
 3896SOL    HW123321   0.374   0.153   6.283 -0.4427 -1.0593 -0.4838
 3896SOL    HW223322   0.325   0.058   6.375  0.0293 -0.3808  0.7224
 3897SOL     OW23323   1.741   4.356   4.604  0.3706 -0.0652  0.2123
 3897SOL    HW123324   1.768   4.394   4.520 -1.4512 -1.4255 -1.0052
 3897SOL    HW223325   1.821   4.355   4.656 -1.7497 -1.6218  3.3828
 3898SOL     OW23326   0.292   0.731  14.247  0.1845 -0.8255 -0.1441
 3898SOL    HW123327   0.288   0.826  14.253 -0.7911 -0.9213  0.5890
 3898SOL    HW223328   0.259   0.717  14.336  0.1644 -2.9946 -0.4771
 3899SOL     OW23329   1.743   1.523   5.100 -0.5211 -0.2685 -0.0579
 3899SOL    HW123330   1.653   1.533   5.131 -0.4334 -1.4594  0.5809
 3899SOL    HW223331   1.776   1.613   5.093  1.0401 -0.6721  1.8027
 3900SOL     OW23332   3.811   3.542   5.659  0.1509 -0.2897 -0.3535
 3900SOL    HW123333   3.760   3.573   5.734 -0.9889 -3.6684  0.2452
 3900SOL    HW223334   3.866   3.473   5.694  1.0080 -0.8148 -2.6970
 3901SOL     OW23335   3.436   0.127   4.190 -0.7181 -0.0414  0.3863
 3901SOL    HW123336   3.394   0.205   4.228  1.0235  0.8360  0.5169
 3901SOL    HW223337   3.511   0.168   4.146 -0.1427 -1.2233  0.2757
 3902SOL     OW23338   0.714   1.870   0.051 -0.3531  0.5263  0.4694
 3902SOL    HW123339   0.718   1.818  17.721  0.0899 -0.1643  0.9481
 3902SOL    HW223340   0.808   1.880   0.063 -0.4957  0.5066  1.6129
 3903SOL     OW23341   1.912   3.890   2.939 -0.4937 -0.0999  0.6208
 3903SOL    HW123342   1.878   3.801   2.954 -1.7837  0.3819  0.6104
 3903SOL    HW223343   1.902   3.932   3.024 -0.5849  1.4427 -0.1417
 3904SOL     OW23344   0.536   1.100   8.989  0.1794 -0.2478 -0.3248
 3904SOL    HW123345   0.481   1.050   8.928 -1.4900  1.3041 -0.0862
 3904SOL    HW223346   0.521   1.047   9.068 -0.5422 -1.4780 -1.2798
 3905SOL     OW23347   3.703   2.469  11.943 -0.0772 -0.5171  0.2166
 3905SOL    HW123348   3.648   2.458  11.866  0.2331 -0.7335  0.0250
 3905SOL    HW223349   3.668   2.397  11.995 -2.3413 -0.7065 -1.5803
 3906SOL     OW23350   3.482   2.648   1.566  0.3047  0.1411 -0.3554
 3906SOL    HW123351   3.399   2.641   1.613  0.1505  0.2364 -0.6131
 3906SOL    HW223352   3.546   2.650   1.637 -0.4106 -0.4491  0.2977
 3907SOL     OW23353   1.960   3.103   8.754  0.6684  0.7332  0.0057
 3907SOL    HW123354   2.041   3.051   8.758 -0.6110 -1.3590 -1.1947
 3907SOL    HW223355   1.926   3.093   8.843  0.6810  1.8703  0.1390
 3908SOL     OW23356   2.749   2.952   7.390 -0.2985  0.4175 -0.3217
 3908SOL    HW123357   2.699   2.967   7.470  0.1477  1.7331 -0.3049
 3908SOL    HW223358   2.841   2.958   7.414  0.1046 -0.1999 -1.7094
 3909SOL     OW23359   2.652   1.328   5.536  0.1246 -0.2837  0.1272
 3909SOL    HW123360   2.644   1.298   5.445 -0.2236 -2.3684  0.8416
 3909SOL    HW223361   2.561   1.309   5.560  0.1777  0.1253  0.6280
 3910SOL     OW23362   3.268   3.584   2.548  0.5613 -0.3181  0.4251
 3910SOL    HW123363   3.245   3.531   2.472 -0.5036  1.4249 -0.4431
 3910SOL    HW223364   3.339   3.635   2.510  1.1911 -0.4326  1.4251
 3911SOL     OW23365   0.530   0.099   4.206  0.0863 -0.2259 -0.0344
 3911SOL    HW123366   0.451   0.132   4.249  0.6957  0.8720  0.2225
 3911SOL    HW223367   0.578   0.059   4.278 -0.6122  0.0651  0.6029
 3912SOL     OW23368   2.523   3.174   5.045  0.5145  0.0433 -0.0457
 3912SOL    HW123369   2.602   3.226   5.028 -0.2981  1.1039 -0.5359
 3912SOL    HW223370   2.473   3.243   5.088  0.0075 -0.4521  0.1639
 3913SOL     OW23371   4.601   2.880   3.889  0.3879  0.0474  0.0221
 3913SOL    HW123372   4.515   2.844   3.913 -0.1474  2.1199  1.2156
 3913SOL    HW223373   4.612   2.842   3.802  0.0614  0.5923 -0.2512
 3914SOL     OW23374   3.900   1.653   5.194 -0.2054  0.3634  0.3957
 3914SOL    HW123375   3.987   1.620   5.217  0.4211 -0.1803 -2.8121
 3914SOL    HW223376   3.922   1.736   5.152  0.2302  0.8419  1.5771
 3915SOL     OW23377   3.591   4.340   9.893 -0.2450 -1.1783 -0.0036
 3915SOL    HW123378   3.521   4.278   9.913 -1.5988 -0.1451 -1.5017
 3915SOL    HW223379   3.548   4.419   9.926  0.2351 -2.4577  3.7226
 3916SOL     OW23380   0.569   2.264   4.536 -0.0440  0.0789  0.3048
 3916SOL    HW123381   0.563   2.347   4.489  0.1600  1.0407  1.9826
 3916SOL    HW223382   0.577   2.302   4.623  0.6946  1.1263 -0.2123
 3917SOL     OW23383   1.499   3.713   5.609  0.5675 -0.0117 -0.3932
 3917SOL    HW123384   1.483   3.800   5.644 -2.4934 -0.2274 -1.2301
 3917SOL    HW223385   1.539   3.682   5.690 -0.7378  3.4447  1.5603
 3918SOL     OW23386   4.624   3.337  17.320  0.4260  0.3736 -0.3634
 3918SOL    HW123387   4.587   3.390  17.391  2.0756  0.9288  0.0732
 3918SOL    HW223388   4.625   3.247  17.355 -0.4801  1.6767  3.0395
 3919SOL     OW23389   3.348   3.237   6.092 -0.0476  0.1696  0.0199
 3919SOL    HW123390   3.360   3.152   6.050 -0.7098 -0.1832  0.5491
 3919SOL    HW223391   3.360   3.307   6.028 -0.3351  0.4752  0.2967
 3920SOL     OW23392   4.373   0.442   1.713  0.0118 -0.4189 -0.3501
 3920SOL    HW123393   4.302   0.419   1.653  0.4952 -2.1275 -0.2725
 3920SOL    HW223394   4.418   0.359   1.733  0.7286  0.2716  0.9225
 3921SOL     OW23395   1.307   1.280  15.301  0.2219  0.0742  0.1893
 3921SOL    HW123396   1.350   1.357  15.340  0.7542  0.5070 -1.2614
 3921SOL    HW223397   1.231   1.275  15.360 -0.2029  0.7460 -0.2985
 3922SOL     OW23398   1.874   0.783   3.186  0.0483 -0.0868 -0.3518
 3922SOL    HW123399   1.820   0.850   3.229 -0.0087 -1.0015  1.0027
 3922SOL    HW223400   1.884   0.819   3.098  0.6300  1.3417  0.2889
 3923SOL     OW23401   3.127   3.856   9.175 -0.3381  0.4270  0.1372
 3923SOL    HW123402   3.191   3.786   9.172 -1.3864 -0.4907 -1.0333
 3923SOL    HW223403   3.169   3.929   9.221  1.4864 -0.5332 -0.0471
 3924SOL     OW23404   2.943   3.985  15.244 -0.3894 -0.6695 -0.0710
 3924SOL    HW123405   2.951   4.000  15.338  1.6530  2.0099 -0.6851
 3924SOL    HW223406   2.973   4.067  15.205 -1.9763 -0.5091 -0.9384
 3925SOL     OW23407   1.886   3.035   7.398 -0.6931  0.8116  0.4169
 3925SOL    HW123408   1.906   3.109   7.340 -0.6789  0.8790  0.5066
 3925SOL    HW223409   1.887   3.078   7.484 -1.5989 -0.1968  0.9342
 3926SOL     OW23410   3.729   1.390   8.785  0.0546 -0.5148  0.1875
 3926SOL    HW123411   3.657   1.442   8.819  0.1097 -0.3015 -0.0207
 3926SOL    HW223412   3.676   1.336   8.726 -1.1072 -1.3751  2.0375
 3927SOL     OW23413   0.428   2.745   8.802  0.1145 -0.0923 -0.3519
 3927SOL    HW123414   0.421   2.650   8.793  0.5111 -0.1282 -0.2855
 3927SOL    HW223415   0.510   2.748   8.753 -0.3448  0.0063 -1.1105
 3928SOL     OW23416   1.773   0.662   8.569 -0.8679 -0.3495  0.3394
 3928SOL    HW123417   1.698   0.610   8.538 -0.3443  1.0944 -3.2898
 3928SOL    HW223418   1.840   0.595   8.561 -0.2184  0.1146  1.9549
 3929SOL     OW23419   1.873   2.608   4.891 -0.3011  0.0455 -0.3469
 3929SOL    HW123420   1.906   2.664   4.821  0.7344  0.3134  0.3662
 3929SOL    HW223421   1.910   2.649   4.969 -0.8989  0.3266 -0.2119
 3930SOL     OW23422   0.267   0.492   5.894  0.1294  0.0150  0.5174
 3930SOL    HW123423   0.360   0.517   5.887  0.2519 -0.6514 -0.1862
 3930SOL    HW223424   0.230   0.566   5.942 -1.9923 -1.1020  0.5822
 3931SOL     OW23425   0.270   0.763   9.217  0.1502  0.0356  0.0427
 3931SOL    HW123426   0.233   0.847   9.244 -0.4836  0.6283 -2.6388
 3931SOL    HW223427   0.358   0.798   9.205  0.8197 -0.9527  2.0796
 3932SOL     OW23428   1.392   2.338   1.677 -0.1012  0.3894  0.3776
 3932SOL    HW123429   1.353   2.313   1.761 -1.1188  0.9974  0.0918
 3932SOL    HW223430   1.359   2.284   1.605  0.1483  0.2547  0.3649
 3933SOL     OW23431   4.088   1.523   3.744 -0.3416 -0.5483  0.0922
 3933SOL    HW123432   4.131   1.543   3.661  0.9327 -0.6990  0.7207
 3933SOL    HW223433   4.013   1.477   3.707  1.5539 -2.5671 -1.1679
 3934SOL     OW23434   4.450   1.681   4.853 -0.1373 -0.4918  0.1295
 3934SOL    HW123435   4.531   1.642   4.818 -0.1673  0.9071 -1.4813
 3934SOL    HW223436   4.435   1.748   4.787  0.0371 -0.6031 -0.0244
 3935SOL     OW23437   2.470   4.287  14.024  0.1261  0.1402  0.2264
 3935SOL    HW123438   2.388   4.264  14.068  1.4646 -1.1321  2.0166
 3935SOL    HW223439   2.488   4.373  14.063  0.5584  0.7973 -1.4151
 3936SOL     OW23440   3.724   2.472   8.412  0.5355  0.0330 -0.0297
 3936SOL    HW123441   3.744   2.548   8.357  2.2409 -1.3290 -1.2632
 3936SOL    HW223442   3.678   2.406   8.362  0.2951  0.2390 -0.0827
 3937SOL     OW23443   2.535   2.590   2.801  0.2633  0.3396  0.5263
 3937SOL    HW123444   2.527   2.685   2.799 -1.2786  0.2060  0.2963
 3937SOL    HW223445   2.572   2.570   2.887  0.8155 -0.4334  0.1070
 3938SOL     OW23446   0.510   3.980   1.129 -0.3201 -0.3098  0.4097
 3938SOL    HW123447   0.523   3.927   1.050  3.3791  1.1718  0.0466
 3938SOL    HW223448   0.596   3.974   1.170  0.5393  0.4390 -1.3141
 3939SOL     OW23449   3.639   2.961   1.964 -0.5263 -0.6351 -0.3493
 3939SOL    HW123450   3.629   2.917   2.048  3.1003 -1.7796 -0.5426
 3939SOL    HW223451   3.717   2.916   1.932 -0.7334 -1.1546 -0.1221
 3940SOL     OW23452   3.810   3.802  10.162 -0.1795  0.0334  0.3369
 3940SOL    HW123453   3.779   3.823  10.074 -2.7412 -0.8875  1.0224
 3940SOL    HW223454   3.734   3.811  10.219  0.7015 -1.3314  1.7182
 3941SOL     OW23455   0.678   2.687   2.487 -0.7522 -0.4222  0.1119
 3941SOL    HW123456   0.587   2.701   2.513  0.1940  0.1502  3.0859
 3941SOL    HW223457   0.714   2.754   2.544 -1.0868  1.3829 -1.8086
 3942SOL     OW23458   4.386   0.469   2.431  0.1167 -0.4567 -0.2585
 3942SOL    HW123459   4.329   0.514   2.493 -0.6713 -1.6891 -0.0892
 3942SOL    HW223460   4.321   0.416   2.385  0.5555 -1.7630  0.6365
 3943SOL     OW23461   0.988   2.097   0.778  0.2777 -0.2646 -0.6316
 3943SOL    HW123462   0.928   2.129   0.711  0.0819  1.4249  0.3199
 3943SOL    HW223463   0.933   2.049   0.839  2.4592 -1.0546  0.7222
 3944SOL     OW23464   0.630   3.440   9.889 -0.1642  0.3215  0.2971
 3944SOL    HW123465   0.599   3.514   9.836 -0.5799  0.7276  1.1129
 3944SOL    HW223466   0.682   3.392   9.824 -2.4014 -0.9655 -0.5729
 3945SOL     OW23467   2.858   3.582   7.556  0.3752 -0.3093 -0.4144
 3945SOL    HW123468   2.894   3.658   7.603  0.9306 -0.4744 -0.5813
 3945SOL    HW223469   2.930   3.553   7.501  0.8963 -0.2241  0.2240
 3946SOL     OW23470   1.765   3.251   2.195 -0.2387 -0.2056 -0.2192
 3946SOL    HW123471   1.764   3.159   2.170 -2.2746 -0.3166  0.2632
 3946SOL    HW223472   1.721   3.252   2.280 -0.4973 -1.4634 -0.3358
 3947SOL     OW23473   0.666   1.883   8.062 -0.2590 -0.0867  0.4514
 3947SOL    HW123474   0.720   1.952   8.025 -0.1218 -0.9522 -0.9895
 3947SOL    HW223475   0.631   1.924   8.141  0.2296 -0.2050  0.7290
 3948SOL     OW23476   0.647   0.059  14.595  0.2049  0.1297  0.2782
 3948SOL    HW123477   0.717   0.011  14.550 -0.3915 -1.1800  0.7487
 3948SOL    HW223478   0.639   0.137  14.540 -0.9637 -0.0740  0.1628
 3949SOL     OW23479   0.100   2.166   6.509 -0.2192  0.3634  0.0947
 3949SOL    HW123480   0.009   2.189   6.489 -0.4924 -1.9097 -1.2987
 3949SOL    HW223481   0.089   2.137   6.599  1.7216 -2.9991 -0.7335
 3950SOL     OW23482   2.712   4.014   4.497  0.1297  0.6839  0.0192
 3950SOL    HW123483   2.636   4.010   4.554 -0.4262 -0.9907 -0.8486
 3950SOL    HW223484   2.781   4.046   4.555 -0.0535  1.0154  0.0530
 3951SOL     OW23485   0.219   2.236   5.004 -0.2583 -0.0281 -0.0060
 3951SOL    HW123486   0.281   2.306   4.983 -1.5810  0.9862 -0.5444
 3951SOL    HW223487   0.283   2.164   5.002 -2.6306 -2.1792  1.1598
 3952SOL     OW23488   3.690   0.933   4.578  0.3770  0.2184 -0.4100
 3952SOL    HW123489   3.631   0.967   4.646  1.2291 -0.2555  0.5813
 3952SOL    HW223490   3.703   1.012   4.525 -0.6580  0.9204  0.3761
 3953SOL     OW23491   0.686   0.780   2.443 -0.0250  0.7240  0.1450
 3953SOL    HW123492   0.641   0.751   2.363  0.8077 -1.3654  0.4315
 3953SOL    HW223493   0.717   0.696   2.476 -1.7404  0.5529  1.3486
 3954SOL     OW23494   3.655   2.887   7.831 -0.0349  0.9787  0.3459
 3954SOL    HW123495   3.635   2.965   7.882  3.6848  2.1019  0.0522
 3954SOL    HW223496   3.751   2.890   7.833 -0.0906  0.9476  2.5876
 3955SOL     OW23497   1.307   1.276   8.982  0.2094 -0.1416  0.2615
 3955SOL    HW123498   1.307   1.352   8.924 -0.4995 -0.0131  0.4314
 3955SOL    HW223499   1.220   1.284   9.020  0.6849  2.5753  0.7424
 3956SOL     OW23500   3.793   2.205   6.400 -0.2586 -0.0491 -0.8810
 3956SOL    HW123501   3.705   2.230   6.374 -0.0381  0.0703 -1.5120
 3956SOL    HW223502   3.801   2.257   6.480 -0.3185 -1.8346  0.2901
 3957SOL     OW23503   4.429   2.761   5.102 -1.0122  0.3468  0.1515
 3957SOL    HW123504   4.371   2.692   5.133  0.3733 -0.0149  1.9257
 3957SOL    HW223505   4.512   2.725   5.132 -0.9653 -0.8622 -1.3983
 3958SOL     OW23506   0.134   1.283   5.068 -0.2544 -0.5241  0.1833
 3958SOL    HW123507   0.120   1.356   5.129  0.0785  0.2800 -0.7116
 3958SOL    HW223508   0.224   1.256   5.084  0.2571 -0.1409 -2.1080
 3959SOL     OW23509   4.290   3.117  13.522  0.0427 -0.5927 -0.0443
 3959SOL    HW123510   4.257   3.076  13.602 -1.0376  1.7888  0.7296
 3959SOL    HW223511   4.218   3.179  13.511 -1.9061 -2.7718  0.6018
 3960SOL     OW23512   0.384   2.403   7.053  0.2005  0.1476  0.1094
 3960SOL    HW123513   0.297   2.365   7.040  0.6508 -0.9330  0.2098
 3960SOL    HW223514   0.436   2.323   7.049  0.1684  0.0790  1.0999
 3961SOL     OW23515   4.370   1.916   4.406  0.0701 -0.1768 -0.5284
 3961SOL    HW123516   4.301   1.895   4.343 -0.0754 -0.8855 -0.1320
 3961SOL    HW223517   4.443   1.919   4.345  1.0710  0.3139  0.7014
 3962SOL     OW23518   2.434   2.636   1.579 -0.3817 -0.0033 -0.2084
 3962SOL    HW123519   2.357   2.578   1.579  1.0985 -1.9498  0.7011
 3962SOL    HW223520   2.421   2.681   1.495 -1.1384  0.4413  0.1429
 3963SOL     OW23521   1.650   4.348   0.010  0.1713 -0.2822  0.2439
 3963SOL    HW123522   1.678   4.257   0.018 -1.3324 -0.9633 -2.3445
 3963SOL    HW223523   1.557   4.334  17.744 -0.1715  0.9449  1.2222
 3964SOL     OW23524   2.014   4.309   6.051  0.1462 -0.6910 -0.1031
 3964SOL    HW123525   2.022   4.316   5.956  1.2485 -0.4158  0.0054
 3964SOL    HW223526   2.095   4.343   6.089  0.6963 -0.2535 -1.6555
 3965SOL     OW23527   1.828   3.783   9.084 -0.4866  0.6103 -0.5064
 3965SOL    HW123528   1.784   3.865   9.106 -0.0965  1.0546 -1.3674
 3965SOL    HW223529   1.879   3.803   9.005 -0.0290 -2.3389 -0.9473
 3966SOL     OW23530   2.922   3.438   8.072  0.7167 -0.0070  0.0232
 3966SOL    HW123531   2.977   3.392   8.009 -0.2069 -0.8253 -0.1973
 3966SOL    HW223532   2.891   3.511   8.019 -0.0487 -0.8890 -0.7507
 3967SOL     OW23533   3.088   1.469  15.434  0.0193  1.3004 -0.4968
 3967SOL    HW123534   3.002   1.511  15.428  0.2743  1.9264  0.2352
 3967SOL    HW223535   3.152   1.515  15.488 -2.0159  2.7079  0.6790
 3968SOL     OW23536   2.715   2.370   6.676  0.5234 -0.4619  0.3971
 3968SOL    HW123537   2.766   2.444   6.645 -0.1460  0.4443  1.4464
 3968SOL    HW223538   2.638   2.396   6.625 -0.1799 -1.3468  1.0015
 3969SOL     OW23539   4.028   3.960   1.231  0.3266  0.2671  0.0589
 3969SOL    HW123540   3.959   4.024   1.248  1.2977  1.0901  0.8929
 3969SOL    HW223541   4.008   3.947   1.138 -1.6732 -0.4221  0.5791
 3970SOL     OW23542   3.976   1.390   5.536  0.7005 -0.4416  0.2584
 3970SOL    HW123543   3.912   1.437   5.483 -0.8832 -1.5498  1.1672
 3970SOL    HW223544   3.970   1.312   5.481 -2.3262  1.8313 -2.6568
 3971SOL     OW23545   4.316   2.024   7.004 -0.6289 -0.3355 -0.1967
 3971SOL    HW123546   4.253   1.990   6.942 -0.2254  1.8783 -1.8367
 3971SOL    HW223547   4.260   2.002   7.079 -0.2571  2.1891  0.8480
 3972SOL     OW23548   3.921   2.207   2.946 -0.1870 -0.5171 -0.2341
 3972SOL    HW123549   3.862   2.222   3.020 -1.7240 -0.0768 -1.5552
 3972SOL    HW223550   3.864   2.222   2.870 -0.3297  2.7081  0.4763
 3973SOL     OW23551   1.961   3.070   2.368  0.0587 -0.2792  0.2501
 3973SOL    HW123552   2.035   3.131   2.365  0.7642 -1.1983 -1.4920
 3973SOL    HW223553   1.892   3.135   2.371  1.3648  1.0404  1.5455
 3974SOL     OW23554   1.224   0.169   5.796 -0.4970  0.4574  0.1099
 3974SOL    HW123555   1.210   0.088   5.845  0.3009  1.1957  1.5588
 3974SOL    HW223556   1.319   0.172   5.797 -0.4983  0.3681  0.4562
 3975SOL     OW23557   3.797   0.939   2.154 -0.2711  0.2073  0.2691
 3975SOL    HW123558   3.780   0.877   2.225 -0.6850  1.1485  0.9857
 3975SOL    HW223559   3.858   0.887   2.101 -0.5626 -0.5115  0.6289
 3976SOL     OW23560   4.637   4.236  10.120 -0.6224  0.4829 -0.0559
 3976SOL    HW123561   4.555   4.244  10.071 -0.2977  1.0097 -0.5128
 3976SOL    HW223562   4.616   4.259  10.211 -1.8455  0.4302 -0.3246
 3977SOL     OW23563   4.518   0.504  14.242  0.3989 -0.0417 -0.4207
 3977SOL    HW123564   4.599   0.524  14.289  0.5045  0.7124 -0.9215
 3977SOL    HW223565   4.561   0.487  14.158  1.3471 -1.7668  0.4069
 3978SOL     OW23566   4.632   2.073  12.715  0.1575 -0.0144 -0.1601
 3978SOL    HW123567   4.546   2.058  12.753  0.7593 -2.0946  0.4059
 3978SOL    HW223568   4.686   2.134  12.765 -1.2963 -0.2797  1.7174
 3979SOL     OW23569   1.695   2.994   2.206 -0.5761  0.2554  0.7142
 3979SOL    HW123570   1.772   2.954   2.246  0.1484  0.9948  0.0502
 3979SOL    HW223571   1.627   2.953   2.260  0.1898 -1.1628  0.6120
 3980SOL     OW23572   1.448   1.025   2.977 -0.1846 -0.4319 -0.2015
 3980SOL    HW123573   1.384   1.074   3.029  0.8665  2.2270 -1.4495
 3980SOL    HW223574   1.391   0.963   2.932 -1.9108 -0.0123  1.3854
 3981SOL     OW23575   1.895   3.982   3.867  0.2698 -0.4297 -0.1173
 3981SOL    HW123576   1.970   3.949   3.917  1.5094  0.8081 -1.1682
 3981SOL    HW223577   1.881   3.915   3.800  0.1055  0.0671 -0.5714
 3982SOL     OW23578   0.084   1.951   8.230  0.5523 -0.2416 -0.3169
 3982SOL    HW123579   0.149   1.931   8.162 -0.6308  0.8091 -1.7673
 3982SOL    HW223580   0.064   2.043   8.212 -1.0537 -0.4016  0.6684
 3983SOL     OW23581   1.221   0.399   7.937  0.3466 -0.0848  0.1527
 3983SOL    HW123582   1.176   0.471   7.980 -0.6688 -0.6177 -0.0074
 3983SOL    HW223583   1.260   0.446   7.863  0.4310 -1.7392 -0.8597
 3984SOL     OW23584   0.977   0.256   8.061 -1.1340 -0.4941 -0.4082
 3984SOL    HW123585   0.995   0.308   8.139  0.1372 -0.0843 -0.9884
 3984SOL    HW223586   0.892   0.212   8.073 -1.4061  0.3269  0.7053
 3985SOL     OW23587   1.521   0.621   5.160 -0.1171 -0.1522  0.4752
 3985SOL    HW123588   1.502   0.529   5.175  0.7398 -0.8117 -2.4807
 3985SOL    HW223589   1.535   0.616   5.065 -1.9682 -0.8624  0.2414
 3986SOL     OW23590   4.334   4.336   5.212 -0.0435  0.1604 -0.3235
 3986SOL    HW123591   4.261   4.274   5.215 -1.2064  1.6673  3.3367
 3986SOL    HW223592   4.286   4.415   5.236  1.8371  0.7679  1.4496
 3987SOL     OW23593   2.134   2.864   5.704 -0.7607 -0.1055 -0.0383
 3987SOL    HW123594   2.152   2.938   5.763  1.4129 -0.8104  0.1952
 3987SOL    HW223595   2.205   2.872   5.641  1.7821 -3.6572  2.3646
 3988SOL     OW23596   1.438   1.809   3.547  0.2662 -0.0496 -0.0696
 3988SOL    HW123597   1.415   1.717   3.534 -1.9277  0.7875 -2.1649
 3988SOL    HW223598   1.424   1.852   3.462  0.6323  2.0881  0.9529
 3989SOL     OW23599   1.731   2.859   8.102 -0.3605  0.2063 -0.4040
 3989SOL    HW123600   1.766   2.876   8.189  3.7131 -0.4140 -1.9007
 3989SOL    HW223601   1.804   2.809   8.066 -1.7953 -1.8533 -0.4118
 3990SOL     OW23602   3.346   1.731  13.955  0.5718  0.1341  0.0785
 3990SOL    HW123603   3.378   1.821  13.952 -0.0632  0.3395 -0.6403
 3990SOL    HW223604   3.252   1.744  13.971  0.8733  0.5117  1.5450
 3991SOL     OW23605   2.041   4.112   9.483  1.0808  0.6604  0.0785
 3991SOL    HW123606   2.029   4.122   9.389 -2.6927 -0.4214  0.4763
 3991SOL    HW223607   1.959   4.067   9.503  0.8278  1.8356  1.6692
 3992SOL     OW23608   2.034   0.197   3.475 -0.5711 -0.2713  0.3423
 3992SOL    HW123609   2.044   0.174   3.568 -3.0695  1.1193  0.9545
 3992SOL    HW223610   2.050   0.117   3.424 -0.0527  0.6687 -0.9558
 3993SOL     OW23611   1.816   4.089   0.045  0.5095 -0.3713  0.2136
 3993SOL    HW123612   1.755   4.029   0.088 -1.2976  0.9617 -0.5036
 3993SOL    HW223613   1.856   4.027  17.734  1.5256 -1.5818  2.1195
 3994SOL     OW23614   1.869   4.130   5.424  0.5092  0.2651 -0.7125
 3994SOL    HW123615   1.789   4.133   5.372 -0.3405 -0.0324  0.5845
 3994SOL    HW223616   1.843   4.062   5.485 -1.7692  1.5608 -0.2455
 3995SOL     OW23617   0.161   4.406   8.321 -0.4015  0.2864  0.1184
 3995SOL    HW123618   0.110   4.329   8.345 -1.3318  0.8137 -0.1350
 3995SOL    HW223619   0.182   4.441   8.408  0.5274 -1.0902  0.4534
 3996SOL     OW23620   4.623   3.202   6.964 -0.0403 -0.3043 -0.0902
 3996SOL    HW123621   4.599   3.110   6.967 -1.5850  0.0236 -1.9051
 3996SOL    HW223622   4.709   3.197   6.923  0.1037  1.2939  0.0029
 3997SOL     OW23623   0.289   2.825   7.345  0.0300  0.0977 -0.0599
 3997SOL    HW123624   0.195   2.844   7.342  0.1182  0.8913  2.1408
 3997SOL    HW223625   0.286   2.738   7.306  1.0592  0.5216 -1.1177
 3998SOL     OW23626   1.877   1.358  11.476 -0.5646 -0.6275  0.5307
 3998SOL    HW123627   1.862   1.321  11.563  0.9493 -0.1692  0.9872
 3998SOL    HW223628   1.944   1.301  11.439  0.2510  0.6855 -0.0317
 3999SOL     OW23629   2.215   0.193  11.878 -0.2405  0.2342  0.0769
 3999SOL    HW123630   2.238   0.234  11.795  0.5786  0.4911  0.4320
 3999SOL    HW223631   2.120   0.193  11.866 -0.0225  1.2350 -1.5778
 4000SOL     OW23632   3.275   4.422   2.737  0.2093 -0.1661  0.1354
 4000SOL    HW123633   3.349   4.387   2.688  0.5441 -2.7894  2.5483
 4000SOL    HW223634   3.321   4.492   2.783  1.6239  0.5293 -2.3727
 4001SOL     OW23635   2.283   2.688  17.207  0.4905 -0.3287  0.5475
 4001SOL    HW123636   2.220   2.753  17.239  2.8236  1.7264  0.9206
 4001SOL    HW223637   2.241   2.602  17.216 -2.7537  1.1854 -0.0317
 4002SOL     OW23638   4.145   1.921   6.809  0.2603 -0.0185  0.6646
 4002SOL    HW123639   4.073   1.863   6.787  1.2298 -1.1903  0.6007
 4002SOL    HW223640   4.150   1.963   6.723  1.0081  0.9537  1.1771
 4003SOL     OW23641   0.348   2.793  17.281  0.1528 -0.0786  0.2082
 4003SOL    HW123642   0.377   2.772  17.192 -0.3237 -1.7125  0.4588
 4003SOL    HW223643   0.403   2.872  17.292 -0.0781  0.1508 -0.2788
 4004SOL     OW23644   3.436   2.158  13.630 -0.0749  0.0116  0.0904
 4004SOL    HW123645   3.530   2.170  13.618 -0.5026  1.0922 -2.1255
 4004SOL    HW223646   3.422   2.218  13.703 -0.7506  1.4435 -1.2192
 4005SOL     OW23647   1.461   0.949  14.352 -0.1855  0.4298  0.1317
 4005SOL    HW123648   1.514   0.869  14.351 -0.7505  0.0378  1.2508
 4005SOL    HW223649   1.400   0.950  14.278 -1.2710 -2.0437  0.9701
 4006SOL     OW23650   2.756   0.817   9.590 -0.4161  0.0682  0.2027
 4006SOL    HW123651   2.689   0.748   9.593  2.7018 -2.9258  2.2792
 4006SOL    HW223652   2.747   0.845   9.681 -0.1779 -0.8262  0.5082
 4007SOL     OW23653   3.380   3.693   7.066 -0.1946 -0.2637 -0.0597
 4007SOL    HW123654   3.476   3.692   7.057 -0.3936  3.1720 -2.8801
 4007SOL    HW223655   3.360   3.749   6.991 -2.9579 -0.5633  0.4802
 4008SOL     OW23656   0.179   0.663   1.810 -0.0162  0.0657 -0.4153
 4008SOL    HW123657   0.159   0.638   1.900  0.1953 -1.2058 -0.7194
 4008SOL    HW223658   0.192   0.570   1.789 -1.3890 -0.0637 -0.6923
 4009SOL     OW23659   3.126   2.004   7.760 -0.0664  0.2026 -0.1056
 4009SOL    HW123660   3.117   1.941   7.831  2.3615  0.5302  0.4734
 4009SOL    HW223661   3.113   2.083   7.812  0.0398  0.4460 -0.4512
 4010SOL     OW23662   3.041   1.261   4.407  0.5405  0.1523 -0.1750
 4010SOL    HW123663   2.979   1.327   4.374 -0.8520 -1.4432 -0.7381
 4010SOL    HW223664   3.119   1.278   4.354  1.0394  0.2220  0.5840
 4011SOL     OW23665   0.686   1.737   8.956  0.2020  0.3975  0.5044
 4011SOL    HW123666   0.591   1.740   8.943  0.1441 -1.4048  0.3948
 4011SOL    HW223667   0.707   1.777   8.871  0.0828 -0.1752  0.1979
 4012SOL     OW23668   1.075   4.196   8.610  0.1516 -0.0500 -0.0078
 4012SOL    HW123669   1.158   4.243   8.614  0.7746 -1.0753 -0.7884
 4012SOL    HW223670   1.114   4.110   8.594  0.9544  0.3689 -0.3007
 4013SOL     OW23671   1.822   0.234  17.460 -0.0570 -0.1962 -0.0423
 4013SOL    HW123672   1.875   0.207  17.535 -0.2763  1.3233  0.6809
 4013SOL    HW223673   1.851   0.325  17.458 -0.2495 -0.1476 -0.5901
 4014SOL     OW23674   0.175   4.022   4.275 -0.1023 -0.3960  0.2138
 4014SOL    HW123675   0.185   3.936   4.235 -3.3080 -0.3880 -0.5479
 4014SOL    HW223676   0.086   4.041   4.248 -0.0531  0.1008  0.4112
 4015SOL     OW23677   4.356   3.021   4.252  0.3562 -0.2360 -0.2449
 4015SOL    HW123678   4.332   3.114   4.261 -0.9168 -0.4746 -1.2945
 4015SOL    HW223679   4.311   3.004   4.169  1.6050 -0.8886 -0.7879
 4016SOL     OW23680   0.850   0.665   6.087 -0.0010 -0.2155 -0.3585
 4016SOL    HW123681   0.764   0.653   6.046 -0.0602  1.6030 -0.7578
 4016SOL    HW223682   0.837   0.647   6.180 -2.1462  0.4395 -0.5435
 4017SOL     OW23683   4.181   4.625   8.059 -0.7551 -0.1535 -0.2027
 4017SOL    HW123684   4.222   4.707   8.030 -0.6734 -0.7923 -1.9287
 4017SOL    HW223685   4.240   4.590   8.125 -0.5627 -0.1207 -0.3541
 4018SOL     OW23686   4.167   0.983   7.641 -0.3680 -0.4171  0.5163
 4018SOL    HW123687   4.253   0.992   7.601 -0.4677 -0.6280  0.2571
 4018SOL    HW223688   4.174   1.051   7.708 -0.6580  2.2304 -2.1407
 4019SOL     OW23689   1.106   1.525  12.033  0.0378 -0.9182 -0.0454
 4019SOL    HW123690   1.055   1.520  11.952 -0.7300 -0.2740  0.4058
 4019SOL    HW223691   1.183   1.475  12.006  0.8933  0.7881 -0.8336
 4020SOL     OW23692   3.126   4.660  16.206 -0.0875  0.3160 -0.4786
 4020SOL    HW123693   3.191   4.702  16.263  1.2379 -1.4843 -0.6466
 4020SOL    HW223694   3.167   4.625  16.126  1.1363 -0.8646  0.6645
 4021SOL     OW23695   1.147   3.734   2.044 -0.2500  0.0990  0.6863
 4021SOL    HW123696   1.195   3.700   1.968  0.9229  0.6430  1.1862
 4021SOL    HW223697   1.143   3.662   2.108  0.8004  0.0657  0.7229
 4022SOL     OW23698   2.335   1.886   3.340 -0.1514 -0.3030  0.0801
 4022SOL    HW123699   2.281   1.964   3.327 -3.2480 -2.5364 -0.4580
 4022SOL    HW223700   2.276   1.840   3.400 -0.5893  3.0562  2.1829
 4023SOL     OW23701   1.304   3.268   3.916 -0.4915 -0.0754 -0.3929
 4023SOL    HW123702   1.299   3.185   3.963 -0.2271  0.1670  0.0615
 4023SOL    HW223703   1.396   3.293   3.923 -0.6364  0.2158  0.4797
 4024SOL     OW23704   4.659   4.037   5.749 -0.8858 -0.2557  0.4053
 4024SOL    HW123705   4.610   3.956   5.739  2.1686 -1.9733 -0.6520
 4024SOL    HW223706   4.738   4.009   5.703 -2.0296 -1.7203 -0.6462
 4025SOL     OW23707   3.697   1.657   0.576 -0.4873 -0.1090 -0.1821
 4025SOL    HW123708   3.643   1.696   0.644 -1.5657 -1.1502 -0.4392
 4025SOL    HW223709   3.677   1.724   0.510  0.8588 -1.1170 -1.6243
 4026SOL     OW23710   1.468   2.182   8.802  0.0716  0.4972  0.0801
 4026SOL    HW123711   1.383   2.215   8.831 -0.0035 -0.3780  0.8655
 4026SOL    HW223712   1.516   2.259   8.832 -2.6556  1.1866  2.6997
 4027SOL     OW23713   3.164   0.115   4.409  0.1301  0.3891 -0.0532
 4027SOL    HW123714   3.106   0.086   4.479  1.7223  0.8086  1.4312
 4027SOL    HW223715   3.136   0.206   4.396  0.2491  0.5351  0.7337
 4028SOL     OW23716   3.234   0.698   5.669  0.2381 -0.3693 -0.1067
 4028SOL    HW123717   3.309   0.695   5.610 -0.0775 -0.5234 -0.5002
 4028SOL    HW223718   3.183   0.768   5.628 -2.6968 -3.1394 -1.1849
 4029SOL     OW23719   1.312   0.313   2.578 -0.1118  0.2039  0.7475
 4029SOL    HW123720   1.357   0.398   2.581 -0.7801  0.5489  0.9933
 4029SOL    HW223721   1.385   0.252   2.582  0.0662  0.5878  3.7268
 4030SOL     OW23722   2.463   3.147   3.103 -0.0763 -0.0658 -0.2360
 4030SOL    HW123723   2.393   3.134   3.039 -0.0280 -0.5617 -0.1900
 4030SOL    HW223724   2.412   3.152   3.185 -1.5222 -0.7666 -1.0804
 4031SOL     OW23725   4.708   3.670   4.087 -0.8484  0.3229 -0.3444
 4031SOL    HW123726   0.015   3.664   4.002 -1.0901 -1.9533 -0.3110
 4031SOL    HW223727   4.616   3.681   4.063 -1.6441 -0.7684  2.3013
 4032SOL     OW23728   0.107   2.534   6.942 -0.2082 -0.0703  0.1127
 4032SOL    HW123729   0.108   2.556   7.035  2.2111  0.2101  0.0257
 4032SOL    HW223730   0.043   2.593   6.903 -2.3501 -2.2984  0.2712
 4033SOL     OW23731   1.804   0.415   1.800  0.1838  0.5936 -0.0161
 4033SOL    HW123732   1.741   0.468   1.750 -3.0549 -1.9000  1.3662
 4033SOL    HW223733   1.744   0.347   1.832  0.7397 -0.0911 -0.4447
 4034SOL     OW23734   2.721   4.575   8.095  0.2154  0.7858 -0.0473
 4034SOL    HW123735   2.662   4.528   8.036  0.2497  1.4327 -0.5927
 4034SOL    HW223736   2.724   4.507   8.162 -1.9106  0.9038  0.1669
 4035SOL     OW23737   3.875   2.374   0.078  0.7150 -0.0468  0.3203
 4035SOL    HW123738   3.919   2.320   0.013  2.3989 -0.8993  2.1576
 4035SOL    HW223739   3.938   2.444   0.094  1.1382 -0.3060 -0.2327
 4036SOL     OW23740   0.178   3.171   7.199  0.0478  0.4077 -0.0764
 4036SOL    HW123741   0.240   3.106   7.167  0.3451  0.0433  1.2493
 4036SOL    HW223742   0.192   3.238   7.133 -0.9030  0.6652 -0.0260
 4037SOL     OW23743   0.004   1.074  10.826  0.1575  0.1926  0.3685
 4037SOL    HW123744   4.663   1.127  10.833  0.8778  1.4328 -0.9704
 4037SOL    HW223745   0.035   1.087  10.915  1.6577  1.7318 -0.3756
 4038SOL     OW23746   4.092   0.199  17.341  0.3854  0.1238  0.0797
 4038SOL    HW123747   4.108   0.117  17.388 -0.8231 -0.1494  0.0321
 4038SOL    HW223748   4.172   0.249  17.352 -1.7135  3.2012  1.5258
 4039SOL     OW23749   0.554   2.492  10.986  0.2173 -0.4172 -0.1503
 4039SOL    HW123750   0.647   2.513  10.974 -0.6042  3.0688 -0.1999
 4039SOL    HW223751   0.539   2.532  11.072 -0.2062 -0.3600 -0.2546
 4040SOL     OW23752   3.442   3.134   4.082 -0.4715  0.5537  0.2692
 4040SOL    HW123753   3.479   3.221   4.094  0.1896  0.2762  0.2815
 4040SOL    HW223754   3.429   3.139   3.987  1.0595 -1.8329 -0.0711
 4041SOL     OW23755   0.501   2.977  12.837 -0.0717 -0.0395  0.8241
 4041SOL    HW123756   0.589   2.994  12.871  0.4386  0.1455 -0.5792
 4041SOL    HW223757   0.503   2.950  12.745 -1.9312 -1.3875  1.1642
 4042SOL     OW23758   3.003   4.677   8.122  0.0789  0.8443 -0.1243
 4042SOL    HW123759   3.046   4.592   8.113  0.5904  1.1912 -0.9941
 4042SOL    HW223760   2.913   4.647   8.108  0.3519  0.5834 -1.3821
 4043SOL     OW23761   0.899   2.842   6.797 -0.2921 -0.7289  0.1938
 4043SOL    HW123762   0.933   2.795   6.873  3.1155 -0.5720 -1.2312
 4043SOL    HW223763   0.919   2.784   6.724  1.6445  0.0606  0.0882
 4044SOL     OW23764   2.033   4.361   8.098 -0.2517 -0.6018  0.2307
 4044SOL    HW123765   1.955   4.393   8.052 -0.1369  1.3861  1.3937
 4044SOL    HW223766   2.033   4.269   8.074  1.5019 -0.4898 -0.1971
 4045SOL     OW23767   4.107   2.945   9.121  0.1238  0.2283  0.1594
 4045SOL    HW123768   4.064   2.995   9.191 -0.5484  1.3761 -1.0741
 4045SOL    HW223769   4.048   2.877   9.088 -0.7535  0.2116  1.7577
 4046SOL     OW23770   1.519   4.067   3.817 -0.4234  0.0745  0.0004
 4046SOL    HW123771   1.583   4.110   3.761 -0.2514  0.1413  0.2502
 4046SOL    HW223772   1.535   3.977   3.789 -1.2958  0.0087 -0.3067
 4047SOL     OW23773   1.390   1.281   2.708  0.0528 -0.0435 -0.0108
 4047SOL    HW123774   1.477   1.266   2.746  0.6007  1.5811 -0.6071
 4047SOL    HW223775   1.327   1.248   2.771 -1.1198  1.2299 -0.4970
 4048SOL     OW23776   4.624   2.843  16.047  0.0864  0.0520  0.1958
 4048SOL    HW123777   4.605   2.930  16.012 -3.5964 -0.0152  1.9611
 4048SOL    HW223778   4.536   2.813  16.069  0.1631 -0.3205 -0.0073
 4049SOL     OW23779   0.370   3.550   5.821 -0.3924 -0.0945 -0.6664
 4049SOL    HW123780   0.287   3.559   5.868  0.0869  1.8045 -0.1642
 4049SOL    HW223781   0.434   3.565   5.891  0.0081  0.9460 -1.2515
 4050SOL     OW23782   3.835   0.287  10.485 -0.0527 -0.3637  0.5963
 4050SOL    HW123783   3.875   0.356  10.431  1.1131 -0.1674  1.7163
 4050SOL    HW223784   3.871   0.307  10.571  0.1499 -0.7837  0.6071
 4051SOL     OW23785   0.326   3.232  16.940  0.5931  0.4042  0.1883
 4051SOL    HW123786   0.269   3.220  16.864  2.6531 -1.2155 -1.1292
 4051SOL    HW223787   0.406   3.267  16.899  0.9119  1.8150  2.0399
 4052SOL     OW23788   4.145   4.103  12.003 -0.0621  0.5648 -1.0315
 4052SOL    HW123789   4.155   4.067  12.091  0.8772 -1.6150 -2.0254
 4052SOL    HW223790   4.175   4.193  12.011  1.5737 -0.1729  1.0836
 4053SOL     OW23791   3.307   4.066  14.922 -0.0919 -0.5403  0.2882
 4053SOL    HW123792   3.255   3.986  14.907 -1.5479  0.6359 -0.9035
 4053SOL    HW223793   3.317   4.066  15.018 -0.4240 -0.4966  0.3210
 4054SOL     OW23794   0.857   1.546   6.887 -0.0529  0.4198  0.0434
 4054SOL    HW123795   0.910   1.469   6.863 -1.0983  0.3812 -2.1202
 4054SOL    HW223796   0.816   1.567   6.804  2.5610  0.4221 -1.2572
 4055SOL     OW23797   1.154   0.262  16.117  0.0849 -0.0041 -0.2167
 4055SOL    HW123798   1.229   0.315  16.144  2.2080 -2.8752 -0.4857
 4055SOL    HW223799   1.204   0.205  16.059  0.6260  0.4588 -0.2056
 4056SOL     OW23800   2.534   1.766   2.673  0.3364 -0.5762 -0.4789
 4056SOL    HW123801   2.467   1.832   2.692 -0.8391 -1.7141 -0.6713
 4056SOL    HW223802   2.575   1.757   2.758  0.6632  0.0479 -0.5748
 4057SOL     OW23803   2.261   4.521   3.465  0.2462  0.4088  0.0308
 4057SOL    HW123804   2.325   4.549   3.531 -0.7063 -0.9310  1.5067
 4057SOL    HW223805   2.260   4.426   3.477 -2.1971  0.2979 -1.0369
 4058SOL     OW23806   4.525   0.474   4.326 -0.5846 -0.3295  0.0536
 4058SOL    HW123807   4.499   0.448   4.414  0.2734  0.3071  0.4939
 4058SOL    HW223808   4.452   0.438   4.276  0.8084 -3.9167  0.6046
 4059SOL     OW23809   2.466   2.673   2.414 -0.2856 -0.2627 -0.3184
 4059SOL    HW123810   2.375   2.649   2.429 -0.9099  1.4832 -1.3023
 4059SOL    HW223811   2.449   2.729   2.338 -1.0831 -0.8858 -0.5959
 4060SOL     OW23812   0.821   2.769   9.905  0.2396  0.3973  0.1330
 4060SOL    HW123813   0.891   2.817   9.862  0.5670  0.0747  0.3044
 4060SOL    HW223814   0.804   2.815   9.987 -3.0744 -1.4273  0.4887
 4061SOL     OW23815   0.950   1.184   9.716  0.3857  0.3767 -0.4591
 4061SOL    HW123816   0.969   1.276   9.702 -1.2074  0.9785  1.2510
 4061SOL    HW223817   0.861   1.174   9.681  0.4610 -1.6770 -0.0649
 4062SOL     OW23818   1.376   0.405  16.128  0.2215  0.5278 -0.4383
 4062SOL    HW123819   1.441   0.384  16.061 -0.1771  0.5341 -0.8307
 4062SOL    HW223820   1.378   0.501  16.131 -0.7949  0.5231  0.2474
 4063SOL     OW23821   2.818   3.792   9.857  0.3150  1.0831  0.4188
 4063SOL    HW123822   2.752   3.737   9.901 -0.7109 -0.6382 -3.2878
 4063SOL    HW223823   2.771   3.835   9.786 -2.7143 -2.1255  0.4296
 4064SOL     OW23824   1.521   1.732   2.325 -0.4145 -0.4824  0.4463
 4064SOL    HW123825   1.447   1.767   2.275  0.9662 -0.1732 -1.3451
 4064SOL    HW223826   1.482   1.646   2.345 -2.6546  0.8552  1.8441
 4065SOL     OW23827   2.788   3.389   4.152  0.8646 -0.1820 -0.1540
 4065SOL    HW123828   2.765   3.337   4.228 -0.7773  1.9290  0.8076
 4065SOL    HW223829   2.881   3.402   4.166  0.3346  1.3549  1.9643
 4066SOL     OW23830   3.659   4.358  10.833  0.5310 -0.1254 -0.2368
 4066SOL    HW123831   3.595   4.423  10.861 -0.9304 -1.6094 -0.1783
 4066SOL    HW223832   3.721   4.354  10.906  1.4164 -1.2798 -1.0453
 4067SOL     OW23833   0.795   2.551  15.816  0.1948  0.1951  0.6272
 4067SOL    HW123834   0.714   2.527  15.861 -0.2227  1.5995  0.6333
 4067SOL    HW223835   0.790   2.647  15.821  0.3341  0.3341 -2.0628
 4068SOL     OW23836   4.128   4.547   2.998  0.2325 -0.1424 -0.0493
 4068SOL    HW123837   4.121   4.524   3.090  1.2557  0.1116  0.0902
 4068SOL    HW223838   4.063   4.485   2.965  0.8861 -0.2433 -1.1529
 4069SOL     OW23839   1.028   3.187   9.488 -0.4421  0.7552 -0.1416
 4069SOL    HW123840   1.058   3.096   9.482 -0.7335  0.6771 -0.4180
 4069SOL    HW223841   1.105   3.238   9.464  0.2114 -0.9040 -1.5635
 4070SOL     OW23842   4.174   0.843  12.865 -0.0728  0.6469 -0.1397
 4070SOL    HW123843   4.235   0.776  12.835 -1.8346 -0.8880 -0.3492
 4070SOL    HW223844   4.096   0.832  12.811  0.5611  0.8271 -1.0826
 4071SOL     OW23845   3.594   1.062   0.560  1.0847  0.8817  0.3616
 4071SOL    HW123846   3.597   1.141   0.612  0.2803  2.0108 -1.2957
 4071SOL    HW223847   3.509   1.074   0.516  0.6188  0.4588  1.1434
 4072SOL     OW23848   2.023   2.374   7.587  0.4198  0.5498  0.0553
 4072SOL    HW123849   2.118   2.383   7.579  0.2621  0.9886 -1.2896
 4072SOL    HW223850   2.000   2.454   7.540 -2.1798  0.3008  0.8626
 4073SOL     OW23851   1.651   1.906   9.985 -0.5337  0.7809  0.1138
 4073SOL    HW123852   1.739   1.870   9.984 -1.5503 -1.7297  1.8762
 4073SOL    HW223853   1.617   1.850  10.054  1.2717 -1.0141 -0.4735
 4074SOL     OW23854   4.339   4.344   9.039  0.2799  0.3377  0.3000
 4074SOL    HW123855   4.369   4.412   9.099 -4.6155  1.1886  1.8489
 4074SOL    HW223856   4.410   4.281   9.051  0.0684  0.2197  0.9357
 4075SOL     OW23857   3.126   1.107   6.183  0.0615  0.2203  0.0076
 4075SOL    HW123858   3.034   1.100   6.157 -0.3537  0.4724  1.4001
 4075SOL    HW223859   3.138   1.202   6.187  0.8804  0.0445  1.5054
 4076SOL     OW23860   2.439   1.509   5.482 -0.0938  0.3695  0.1982
 4076SOL    HW123861   2.512   1.454   5.454 -0.3339  1.3813 -2.4365
 4076SOL    HW223862   2.370   1.467   5.429  0.3245 -0.0599 -0.0012
 4077SOL     OW23863   3.349   2.389  14.935  0.1161 -0.6582  0.1874
 4077SOL    HW123864   3.440   2.371  14.911 -0.5138 -1.2047 -1.7391
 4077SOL    HW223865   3.334   2.321  15.001 -2.2161 -1.0411 -0.7548
 4078SOL     OW23866   1.302   3.309  13.630 -0.3217  0.5629  0.7733
 4078SOL    HW123867   1.321   3.402  13.643  0.9690  0.7427 -2.3900
 4078SOL    HW223868   1.362   3.288  13.559  1.6022  2.3093  1.8912
 4079SOL     OW23869   3.356   1.080   6.930  0.0017  0.1057 -0.3562
 4079SOL    HW123870   3.379   1.173   6.921  2.9752 -0.4491  1.2991
 4079SOL    HW223871   3.350   1.079   7.025 -2.3031  1.1493 -0.4948
 4080SOL     OW23872   1.244   1.074   8.822 -0.0580 -0.0920  0.0298
 4080SOL    HW123873   1.251   1.020   8.901 -0.8455  0.1764  0.2871
 4080SOL    HW223874   1.284   1.158   8.842 -0.1042 -0.2132  0.6333
 4081SOL     OW23875   2.723   0.597  13.557  0.3694 -0.1168  0.1504
 4081SOL    HW123876   2.810   0.620  13.587  0.2288 -2.0312  2.0091
 4081SOL    HW223877   2.666   0.635  13.623  0.3138 -0.6349  0.4049
 4082SOL     OW23878   4.272   3.492   8.829 -0.6403 -0.0509  0.3213
 4082SOL    HW123879   4.326   3.477   8.906 -0.2566 -1.8126 -0.2834
 4082SOL    HW223880   4.225   3.573   8.848 -3.7265 -1.8693  0.4696
 4083SOL     OW23881   4.695   3.723  14.458 -0.4668 -0.4223 -0.1487
 4083SOL    HW123882   4.690   3.749  14.550 -0.7885 -0.1246 -0.2488
 4083SOL    HW223883   4.642   3.785  14.409 -0.9553  0.2185  1.2141
 4084SOL     OW23884   0.891   1.024  15.022  0.4525  0.2848  0.5292
 4084SOL    HW123885   0.823   1.037  14.956 -1.4813 -2.3374  1.9805
 4084SOL    HW223886   0.954   1.090  14.994 -2.4228  2.7760 -0.0459
 4085SOL     OW23887   3.313   0.921   3.928  0.5068 -0.0955  0.0843
 4085SOL    HW123888   3.329   0.916   3.834  0.2154 -2.7636  0.1793
 4085SOL    HW223889   3.351   1.007   3.944  1.9149 -0.4204 -1.5686
 4086SOL     OW23890   0.958   2.624   4.838  0.0239  0.4483 -0.4330
 4086SOL    HW123891   0.946   2.530   4.852  1.6887  0.1070 -1.3372
 4086SOL    HW223892   1.050   2.639   4.858  0.0410 -0.2579  0.0371
 4087SOL     OW23893   3.061   2.887   1.917  0.8760 -0.2160 -0.3145
 4087SOL    HW123894   3.131   2.843   1.869  0.1980  1.2363 -2.5853
 4087SOL    HW223895   3.000   2.813   1.920 -2.0323  2.2828  2.0477
 4088SOL     OW23896   2.858   1.322   2.728  0.0638 -0.5088  0.1657
 4088SOL    HW123897   2.894   1.320   2.816 -3.5052  1.0467  1.6767
 4088SOL    HW223898   2.833   1.413   2.714 -0.8344 -0.8693 -0.6353
 4089SOL     OW23899   1.468   3.595   2.659  0.1328 -0.1612  0.7061
 4089SOL    HW123900   1.557   3.561   2.672 -1.0357 -3.5089 -0.0144
 4089SOL    HW223901   1.483   3.688   2.672 -0.6357  0.0691 -0.0737
 4090SOL     OW23902   3.496   2.360   2.132  0.1364 -0.2491  0.1958
 4090SOL    HW123903   3.417   2.382   2.182  0.0931 -0.4159  0.1981
 4090SOL    HW223904   3.523   2.275   2.166  1.3217  0.0603  0.0543
 4091SOL     OW23905   2.615   2.076   6.232 -0.1132 -0.6536  0.5076
 4091SOL    HW123906   2.708   2.063   6.250  0.2573  3.3015  1.5720
 4091SOL    HW223907   2.594   1.991   6.195 -1.2282 -0.2816  0.2799
 4092SOL     OW23908   3.310   1.563   7.592  0.5313 -0.3624 -0.0212
 4092SOL    HW123909   3.229   1.586   7.639  0.6325  0.7712 -0.3946
 4092SOL    HW223910   3.335   1.648   7.555 -0.8880 -0.2535 -0.7249
 4093SOL     OW23911   1.103   2.331   0.485 -0.2485 -0.6002  0.5095
 4093SOL    HW123912   1.149   2.251   0.460 -1.1563 -1.5692  1.8956
 4093SOL    HW223913   1.163   2.406   0.484  2.2883 -2.6810 -1.3198
 4094SOL     OW23914   1.618   3.611   3.926  0.2343  0.2207  0.1574
 4094SOL    HW123915   1.633   3.602   4.020  0.9033 -1.4075 -0.1105
 4094SOL    HW223916   1.527   3.637   3.912 -0.2390 -1.1286  0.7271
 4095SOL     OW23917   0.994   0.885  13.397  0.4158  0.3816 -0.0173
 4095SOL    HW123918   1.089   0.891  13.390  0.4350 -0.9817 -0.9183
 4095SOL    HW223919   0.991   0.872  13.492  0.3800 -0.8289 -0.1835
 4096SOL     OW23920   4.008   2.865  12.221  0.2611 -0.3110 -0.4354
 4096SOL    HW123921   3.985   2.924  12.149 -1.1738  0.5995  0.7552
 4096SOL    HW223922   3.918   2.848  12.249 -0.4469  1.3823 -1.6328
 4097SOL     OW23923   1.634   1.082  11.523  0.1218 -0.4275  0.6983
 4097SOL    HW123924   1.654   1.093  11.430 -0.6034  2.7131  0.9270
 4097SOL    HW223925   1.723   1.077  11.558  0.3390 -0.9216  0.0694
 4098SOL     OW23926   3.419   1.520  11.132 -0.0025  0.3750  0.7106
 4098SOL    HW123927   3.466   1.443  11.098 -0.4432  1.3971 -2.2259
 4098SOL    HW223928   3.385   1.549  11.047 -3.3329 -1.8069  1.2848
 4099SOL     OW23929   1.618   2.568   4.179  0.1567 -0.3132  0.1771
 4099SOL    HW123930   1.659   2.594   4.261 -0.2410 -0.2322  0.3519
 4099SOL    HW223931   1.527   2.593   4.199  0.2867  0.7612 -0.6133
 4100SOL     OW23932   2.390   0.590   9.865 -0.2948 -0.6758  0.2927
 4100SOL    HW123933   2.441   0.511   9.847 -1.1773 -0.4989 -2.9431
 4100SOL    HW223934   2.335   0.594   9.787  1.0829 -1.0925 -0.7000
 4101SOL     OW23935   3.462   3.637   1.604  0.2187 -0.5990  0.3038
 4101SOL    HW123936   3.423   3.603   1.524  0.0292  1.0525 -0.2910
 4101SOL    HW223937   3.388   3.669   1.656  0.3886 -0.3197  0.3765
 4102SOL     OW23938   1.465   0.331   5.184  0.1873 -0.1245  0.1869
 4102SOL    HW123939   1.395   0.337   5.118  1.4090 -0.1302 -1.1228
 4102SOL    HW223940   1.417   0.303   5.261  0.2212  1.9409  0.9478
 4103SOL     OW23941   2.201   1.491   8.975 -0.3225  0.4055 -0.0046
 4103SOL    HW123942   2.253   1.565   9.007 -0.9115  0.2377  1.3147
 4103SOL    HW223943   2.109   1.500   9.000 -0.5234 -0.0949 -0.5341
 4104SOL     OW23944   4.054   0.597   1.495 -0.8378  0.0600 -0.1364
 4104SOL    HW123945   3.963   0.608   1.467 -0.6239 -0.5718 -1.0899
 4104SOL    HW223946   4.046   0.577   1.588  2.0251 -0.5697 -0.0173
 4105SOL     OW23947   1.606   1.838   3.785 -0.1835 -0.6112 -0.1285
 4105SOL    HW123948   1.695   1.808   3.767 -0.1689 -0.9507  0.5005
 4105SOL    HW223949   1.550   1.821   3.710 -1.2132 -0.6110  0.6340
 4106SOL     OW23950   3.133   0.840   7.627  0.0876 -0.5549 -0.5054
 4106SOL    HW123951   3.223   0.823   7.652  0.7066  0.4137 -2.0809
 4106SOL    HW223952   3.108   0.927   7.658  0.3619 -1.6807  2.8166
 4107SOL     OW23953   1.888   2.793   0.273 -0.4454 -0.0161 -0.0649
 4107SOL    HW123954   1.860   2.776   0.363  0.8652  1.2571  0.5924
 4107SOL    HW223955   1.983   2.780   0.284 -1.0177 -3.2950  0.9235
 4108SOL     OW23956   3.202   2.340  14.694  0.6985  0.0823 -0.1193
 4108SOL    HW123957   3.137   2.409  14.685  0.1093 -0.3130  1.0967
 4108SOL    HW223958   3.244   2.352  14.779  2.2683 -1.9354 -0.6028
 4109SOL     OW23959   3.792   3.833   1.422 -0.0894 -0.0155  0.0270
 4109SOL    HW123960   3.864   3.896   1.421  3.1261 -3.6957  2.5324
 4109SOL    HW223961   3.827   3.750   1.453 -1.1546 -0.1970  0.7406
 4110SOL     OW23962   0.038   3.740   8.348  0.4287 -0.0520  0.0201
 4110SOL    HW123963   0.114   3.696   8.385  0.5025  0.6673  0.7405
 4110SOL    HW223964   0.068   3.793   8.274 -1.5847  1.3183  0.1698
 4111SOL     OW23965   1.492   0.575  10.774 -0.1285 -0.2113  0.4811
 4111SOL    HW123966   1.445   0.492  10.760 -0.2114 -0.1403  0.3474
 4111SOL    HW223967   1.549   0.571  10.697 -1.3252  1.1796 -0.4731
 4112SOL     OW23968   0.543   3.156   5.473 -0.2062  0.1979 -0.1467
 4112SOL    HW123969   0.568   3.247   5.492  0.4290 -0.1404  0.6344
 4112SOL    HW223970   0.460   3.166   5.427  1.1383  0.4255 -2.5602
 4113SOL     OW23971   4.392   4.381  11.791  0.0463  0.3427 -0.2990
 4113SOL    HW123972   4.437   4.416  11.714  1.1273 -0.2847  0.0501
 4113SOL    HW223973   4.432   4.422  11.868 -0.1307 -1.8285  0.9434
 4114SOL     OW23974   1.254   0.131  15.042  0.0553  0.6656  0.1518
 4114SOL    HW123975   1.161   0.124  15.022 -0.2183  0.4236  1.5296
 4114SOL    HW223976   1.255   0.201  15.107  1.5296  0.0002  0.8673
 4115SOL     OW23977   4.524   1.793   8.079  0.3383 -0.1826  0.0097
 4115SOL    HW123978   4.580   1.757   8.009  0.7010 -1.2553  0.8568
 4115SOL    HW223979   4.580   1.754   8.147 -1.6818  0.6228  2.1183
 4116SOL     OW23980   4.141   4.416   4.480 -0.1664  0.1076 -0.4541
 4116SOL    HW123981   4.212   4.416   4.544  1.1541 -2.5834 -1.9479
 4116SOL    HW223982   4.189   4.373   4.410  0.5005  1.5406 -0.8539
 4117SOL     OW23983   3.318   3.085   7.961  0.1463 -1.0419  0.1464
 4117SOL    HW123984   3.384   3.132   7.909  2.0949 -1.6772  2.0250
 4117SOL    HW223985   3.364   3.078   8.045 -1.2527 -2.3845  0.7974
 4118SOL     OW23986   3.767   3.461   6.469 -0.0720 -0.0292  0.5665
 4118SOL    HW123987   3.684   3.466   6.517 -0.3135 -1.7269  0.3351
 4118SOL    HW223988   3.746   3.378   6.427 -0.7829 -0.1337  1.1456
 4119SOL     OW23989   1.811   3.991   3.167 -0.1218 -0.5081  0.0133
 4119SOL    HW123990   1.751   3.922   3.196 -0.7841  0.0355 -0.0788
 4119SOL    HW223991   1.744   4.056   3.147  0.2701 -0.7361 -2.0534
 4120SOL     OW23992   0.855   2.413   2.893  0.1857 -0.2032 -0.2607
 4120SOL    HW123993   0.900   2.376   2.817  1.6752 -0.5131  0.7717
 4120SOL    HW223994   0.766   2.407   2.860  1.0500 -0.2582 -2.6066
 4121SOL     OW23995   3.966   0.456   2.948  0.7657 -0.2544  0.4720
 4121SOL    HW123996   3.985   0.480   3.039 -2.6145  1.7300  0.6690
 4121SOL    HW223997   3.974   0.546   2.915  1.5751 -0.6381 -0.3684
 4122SOL     OW23998   4.581   2.743  13.033 -0.1385  0.0422 -0.3917
 4122SOL    HW123999   4.565   2.806  12.962 -0.6581  0.6525  0.2725
 4122SOL    HW224000   4.586   2.797  13.111 -0.3404  0.5927 -0.7586
 4123SOL     OW24001   4.704   2.637   6.224 -0.0150  0.1057  0.7673
 4123SOL    HW124002   0.057   2.664   6.237 -0.5163  1.7096  0.9025
 4123SOL    HW224003   4.675   2.708   6.167  0.6501  0.3512  0.7381
 4124SOL     OW24004   1.999   3.725  17.311 -0.2460 -0.4711 -0.5325
 4124SOL    HW124005   1.906   3.720  17.289 -0.5587  0.9983  0.4841
 4124SOL    HW224006   2.024   3.797  17.253  3.7911 -0.5998  1.0619
 4125SOL     OW24007   1.343   0.828   1.300 -0.5185  0.2494 -0.3784
 4125SOL    HW124008   1.290   0.869   1.368  1.1389  0.6441  0.6665
 4125SOL    HW224009   1.429   0.848   1.335 -0.9154 -1.2798  1.4502
 4126SOL     OW24010   1.865   2.341   3.534 -0.1279 -0.2780  0.7008
 4126SOL    HW124011   1.836   2.369   3.448  1.1562  0.2197  0.4160
 4126SOL    HW224012   1.797   2.279   3.559 -0.6942  1.4538  3.4151
 4127SOL     OW24013   4.235   0.580   2.643  0.2697 -0.1543 -0.2052
 4127SOL    HW124014   4.262   0.599   2.733 -0.8251  0.6233 -0.0425
 4127SOL    HW224015   4.258   0.665   2.605 -1.8764  0.7956  0.6220
 4128SOL     OW24016   4.401   0.260   2.743 -0.8143  0.1031  0.5030
 4128SOL    HW124017   4.334   0.231   2.805 -1.3290 -0.4949 -0.3389
 4128SOL    HW224018   4.366   0.258   2.654 -1.5594  0.7821  0.7795
 4129SOL     OW24019   2.141   2.214   5.630  0.5079 -0.1022  0.7563
 4129SOL    HW124020   2.091   2.162   5.693 -0.6318 -0.8535 -0.7537
 4129SOL    HW224021   2.089   2.294   5.636 -0.1355 -0.3508 -1.6373
 4130SOL     OW24022   2.752   0.951   2.254  0.7422 -0.3339 -0.0231
 4130SOL    HW124023   2.766   0.957   2.160 -1.7840 -1.0730 -0.4435
 4130SOL    HW224024   2.730   0.860   2.276 -1.2751  0.3208  0.6083
 4131SOL     OW24025   1.721   0.560  17.110 -0.3990  0.5286  1.1728
 4131SOL    HW124026   1.706   0.575  17.203  1.7687  1.3725  1.3725
 4131SOL    HW224027   1.632   0.530  17.091  0.1055 -0.4868  0.4521
 4132SOL     OW24028   0.189   4.345   6.395  0.0849 -0.1456 -0.3075
 4132SOL    HW124029   0.104   4.356   6.352  0.0469 -2.4874 -0.8380
 4132SOL    HW224030   0.241   4.357   6.316  0.9754  1.3319  0.5029
 4133SOL     OW24031   4.262   1.109   7.358 -0.2840 -0.7102 -0.0569
 4133SOL    HW124032   4.313   1.185   7.330  0.4248 -1.4569 -0.7896
 4133SOL    HW224033   4.329   1.056   7.401  0.0459  0.0548  0.3722
 4134SOL     OW24034   2.476   0.993   5.678  0.0432  0.2039  0.6082
 4134SOL    HW124035   2.454   0.906   5.713 -0.8687  0.2042  0.0369
 4134SOL    HW224036   2.527   0.970   5.601  0.1057  1.2701  0.3371
 4135SOL     OW24037   3.369   0.599   9.732  0.0887  0.2482  0.5220
 4135SOL    HW124038   3.341   0.515   9.767  4.3070 -1.3010  0.2099
 4135SOL    HW224039   3.428   0.627   9.802  2.3738 -3.6528  0.1753
 4136SOL     OW24040   4.126   0.961   5.987  0.2900  0.2454 -0.2738
 4136SOL    HW124041   4.211   1.004   5.996  0.5091 -0.4774  1.0737
 4136SOL    HW224042   4.108   0.928   6.075 -0.1472 -0.7725 -0.7386
 4137SOL     OW24043   3.312   2.825   3.233  0.1803  0.5431  0.4852
 4137SOL    HW124044   3.315   2.911   3.190  2.8657 -1.1099 -2.6311
 4137SOL    HW224045   3.265   2.850   3.313 -0.7356 -1.3087  0.5191
 4138SOL     OW24046   2.882   3.166   5.136 -0.0956  0.7222 -0.2360
 4138SOL    HW124047   2.807   3.158   5.194  1.4147 -1.1846  1.4353
 4138SOL    HW224048   2.898   3.259   5.122 -0.0287  0.7003 -0.3064
 4139SOL     OW24049   4.221   4.196   9.509  0.3677 -0.6160  0.0691
 4139SOL    HW124050   4.315   4.216   9.511  0.5717 -1.6682  1.3558
 4139SOL    HW224051   4.198   4.160   9.595 -0.0339  2.7029  1.3600
 4140SOL     OW24052   1.481   4.354   4.508  0.4564  0.3477 -0.1029
 4140SOL    HW124053   1.567   4.355   4.549 -0.5065  0.8145  1.8916
 4140SOL    HW224054   1.450   4.441   4.532  0.8575  0.6990 -0.8487
 4141SOL     OW24055   0.690   3.063   6.741  0.2249 -0.0186  0.0265
 4141SOL    HW124056   0.708   3.132   6.806 -0.2627 -1.8702  2.1037
 4141SOL    HW224057   0.752   2.994   6.764 -1.1359 -0.9192  0.9882
 4142SOL     OW24058   2.260   1.766  13.249  0.2369  0.0394 -0.1797
 4142SOL    HW124059   2.293   1.817  13.322 -0.5972  0.4643 -0.1052
 4142SOL    HW224060   2.255   1.828  13.176  1.3243 -0.3409 -0.5813
 4143SOL     OW24061   1.650   2.744   8.619  0.0410  0.3181 -0.7849
 4143SOL    HW124062   1.564   2.760   8.580 -0.7417 -0.5587  0.5620
 4143SOL    HW224063   1.670   2.838   8.621  2.5780 -0.2283 -1.7879
 4144SOL     OW24064   4.218   0.679  15.919  0.9773  0.1514  0.0784
 4144SOL    HW124065   4.138   0.649  15.875  0.8368  0.4012  0.1657
 4144SOL    HW224066   4.180   0.693  16.006 -1.4176 -1.0136 -0.7471
 4145SOL     OW24067   1.586   2.659   7.456  0.1139  0.3953  0.2484
 4145SOL    HW124068   1.600   2.702   7.540  0.6292  0.6046  0.0520
 4145SOL    HW224069   1.552   2.576   7.488  1.9813 -0.1743  0.7310
 4146SOL     OW24070   4.280   0.087   1.955 -0.2711 -0.3615  0.5600
 4146SOL    HW124071   4.316   4.737   1.949  1.3459  0.5015 -2.3446
 4146SOL    HW224072   4.190   0.088   1.923 -1.5314  0.0266  4.1478
 4147SOL     OW24073   1.381   4.565  15.088 -0.2556 -0.1702  0.5597
 4147SOL    HW124074   1.439   4.490  15.074  1.4096  1.6308 -2.1548
 4147SOL    HW224075   1.441   4.622  15.136 -0.9473  0.1544  1.0340
 4148SOL     OW24076   4.061   1.746   8.447  0.2702 -0.0999 -0.1209
 4148SOL    HW124077   4.155   1.729   8.453 -0.0599 -1.7781  0.1004
 4148SOL    HW224078   4.071   1.840   8.467  0.5568 -0.3712  1.0149
 4149SOL     OW24079   1.778   2.614   9.206  0.5624 -0.6967 -0.0669
 4149SOL    HW124080   1.718   2.541   9.193 -0.9394  0.7377 -1.1301
 4149SOL    HW224081   1.729   2.694   9.188  2.3172  0.3974  0.0028
 4150SOL     OW24082   0.964   4.366   7.180  0.4081 -0.3533 -0.1963
 4150SOL    HW124083   1.055   4.387   7.198 -0.0975  1.2162  0.5263
 4150SOL    HW224084   0.920   4.418   7.248 -1.8177  0.9305 -2.6132
 4151SOL     OW24085   1.843   3.589   3.013 -0.8398 -0.5627  0.1491
 4151SOL    HW124086   1.748   3.594   3.028 -0.6653 -1.8459  1.6109
 4151SOL    HW224087   1.873   3.597   3.104  0.3042  1.0683 -0.3735
 4152SOL     OW24088   4.180   2.385  13.814 -0.3970  0.4654  0.2190
 4152SOL    HW124089   4.263   2.433  13.817 -0.0783  0.0231 -1.5680
 4152SOL    HW224090   4.192   2.311  13.872  1.5303 -0.0381 -0.8271
 4153SOL     OW24091   1.447   2.880   8.798 -0.1761  0.1264 -0.1867
 4153SOL    HW124092   1.433   2.974   8.809 -2.4635 -0.3368  0.8246
 4153SOL    HW224093   1.543   2.885   8.798 -0.1331 -0.7759  1.8856
 4154SOL     OW24094   3.824   4.371   3.253 -0.1285  0.2214  0.0118
 4154SOL    HW124095   3.782   4.433   3.312 -0.6296 -0.4474  0.3604
 4154SOL    HW224096   3.769   4.294   3.267  0.6352 -0.6202 -1.6459
 4155SOL     OW24097   3.507   1.029   2.137  0.5004  0.1250  0.2229
 4155SOL    HW124098   3.445   0.976   2.186  2.1094 -1.1195  0.9150
 4155SOL    HW224099   3.582   0.970   2.144  1.2986  1.0585 -0.3874
 4156SOL     OW24100   0.286   3.980   0.487 -0.0599 -0.0122  0.1381
 4156SOL    HW124101   0.313   3.963   0.578  0.9740  0.6779 -0.0385
 4156SOL    HW224102   0.206   4.031   0.500 -1.6303 -2.5893  0.4570
 4157SOL     OW24103   0.488   4.644   5.791  0.0408  0.1879  0.2531
 4157SOL    HW124104   0.563   4.642   5.731 -1.8309 -1.8379 -2.0444
 4157SOL    HW224105   0.515   4.714   5.851 -0.2328 -0.2150  0.8473
 4158SOL     OW24106   3.926   3.174  16.841  0.1454  0.5411  0.0152
 4158SOL    HW124107   3.866   3.166  16.915  0.3237 -0.9075 -0.0000
 4158SOL    HW224108   3.903   3.266  16.822 -0.0006  0.7438  1.1723
 4159SOL     OW24109   3.830   0.076   4.737  0.4194 -0.0052 -0.2542
 4159SOL    HW124110   3.919   0.105   4.759  1.0153 -2.1047  0.1566
 4159SOL    HW224111   3.843   4.719   4.727 -0.3750  0.1684 -2.9997
 4160SOL     OW24112   2.345   2.232   6.631 -0.0869 -0.1849  0.0143
 4160SOL    HW124113   2.408   2.201   6.696 -0.4700  1.7804  1.3025
 4160SOL    HW224114   2.366   2.180   6.553 -1.6448  1.2625 -1.3648
 4161SOL     OW24115   1.793   2.359  12.219  0.2963 -0.4715 -0.2484
 4161SOL    HW124116   1.789   2.286  12.157  2.2787 -0.2110 -0.6654
 4161SOL    HW224117   1.886   2.374  12.238 -0.5492  1.2813  2.6719
 4162SOL     OW24118   2.929   2.121   5.393 -0.4222  0.0532  0.0685
 4162SOL    HW124119   2.988   2.179   5.441 -0.2403 -1.6252  1.8243
 4162SOL    HW224120   2.867   2.099   5.462  0.3562 -3.6008 -0.4384
 4163SOL     OW24121   3.469   4.534  10.899  0.4072  0.4572 -0.5017
 4163SOL    HW124122   3.379   4.540  10.865  1.2185  2.2436 -2.2945
 4163SOL    HW224123   3.450   4.585  10.978  1.7403 -1.6309  1.1514
 4164SOL     OW24124   4.116   1.217   7.820  0.2166 -0.4069  0.0239
 4164SOL    HW124125   4.208   1.231   7.841  0.0379  0.4761  0.2096
 4164SOL    HW224126   4.084   1.274   7.890  3.7536 -0.4669  1.6827
 4165SOL     OW24127   2.695   3.211   5.304 -0.5735 -0.1368  0.1784
 4165SOL    HW124128   2.695   3.210   5.400 -1.3526 -0.6887  0.1748
 4165SOL    HW224129   2.603   3.238   5.299 -0.6611 -0.9553 -2.7802
 4166SOL     OW24130   2.652   3.659   0.804 -0.1099  0.2657 -0.1471
 4166SOL    HW124131   2.686   3.704   0.882 -1.0502  0.6168  0.0583
 4166SOL    HW224132   2.593   3.598   0.847  1.9373 -0.8102  1.1414
 4167SOL     OW24133   3.512   2.333  12.552  0.0748 -0.3793  0.2498
 4167SOL    HW124134   3.579   2.390  12.514  0.8108 -1.8217 -0.6267
 4167SOL    HW224135   3.550   2.247  12.533 -1.1060 -0.9714  0.5351
 4168SOL     OW24136   3.635   1.060   6.466 -0.4348  0.0253  0.4224
 4168SOL    HW124137   3.617   1.051   6.560 -1.6487 -2.0646 -0.0114
 4168SOL    HW224138   3.722   1.019   6.465  0.5901  2.2456 -0.1064
 4169SOL     OW24139   2.490   0.250   0.845 -0.2276  0.1816 -0.2185
 4169SOL    HW124140   2.584   0.233   0.852 -0.3200  0.3417  1.3023
 4169SOL    HW224141   2.487   0.254   0.749  0.9074 -1.5838 -0.3325
 4170SOL     OW24142   2.838   2.541   6.993 -0.0862 -0.0440 -0.3685
 4170SOL    HW124143   2.831   2.613   6.930 -0.9353 -0.3004 -0.5751
 4170SOL    HW224144   2.780   2.581   7.058 -0.5163 -0.0406 -0.7459
 4171SOL     OW24145   4.585   4.288   5.185 -0.0829  0.3474 -0.4579
 4171SOL    HW124146   4.580   4.233   5.106  1.5281 -1.1457  0.4692
 4171SOL    HW224147   4.493   4.309   5.203 -0.0140  2.0152 -2.1172
 4172SOL     OW24148   4.128   3.364   3.734 -0.1401 -0.1930 -0.5569
 4172SOL    HW124149   4.111   3.359   3.640 -2.9399 -2.2830  0.0312
 4172SOL    HW224150   4.161   3.276   3.753  0.6056 -0.0691 -1.3070
 4173SOL     OW24151   2.256   2.307  12.363 -0.3193 -0.2215 -0.6999
 4173SOL    HW124152   2.229   2.331  12.452  1.0686 -1.9346  0.1956
 4173SOL    HW224153   2.281   2.216  12.378 -0.8267 -0.5559 -1.9043
 4174SOL     OW24154   4.704   1.926   5.127 -0.0930  0.1453  0.3262
 4174SOL    HW124155   4.715   1.985   5.052 -0.4103 -1.3619 -0.9048
 4174SOL    HW224156   4.633   1.967   5.176 -1.5864 -1.3261 -0.6170
 4175SOL     OW24157   4.586   2.074   4.530 -0.0307 -0.0409  0.5079
 4175SOL    HW124158   4.595   2.158   4.576 -2.6704  0.3157  0.4148
 4175SOL    HW224159   4.625   2.004   4.583  0.3725  0.4129  0.8131
 4176SOL     OW24160   3.356   0.681   3.712 -0.5151  0.1476  0.1388
 4176SOL    HW124161   3.350   0.619   3.785 -0.6832 -0.2940 -0.2430
 4176SOL    HW224162   3.368   0.617   3.641  1.9145  0.3622  0.3804
 4177SOL     OW24163   2.842   3.539   2.502  0.2148 -0.1022 -0.1971
 4177SOL    HW124164   2.839   3.539   2.598  0.0024  0.0158 -0.2031
 4177SOL    HW224165   2.894   3.460   2.487  1.4673  0.7603 -0.3922
 4178SOL     OW24166   3.113   2.983   8.435 -0.2362  0.2435  0.2224
 4178SOL    HW124167   3.152   3.065   8.405 -1.5955  0.1068 -1.9154
 4178SOL    HW224168   3.189   2.940   8.475 -0.6846 -0.5633  0.2035
 4179SOL     OW24169   1.570   1.214   4.957  0.0511  0.3590  0.1296
 4179SOL    HW124170   1.659   1.233   4.987 -0.6425  2.1824  1.0330
 4179SOL    HW224171   1.585   1.179   4.869 -1.6529  3.7542 -1.5208
 4180SOL     OW24172   0.466   1.444   0.938  0.7148  0.3816  0.4610
 4180SOL    HW124173   0.440   1.536   0.947  0.1447  0.2419  0.2139
 4180SOL    HW224174   0.533   1.456   0.870 -0.5222 -1.7540 -1.1363
 4181SOL     OW24175   0.055   1.837   1.336 -0.2983 -0.0511 -0.5162
 4181SOL    HW124176   4.730   1.907   1.351 -0.2717 -0.3369  0.9339
 4181SOL    HW224177   0.114   1.883   1.276  1.3006 -0.4831  0.7068
 4182SOL     OW24178   2.191   4.128   2.405  0.2223 -0.2458 -0.0484
 4182SOL    HW124179   2.223   4.215   2.380  2.2523 -0.2218  2.6925
 4182SOL    HW224180   2.220   4.088   2.323  0.3793  0.8040 -0.5036
 4183SOL     OW24181   3.599   0.599  13.807 -0.0452  0.3192 -0.6499
 4183SOL    HW124182   3.571   0.578  13.896  2.4606  2.5031  0.6613
 4183SOL    HW224183   3.681   0.648  13.817 -1.1295  1.7149  1.3795
 4184SOL     OW24184   1.519   3.967   8.782 -0.7017  0.0380 -0.4383
 4184SOL    HW124185   1.512   3.918   8.701 -2.1167 -0.1623 -0.2042
 4184SOL    HW224186   1.425   3.969   8.804 -0.5277  0.9566  0.2401
 4185SOL     OW24187   3.078   3.991   9.813 -0.6965 -0.1045  0.3875
 4185SOL    HW124188   3.029   4.055   9.760  0.9855  0.4264 -0.5249
 4185SOL    HW224189   3.009   3.960   9.872  0.4178  0.2586  1.8930
 4186SOL     OW24190   2.869   0.811   5.910 -0.4680 -0.8185  0.2437
 4186SOL    HW124191   2.903   0.795   5.998  1.5126 -0.3261 -0.4508
 4186SOL    HW224192   2.806   0.883   5.923 -0.8937 -0.8308 -1.7897
 4187SOL     OW24193   2.332   2.629  16.020  0.5952 -0.0659  0.7282
 4187SOL    HW124194   2.311   2.542  15.987 -0.9286 -0.3138  2.3305
 4187SOL    HW224195   2.321   2.681  15.941 -0.2222  0.3055  1.0830
 4188SOL     OW24196   4.717   3.089   4.100 -0.0442  0.1747  0.2165
 4188SOL    HW124197   4.702   3.004   4.142  0.3518 -0.1259 -0.2501
 4188SOL    HW224198   4.711   3.153   4.171 -0.8066  0.5653 -0.1993
 4189SOL     OW24199   1.503   4.413   3.574  0.0150  0.1724  0.3517
 4189SOL    HW124200   1.439   4.460   3.628  1.1224 -0.3390  2.1159
 4189SOL    HW224201   1.575   4.476   3.567  1.4308 -1.3149  1.6503
 4190SOL     OW24202   4.240   1.445   5.530 -0.4145  0.0950 -0.0417
 4190SOL    HW124203   4.150   1.419   5.548 -0.3785  0.2794  0.4016
 4190SOL    HW224204   4.229   1.518   5.469 -0.0341 -0.2709 -0.5469
 4191SOL     OW24205   1.909   3.581   4.539  0.3626  0.1072  0.0298
 4191SOL    HW124206   1.899   3.486   4.527  2.2338 -0.4068  2.7058
 4191SOL    HW224207   1.929   3.608   4.449  1.7936  1.8326  0.8856
 4192SOL     OW24208   1.087   4.617   8.945  0.2512  0.0598 -0.0883
 4192SOL    HW124209   1.162   4.675   8.934  1.7999 -1.7512  1.0172
 4192SOL    HW224210   1.024   4.687   8.960  0.8761  0.5867  0.0745
 4193SOL     OW24211   4.276   0.617   8.844  0.8596 -0.6960  0.1703
 4193SOL    HW124212   4.281   0.701   8.797  1.6073  0.0875  1.6521
 4193SOL    HW224213   4.184   0.603   8.823  1.5907 -1.6118 -2.4165
 4194SOL     OW24214   3.743   2.356   4.980 -0.4996 -0.0642  0.2663
 4194SOL    HW124215   3.769   2.371   5.071  1.0288 -0.7858 -0.0552
 4194SOL    HW224216   3.777   2.267   4.970  1.6196  0.9075 -1.1134
 4195SOL     OW24217   3.621   1.192   3.132  0.7223 -0.4426  0.0039
 4195SOL    HW124218   3.626   1.154   3.044 -1.8309  1.1859 -0.8265
 4195SOL    HW224219   3.529   1.213   3.144  0.8632 -0.7961  1.6369
 4196SOL     OW24220   2.391   0.276   4.030  0.4553  0.2427  0.3639
 4196SOL    HW124221   2.473   0.252   3.987 -0.5366  0.1790 -1.5360
 4196SOL    HW224222   2.331   0.264   3.956 -2.0794  0.3772  2.3815
 4197SOL     OW24223   2.878   1.653   5.991  0.5091  0.8660 -0.3524
 4197SOL    HW124224   2.929   1.597   5.933  0.2900 -0.7950  1.0809
 4197SOL    HW224225   2.793   1.615   6.012  2.0985 -2.5358 -0.1053
 4198SOL     OW24226   0.159   2.428   8.932 -0.1371  0.3272  0.0354
 4198SOL    HW124227   0.190   2.339   8.948 -0.4628  0.6708  2.5115
 4198SOL    HW224228   0.165   2.444   8.838  0.4555  0.1487  0.0410
 4199SOL     OW24229   2.591   0.955   1.862  0.1534  0.4113 -0.0852
 4199SOL    HW124230   2.569   0.862   1.873  1.0462 -0.2595 -3.8959
 4199SOL    HW224231   2.509   0.996   1.888 -0.2538 -0.6923  0.3872
 4200SOL     OW24232   1.169   3.507   5.548 -0.3064 -0.0272 -0.1579
 4200SOL    HW124233   1.077   3.493   5.525 -0.7235  1.7874  0.3908
 4200SOL    HW224234   1.164   3.463   5.632  0.8069 -0.2781 -0.2325
 4201SOL     OW24235   2.991   1.825  11.063 -0.2742  0.0821 -0.3980
 4201SOL    HW124236   3.058   1.812  11.130 -3.2726  1.7488  2.9073
 4201SOL    HW224237   2.975   1.919  11.065 -0.7441 -0.0301  0.8009
 4202SOL     OW24238   4.622   1.127  12.363 -0.0642 -0.5937 -0.2812
 4202SOL    HW124239   4.574   1.054  12.324  2.4037 -1.3106 -1.9553
 4202SOL    HW224240   4.615   1.194  12.296 -2.0481  0.2661  0.7768
 4203SOL     OW24241   4.658   1.297  15.818 -0.4130 -0.4970 -0.2294
 4203SOL    HW124242   4.604   1.324  15.892 -0.9489 -1.7319 -0.1683
 4203SOL    HW224243   4.711   1.223  15.849  0.2509  0.4535  0.9273
 4204SOL     OW24244   0.541   0.901   9.179  0.0601 -0.1304 -0.0920
 4204SOL    HW124245   0.566   0.819   9.137 -0.5871  0.8841 -2.4257
 4204SOL    HW224246   0.619   0.927   9.228  1.2270 -0.5072 -1.7415
 4205SOL     OW24247   4.420   3.159   3.986 -0.2650 -0.2857  0.3380
 4205SOL    HW124248   4.380   3.191   4.066 -0.2684  2.4001 -0.7110
 4205SOL    HW224249   4.504   3.131   4.022  0.2287 -2.4637 -2.4347
 4206SOL     OW24250   1.486   2.237   8.445 -0.3605  0.0745 -0.8123
 4206SOL    HW124251   1.442   2.238   8.360  0.9875  1.3028 -1.4883
 4206SOL    HW224252   1.431   2.174   8.492 -0.6922  0.0017 -1.2974
 4207SOL     OW24253   0.295   2.520   4.804  0.2024  0.1665  0.0146
 4207SOL    HW124254   0.271   2.613   4.809  2.0240  0.6424  0.1138
 4207SOL    HW224255   0.237   2.497   4.731  0.8258  0.5034 -0.5908
 4208SOL     OW24256   1.014   1.875   2.050 -0.8990 -0.0747  0.1635
 4208SOL    HW124257   1.019   1.963   2.014 -0.5537  0.9306  2.6728
 4208SOL    HW224258   0.983   1.829   1.972 -1.3076 -0.3630  0.5003
 4209SOL     OW24259   4.173   4.373   6.083  0.0793  0.3322 -0.5180
 4209SOL    HW124260   4.202   4.312   6.015  3.2076  0.0771  1.0383
 4209SOL    HW224261   4.237   4.346   6.148 -0.3699  1.2780  0.3200
 4210SOL     OW24262   1.298   0.138  15.894 -0.0454 -0.7079 -0.0778
 4210SOL    HW124263   1.392   0.153  15.891  0.0199 -0.8634  1.7494
 4210SOL    HW224264   1.267   0.203  15.829  2.0633  0.5890  0.2154
 4211SOL     OW24265   3.137   3.999   8.370  0.1299 -0.1910 -0.0435
 4211SOL    HW124266   3.135   3.935   8.441  1.5598  1.5189  1.5482
 4211SOL    HW224267   3.123   4.075   8.427  2.8684 -2.0495  3.0910
 4212SOL     OW24268   4.464   0.968  16.361  0.0483  0.2356 -0.1192
 4212SOL    HW124269   4.475   0.889  16.308 -1.5788 -0.4862  0.6247
 4212SOL    HW224270   4.378   0.993  16.328  0.2438 -2.9219 -3.0797
 4213SOL     OW24271   3.996   1.685   3.373  0.0114  0.1614  0.2298
 4213SOL    HW124272   3.972   1.774   3.400  0.1550  0.4027 -0.4518
 4213SOL    HW224273   4.056   1.702   3.301  0.0272  3.3237  1.0201
 4214SOL     OW24274   2.477   3.251   4.023 -0.3525 -0.1589  0.2800
 4214SOL    HW124275   2.512   3.258   3.935 -1.2005 -0.6497 -0.0935
 4214SOL    HW224276   2.508   3.163   4.044  1.0601  0.6825  1.6980
 4215SOL     OW24277   1.472   0.644  12.777  0.3489 -0.2566  0.3946
 4215SOL    HW124278   1.497   0.562  12.736  0.6236 -0.0930  0.2342
 4215SOL    HW224279   1.559   0.682  12.786 -0.2242  0.5594  2.6083
 4216SOL     OW24280   0.908   2.770  14.703 -0.7625  0.0775  0.0994
 4216SOL    HW124281   0.868   2.761  14.790 -2.1229 -1.4190 -0.6921
 4216SOL    HW224282   0.989   2.725  14.725 -0.4016  1.1950  1.0251
 4217SOL     OW24283   0.389   3.221   6.703 -0.4496 -0.0695 -0.3305
 4217SOL    HW124284   0.479   3.215   6.672 -0.1558  4.3136 -0.2990
 4217SOL    HW224285   0.335   3.219   6.624  0.3118  3.4298 -0.9495
 4218SOL     OW24286   0.290   1.502   0.563 -0.1036  0.6309 -0.2973
 4218SOL    HW124287   0.297   1.449   0.484  1.1311 -0.4908  0.5679
 4218SOL    HW224288   0.326   1.583   0.526 -0.9596 -0.0798 -2.6429
 4219SOL     OW24289   0.212   2.709   6.223 -0.4432  0.3933  0.4140
 4219SOL    HW124290   0.267   2.665   6.158 -0.2379  0.5781  0.4608
 4219SOL    HW224291   0.281   2.761   6.266  0.5265 -1.4521  1.0848
 4220SOL     OW24292   3.048   3.680   6.014  0.4132 -0.3017 -0.1131
 4220SOL    HW124293   3.079   3.593   6.041 -1.9373 -0.1315  3.1994
 4220SOL    HW224294   3.122   3.720   5.969  1.0737 -1.2376  0.1531
 4221SOL     OW24295   0.191   0.391   7.936  0.1787  0.4259 -0.1729
 4221SOL    HW124296   0.150   0.325   7.992  0.1581  0.1592 -0.4993
 4221SOL    HW224297   0.110   0.426   7.900 -1.2005 -1.1472  1.4107
 4222SOL     OW24298   3.632   0.759   5.237 -0.1033  0.4059  0.1694
 4222SOL    HW124299   3.690   0.692   5.201 -0.1632  1.8759 -2.6312
 4222SOL    HW224300   3.586   0.713   5.308  0.2646 -1.3084 -0.6842
 4223SOL     OW24301   1.240   0.617   4.184  0.0422  0.5341  0.5466
 4223SOL    HW124302   1.203   0.529   4.174  2.2916 -0.3673  0.0150
 4223SOL    HW224303   1.190   0.666   4.119  0.9855 -0.2075 -0.7358
 4224SOL     OW24304   2.619   1.304   7.419 -0.6133  0.2986  0.4415
 4224SOL    HW124305   2.556   1.328   7.351  0.6764  0.6942 -0.6296
 4224SOL    HW224306   2.613   1.210   7.432 -1.1126  0.3826  0.8056
 4225SOL     OW24307   2.281   1.791   8.349  0.2251  0.3647  0.1010
 4225SOL    HW124308   2.255   1.822   8.262  1.0410  1.3791  0.2265
 4225SOL    HW224309   2.326   1.866   8.386  2.5236 -0.1894 -1.5991
 4226SOL     OW24310   1.924   4.355   1.247 -0.2998 -0.1664 -0.5201
 4226SOL    HW124311   1.954   4.418   1.181  0.7904 -0.1572 -0.0261
 4226SOL    HW224312   1.971   4.278   1.215  0.8978  0.0040  0.8076
 4227SOL     OW24313   1.723   2.349  11.603 -0.0623 -0.2755  0.6212
 4227SOL    HW124314   1.689   2.263  11.580  1.2762 -0.9428  1.1729
 4227SOL    HW224315   1.647   2.400  11.576 -0.6138  0.0687  2.8065
 4228SOL     OW24316   3.263   3.136   6.863  0.6324  0.5708  0.5193
 4228SOL    HW124317   3.348   3.143   6.820  0.5794  1.2794  0.5186
 4228SOL    HW224318   3.289   3.058   6.912  0.3334  0.3511  0.3243
 4229SOL     OW24319   2.973   0.262   8.764 -0.2055 -0.4088 -0.2001
 4229SOL    HW124320   3.060   0.254   8.725 -0.5351  2.8598 -1.6652
 4229SOL    HW224321   2.963   0.357   8.763  0.8527 -0.2983 -0.5001
 4230SOL     OW24322   4.586   1.737   8.975  0.2057  0.2113 -0.2340
 4230SOL    HW124323   4.534   1.731   8.895 -0.2102 -1.1817  0.1425
 4230SOL    HW224324   4.573   1.830   8.991 -1.8987 -0.2106  0.5006
 4231SOL     OW24325   4.439   0.375   6.931 -0.0746 -0.3084  0.6719
 4231SOL    HW124326   4.454   0.397   6.839 -0.4205  0.2337  0.7427
 4231SOL    HW224327   4.359   0.420   6.956 -0.0407  0.0474  0.1319
 4232SOL     OW24328   4.329   0.764   7.841  0.2667 -0.6005 -0.4132
 4232SOL    HW124329   4.244   0.781   7.800 -0.1365 -0.3656  0.5061
 4232SOL    HW224330   4.303   0.691   7.898  0.9744  1.2990  2.3334
 4233SOL     OW24331   4.258   3.916  11.820  0.1767  0.2322  0.0827
 4233SOL    HW124332   4.294   3.846  11.875 -0.9959  0.3560  1.0114
 4233SOL    HW224333   4.306   3.992  11.852  0.0467  1.3475 -2.3977
 4234SOL     OW24334   0.590   0.621   4.673  0.2124 -0.0048  0.9782
 4234SOL    HW124335   0.545   0.545   4.709  1.2224  0.6468  3.6304
 4234SOL    HW224336   0.543   0.631   4.590  1.0101  1.1415  0.6652
 4235SOL     OW24337   1.955   4.480  17.467 -0.1178 -0.0435 -0.3224
 4235SOL    HW124338   2.035   4.429  17.479  0.4357  0.9273  0.1389
 4235SOL    HW224339   1.987   4.518  17.385 -1.0893  0.4969 -0.4577
 4236SOL     OW24340   3.843   2.723   7.088  0.1482 -0.5025 -0.1390
 4236SOL    HW124341   3.867   2.637   7.121 -1.0073 -1.0168 -0.6267
 4236SOL    HW224342   3.808   2.762   7.168 -1.0527  0.8157 -1.2887
 4237SOL     OW24343   2.025   1.140   6.251 -0.6829 -0.4543 -0.2742
 4237SOL    HW124344   2.066   1.054   6.256  2.5280  1.1068  0.2325
 4237SOL    HW224345   1.982   1.136   6.165 -0.1021 -1.1180 -0.5351
 4238SOL     OW24346   3.987   0.344   7.824 -0.3003  0.6854  0.8631
 4238SOL    HW124347   3.914   0.372   7.879  0.2760  0.4497  1.7439
 4238SOL    HW224348   3.960   0.383   7.740  0.9305 -0.1287  0.0875
 4239SOL     OW24349   0.401   1.920   1.243 -0.5884 -0.8094  0.2164
 4239SOL    HW124350   0.402   1.975   1.321  0.4273  2.4712 -2.1485
 4239SOL    HW224351   0.310   1.918   1.214 -0.3047  1.3260 -0.7744
 4240SOL     OW24352   1.192   3.841   4.260  0.6067 -0.0538 -0.3280
 4240SOL    HW124353   1.127   3.831   4.191  0.9392  1.1324 -0.8202
 4240SOL    HW224354   1.179   3.936   4.254  0.5460 -0.0883 -0.7063
 4241SOL     OW24355   1.911   4.602   4.889  0.2860  0.4056 -0.4476
 4241SOL    HW124356   1.867   4.610   4.805  0.6735 -0.7293 -0.7496
 4241SOL    HW224357   1.987   4.659   4.872  1.3524 -0.9882 -0.3438
 4242SOL     OW24358   1.136   2.413   9.756 -0.2108  0.2327  0.0657
 4242SOL    HW124359   1.051   2.450   9.733 -1.5195 -0.5599  3.6709
 4242SOL    HW224360   1.131   2.330   9.709 -1.0607  1.3154 -1.7386
 4243SOL     OW24361   3.699   3.947   0.166 -0.0928  0.6086 -0.2270
 4243SOL    HW124362   3.613   3.906   0.177  0.7944 -1.0408  0.4920
 4243SOL    HW224363   3.682   4.018   0.104 -0.3990 -0.2969 -1.1781
 4244SOL     OW24364   1.426   1.779   8.014  0.0557 -0.0186 -0.3333
 4244SOL    HW124365   1.518   1.755   8.015  0.7266  2.6453 -0.0292
 4244SOL    HW224366   1.416   1.789   7.919 -1.8852 -0.8149 -0.2284
 4245SOL     OW24367   2.967   3.078  17.183  0.2551 -0.7367 -0.3088
 4245SOL    HW124368   2.898   3.132  17.143  0.1430 -0.7088 -0.0775
 4245SOL    HW224369   3.044   3.134  17.190 -0.7288  0.4516  1.1072
 4246SOL     OW24370   4.468   2.989   5.685  0.1916  0.1034 -0.2221
 4246SOL    HW124371   4.492   3.030   5.602 -1.0811  1.1753 -0.0563
 4246SOL    HW224372   4.555   2.981   5.726 -0.4200  0.3082  1.1317
 4247SOL     OW24373   4.546   0.136   7.436 -0.1818  0.5238 -0.5217
 4247SOL    HW124374   4.586   0.194   7.372 -0.1116  0.9856 -0.0614
 4247SOL    HW224375   4.475   0.187   7.475 -1.9322 -0.5812 -2.2716
 4248SOL     OW24376   0.149   0.071  17.217 -0.3081  0.2584 -0.5406
 4248SOL    HW124377   0.185   0.084  17.305 -2.7865  0.7873  0.3870
 4248SOL    HW224378   0.218   0.012  17.184  0.9680  0.8709  1.0568
 4249SOL     OW24379   3.443   3.340   8.307  0.1826 -0.7799  0.2976
 4249SOL    HW124380   3.363   3.298   8.337  0.0498 -1.0816 -0.4797
 4249SOL    HW224381   3.492   3.328   8.389 -0.5336 -0.9574  0.6972
 4250SOL     OW24382   4.273   0.433   5.676  0.0702 -0.1972  0.3894
 4250SOL    HW124383   4.365   0.458   5.673 -0.9728  3.5393 -0.9466
 4250SOL    HW224384   4.261   0.439   5.771 -0.9984 -0.8016  0.2924
 4251SOL     OW24385   1.754   4.169   8.072  0.6409 -0.4085  0.4813
 4251SOL    HW124386   1.813   4.193   8.001 -0.3053 -0.1503 -0.2185
 4251SOL    HW224387   1.688   4.120   8.022 -0.0699  1.7019 -0.6383
 4252SOL     OW24388   1.386   3.509   6.157 -0.3966  0.0916  0.0705
 4252SOL    HW124389   1.432   3.551   6.230 -0.1079 -2.6814  1.5016
 4252SOL    HW224390   1.410   3.419   6.183  1.2835  0.3493 -0.5715
 4253SOL     OW24391   2.488   1.101  12.251  0.5045 -0.1652  0.4406
 4253SOL    HW124392   2.570   1.053  12.241  0.0622 -0.8422  0.0083
 4253SOL    HW224393   2.421   1.047  12.293 -1.0758  0.6747 -1.0190
 4254SOL     OW24394   0.876   4.368   3.566  0.1638 -0.5033  0.5911
 4254SOL    HW124395   0.833   4.445   3.603 -0.5972 -0.1338 -1.0555
 4254SOL    HW224396   0.814   4.303   3.600 -1.9818  1.0140 -0.4657
 4255SOL     OW24397   3.559   1.206   2.377  0.1157  0.7305  0.2790
 4255SOL    HW124398   3.488   1.148   2.405  0.2630  0.7319  0.6633
 4255SOL    HW224399   3.577   1.194   2.284 -1.2669  0.6280  0.0277
 4256SOL     OW24400   3.967   3.146   6.623 -0.3137 -0.1035  0.2158
 4256SOL    HW124401   4.039   3.160   6.560 -1.2151  0.8899 -0.5963
 4256SOL    HW224402   3.983   3.219   6.683 -2.2147 -0.2247  0.8404
 4257SOL     OW24403   3.231   3.109   7.619  0.1492 -0.2533  0.7733
 4257SOL    HW124404   3.306   3.152   7.660 -0.4136  1.5115 -0.0653
 4257SOL    HW224405   3.280   3.053   7.558 -0.0852  0.2272  0.1450
 4258SOL     OW24406   3.714   0.261   1.441 -0.1315  0.2700 -0.0992
 4258SOL    HW124407   3.703   0.332   1.378 -0.7237  0.5865  0.3556
 4258SOL    HW224408   3.631   0.215   1.431 -1.2140  1.6198  2.5653
 4259SOL     OW24409   0.359   0.725  11.020 -0.3844 -0.2903 -0.4330
 4259SOL    HW124410   0.394   0.729  10.931 -1.1141 -0.5852 -0.7374
 4259SOL    HW224411   0.371   0.632  11.041  1.8142 -0.1388 -1.0551
 4260SOL     OW24412   4.274   3.444   6.049 -0.0337 -0.3239 -0.3688
 4260SOL    HW124413   4.210   3.449   6.120  0.8658 -2.3661  0.5605
 4260SOL    HW224414   4.349   3.416   6.101 -1.3720 -1.3253  1.0379
 4261SOL     OW24415   3.405   2.356   7.559  0.4788  0.0868 -0.3747
 4261SOL    HW124416   3.486   2.322   7.520  1.9111  2.0093  0.9468
 4261SOL    HW224417   3.371   2.274   7.594 -0.9157  0.5908 -0.5610
 4262SOL     OW24418   1.349   0.201   4.276  0.1963 -0.3359 -0.1017
 4262SOL    HW124419   1.295   0.267   4.231  1.4268  0.5469 -0.2842
 4262SOL    HW224420   1.321   0.227   4.363 -2.0314 -1.2411 -0.5623
 4263SOL     OW24421   1.832   1.268   8.559 -0.3893 -0.6886  0.4776
 4263SOL    HW124422   1.759   1.207   8.548 -0.3438 -0.8877  1.3383
 4263SOL    HW224423   1.862   1.283   8.469  1.2809 -2.7523  0.7052
 4264SOL     OW24424   1.471   0.182   3.251  0.4129  0.8741  0.1052
 4264SOL    HW124425   1.550   0.128   3.243 -0.4590 -0.9199  3.4213
 4264SOL    HW224426   1.434   0.138   3.327  0.1562  1.6483  0.4355
 4265SOL     OW24427   0.159   2.342   4.591  0.0593  0.1754  0.3736
 4265SOL    HW124428   0.206   2.324   4.510 -0.1418 -0.8959  0.4881
 4265SOL    HW224429   0.155   2.253   4.628 -0.4912 -0.7788 -1.9845
 4266SOL     OW24430   0.857   4.410   3.195 -0.3642  0.1384  0.1027
 4266SOL    HW124431   0.865   4.457   3.112  1.0340  0.9901  0.7321
 4266SOL    HW224432   0.886   4.324   3.165  0.4783  0.4545  0.0349
 4267SOL     OW24433   0.635   3.982   7.556  0.6345  1.1617  0.3632
 4267SOL    HW124434   0.696   3.908   7.548 -0.1553  0.4900  0.6245
 4267SOL    HW224435   0.556   3.931   7.572 -0.3053  1.8921 -1.9722
 4268SOL     OW24436   0.440   0.741   0.358 -0.0525 -0.5243 -0.4672
 4268SOL    HW124437   0.386   0.664   0.342 -2.0268  0.6982  0.3699
 4268SOL    HW224438   0.386   0.801   0.306  0.0592  0.0200  0.0499
 4269SOL     OW24439   1.839   1.954   9.598  0.0139 -0.0879 -0.4626
 4269SOL    HW124440   1.886   1.942   9.680 -0.3353 -0.9836 -0.3887
 4269SOL    HW224441   1.906   1.935   9.533  2.7956  0.0399  2.3556
 4270SOL     OW24442   1.844   2.298   1.697  0.5564 -0.1948 -0.2283
 4270SOL    HW124443   1.877   2.270   1.783  0.6995 -1.7138 -0.7751
 4270SOL    HW224444   1.924   2.288   1.646  0.3384 -0.2399 -0.5604
 4271SOL     OW24445   3.731   1.858   0.901 -0.3310  0.3761 -0.5331
 4271SOL    HW124446   3.679   1.866   0.821 -0.2978 -0.6851 -0.6686
 4271SOL    HW224447   3.804   1.801   0.875 -0.1702  0.0062  0.7114
 4272SOL     OW24448   1.312   4.053   5.975  0.5202 -0.0873  0.2635
 4272SOL    HW124449   1.368   4.127   5.993  1.3007 -0.8480  0.9497
 4272SOL    HW224450   1.348   3.983   6.029 -1.1766 -1.1025  0.0971
 4273SOL     OW24451   0.177   3.751   8.889 -0.5351 -0.2689 -0.0312
 4273SOL    HW124452   0.086   3.781   8.898 -0.4638 -0.6401  2.0548
 4273SOL    HW224453   0.163   3.676   8.947 -1.6330  0.1173  0.2097
 4274SOL     OW24454   0.576   1.841   6.862  0.4146  0.6098  0.2503
 4274SOL    HW124455   0.521   1.911   6.826  1.0746  1.4333  0.8291
 4274SOL    HW224456   0.622   1.814   6.783  0.0833  1.8361 -0.3657
 4275SOL     OW24457   2.155   1.177   3.746  0.0584 -0.0696  0.4073
 4275SOL    HW124458   2.087   1.155   3.683 -0.1868  2.1043 -0.0681
 4275SOL    HW224459   2.225   1.173   3.681  0.7994 -0.2287  1.2142
 4276SOL     OW24460   4.320   1.612   3.441 -0.0711 -0.9016 -0.1101
 4276SOL    HW124461   4.351   1.652   3.360 -0.3053 -1.4277 -0.4582
 4276SOL    HW224462   4.227   1.635   3.443  0.4125  0.9129  2.0253
 4277SOL     OW24463   2.043   2.296   1.526 -0.0513 -0.0145 -0.0737
 4277SOL    HW124464   2.072   2.207   1.507 -1.5122 -0.6794  0.8305
 4277SOL    HW224465   1.981   2.319   1.457  0.5896 -1.0198 -0.9971
 4278SOL     OW24466   3.464   0.868   2.856 -0.4923 -0.3765 -0.1520
 4278SOL    HW124467   3.470   0.865   2.761  1.1125  1.1267 -0.0803
 4278SOL    HW224468   3.553   0.888   2.885 -1.1533 -0.4257  1.9419
 4279SOL     OW24469   2.458   3.571   7.854  0.2835 -0.1956 -0.6574
 4279SOL    HW124470   2.400   3.604   7.786 -0.7995  0.4884  0.6089
 4279SOL    HW224471   2.476   3.480   7.827  0.8231 -0.6565  1.2216
 4280SOL     OW24472   3.440   0.342  13.481 -0.3188  0.7340 -0.2425
 4280SOL    HW124473   3.530   0.370  13.503  0.0346 -0.0873 -0.6600
 4280SOL    HW224474   3.404   0.322  13.567 -0.0955 -0.4553 -0.4332
 4281SOL     OW24475   2.743   2.757   7.192  0.0677  0.2180 -0.6455
 4281SOL    HW124476   2.836   2.744   7.212  0.2235 -0.2080 -1.6513
 4281SOL    HW224477   2.721   2.819   7.261  0.5606  2.2882 -2.3492
 4282SOL     OW24478   4.660   0.361   1.445 -0.0802 -0.6140 -0.3549
 4282SOL    HW124479   4.581   0.342   1.394  0.4592  0.0796 -1.4531
 4282SOL    HW224480   4.730   0.376   1.381  0.9444  1.8982  1.3268
 4283SOL     OW24481   3.939   1.083   9.823 -0.2171 -0.1445 -0.3519
 4283SOL    HW124482   3.903   1.029   9.893 -0.7333 -0.4828 -0.8754
 4283SOL    HW224483   3.965   1.162   9.870 -2.1102  0.8791 -0.9955
 4284SOL     OW24484   2.350   2.153   3.808 -0.6555 -0.1452  0.2719
 4284SOL    HW124485   2.368   2.157   3.902 -1.6014 -3.3798  0.5747
 4284SOL    HW224486   2.413   2.086   3.783  0.1278  1.1611 -1.2723
 4285SOL     OW24487   2.076   3.620   2.766  0.3277  0.1064 -0.0446
 4285SOL    HW124488   2.070   3.526   2.779 -1.1548  0.1628 -0.2948
 4285SOL    HW224489   2.152   3.653   2.815  0.2006  2.2300 -1.2491
 4286SOL     OW24490   2.231   2.925  16.071  0.3550 -0.0366 -0.4352
 4286SOL    HW124491   2.234   2.883  15.985  1.4089  0.2641 -0.5406
 4286SOL    HW224492   2.167   2.995  16.059  0.0291  0.1573  2.3176
 4287SOL     OW24493   1.007   3.605   1.585  0.3150  0.2757  0.5882
 4287SOL    HW124494   0.948   3.564   1.522  0.6528  0.2455  0.2940
 4287SOL    HW224495   0.952   3.608   1.663 -0.4195  1.4167  0.0256
 4288SOL     OW24496   2.319   0.664  17.289  0.4097 -0.2468 -0.5868
 4288SOL    HW124497   2.258   0.613  17.343  1.4882  0.2761  1.1281
 4288SOL    HW224498   2.256   0.718  17.241 -1.5128 -1.4787  0.5236
 4289SOL     OW24499   2.911   0.660   7.042 -0.2509  0.0376  0.2226
 4289SOL    HW124500   2.928   0.582   7.095  1.4994 -1.0282 -1.8877
 4289SOL    HW224501   2.820   0.653   7.014  0.5740 -1.7965 -2.0318
 4290SOL     OW24502   0.628   0.020   6.995 -0.3834 -0.4504  0.1065
 4290SOL    HW124503   0.680   4.678   6.979 -0.6075 -0.8424  1.3099
 4290SOL    HW224504   0.566   4.734   7.064  0.4797 -1.3658  0.5848
 4291SOL     OW24505   0.651   4.581   7.226 -0.0999 -0.0016 -0.3377
 4291SOL    HW124506   0.601   4.604   7.305  0.3648  1.1662 -0.3710
 4291SOL    HW224507   0.726   4.640   7.233  0.8332 -1.5232  2.1682
 4292SOL     OW24508   1.366   1.236   8.169 -0.1627  0.3632  0.2541
 4292SOL    HW124509   1.285   1.255   8.216 -1.0757 -3.1361  0.0438
 4292SOL    HW224510   1.427   1.295   8.212  1.5696 -1.2476  0.0025
 4293SOL     OW24511   2.966   3.867   6.400 -0.3865  0.2378  0.0884
 4293SOL    HW124512   2.912   3.923   6.455 -1.3205 -0.0715 -0.5031
 4293SOL    HW224513   2.899   3.840   6.337 -1.0384 -0.4033  1.0535
 4294SOL     OW24514   4.018   2.806   4.399 -0.0568 -0.4974 -0.1553
 4294SOL    HW124515   3.959   2.819   4.474 -0.0946  0.0502 -0.2777
 4294SOL    HW224516   3.989   2.875   4.339 -1.8891 -1.0266  0.1128
 4295SOL     OW24517   4.601   4.357  12.144  0.0056 -0.1261 -0.2108
 4295SOL    HW124518   4.627   4.289  12.206 -2.9364 -1.8258 -0.8131
 4295SOL    HW224519   4.507   4.351  12.165  0.4492  1.4205  2.2495
 4296SOL     OW24520   3.561   2.365   3.320  0.0272 -0.1542 -0.3398
 4296SOL    HW124521   3.491   2.318   3.274  1.6843 -0.3773 -2.6252
 4296SOL    HW224522   3.515   2.427   3.376  1.5883  1.5225 -0.9255
 4297SOL     OW24523   4.378   2.584   2.261 -0.0644  0.2715 -0.2939
 4297SOL    HW124524   4.405   2.646   2.328  1.3207  1.2344 -1.7528
 4297SOL    HW224525   4.449   2.521   2.278 -1.1357 -1.2381 -1.3603
 4298SOL     OW24526   4.360   2.784   8.709  0.2954 -0.1138 -0.0690
 4298SOL    HW124527   4.451   2.813   8.716  0.8406 -2.0166  0.5378
 4298SOL    HW224528   4.319   2.863   8.672 -1.6687 -1.4616 -0.7450
 4299SOL     OW24529   2.323   3.658   8.094 -0.4925 -0.2454 -0.3918
 4299SOL    HW124530   2.340   3.605   8.016  2.6408 -0.9495  0.7668
 4299SOL    HW224531   2.235   3.635   8.124 -1.0194  0.6117 -1.3154
 4300SOL     OW24532   0.334   1.738   2.954 -0.6993 -0.0526  0.7101
 4300SOL    HW124533   0.331   1.805   3.022  0.7078  0.5989  0.1215
 4300SOL    HW224534   0.332   1.667   3.018  2.4849  1.2324  2.2176
 4301SOL     OW24535   3.656   2.920   4.191  0.2759  0.1939 -0.1442
 4301SOL    HW124536   3.633   2.923   4.098 -0.0980 -1.8722 -0.1316
 4301SOL    HW224537   3.581   2.868   4.220  1.6393 -1.2758  0.7441
 4302SOL     OW24538   1.295   3.287   9.486 -0.7418 -0.4004  0.1179
 4302SOL    HW124539   1.347   3.209   9.507 -1.4310 -0.7146  0.6798
 4302SOL    HW224540   1.340   3.359   9.530  1.1652 -1.8276  0.5017
 4303SOL     OW24541   1.665   0.760   8.085  0.7247 -0.0686 -0.2264
 4303SOL    HW124542   1.680   0.666   8.073  0.2657 -0.2936  0.9086
 4303SOL    HW224543   1.725   0.775   8.158  1.4156 -1.5138 -0.4998
 4304SOL     OW24544   4.327   1.048  14.968  0.0471 -0.7645 -0.3525
 4304SOL    HW124545   4.398   1.082  14.913 -1.4071  2.7803 -0.0623
 4304SOL    HW224546   4.246   1.067  14.921  0.7042  2.3227 -0.2171
 4305SOL     OW24547   3.290   2.300   6.016  0.0603 -0.0534 -0.1962
 4305SOL    HW124548   3.349   2.346   6.076 -1.0418  0.6403  0.3464
 4305SOL    HW224549   3.217   2.269   6.070 -0.3670  0.3856 -0.5288
 4306SOL     OW24550   2.226   2.467   5.813  0.1725 -0.4764 -0.4170
 4306SOL    HW124551   2.231   2.432   5.902  1.6452 -0.0203 -0.3220
 4306SOL    HW224552   2.132   2.461   5.798  0.1607  0.2022 -0.6246
 4307SOL     OW24553   1.696   1.280  14.840  0.5833 -0.1434 -0.0915
 4307SOL    HW124554   1.723   1.251  14.928  1.1455 -0.8574 -0.4942
 4307SOL    HW224555   1.638   1.355  14.855 -0.6504 -0.7883 -1.5834
 4308SOL     OW24556   4.503   2.183   9.873 -0.4323 -0.0396  0.8865
 4308SOL    HW124557   4.504   2.101   9.823  2.6168  0.8322 -0.4537
 4308SOL    HW224558   4.437   2.235   9.828  0.7253 -0.5339 -1.3858
 4309SOL     OW24559   2.814   4.034   6.594  0.2155 -0.3384 -0.4140
 4309SOL    HW124560   2.748   4.048   6.525  1.0059  1.9857 -0.7194
 4309SOL    HW224561   2.810   4.114   6.648  2.2343  0.3490 -1.3050
 4310SOL     OW24562   2.777   1.194   4.467  0.7260  0.3801  0.1853
 4310SOL    HW124563   2.869   1.201   4.492  1.1560 -0.7259 -1.0919
 4310SOL    HW224564   2.791   1.134   4.393  3.0184  1.0519  0.0660
 4311SOL     OW24565   4.601   1.488   2.727 -0.0258  0.1074 -0.1418
 4311SOL    HW124566   4.591   1.582   2.711  1.4264  0.1039 -1.0456
 4311SOL    HW224567   4.688   1.474   2.763  0.3477 -1.1761 -1.5369
 4312SOL     OW24568   2.019   3.249   7.265 -0.0391  0.3151  0.3245
 4312SOL    HW124569   1.976   3.320   7.314 -0.5560  0.2104  0.0196
 4312SOL    HW224570   1.982   3.258   7.178  1.0979  2.0373  0.0126
 4313SOL     OW24571   0.155   1.622   5.602 -0.7210  0.3415 -0.1301
 4313SOL    HW124572   0.177   1.541   5.649 -0.2335  0.6094  0.1020
 4313SOL    HW224573   0.199   1.618   5.518 -0.5000 -0.9374  0.0406
 4314SOL     OW24574   3.979   3.886  12.939 -0.3264 -0.5124 -0.2214
 4314SOL    HW124575   4.068   3.918  12.955 -1.2652  1.7298  0.5197
 4314SOL    HW224576   3.927   3.926  13.010 -2.0513 -0.5050 -1.4938
 4315SOL     OW24577   4.251   2.174   1.487  0.3857 -0.1987 -0.1663
 4315SOL    HW124578   4.167   2.190   1.443  1.3270  2.7206 -0.9360
 4315SOL    HW224579   4.298   2.157   1.405 -1.8488 -1.6326 -1.1591
 4316SOL     OW24580   0.785   3.456   7.309  0.8452  0.5659 -0.1999
 4316SOL    HW124581   0.819   3.371   7.280 -1.3193 -0.7984  1.2485
 4316SOL    HW224582   0.805   3.499   7.226  2.0281 -0.2273 -0.3293
 4317SOL     OW24583   2.920   4.651   0.971 -0.7383 -0.1962 -0.0016
 4317SOL    HW124584   2.916   4.692   0.884 -2.0813  0.7974  0.5381
 4317SOL    HW224585   2.935   4.560   0.947  1.0901  0.0826  0.0336
 4318SOL     OW24586   2.119   0.919   9.722  0.2746  0.1013  0.1875
 4318SOL    HW124587   2.206   0.891   9.750  0.5290  0.4616 -0.2449
 4318SOL    HW224588   2.119   1.012   9.744  0.5614  0.1776 -0.1452
 4319SOL     OW24589   0.808   2.898  12.117 -0.4671 -0.1133  0.5398
 4319SOL    HW124590   0.748   2.943  12.177  0.1959 -0.9103  1.8108
 4319SOL    HW224591   0.893   2.886  12.158  0.5811  0.3900 -1.5211
 4320SOL     OW24592   1.935   3.289   3.066  0.4557 -0.0894 -0.8279
 4320SOL    HW124593   1.866   3.239   3.020  0.1125 -1.5200  1.2592
 4320SOL    HW224594   1.919   3.382   3.048 -1.9946 -0.1010  1.3864
 4321SOL     OW24595   2.640   2.951   4.116 -0.0854  0.6975  0.1098
 4321SOL    HW124596   2.619   2.875   4.060  0.0697  0.5001  0.3222
 4321SOL    HW224597   2.715   2.984   4.066  0.6911 -0.1270  0.7365
 4322SOL     OW24598   0.258   1.397   7.975 -0.3243  0.8362 -0.3990
 4322SOL    HW124599   0.224   1.454   7.906  1.2159  0.8393 -1.1401
 4322SOL    HW224600   0.339   1.447   7.974  0.1608  0.1239  4.9871
 4323SOL     OW24601   1.209   1.726   8.862 -0.0436  1.2788 -0.0738
 4323SOL    HW124602   1.219   1.646   8.811 -1.2466  0.9356  0.2444
 4323SOL    HW224603   1.220   1.789   8.791  0.4428  0.7947 -0.4300
 4324SOL     OW24604   0.943   2.101   5.332  0.1653  0.1144  0.2169
 4324SOL    HW124605   0.893   2.020   5.344  1.8527 -1.0653 -0.9087
 4324SOL    HW224606   0.920   2.120   5.242 -0.4191 -2.1322 -0.1152
 4325SOL     OW24607   0.249   1.357   1.458  0.4031 -0.7472  0.2809
 4325SOL    HW124608   0.165   1.329   1.421 -0.7483  3.1147 -0.0797
 4325SOL    HW224609   0.235   1.348   1.553 -1.6821  0.4548  0.1023
 4326SOL     OW24610   1.953   1.872   9.887  0.5678 -0.5157 -0.1030
 4326SOL    HW124611   1.985   1.958   9.911  0.0282  0.0031 -1.2440
 4326SOL    HW224612   2.039   1.841   9.861  0.7433 -0.5741  0.5520
 4327SOL     OW24613   3.802   2.601   0.922  0.1970 -0.0777 -0.2301
 4327SOL    HW124614   3.729   2.547   0.892  0.0186  0.3197 -0.5169
 4327SOL    HW224615   3.878   2.581   0.868 -1.1435 -2.6736 -1.1557
 4328SOL     OW24616   4.408   0.129   4.756 -0.5111 -0.3543 -0.3600
 4328SOL    HW124617   4.488   0.180   4.769 -1.9371  1.9228 -0.5413
 4328SOL    HW224618   4.351   0.178   4.696 -3.2914 -1.4514  1.3757
 4329SOL     OW24619   1.546   4.103   9.464 -0.2303 -0.4286 -0.1204
 4329SOL    HW124620   1.588   4.161   9.527  2.2266 -0.3562 -1.8284
 4329SOL    HW224621   1.533   4.025   9.518 -2.0994  1.6307  2.4082
 4330SOL     OW24622   1.644   1.581   8.030  0.6591  0.1940  0.1906
 4330SOL    HW124623   1.574   1.534   8.074  1.2382 -0.1458  0.7590
 4330SOL    HW224624   1.722   1.538   8.066  2.0644 -0.8311 -4.0262
 4331SOL     OW24625   2.945   0.247   7.740 -0.4284  0.2225 -0.3238
 4331SOL    HW124626   2.956   0.164   7.787  2.0576 -0.5336 -2.2667
 4331SOL    HW224627   2.915   0.210   7.657  1.2407 -1.8829  0.0137
 4332SOL     OW24628   2.503   2.985   9.865  0.3164  0.4262  0.0234
 4332SOL    HW124629   2.415   2.961   9.837 -0.0188 -1.4222  2.6166
 4332SOL    HW224630   2.537   3.038   9.793 -1.9134 -0.1774 -1.4722
 4333SOL     OW24631   0.134   1.569   2.726 -0.0672  0.1076 -0.6776
 4333SOL    HW124632   0.125   1.664   2.736 -1.9021 -0.1715  0.3009
 4333SOL    HW224633   0.151   1.542   2.816 -0.9736  2.2395  0.1319
 4334SOL     OW24634   0.427   1.158   5.523  0.3485  0.0249 -0.4273
 4334SOL    HW124635   0.417   1.156   5.428  1.0521  2.2216 -0.5402
 4334SOL    HW224636   0.408   1.066   5.543 -0.5130  0.3540  0.3014
 4335SOL     OW24637   0.407   3.546   5.335  0.4066  0.2920  0.3621
 4335SOL    HW124638   0.418   3.638   5.358  1.2992  0.0677  0.8211
 4335SOL    HW224639   0.326   3.513   5.374  1.2309 -0.8054  1.1189
 4336SOL     OW24640   2.096   3.064  17.446  0.8511  0.3615 -0.2818
 4336SOL    HW124641   2.139   3.019  17.373  1.1836 -0.2711  0.2985
 4336SOL    HW224642   2.013   3.016  17.448 -0.3254  2.4978  2.0154
 4337SOL     OW24643   2.580   0.174  12.260 -0.1240  0.4077 -0.3690
 4337SOL    HW124644   2.644   0.123  12.311  0.3654 -0.0856 -1.4805
 4337SOL    HW224645   2.612   0.161  12.171  3.1204  1.7630  0.6051
 4338SOL     OW24646   2.049   4.607   6.873  0.2381  0.3654  0.3637
 4338SOL    HW124647   2.144   4.612   6.884  0.2232 -0.2953  0.8410
 4338SOL    HW224648   2.042   4.536   6.938  1.1498 -0.8800 -0.9022
 4339SOL     OW24649   2.664   2.934   0.289  0.0616 -0.6480 -0.1062
 4339SOL    HW124650   2.735   2.923   0.352  0.7276  1.2348 -0.5314
 4339SOL    HW224651   2.595   2.977   0.339  0.2068 -0.2471 -0.2561
 4340SOL     OW24652   1.045   1.409   8.161  0.0875 -0.5573 -0.0008
 4340SOL    HW124653   1.059   1.427   8.254  2.5096 -1.4550 -0.1926
 4340SOL    HW224654   1.077   1.489   8.122  0.4109 -1.4187 -1.4956
 4341SOL     OW24655   4.727   0.337   7.346  0.0418  0.0527  0.5098
 4341SOL    HW124656   0.020   0.410   7.292  2.2751 -1.2589  0.0347
 4341SOL    HW224657   0.039   0.261   7.318 -1.3746  0.1332 -2.1846
 4342SOL     OW24658   4.086   1.864   4.358 -0.2889 -0.1891 -0.3418
 4342SOL    HW124659   4.087   1.872   4.262  1.2005  0.4550 -0.2785
 4342SOL    HW224660   4.034   1.941   4.380 -0.7400  0.6340 -4.2431
 4343SOL     OW24661   1.540   0.974   8.277  0.4636  0.2202  0.3799
 4343SOL    HW124662   1.575   0.900   8.226  0.7830  0.7975 -0.2442
 4343SOL    HW224663   1.454   0.939   8.299 -0.3976  3.3717  2.0471
 4344SOL     OW24664   1.969   0.875   9.244  0.8434 -0.0935 -0.2577
 4344SOL    HW124665   1.901   0.881   9.311 -0.1635  1.4040 -1.4416
 4344SOL    HW224666   1.913   0.861   9.168 -1.0760 -0.2166  1.1873
 4345SOL     OW24667   2.716   4.144   5.572  0.3590  0.3041  0.4945
 4345SOL    HW124668   2.721   4.239   5.572 -0.4279  0.3393 -0.8082
 4345SOL    HW224669   2.783   4.130   5.640  2.5642  3.0344 -1.1017
 4346SOL     OW24670   2.536   2.357   4.345  0.2484  0.5137 -0.0753
 4346SOL    HW124671   2.470   2.391   4.406  0.7287  0.0090  0.7288
 4346SOL    HW224672   2.598   2.315   4.405 -0.8240 -0.1434  0.5883
 4347SOL     OW24673   1.670   1.167   8.085 -0.6738  0.0498  0.2768
 4347SOL    HW124674   1.680   1.113   8.007 -1.4962  0.0128  0.1974
 4347SOL    HW224675   1.645   1.100   8.148  0.4086 -0.1939  0.4432
 4348SOL     OW24676   1.583   2.511   1.280 -0.0630  0.4273 -0.3666
 4348SOL    HW124677   1.494   2.485   1.255  0.5032 -3.2019  1.3174
 4348SOL    HW224678   1.609   2.439   1.338 -3.2668  0.2668  0.8819
 4349SOL     OW24679   4.416   1.109   2.545  0.4930  0.6375 -0.3449
 4349SOL    HW124680   4.387   1.128   2.456  0.7417 -0.5592 -0.6696
 4349SOL    HW224681   4.505   1.144   2.543  0.1906  1.5274  0.9794
 4350SOL     OW24682   3.184   0.350   3.192  0.3061  0.0806  0.3665
 4350SOL    HW124683   3.140   0.424   3.234 -3.0760 -0.4045 -2.2667
 4350SOL    HW224684   3.110   0.297   3.160  1.4257 -2.1044  1.4305
 4351SOL     OW24685   3.406   0.227   8.518  0.0941  0.1293  0.0522
 4351SOL    HW124686   3.421   0.181   8.436  0.2113  0.0226  0.1317
 4351SOL    HW224687   3.351   0.174   8.575 -0.0720 -0.0938 -0.3233
 4352SOL     OW24688   4.435   3.953   1.524 -0.2200  0.6151 -0.1734
 4352SOL    HW124689   4.521   3.993   1.541 -0.5207 -0.0190  2.8494
 4352SOL    HW224690   4.387   3.979   1.602 -1.4966  1.5917 -1.2848
 4353SOL     OW24691   1.871   3.915  13.375 -0.2190 -0.0287 -0.0667
 4353SOL    HW124692   1.850   4.003  13.344 -2.2791 -0.8058 -0.9152
 4353SOL    HW224693   1.880   3.942  13.466 -2.3642  0.2476  0.0722
 4354SOL     OW24694   0.849   3.672   4.177  0.1271  0.1395 -0.4820
 4354SOL    HW124695   0.893   3.614   4.239 -1.5814 -1.1095 -0.4363
 4354SOL    HW224696   0.920   3.700   4.120 -0.7286  2.7104 -0.2733
 4355SOL     OW24697   1.735   2.573   7.248 -0.4210  0.2858  0.3581
 4355SOL    HW124698   1.714   2.482   7.267 -1.3943  0.2846 -0.7830
 4355SOL    HW224699   1.671   2.621   7.302 -1.4424  0.0164 -0.6334
 4356SOL     OW24700   3.693   3.642   0.921 -0.5074 -0.2802 -0.2602
 4356SOL    HW124701   3.778   3.615   0.957 -0.1691  0.7193 -0.3095
 4356SOL    HW224702   3.680   3.722   0.971  1.3274  0.0482 -0.3102
 4357SOL     OW24703   0.795   2.370   2.085  0.6550 -0.0099  0.1681
 4357SOL    HW124704   0.783   2.399   1.995  1.0851 -2.2947 -0.6055
 4357SOL    HW224705   0.846   2.445   2.117  0.3047  0.2188  0.1921
 4358SOL     OW24706   4.487   0.586   8.128  0.3052 -0.8576 -0.1110
 4358SOL    HW124707   4.515   0.544   8.210 -0.5127 -0.2046  0.4973
 4358SOL    HW224708   4.554   0.575   8.061 -0.9805  0.9378 -1.6752
 4359SOL     OW24709   0.698   1.341   4.934 -0.0202 -0.2198  0.1473
 4359SOL    HW124710   0.668   1.353   5.024  0.7048 -0.1444  0.3738
 4359SOL    HW224711   0.709   1.246   4.942  3.1753  0.1753  0.4745
 4360SOL     OW24712   3.949   0.458   7.009 -0.3187  0.3658  0.3405
 4360SOL    HW124713   3.883   0.410   6.960 -0.4309 -0.2254  1.0684
 4360SOL    HW224714   3.886   0.512   7.056 -0.6584 -1.5936  2.1534
 4361SOL     OW24715   0.246   1.844   2.690 -0.8040  0.2226  0.0946
 4361SOL    HW124716   0.340   1.864   2.680 -1.1766  3.6058  3.4308
 4361SOL    HW224717   0.224   1.852   2.597  1.0360  0.8380 -0.3096
 4362SOL     OW24718   1.887   1.756   3.453 -0.3683  0.0463  0.2537
 4362SOL    HW124719   1.912   1.819   3.386 -2.6109  0.2611 -0.3784
 4362SOL    HW224720   1.889   1.803   3.537 -2.2454  2.5694 -1.1020
 4363SOL     OW24721   1.374   2.520  12.086  0.1019 -0.0754  0.4758
 4363SOL    HW124722   1.465   2.529  12.112  0.1822  2.0256 -0.5660
 4363SOL    HW224723   1.354   2.428  12.102  0.3644  0.1560  2.1407
 4364SOL     OW24724   1.368   0.118   2.989  0.5489 -0.0996  0.2170
 4364SOL    HW124725   1.381   0.150   3.078  0.2673  1.0575 -0.1550
 4364SOL    HW224726   1.369   0.026   3.013  0.6949  0.1308  1.1032
 4365SOL     OW24727   1.839   1.271   9.228 -0.1076 -0.4268 -0.3958
 4365SOL    HW124728   1.785   1.264   9.150  1.8038 -0.2948 -1.7298
 4365SOL    HW224729   1.781   1.240   9.298 -1.0051  1.1226 -0.4707
 4366SOL     OW24730   1.043   2.284   1.792  0.2187 -0.4774  0.5386
 4366SOL    HW124731   1.054   2.196   1.827 -1.6368  0.0693  2.5010
 4366SOL    HW224732   1.070   2.275   1.700 -1.3316  1.1986 -0.0828
 4367SOL     OW24733   1.766   2.780  12.838 -0.1365 -0.2778  1.0209
 4367SOL    HW124734   1.827   2.850  12.813 -0.5945 -0.4625 -0.6469
 4367SOL    HW224735   1.835   2.714  12.838 -0.7041 -0.8743 -0.7318
 4368SOL     OW24736   0.413   3.403  15.594 -0.1859  0.4467  0.4118
 4368SOL    HW124737   0.468   3.419  15.517 -0.3010 -2.2181 -0.2534
 4368SOL    HW224738   0.407   3.495  15.619 -0.1827  0.5898 -0.1145
 4369SOL     OW24739   3.372   0.596   6.314 -0.2985  0.3162 -0.4253
 4369SOL    HW124740   3.286   0.624   6.345 -0.7123 -0.4400 -0.9067
 4369SOL    HW224741   3.423   0.667   6.354 -1.5927  0.6610  0.6110
 4370SOL     OW24742   3.548   3.625   4.275 -0.0632  0.0512 -0.0054
 4370SOL    HW124743   3.580   3.620   4.365  0.1858 -0.7607 -0.1369
 4370SOL    HW224744   3.470   3.678   4.292 -1.6842 -2.4514  0.2352
 4371SOL     OW24745   3.993   3.109   9.407  0.2187 -0.5172  0.0704
 4371SOL    HW124746   3.914   3.083   9.360  0.7604 -0.5620 -0.8252
 4371SOL    HW224747   3.952   3.150   9.483 -1.0309 -1.7186  0.0442
 4372SOL     OW24748   3.969   4.177   5.376  0.2524  0.6852  0.0807
 4372SOL    HW124749   3.874   4.173   5.385  0.3864  0.5950  1.4063
 4372SOL    HW224750   3.980   4.269   5.351 -1.0751  1.3941  2.1282
 4373SOL     OW24751   0.872   2.225   1.138  0.8085 -0.3380  0.4714
 4373SOL    HW124752   0.803   2.168   1.172  0.2557 -0.9171 -1.5628
 4373SOL    HW224753   0.818   2.290   1.094  2.6193  1.0485  0.2795
 4374SOL     OW24754   1.030   3.582   9.657 -0.3126  0.4231 -0.0790
 4374SOL    HW124755   0.974   3.512   9.623  0.7229 -0.9315  0.9938
 4374SOL    HW224756   1.109   3.536   9.686 -1.6581 -0.0822  2.7706
 4375SOL     OW24757   2.065   2.488   0.098 -0.4909 -0.7894 -0.3008
 4375SOL    HW124758   2.159   2.503   0.087 -0.4503  0.4521  1.9263
 4375SOL    HW224759   2.045   2.436   0.020  1.8378 -0.2166 -1.2815
 4376SOL     OW24760   2.239   0.248   6.680  0.7708  0.1288 -0.0683
 4376SOL    HW124761   2.183   0.298   6.740  1.0591 -0.9262  1.0904
 4376SOL    HW224762   2.274   0.314   6.620 -1.9778 -1.1524 -3.0212
 4377SOL     OW24763   3.712   2.760   9.119 -0.5662  0.0890  0.5923
 4377SOL    HW124764   3.630   2.793   9.083 -0.0021  0.6205 -0.1903
 4377SOL    HW224765   3.695   2.668   9.141 -0.1086  0.2654  1.6805
 4378SOL     OW24766   1.258   1.568   7.659  0.4304  0.2061 -0.1748
 4378SOL    HW124767   1.249   1.635   7.591 -0.0452  0.1339 -0.1879
 4378SOL    HW224768   1.195   1.508   7.619  0.1520  0.4980 -0.1834
 4379SOL     OW24769   3.315   2.010   5.075 -0.3340 -0.4412  0.3802
 4379SOL    HW124770   3.250   2.042   5.013 -0.3653  0.0544  0.6653
 4379SOL    HW224771   3.247   1.990   5.139 -2.1978  2.7182 -0.6234
 4380SOL     OW24772   0.228   1.774  17.504 -0.5306  0.2527 -0.2301
 4380SOL    HW124773   0.142   1.750  17.537  0.2275 -0.8323  0.9423
 4380SOL    HW224774   0.262   1.714  17.437 -1.5226  0.6121 -1.0670
 4381SOL     OW24775   2.224   2.543   4.815 -0.4502  0.6538  0.2717
 4381SOL    HW124776   2.221   2.628   4.772  0.9028  0.8441  0.5618
 4381SOL    HW224777   2.243   2.567   4.906  0.2928  0.4330  0.1733
 4382SOL     OW24778   4.310   3.937  12.340  0.2784 -0.1270 -0.7197
 4382SOL    HW124779   4.257   3.977  12.409 -0.7508 -0.1417 -1.4872
 4382SOL    HW224780   4.363   3.876  12.390 -0.2902 -0.7282 -0.8434
 4383SOL     OW24781   1.861   1.827   7.000  0.4517 -0.3108  0.1512
 4383SOL    HW124782   1.930   1.809   6.935 -0.1784 -2.2849  0.0337
 4383SOL    HW224783   1.918   1.832   7.077  0.8587  2.0563 -0.3005
 4384SOL     OW24784   0.885   3.789   7.951 -0.2410  0.1020  0.2015
 4384SOL    HW124785   0.936   3.870   7.942 -0.6067  0.2641 -0.3947
 4384SOL    HW224786   0.953   3.722   7.959  0.0800  0.5066  0.8639
 4385SOL     OW24787   3.005   4.253   3.558  0.6222  0.0647 -0.0950
 4385SOL    HW124788   2.950   4.325   3.587  0.1195 -0.6586  0.7317
 4385SOL    HW224789   2.948   4.177   3.565  1.2150 -0.2941  0.8130
 4386SOL     OW24790   2.986   2.180   1.165  0.2214 -0.1466  0.3641
 4386SOL    HW124791   3.039   2.195   1.243  1.5476 -1.4338 -0.2901
 4386SOL    HW224792   2.897   2.214   1.179 -0.6201 -2.1490 -0.0422
 4387SOL     OW24793   3.555   2.286   5.818  0.2893 -0.1246 -0.2216
 4387SOL    HW124794   3.622   2.315   5.757 -0.2961 -0.2549 -0.9198
 4387SOL    HW224795   3.600   2.289   5.902  0.2266 -0.5603 -0.1693
 4388SOL     OW24796   4.142   4.609   8.477 -0.0985 -0.1155 -0.4402
 4388SOL    HW124797   4.046   4.607   8.477 -0.0897  0.2063  1.8386
 4388SOL    HW224798   4.167   4.636   8.565  0.8891  2.6265 -1.5509
 4389SOL     OW24799   3.441   3.703  10.006 -0.0393 -0.5022  0.4309
 4389SOL    HW124800   3.472   3.612   9.998 -0.7896 -0.6103 -1.3509
 4389SOL    HW224801   3.490   3.729  10.084  0.1035 -0.5815  0.3684
 4390SOL     OW24802   1.627   4.231   8.707  0.0560 -0.1068 -0.1377
 4390SOL    HW124803   1.596   4.279   8.784  2.9294 -0.7362  1.4491
 4390SOL    HW224804   1.593   4.142   8.715  3.3284 -1.4030 -0.3036
 4391SOL     OW24805   0.518   3.110  14.499 -0.3107  0.2237 -0.3357
 4391SOL    HW124806   0.523   3.043  14.567 -1.4686 -1.2494 -1.7174
 4391SOL    HW224807   0.596   3.090  14.447  0.8007  2.1849  0.5544
 4392SOL     OW24808   2.320   0.035   0.927 -0.7134 -0.7905  0.5355
 4392SOL    HW124809   2.353   0.044   1.017  1.2966  0.8967 -0.3664
 4392SOL    HW224810   2.358   0.117   0.895 -0.3349 -0.8661  0.7898
 4393SOL     OW24811   1.794   0.357   2.974 -0.1387  0.1290 -0.2067
 4393SOL    HW124812   1.826   0.447   2.965  0.3726 -0.0268  0.0474
 4393SOL    HW224813   1.746   0.361   3.057 -0.3947  0.9777 -0.3985
 4394SOL     OW24814   1.832   2.988  17.427 -0.1259 -0.0697 -0.1269
 4394SOL    HW124815   1.745   2.971  17.461  0.3262 -0.4021  0.8846
 4394SOL    HW224816   1.824   3.080  17.402 -0.4663  0.0171  0.2953
 4395SOL     OW24817   0.955   1.276   0.085 -0.3762  0.5478  0.1348
 4395SOL    HW124818   0.959   1.347   0.149 -1.2445  1.5292 -0.9085
 4395SOL    HW224819   1.041   1.271   0.044  0.1150  1.9109  0.9864
 4396SOL     OW24820   0.917   4.196   7.518 -0.0411  0.2005 -0.0975
 4396SOL    HW124821   0.847   4.144   7.477  0.0178 -1.1755  1.5080
 4396SOL    HW224822   0.984   4.189   7.450 -2.4378 -1.9524 -2.2374
 4397SOL     OW24823   3.595   2.431   2.997  0.8164 -0.4355 -0.0003
 4397SOL    HW124824   3.543   2.490   3.051  0.9302  0.2262 -0.6120
 4397SOL    HW224825   3.590   2.480   2.915 -2.2325 -1.5726 -0.5081
 4398SOL     OW24826   0.325   1.983   6.412  0.2537 -0.6103 -0.5921
 4398SOL    HW124827   0.318   1.940   6.498 -2.0928  0.1089 -0.4261
 4398SOL    HW224828   0.291   2.071   6.426  2.2174  0.4058 -2.1792
 4399SOL     OW24829   0.704   1.181   2.137 -0.6131  0.0179  0.3441
 4399SOL    HW124830   0.715   1.127   2.215 -0.7955 -2.1259 -1.1183
 4399SOL    HW224831   0.622   1.146   2.101  0.8524 -1.7933 -1.2145
 4400SOL     OW24832   4.222   1.817   1.870 -0.0759  0.2483  0.7133
 4400SOL    HW124833   4.202   1.793   1.780  0.0509  1.4002  0.3712
 4400SOL    HW224834   4.318   1.826   1.868  0.0644 -1.3664  0.4362
 4401SOL     OW24835   3.494   4.252   5.727  0.0591  0.4759  0.6667
 4401SOL    HW124836   3.565   4.204   5.684 -0.7558  0.1958 -0.3831
 4401SOL    HW224837   3.526   4.252   5.817 -0.1450 -1.8285  0.7582
 4402SOL     OW24838   0.965   1.698   7.799 -0.5867 -0.3254  0.4000
 4402SOL    HW124839   1.037   1.636   7.813  1.1089  0.3683 -5.2282
 4402SOL    HW224840   1.013   1.771   7.838 -2.4223  1.7331 -1.1915
 4403SOL     OW24841   0.166   4.414   5.392  0.2675  0.6654 -0.2338
 4403SOL    HW124842   0.126   4.483   5.339 -0.4600  0.7733  0.4441
 4403SOL    HW224843   0.127   4.338   5.349 -1.7022  1.0724  0.8018
 4404SOL     OW24844   2.300   3.993   3.659 -0.1726  0.5288 -0.0455
 4404SOL    HW124845   2.315   3.908   3.700  1.0983  1.7642  2.0191
 4404SOL    HW224846   2.284   4.047   3.737 -0.9651 -0.0490  0.1959
 4405SOL     OW24847   1.842   4.577   9.250  0.3582  0.1481 -0.0165
 4405SOL    HW124848   1.892   4.528   9.185  0.0833  1.3831 -1.1633
 4405SOL    HW224849   1.865   4.665   9.220  0.5059 -0.3014 -1.2080
 4406SOL     OW24850   4.162   1.021  12.469 -0.1543 -0.9658 -0.5151
 4406SOL    HW124851   4.224   1.072  12.521  0.0355 -0.4107 -1.2996
 4406SOL    HW224852   4.083   1.062  12.505  1.3362  1.2228  0.2415
 4407SOL     OW24853   0.687   3.715   0.428 -0.0413  0.3659 -0.4482
 4407SOL    HW124854   0.756   3.773   0.461 -1.3087  1.7340 -0.2112
 4407SOL    HW224855   0.615   3.710   0.491  0.2376 -0.5458 -0.1942
 4408SOL     OW24856   3.670   3.140   5.833  0.1298 -0.1226  0.4206
 4408SOL    HW124857   3.634   3.103   5.914 -2.2850  0.2541 -0.4930
 4408SOL    HW224858   3.719   3.065   5.800 -0.4012  0.5032 -1.7941
 4409SOL     OW24859   3.526   1.694   4.340 -0.2523 -0.4631  0.1387
 4409SOL    HW124860   3.482   1.737   4.414  2.6892  1.2198  0.9007
 4409SOL    HW224861   3.565   1.617   4.382  0.5840 -0.8921 -1.4523
 4410SOL     OW24862   1.860   2.208   8.356 -0.6978  0.2085 -0.2317
 4410SOL    HW124863   1.767   2.217   8.377 -0.5871  1.5259 -0.3018
 4410SOL    HW224864   1.872   2.300   8.335 -2.4976 -0.1370 -2.7621
 4411SOL     OW24865   0.927   0.492   5.888 -0.7623 -0.0013  0.0234
 4411SOL    HW124866   0.885   0.557   5.945  0.1096 -0.1167  0.8002
 4411SOL    HW224867   0.981   0.550   5.834 -1.0311  0.5609  0.3473
 4412SOL     OW24868   0.325   2.065   7.542 -0.5501 -0.0268  0.2266
 4412SOL    HW124869   0.292   2.151   7.568  1.5006  0.1716  2.1228
 4412SOL    HW224870   0.371   2.086   7.461  1.1626 -1.3049  0.8621
 4413SOL     OW24871   1.296   2.264   3.914 -0.6145  0.3777 -0.1049
 4413SOL    HW124872   1.264   2.353   3.900 -0.9790  0.2221 -0.2663
 4413SOL    HW224873   1.373   2.276   3.970 -0.9947  0.2828  0.4403
 4414SOL     OW24874   0.310   0.279   3.360 -0.0516 -0.2141  0.1877
 4414SOL    HW124875   0.365   0.233   3.297  0.0289  1.2489 -0.8127
 4414SOL    HW224876   0.290   0.367   3.330  0.0592 -0.0163  0.6842
 4415SOL     OW24877   3.757   4.402   7.862  0.1826  0.2428  0.3769
 4415SOL    HW124878   3.825   4.339   7.886  3.2665  3.5214  0.2117
 4415SOL    HW224879   3.679   4.367   7.906 -0.0360  1.7705  1.1986
 4416SOL     OW24880   3.310   1.200   4.641  0.8956  0.6493 -0.6317
 4416SOL    HW124881   3.290   1.196   4.548  1.8866  1.5737 -0.8889
 4416SOL    HW224882   3.221   1.224   4.669  1.3963  1.9174 -0.1158
 4417SOL     OW24883   4.057   0.692   2.299  0.5753  0.3848 -0.3309
 4417SOL    HW124884   4.070   0.779   2.339  0.3034 -0.8681  2.4927
 4417SOL    HW224885   4.103   0.706   2.216  0.0332 -0.7485 -0.8217
 4418SOL     OW24886   1.791   3.219   4.752  0.1920  0.4263  0.0418
 4418SOL    HW124887   1.842   3.300   4.758  2.1546 -0.6133 -2.5938
 4418SOL    HW224888   1.825   3.173   4.829  1.5759  1.5154  0.0935
 4419SOL     OW24889   2.531   2.084   7.237 -0.4712  0.2876 -0.0051
 4419SOL    HW124890   2.557   2.155   7.178  3.2727  0.8559  2.3268
 4419SOL    HW224891   2.619   2.066   7.271 -1.0237  0.0155  1.2458
 4420SOL     OW24892   2.271   1.103   6.749  0.4399  0.1962 -0.3794
 4420SOL    HW124893   2.327   1.165   6.702  0.5341  1.1819  1.0205
 4420SOL    HW224894   2.265   1.147   6.834 -2.0828 -1.1095  0.1135
 4421SOL     OW24895   4.463   0.393   5.015  0.1900  0.0269  0.3523
 4421SOL    HW124896   4.461   0.471   4.959 -0.5715 -1.2616 -1.3957
 4421SOL    HW224897   4.537   0.343   4.979  0.9573  1.2429  0.2280
 4422SOL     OW24898   4.460   0.455   6.606  0.1209 -0.4794 -0.5136
 4422SOL    HW124899   4.464   0.426   6.515  0.8818  1.7826 -1.2091
 4422SOL    HW224900   4.535   0.514   6.614 -1.5770  1.9266 -2.1754
 4423SOL     OW24901   1.453   0.820   5.572  0.7783 -0.7783  0.0223
 4423SOL    HW124902   1.517   0.763   5.530  0.5724 -1.0708  0.1013
 4423SOL    HW224903   1.498   0.857   5.648  1.2869 -0.9312 -0.2062
 4424SOL     OW24904   0.547   4.444  16.790  0.4021 -0.1602 -0.8562
 4424SOL    HW124905   0.516   4.384  16.858  0.1067  0.2432 -0.6344
 4424SOL    HW224906   0.609   4.498  16.839 -0.8291 -0.2097  0.7795
 4425SOL     OW24907   0.989   2.345   6.821  0.1059 -0.3951 -0.2468
 4425SOL    HW124908   1.068   2.293   6.832  0.2070  0.2376  1.9610
 4425SOL    HW224909   0.965   2.366   6.911  2.1884  0.6027  0.0777
 4426SOL     OW24910   1.023   0.496   9.888  0.2732  0.3075  0.7687
 4426SOL    HW124911   0.937   0.529   9.862  0.4332  2.3566  2.8322
 4426SOL    HW224912   1.024   0.507   9.983  0.5021 -1.9911  1.0384
 4427SOL     OW24913   2.864   1.057   3.589 -0.7107  0.1667 -0.1893
 4427SOL    HW124914   2.853   0.994   3.660 -0.7683 -0.1680 -0.4986
 4427SOL    HW224915   2.790   1.114   3.611 -0.4660  0.3847  0.0733
 4428SOL     OW24916   3.039   0.129  12.518  0.2463  0.7891  1.1018
 4428SOL    HW124917   3.074   0.077  12.590  0.0707  0.8232  1.2115
 4428SOL    HW224918   3.061   0.218  12.545 -0.8392  1.3300  0.2137
 4429SOL     OW24919   4.706   1.614   8.669 -0.4276  0.7104  0.8817
 4429SOL    HW124920   0.024   1.579   8.738  2.8598  0.3235 -1.9683
 4429SOL    HW224921   4.722   1.708   8.680 -1.1666  0.7506  1.6443
 4430SOL     OW24922   1.411   3.590   1.522  0.1982 -0.2091 -0.8790
 4430SOL    HW124923   1.343   3.592   1.455 -0.6357  0.8568  0.0194
 4430SOL    HW224924   1.477   3.532   1.482  1.7868  1.2028 -0.2914
 4431SOL     OW24925   3.158   0.058  16.853 -0.5284  0.2275  0.1193
 4431SOL    HW124926   3.201   0.125  16.801  0.7154 -1.0859 -0.5488
 4431SOL    HW224927   3.094   0.029  16.788  0.8033 -0.9048 -0.6715
 4432SOL     OW24928   2.747   0.120   1.455 -0.5974  0.0749  0.1887
 4432SOL    HW124929   2.676   0.138   1.394 -0.2132  0.1947 -0.2245
 4432SOL    HW224930   2.716   0.161   1.536 -0.1984 -0.4768  0.6253
 4433SOL     OW24931   3.431   2.934   4.963  0.1877 -0.2313  0.5733
 4433SOL    HW124932   3.508   2.967   5.010  0.0671 -0.2968  0.8193
 4433SOL    HW224933   3.460   2.956   4.875  0.9956 -0.8830  0.6736
 4434SOL     OW24934   4.648   2.618   8.842  0.1944  0.2906  0.0124
 4434SOL    HW124935   4.723   2.559   8.851  1.3773  1.4675 -2.0427
 4434SOL    HW224936   4.582   2.577   8.786  0.9216 -1.3483  0.3601
 4435SOL     OW24937   4.558   3.587   5.850 -0.6522  0.7746 -0.3016
 4435SOL    HW124938   4.541   3.681   5.843  1.6956  1.1508 -1.1723
 4435SOL    HW224939   4.472   3.557   5.879 -1.1684 -1.2148 -3.8868
 4436SOL     OW24940   1.442   2.825   6.904 -0.2420 -0.0218 -0.6683
 4436SOL    HW124941   1.444   2.878   6.984  1.7995 -0.0860 -0.6878
 4436SOL    HW224942   1.400   2.745   6.934 -4.1421  1.4849 -2.1062
 4437SOL     OW24943   2.563   4.007   5.009  0.0193 -0.8395  0.7964
 4437SOL    HW124944   2.586   4.034   5.098  2.1191 -0.0682  0.0250
 4437SOL    HW224945   2.472   4.030   4.993  0.1517 -0.7075  0.2559
 4438SOL     OW24946   2.768   1.321  15.346 -0.8194  0.0401  0.3124
 4438SOL    HW124947   2.693   1.324  15.287 -1.6650  0.9958  1.4306
 4438SOL    HW224948   2.841   1.284  15.296  1.2348 -0.0033  3.3469
 4439SOL     OW24949   1.380   0.688  12.012 -0.1909 -0.0723 -0.6492
 4439SOL    HW124950   1.317   0.634  11.964  0.3595 -0.3770 -1.0305
 4439SOL    HW224951   1.317   0.727  12.073 -0.2803 -0.4271 -0.5131
 4440SOL     OW24952   4.075   0.748  14.762 -0.6695  0.0151 -0.2685
 4440SOL    HW124953   4.028   0.666  14.743  0.6795 -0.8811  0.2951
 4440SOL    HW224954   4.117   0.723  14.844 -2.1703 -1.4850  0.0651
 4441SOL     OW24955   1.801   3.706  10.114 -0.0313  0.0023  0.3313
 4441SOL    HW124956   1.804   3.717  10.209 -2.0908  0.7484  0.3148
 4441SOL    HW224957   1.889   3.736  10.093 -0.1108 -0.3146 -0.4368
 4442SOL     OW24958   1.853   3.039   4.375  0.4427 -0.0645 -0.1536
 4442SOL    HW124959   1.859   2.944   4.365  3.3357  0.0028  1.0859
 4442SOL    HW224960   1.762   3.046   4.406  0.0588 -0.0538 -1.2708
 4443SOL     OW24961   0.641   1.769   3.690  0.8402  0.0270  0.0400
 4443SOL    HW124962   0.678   1.683   3.711 -1.1414 -0.4278  1.6689
 4443SOL    HW224963   0.656   1.823   3.768 -0.8073 -2.8676  2.3619
 4444SOL     OW24964   4.379   3.030  13.962 -0.2683 -0.5077 -0.1846
 4444SOL    HW124965   4.445   2.976  13.918  1.6034  1.1681  0.5853
 4444SOL    HW224966   4.305   3.032  13.902 -0.0305  0.1250 -0.4475
 4445SOL     OW24967   2.866   2.464  13.420  0.1775 -0.0276 -0.9248
 4445SOL    HW124968   2.897   2.529  13.484 -0.4588 -0.5885 -0.0411
 4445SOL    HW224969   2.951   2.424  13.404  0.4029  0.4418 -0.8990
 4446SOL     OW24970   2.951   0.326   2.467 -0.3877  0.4365  0.2212
 4446SOL    HW124971   2.905   0.284   2.395 -2.0366  2.8619 -0.1167
 4446SOL    HW224972   2.889   0.315   2.539 -0.2355  1.0242  0.4470
 4447SOL     OW24973   2.497   3.424   5.241 -0.1161  0.5150  0.2688
 4447SOL    HW124974   2.576   3.440   5.190 -1.1578  1.2231 -1.1300
 4447SOL    HW224975   2.532   3.436   5.329 -0.5091 -3.3081  0.9373
 4448SOL     OW24976   2.598   1.344   1.869  0.1543  0.1612 -0.0049
 4448SOL    HW124977   2.528   1.283   1.846  1.9879 -2.2128  0.6845
 4448SOL    HW224978   2.555   1.405   1.929 -0.2406 -0.4659  0.3468
 4449SOL     OW24979   3.556   4.425  12.578  0.9225  0.0446 -0.6014
 4449SOL    HW124980   3.604   4.406  12.659 -0.5960 -2.1507 -0.2186
 4449SOL    HW224981   3.485   4.470  12.626  0.1020  0.7365 -2.4803
 4450SOL     OW24982   3.413   0.121   4.520 -0.0937  0.0017  0.3939
 4450SOL    HW124983   3.319   0.105   4.515 -0.2132  0.1993  2.4178
 4450SOL    HW224984   3.427   0.215   4.510  0.7836 -0.2211 -0.5585
 4451SOL     OW24985   0.374   2.955   7.125 -0.2667  0.5280  0.1007
 4451SOL    HW124986   0.348   2.891   7.191  0.1568 -0.6307 -0.8541
 4451SOL    HW224987   0.365   2.906   7.043  1.7795 -1.6872  1.2029
 4452SOL     OW24988   0.279   4.440   7.373 -0.2207 -0.1954 -0.7038
 4452SOL    HW124989   0.340   4.433   7.446 -1.8478 -1.7969  0.4988
 4452SOL    HW224990   0.202   4.419   7.425  0.8840  1.1878  1.4642
 4453SOL     OW24991   1.935   4.054  13.663  0.0283  0.6606 -0.5133
 4453SOL    HW124992   1.956   4.147  13.670 -2.5466  1.2532 -0.6297
 4453SOL    HW224993   2.024   4.035  13.633  1.2738  0.9447  2.9308
 4454SOL     OW24994   4.407   3.226   6.778  0.0705  0.2110  0.1592
 4454SOL    HW124995   4.474   3.263   6.835  0.4074 -1.9772  1.1717
 4454SOL    HW224996   4.374   3.157   6.835 -1.4841  0.2639 -0.6810
 4455SOL     OW24997   3.275   3.381   9.560 -0.1986  0.3906 -0.2692
 4455SOL    HW124998   3.184   3.364   9.536 -0.0012 -1.5867  0.3781
 4455SOL    HW224999   3.280   3.476   9.565  0.4990  0.3878 -0.7962
 4456SOL     OW25000   0.096   2.355   0.828  0.0716  0.6266 -0.4226
 4456SOL    HW125001   0.122   2.289   0.764 -0.6950  1.9951 -2.1347
 4456SOL    HW225002   0.130   2.435   0.788  1.5753  0.4111  0.4231
 4457SOL     OW25003   0.036   0.392   4.262 -0.4155  0.0705  0.2381
 4457SOL    HW125004   4.682   0.416   4.275 -0.2883  0.5583  0.2572
 4457SOL    HW225005   0.029   0.390   4.166 -0.5340 -0.0866  0.2506
 4458SOL     OW25006   1.903   4.013   4.756  0.2996 -0.0607 -0.1355
 4458SOL    HW125007   1.871   4.026   4.667 -1.4261 -2.9210  0.0389
 4458SOL    HW225008   1.973   4.077   4.747 -0.6827  1.1999  1.1242
 4459SOL     OW25009   1.138   2.618   1.912 -0.2807 -0.7805 -0.2553
 4459SOL    HW125010   1.222   2.662   1.895 -0.2259 -0.4083  1.0160
 4459SOL    HW225011   1.111   2.689   1.971 -0.6628  1.3257 -2.9413
 4460SOL     OW25012   3.274   1.964   4.106  0.7095  0.3004  0.4255
 4460SOL    HW125013   3.289   1.876   4.072  0.7439  0.4625  0.0285
 4460SOL    HW225014   3.201   1.988   4.050  1.3424  2.9075  0.6790
 4461SOL     OW25015   3.024   0.152  17.129  0.0440  0.1524 -0.0623
 4461SOL    HW125016   3.055   0.141  17.039  1.7468  0.0864  0.5366
 4461SOL    HW225017   3.099   0.110  17.171  0.1177  0.9902  0.6555
 4462SOL     OW25018   0.510   2.793   9.861  0.1160  0.3268  0.2763
 4462SOL    HW125019   0.562   2.804   9.941  1.9387 -0.0332 -0.8520
 4462SOL    HW225020   0.537   2.704   9.835  1.5124  0.8011  0.0860
 4463SOL     OW25021   3.459   1.341   6.440  0.1353  0.2711 -0.2613
 4463SOL    HW125022   3.375   1.297   6.456  0.2428  0.4060  0.6860
 4463SOL    HW225023   3.433   1.429   6.416 -0.7479 -0.1747 -0.9410
 4464SOL     OW25024   4.101   2.433   1.453  0.0180 -0.3669  0.1840
 4464SOL    HW125025   4.016   2.475   1.439  0.5954  0.8778  0.3985
 4464SOL    HW225026   4.092   2.354   1.399  2.1935 -0.7327  0.3543
 4465SOL     OW25027   2.191   2.526   1.580 -0.5103  0.3376  0.1287
 4465SOL    HW125028   2.175   2.432   1.576 -0.8069  0.3636  0.6938
 4465SOL    HW225029   2.106   2.557   1.610 -0.3099  0.0080  1.0452
 4466SOL     OW25030   0.025   3.631   5.621 -0.1609 -0.7968 -0.2362
 4466SOL    HW125031   4.706   3.598   5.552  0.6665  0.1687 -1.3621
 4466SOL    HW225032   4.704   3.620   5.696 -1.9840  0.1441 -1.5319
 4467SOL     OW25033   4.028   1.984   5.362 -0.0974  0.5864 -0.7490
 4467SOL    HW125034   4.074   1.901   5.375 -0.3559  0.7103  0.9092
 4467SOL    HW225035   3.938   1.954   5.369 -0.4396  1.3398 -1.9128
 4468SOL     OW25036   3.370   3.454   5.941  0.1416 -0.2052 -0.0290
 4468SOL    HW125037   3.390   3.451   5.848 -0.6748 -0.5681 -0.1951
 4468SOL    HW225038   3.401   3.542   5.964  0.0511 -0.8008  2.4310
 4469SOL     OW25039   4.711   2.615   6.610  0.2618 -0.3445 -0.2391
 4469SOL    HW125040   0.026   2.537   6.629  1.0393  0.4164  0.7062
 4469SOL    HW225041   4.631   2.576   6.574 -0.5136 -1.1138  2.3268
 4470SOL     OW25042   3.456   2.876   9.070  0.5068 -0.5267 -0.0086
 4470SOL    HW125043   3.440   2.970   9.062 -0.7319 -1.0153 -3.1442
 4470SOL    HW225044   3.365   2.848   9.057  1.0458 -1.6521 -1.3039
 4471SOL     OW25045   4.020   0.262   4.255  0.0623  0.3719  0.0854
 4471SOL    HW125046   4.016   0.322   4.329  0.0486  0.9358 -0.3731
 4471SOL    HW225047   3.947   0.297   4.204  0.6033  1.8713  0.3491
 4472SOL     OW25048   1.503   4.675  11.389  0.1169  0.1420 -0.0574
 4472SOL    HW125049   1.598   4.660  11.389  0.2378  1.0003 -1.5335
 4472SOL    HW225050   1.487   4.691  11.296  2.0268  0.4831 -0.3396
 4473SOL     OW25051   3.577   0.061  10.240 -0.0105 -0.9172 -0.0622
 4473SOL    HW125052   3.657   0.087  10.194  0.3968 -0.1646  1.0587
 4473SOL    HW225053   3.602   0.065  10.333 -1.5040  2.0219  0.2041
 4474SOL     OW25054   4.456   1.811   0.219 -0.3664 -0.2719  0.3059
 4474SOL    HW125055   4.509   1.885   0.249 -0.3844 -0.5238  0.9513
 4474SOL    HW225056   4.528   1.753   0.193 -0.2530  0.7131 -1.6053
 4475SOL     OW25057   1.770   3.831  13.731 -0.1868 -0.4557 -0.1076
 4475SOL    HW125058   1.815   3.900  13.683 -0.4335 -0.0786  0.2005
 4475SOL    HW225059   1.704   3.882  13.779  0.2003 -1.9653  2.0357
 4476SOL     OW25060   1.960   2.739   4.664  0.2249 -0.1611  0.3091
 4476SOL    HW125061   2.027   2.721   4.597  0.2283  0.3173  0.1864
 4476SOL    HW225062   1.935   2.828   4.640  2.5272  0.1668 -0.9517
 4477SOL     OW25063   2.303   3.710  13.402 -0.3605  0.4738  0.7306
 4477SOL    HW125064   2.210   3.728  13.388 -0.3487 -1.1584 -1.4091
 4477SOL    HW225065   2.300   3.629  13.453 -0.5370 -1.5860 -2.5490
 4478SOL     OW25066   3.172   2.908  11.742  0.1614  0.3833  0.2255
 4478SOL    HW125067   3.177   2.848  11.817 -0.6317  1.1639  0.9018
 4478SOL    HW225068   3.241   2.861  11.695 -0.6437  1.2253 -1.7547
 4479SOL     OW25069   2.731   2.677   4.339 -0.4410  0.7359 -0.7250
 4479SOL    HW125070   2.742   2.629   4.421 -0.8933  0.6359 -0.7204
 4479SOL    HW225071   2.713   2.767   4.364 -0.9067 -0.4175  3.1259
 4480SOL     OW25072   2.693   4.123   4.237  0.2902  0.0460 -0.8191
 4480SOL    HW125073   2.635   4.051   4.213 -0.2942 -0.0305  0.8504
 4480SOL    HW225074   2.696   4.109   4.331  0.1566 -2.2761 -1.1586
 4481SOL     OW25075   1.824   0.296   7.972 -0.2134  0.0552  0.6068
 4481SOL    HW125076   1.868   0.319   8.054 -2.1325 -1.4824  2.0593
 4481SOL    HW225077   1.903   0.271   7.925 -0.4553 -0.1975  0.3364
 4482SOL     OW25078   2.665   2.718  16.470  0.0361 -0.0753  0.3781
 4482SOL    HW125079   2.755   2.726  16.437 -0.2592  0.7020 -0.2602
 4482SOL    HW225080   2.629   2.682  16.389  0.1837 -1.5121  0.9552
 4483SOL     OW25081   3.566   2.514  13.986 -0.1706 -0.2037  0.5608
 4483SOL    HW125082   3.630   2.584  14.003  1.4903 -1.5724 -0.0875
 4483SOL    HW225083   3.618   2.434  13.992 -2.8959 -1.8758  1.6349
 4484SOL     OW25084   0.999   0.830   7.451 -0.0487  0.3234 -0.1039
 4484SOL    HW125085   0.931   0.890   7.480 -0.3769  0.6799 -1.6137
 4484SOL    HW225086   1.047   0.881   7.386 -0.6535  0.6379 -0.2991
 4485SOL     OW25087   3.576   1.655  11.846  0.3206 -0.4190 -0.5007
 4485SOL    HW125088   3.644   1.593  11.874  1.0577  1.1717  1.2354
 4485SOL    HW225089   3.624   1.733  11.818 -0.4404  0.9256  1.8590
 4486SOL     OW25090   1.005   4.698   7.280 -0.4881  0.6605  0.1425
 4486SOL    HW125091   1.043   4.611   7.295 -2.7902 -0.9291 -3.0292
 4486SOL    HW225092   1.083   0.014   7.272  0.1078 -0.3933 -1.1112
 4487SOL     OW25093   4.393   1.906   4.730 -0.2868  0.8716  0.3285
 4487SOL    HW125094   4.429   1.980   4.780 -1.0297  1.7637 -0.4548
 4487SOL    HW225095   4.387   1.944   4.642  0.8795  1.4155  0.4727
 4488SOL     OW25096   3.101   1.741   3.060 -0.3342  0.3485 -0.6512
 4488SOL    HW125097   3.084   1.724   3.153  0.9672  3.0278  0.0595
 4488SOL    HW225098   3.066   1.659   3.024  0.3876 -0.3656  0.2501
 4489SOL     OW25099   3.272   1.893   2.541 -0.1402 -0.3798  0.9157
 4489SOL    HW125100   3.318   1.822   2.496 -1.9230  0.2931 -1.8919
 4489SOL    HW225101   3.197   1.850   2.582 -1.6418 -2.4119 -3.9847
 4490SOL     OW25102   3.123   2.459  13.339 -0.1342  0.4777 -0.3066
 4490SOL    HW125103   3.171   2.388  13.381  1.0768  3.0798  2.6963
 4490SOL    HW225104   3.110   2.422  13.251  0.6342 -0.3573 -0.0755
 4491SOL     OW25105   3.169   2.985   5.777 -0.4315 -0.0733  0.2542
 4491SOL    HW125106   3.111   3.037   5.723  2.2774  1.8124 -0.8680
 4491SOL    HW225107   3.137   2.895   5.773  1.6585 -0.7724 -0.6674
 4492SOL     OW25108   2.990   3.447   5.118  0.0498  0.3952  0.6575
 4492SOL    HW125109   3.082   3.462   5.142  0.6085 -0.1470 -1.1301
 4492SOL    HW225110   2.954   3.482   5.200 -0.3965  1.0040  0.1921
 4493SOL     OW25111   4.247   2.575   9.247 -0.1378  0.1452 -0.4596
 4493SOL    HW125112   4.332   2.555   9.287  0.0966  1.5211 -0.2897
 4493SOL    HW225113   4.186   2.504   9.271  1.2379 -1.5769 -2.0471
 4494SOL     OW25114   2.076   0.792   6.987 -0.5363  0.1864  0.1356
 4494SOL    HW125115   2.073   0.796   6.892 -2.8532 -1.1743  0.1304
 4494SOL    HW225116   2.147   0.732   7.010 -1.4893 -0.7205  0.7562
 4495SOL     OW25117   1.519   1.816   5.434  0.2117  0.2054 -0.4653
 4495SOL    HW125118   1.505   1.756   5.360 -1.6463  0.5936 -0.4250
 4495SOL    HW225119   1.447   1.878   5.422 -0.4945 -0.7407 -1.2378
 4496SOL     OW25120   0.104   3.286   6.676  0.0105  0.2068 -0.2807
 4496SOL    HW125121   0.153   3.228   6.617 -1.4805 -0.5709 -0.7627
 4496SOL    HW225122   0.137   3.270   6.764 -1.4618  0.6076  0.3252
 4497SOL     OW25123   3.333   1.792  17.602 -0.8141  0.0729 -0.3281
 4497SOL    HW125124   3.271   1.744  17.657  0.2183  1.4915  2.0991
 4497SOL    HW225125   3.327   1.736  17.525 -2.3483  0.7917 -0.7282
 4498SOL     OW25126   0.955   2.080   8.076 -0.3359  0.4723  0.3432
 4498SOL    HW125127   1.001   2.163   8.067  0.1535  0.4066  2.3590
 4498SOL    HW225128   1.036   2.030   8.071  0.6797  2.0150  1.4818
 4499SOL     OW25129   2.234   4.012   8.481 -0.0582  0.2336 -0.3174
 4499SOL    HW125130   2.229   3.930   8.430  1.2665 -0.2089  0.2673
 4499SOL    HW225131   2.158   4.049   8.436  1.6606  1.1320 -2.5233
 4500SOL     OW25132   2.571   3.367   3.733  0.0572  0.0199 -0.3022
 4500SOL    HW125133   2.500   3.333   3.678 -0.5762  0.9678 -0.0720
 4500SOL    HW225134   2.633   3.294   3.741 -1.8243 -1.7121 -1.4825
 4501SOL     OW25135   0.930   0.206   4.234  0.1049 -0.4229 -0.2163
 4501SOL    HW125136   0.841   0.236   4.216 -0.1452 -0.6250  0.7009
 4501SOL    HW225137   0.916   0.156   4.314  0.0432 -0.0651 -0.0051
 4502SOL     OW25138   1.572   0.819   7.504  0.4166  0.1522  0.4353
 4502SOL    HW125139   1.508   0.829   7.433 -0.7026 -0.3107  1.3736
 4502SOL    HW225140   1.528   0.865   7.576  0.0194  1.3502 -0.5672
 4503SOL     OW25141   2.299   2.411   7.606 -0.3137  0.5722  0.2736
 4503SOL    HW125142   2.289   2.445   7.695 -0.1424 -0.3668  0.6513
 4503SOL    HW225143   2.302   2.491   7.554  1.3216 -0.3945 -1.1270
 4504SOL     OW25144   1.012   4.029   2.590  1.0751  0.4820  0.3776
 4504SOL    HW125145   1.031   4.112   2.545 -0.1742  1.3143  1.3495
 4504SOL    HW225146   0.949   4.063   2.654  1.4992  0.6951  0.6834
 4505SOL     OW25147   2.844   2.008   0.968  0.5714  1.0470 -0.1790
 4505SOL    HW125148   2.828   1.956   1.047  0.4585  3.0678  1.1306
 4505SOL    HW225149   2.895   2.080   1.005  0.1398  1.0037  0.4985
 4506SOL     OW25150   1.683   2.392  12.839  0.1710  0.2235 -0.4206
 4506SOL    HW125151   1.741   2.340  12.783 -1.4490 -0.9828 -1.0012
 4506SOL    HW225152   1.602   2.340  12.835 -1.2999  2.5270 -0.4889
 4507SOL     OW25153   2.844   4.112   5.835  0.6250 -0.2422  0.5467
 4507SOL    HW125154   2.930   4.072   5.819  0.4407  0.1237 -1.3232
 4507SOL    HW225155   2.852   4.149   5.923 -0.9195  0.8123  0.2410
 4508SOL     OW25156   4.285   2.394   6.636 -0.0326 -0.5444  0.4131
 4508SOL    HW125157   4.225   2.331   6.676 -1.9403  1.0793  0.1312
 4508SOL    HW225158   4.283   2.469   6.695  1.0077  0.0214 -0.2772
 4509SOL     OW25159   2.974   0.597   2.693  0.0635  0.3172  0.2707
 4509SOL    HW125160   2.921   0.523   2.723 -0.5278  0.8181  0.4760
 4509SOL    HW225161   2.917   0.647   2.634 -0.0299  1.6903  1.5333
 4510SOL     OW25162   1.298   0.688  15.311 -0.0154  0.5701 -0.7449
 4510SOL    HW125163   1.385   0.707  15.345 -0.9055 -0.1350  1.9434
 4510SOL    HW225164   1.245   0.752  15.358  0.4509  1.1577 -1.0364
 4511SOL     OW25165   0.748   0.141   8.146 -0.1715  0.4516 -0.0023
 4511SOL    HW125166   0.698   0.198   8.204 -0.0483  0.1729  0.3785
 4511SOL    HW225167   0.681   0.100   8.091  1.7048  0.2529 -2.1439
 4512SOL     OW25168   0.358   1.519   2.588  0.0828  0.8687  0.1961
 4512SOL    HW125169   0.287   1.568   2.629 -1.5253 -0.2702 -1.2237
 4512SOL    HW225170   0.431   1.526   2.650  0.2175 -0.0509  0.1357
 4513SOL     OW25171   2.834   0.310  17.224  0.2927  0.6976 -0.7706
 4513SOL    HW125172   2.872   0.347  17.304  0.3288  1.1500 -0.9936
 4513SOL    HW225173   2.904   0.247  17.208  0.3839  0.4162  0.7240
 4514SOL     OW25174   1.791   1.806   4.165 -0.3786 -0.6674 -0.3221
 4514SOL    HW125175   1.741   1.854   4.098 -0.7831 -0.9244 -0.2051
 4514SOL    HW225176   1.763   1.720   4.134 -0.2231 -0.3409 -1.3557
 4515SOL     OW25177   4.113   3.717   8.817  0.1661 -0.8181 -0.6596
 4515SOL    HW125178   4.138   3.804   8.847 -0.6115 -0.4366 -1.1009
 4515SOL    HW225179   4.045   3.737   8.752 -0.6947  1.4839  0.9452
 4516SOL     OW25180   1.060   1.521  12.439 -0.2323 -0.2962 -0.0332
 4516SOL    HW125181   1.100   1.438  12.464 -2.7561 -0.9314  1.9281
 4516SOL    HW225182   1.007   1.486  12.368 -0.2564  0.9113 -0.5943
 4517SOL     OW25183   0.016   4.269   4.295  0.0529  1.0586 -0.2666
 4517SOL    HW125184   0.078   4.291   4.226  0.0011  0.2761 -0.5646
 4517SOL    HW225185   0.059   4.208   4.354 -0.7387  1.1721  0.4272
 4518SOL     OW25186   1.502   4.257   7.120 -0.2244  0.0304 -0.3250
 4518SOL    HW125187   1.468   4.265   7.030  1.3667  0.9817 -0.8271
 4518SOL    HW225188   1.444   4.188   7.153 -1.7395  1.7249  0.5520
 4519SOL     OW25189   2.615   0.880  12.155 -0.1352 -0.5848  0.3914
 4519SOL    HW125190   2.634   0.831  12.076  0.5103  1.5639 -0.8011
 4519SOL    HW225191   2.591   0.817  12.222  2.3802 -0.6174  1.2904
 4520SOL     OW25192   1.172   3.602   5.140 -0.6798  0.3769 -0.1103
 4520SOL    HW125193   1.189   3.651   5.221  0.3795  0.4828 -0.4068
 4520SOL    HW225194   1.147   3.684   5.098 -0.0463 -0.0825 -1.3541
 4521SOL     OW25195   0.333   4.348   3.586 -0.0722 -0.2092  0.2676
 4521SOL    HW125196   0.262   4.411   3.576 -2.0148 -2.6619 -1.0856
 4521SOL    HW225197   0.330   4.346   3.682  0.1278 -3.1370  0.1917
 4522SOL     OW25198   2.383   3.845   9.530 -0.4498 -0.4022 -0.1014
 4522SOL    HW125199   2.417   3.929   9.561  0.0810 -0.1970 -1.2408
 4522SOL    HW225200   2.306   3.840   9.586  1.0453 -0.7502  1.8912
 4523SOL     OW25201   0.218   0.964   8.125  0.0453  0.6156 -0.0873
 4523SOL    HW125202   0.194   1.049   8.089  0.7024  0.8843  0.1120
 4523SOL    HW225203   0.160   0.906   8.075 -1.1060  1.0220  0.7842
 4524SOL     OW25204   3.073   1.749   9.224  0.0545  0.4993 -0.3907
 4524SOL    HW125205   3.065   1.747   9.319  0.1353 -0.5173 -0.4068
 4524SOL    HW225206   3.168   1.741   9.217  0.2801  0.5867  2.5733
 4525SOL     OW25207   4.654   4.128   4.980  0.2892  0.1664  0.6949
 4525SOL    HW125208   0.003   4.092   5.001  0.5652 -1.0682 -2.4597
 4525SOL    HW225209   4.597   4.051   4.981 -1.5252  1.5107  0.7774
 4526SOL     OW25210   2.681   0.596  14.307 -0.0024 -0.3336 -0.2121
 4526SOL    HW125211   2.608   0.549  14.266 -1.1155  0.2436  1.1009
 4526SOL    HW225212   2.739   0.618  14.234  0.9032 -1.5729  0.1259
 4527SOL     OW25213   2.797   2.041   2.238  0.0341 -0.3210  0.3967
 4527SOL    HW125214   2.757   2.092   2.309 -1.4572 -1.8102  0.6206
 4527SOL    HW225215   2.848   2.111   2.196 -0.6416 -1.3615 -2.1384
 4528SOL     OW25216   4.117   1.776  10.897 -0.4442 -0.1670 -0.0777
 4528SOL    HW125217   4.189   1.781  10.959 -0.0060  1.3882 -0.7106
 4528SOL    HW225218   4.167   1.810  10.822  0.7145 -0.8631  0.3759
 4529SOL     OW25219   3.334   2.395  10.472  0.0839  0.5784 -0.3010
 4529SOL    HW125220   3.394   2.331  10.434  0.5935 -0.1299  1.6553
 4529SOL    HW225221   3.253   2.369  10.428  0.1089 -0.9359  0.5346
 4530SOL     OW25222   1.605   4.493   1.852  0.1287 -0.2153 -0.2866
 4530SOL    HW125223   1.695   4.479   1.880 -1.0602 -2.4534  2.4680
 4530SOL    HW225224   1.553   4.423   1.893  0.3308  0.7135  1.5118
 4531SOL     OW25225   0.109   0.333  10.262  0.0054  0.2177  0.0716
 4531SOL    HW125226   0.113   0.239  10.281  3.1564  0.9708  3.0688
 4531SOL    HW225227   0.185   0.335  10.203  0.0457  0.8048  0.1512
 4532SOL     OW25228   3.787   3.917   3.844 -0.1139 -0.1896 -0.2532
 4532SOL    HW125229   3.848   3.981   3.879 -0.2783  0.6777 -1.5556
 4532SOL    HW225230   3.793   3.848   3.911 -1.3050 -1.1491 -1.1116
 4533SOL     OW25231   0.913   4.129   4.670  0.0296  0.2687  0.6601
 4533SOL    HW125232   0.916   4.035   4.691 -0.9418  0.0118 -0.3353
 4533SOL    HW225233   0.882   4.113   4.581  0.2550  3.3201  0.0393
 4534SOL     OW25234   0.776   1.570   6.138  0.9141  0.0433 -0.7503
 4534SOL    HW125235   0.695   1.592   6.184  0.7965 -1.0913 -0.4220
 4534SOL    HW225236   0.818   1.522   6.210 -1.5139 -0.5898  0.2378
 4535SOL     OW25237   2.555   3.323   9.683 -0.6620  0.0810  0.1791
 4535SOL    HW125238   2.633   3.376   9.698  0.2308 -1.0175 -0.6464
 4535SOL    HW225239   2.524   3.350   9.597  0.9917 -0.9843 -0.7408
 4536SOL     OW25240   3.385   2.047  17.576 -0.3026 -0.0758 -0.3993
 4536SOL    HW125241   3.348   1.961  17.592 -0.7493  0.1219 -0.3703
 4536SOL    HW225242   3.446   2.064  17.648 -0.7222 -0.9413  0.1495
 4537SOL     OW25243   3.726   0.311   7.417  0.2630  0.1888 -0.3822
 4537SOL    HW125244   3.656   0.249   7.439 -1.3822  1.2692 -2.6086
 4537SOL    HW225245   3.678   0.391   7.395  1.7336  0.6600 -1.8029
 4538SOL     OW25246   2.942   3.299  17.404  0.0762 -0.2722 -0.0857
 4538SOL    HW125247   2.882   3.306  17.478  0.9442 -0.4251  0.6216
 4538SOL    HW225248   3.001   3.371  17.424 -1.7884  1.2794 -0.2021
 4539SOL     OW25249   1.340   2.037  11.540 -0.2049  0.5071 -0.3253
 4539SOL    HW125250   1.286   1.963  11.512 -0.2941  0.3845  0.1694
 4539SOL    HW225251   1.273   2.106  11.544 -0.9627 -0.3389  1.8821
 4540SOL     OW25252   2.701   0.404   6.601  0.4100 -0.3872 -0.0212
 4540SOL    HW125253   2.648   0.353   6.540  1.3625 -1.7451  0.3020
 4540SOL    HW225254   2.748   0.337   6.650 -1.1609  1.0462  3.4265
 4541SOL     OW25255   1.361   2.129   7.657 -0.4476  0.2625 -0.2329
 4541SOL    HW125256   1.398   2.059   7.604 -2.1726 -1.8931  1.3791
 4541SOL    HW225257   1.439   2.161   7.701 -0.1677 -3.3986  1.9178
 4542SOL     OW25258   4.030   1.136   7.055  0.4019  0.5558  0.1524
 4542SOL    HW125259   4.114   1.181   7.059  0.1598  1.0689 -0.5577
 4542SOL    HW225260   4.004   1.131   7.147 -1.4290  0.0062 -0.3986
 4543SOL     OW25261   3.742   0.375   1.681 -0.6257 -0.3198  0.0321
 4543SOL    HW125262   3.765   0.463   1.652  2.3883 -1.7027 -1.6872
 4543SOL    HW225263   3.734   0.337   1.594 -1.5799  0.3677 -0.1830
 4544SOL     OW25264   3.804   0.709   9.227 -1.0574 -0.3193  0.0189
 4544SOL    HW125265   3.856   0.632   9.203 -0.6359  1.5469 -5.0492
 4544SOL    HW225266   3.762   0.731   9.144  1.0235 -2.2512 -1.5568
 4545SOL     OW25267   1.314   3.915  10.924  0.3420 -0.2883  0.2144
 4545SOL    HW125268   1.382   3.914  10.858  1.7497 -1.2923  1.6881
 4545SOL    HW225269   1.337   3.995  10.972  1.4084  0.2497 -1.2021
 4546SOL     OW25270   4.617   3.039   1.756  0.0983  0.0555  0.4210
 4546SOL    HW125271   4.691   3.035   1.694 -1.2814 -0.5374 -1.1818
 4546SOL    HW225272   4.668   3.009   1.831 -0.5198  0.3554  0.9596
 4547SOL     OW25273   0.647   3.519   2.092  0.5757 -0.2373 -0.0654
 4547SOL    HW125274   0.552   3.523   2.076  0.7896  0.1015 -1.2905
 4547SOL    HW225275   0.664   3.612   2.108  0.8764 -0.1392 -0.9377
 4548SOL     OW25276   1.177   4.636   5.625 -0.4456  0.1824 -1.0714
 4548SOL    HW125277   1.089   4.647   5.660  0.5068  1.1049  1.0502
 4548SOL    HW225278   1.152   4.673   5.541 -3.7795  0.1862 -0.0617
 4549SOL     OW25279   1.346   1.509   2.341  0.7396  0.0572  0.0462
 4549SOL    HW125280   1.384   1.424   2.366 -0.5814 -0.8868 -1.1297
 4549SOL    HW225281   1.286   1.532   2.412 -2.4936 -0.9941 -2.3299
 4550SOL     OW25282   3.337   1.467   5.618 -0.2641  0.1912  0.1498
 4550SOL    HW125283   3.338   1.417   5.537  1.3224  1.3019 -0.5113
 4550SOL    HW225284   3.285   1.542   5.589  1.3150  0.6156 -1.5717
 4551SOL     OW25285   0.671   3.633   8.475 -0.3549 -0.0307 -0.3700
 4551SOL    HW125286   0.740   3.638   8.408 -1.8144  0.7120 -1.8108
 4551SOL    HW225287   0.682   3.541   8.500  2.3829  0.3605 -0.1332
 4552SOL     OW25288   1.821   1.358   6.776  0.2946 -0.3058  0.3194
 4552SOL    HW125289   1.870   1.353   6.694  2.5317  0.5655  1.6100
 4552SOL    HW225290   1.878   1.401   6.840 -0.8646  0.5123  0.7901
 4553SOL     OW25291   0.830   3.716   7.484 -0.1477  0.1317 -0.3436
 4553SOL    HW125292   0.751   3.662   7.487 -0.6503  0.8711 -0.3223
 4553SOL    HW225293   0.902   3.653   7.487 -1.8506 -1.8128 -0.5368
 4554SOL     OW25294   4.131   0.923   8.017  0.0652  0.2226 -0.2573
 4554SOL    HW125295   4.165   0.842   7.981  2.5215  1.4424 -0.6501
 4554SOL    HW225296   4.078   0.951   7.943 -2.1910 -0.0368  1.2499
 4555SOL     OW25297   2.643   4.553   0.820 -0.3225 -0.1553 -0.5385
 4555SOL    HW125298   2.588   4.585   0.749 -1.0575  2.1045  1.0479
 4555SOL    HW225299   2.727   4.564   0.775  0.4325 -0.5854  0.7656
 4556SOL     OW25300   2.495   2.413   6.504 -0.0220 -0.4947  0.0679
 4556SOL    HW125301   2.418   2.370   6.540 -1.9282  2.9732  0.1396
 4556SOL    HW225302   2.474   2.393   6.413  1.0329  0.9418 -0.4973
 4557SOL     OW25303   2.246   3.740   5.940 -0.4931  0.3212 -0.0851
 4557SOL    HW125304   2.220   3.826   5.973  1.1864  0.7885 -0.0064
 4557SOL    HW225305   2.257   3.701   6.027 -0.2442 -1.4805 -0.9239
 4558SOL     OW25306   3.506   3.629  13.279 -0.0752  0.2155 -0.4013
 4558SOL    HW125307   3.517   3.536  13.262  1.2556  0.2253  0.4071
 4558SOL    HW225308   3.552   3.647  13.361  0.9499 -1.0013 -0.7142
 4559SOL     OW25309   0.443   2.004  13.486 -0.1279 -0.3759 -0.1389
 4559SOL    HW125310   0.464   1.997  13.393 -1.5478 -3.3723 -0.2413
 4559SOL    HW225311   0.525   2.049  13.505 -0.1138  0.0381 -1.1838
 4560SOL     OW25312   1.162   4.436  17.584  0.1258  0.0610 -0.2753
 4560SOL    HW125313   1.138   4.521  17.546 -3.3248 -1.0115 -0.5013
 4560SOL    HW225314   1.123   4.446  17.671 -1.1726  2.5862 -1.1334
 4561SOL     OW25315   3.005   0.003   4.595  0.4843  0.1993  0.8643
 4561SOL    HW125316   2.988   0.039   4.682  1.4925  0.6380  0.8678
 4561SOL    HW225317   3.006   4.647   4.615  0.3675  0.5402  2.4719
 4562SOL     OW25318   1.977   2.936   6.624  0.7723 -0.1697 -0.3565
 4562SOL    HW125319   1.904   2.989   6.653  2.4703  2.4056 -0.7697
 4562SOL    HW225320   2.030   2.934   6.703 -0.0735 -1.5726  0.1802
 4563SOL     OW25321   4.414   1.783  14.133 -0.2989  0.1209  1.0539
 4563SOL    HW125322   4.425   1.698  14.176 -0.1632 -0.6982 -0.5810
 4563SOL    HW225323   4.321   1.805  14.130 -0.2308 -0.0918 -2.3197
 4564SOL     OW25324   3.709   3.887   9.926 -0.0711  0.1849 -0.5363
 4564SOL    HW125325   3.747   3.957   9.874  1.6764 -0.0860  0.3749
 4564SOL    HW225326   3.635   3.865   9.870  0.8133  0.3911 -1.7951
 4565SOL     OW25327   1.414   1.908   3.287  0.1532  0.5075 -0.2550
 4565SOL    HW125328   1.389   1.997   3.263  3.4408  1.6708  0.6005
 4565SOL    HW225329   1.508   1.916   3.273  0.1609 -1.9628 -1.7299
 4566SOL     OW25330   0.933   1.466   4.821 -0.5394 -0.0318  0.5801
 4566SOL    HW125331   0.853   1.417   4.841  0.6921 -1.4045  2.1634
 4566SOL    HW225332   0.946   1.505   4.907  0.3424  1.0479 -0.0538
 4567SOL     OW25333   4.201   0.998   9.421  0.5719  0.5848  0.3508
 4567SOL    HW125334   4.184   1.073   9.363  0.0323 -1.5473 -2.2831
 4567SOL    HW225335   4.220   1.046   9.501  0.5879 -0.4894  0.9858
 4568SOL     OW25336   0.062   2.831   3.491 -0.6172 -0.1321  0.2710
 4568SOL    HW125337   0.095   2.741   3.492  0.9938  0.4537 -1.0686
 4568SOL    HW225338   4.713   2.812   3.455  0.0440  1.9004 -2.3440
 4569SOL     OW25339   3.497   2.016  12.769  0.7249 -0.7443  0.2423
 4569SOL    HW125340   3.521   2.001  12.678  2.7615  0.1591  0.6094
 4569SOL    HW225341   3.578   2.055  12.804 -0.5871  1.6738  0.5732
 4570SOL     OW25342   2.697   2.184   2.448 -0.8876  0.2868  0.1184
 4570SOL    HW125343   2.676   2.187   2.542  0.7883  0.7976  0.4850
 4570SOL    HW225344   2.663   2.271   2.424  1.7389  1.4405  0.5414
 4571SOL     OW25345   3.083   0.059   9.695  0.3058 -0.1256 -0.4816
 4571SOL    HW125346   3.169   0.060   9.738  0.1218 -1.6005 -0.0796
 4571SOL    HW225347   3.052   4.707   9.707  1.3751 -0.1795  1.9649
 4572SOL     OW25348   3.903   0.955  10.263 -0.8522  0.1720 -0.3776
 4572SOL    HW125349   3.961   0.968  10.338 -1.8151  0.1987  0.3679
 4572SOL    HW225350   3.863   0.871  10.288  1.8652 -0.1450  2.8648
 4573SOL     OW25351   0.262   3.863   3.346  0.0898 -0.0504  0.0013
 4573SOL    HW125352   0.333   3.922   3.373  1.3985 -0.9539 -1.4486
 4573SOL    HW225353   0.192   3.927   3.332  0.5981  1.1069  2.7341
 4574SOL     OW25354   3.129   0.367  12.610 -0.1337 -0.3198  0.0409
 4574SOL    HW125355   3.063   0.436  12.611  0.9212  0.7187 -2.3352
 4574SOL    HW225356   3.206   0.423  12.600 -1.5982  1.8850  0.9412
 4575SOL     OW25357   1.324   3.800   7.245  0.2873  0.4503 -0.0479
 4575SOL    HW125358   1.232   3.777   7.258  0.6128 -0.9047 -0.1770
 4575SOL    HW225359   1.351   3.807   7.336  0.3949  0.7829 -0.1055
 4576SOL     OW25360   3.896   2.328   0.686 -0.1410 -0.2697  0.1750
 4576SOL    HW125361   3.939   2.301   0.767  1.1025  0.0067 -0.3904
 4576SOL    HW225362   3.936   2.264   0.626 -1.2501 -1.1199  0.3386
 4577SOL     OW25363   0.407   1.109  15.586 -0.3593 -0.3264  0.3297
 4577SOL    HW125364   0.455   1.033  15.619  1.1516  0.4150 -0.1646
 4577SOL    HW225365   0.338   1.115  15.652 -0.8913 -0.1881 -0.2370
 4578SOL     OW25366   3.842   0.045   4.008 -0.5739 -0.2204 -0.2927
 4578SOL    HW125367   3.874   4.694   3.992 -0.0490  0.2123 -1.6324
 4578SOL    HW225368   3.816   0.036   4.100 -2.5150  1.5391 -0.6828
 4579SOL     OW25369   4.004   1.188   6.088 -0.3114 -0.3318 -0.4584
 4579SOL    HW125370   4.085   1.232   6.065 -0.9026  1.1955  0.3698
 4579SOL    HW225371   4.008   1.111   6.031 -1.9215 -2.0607  1.7731
 4580SOL     OW25372   2.134   1.006   7.407 -0.3963  0.1503  0.0200
 4580SOL    HW125373   2.205   1.064   7.435 -1.1118  0.9377  0.1982
 4580SOL    HW225374   2.063   1.064   7.382  1.1338  1.7611 -0.5641
 4581SOL     OW25375   3.459   1.165  15.033  0.2969  0.0337 -0.4443
 4581SOL    HW125376   3.529   1.107  15.063 -2.2802 -2.1159  1.4118
 4581SOL    HW225377   3.404   1.173  15.111 -2.2885 -0.1222 -2.2474
 4582SOL     OW25378   2.743   0.654   2.261 -0.2041  0.5082  0.1205
 4582SOL    HW125379   2.830   0.617   2.247  0.6756  1.7483  2.3233
 4582SOL    HW225380   2.684   0.582   2.286  2.4173 -1.6890 -0.0422
 4583SOL     OW25381   3.008   3.111   6.267  0.1780  0.4271  0.4491
 4583SOL    HW125382   3.018   3.200   6.300  0.8523  1.4401 -2.4617
 4583SOL    HW225383   3.001   3.123   6.172  0.8516 -0.2823  0.3028
 4584SOL     OW25384   4.281   3.198  10.264  0.0038  0.1461  0.5190
 4584SOL    HW125385   4.253   3.188  10.173  1.9806 -2.4095  0.2112
 4584SOL    HW225386   4.205   3.168  10.314 -0.0264  2.5170  1.9085
 4585SOL     OW25387   2.399   1.341   8.616 -0.3970  0.4548  0.1884
 4585SOL    HW125388   2.373   1.433   8.609  1.6385  0.8838 -1.3841
 4585SOL    HW225389   2.433   1.342   8.706  2.2814 -1.5734 -0.8252
 4586SOL     OW25390   3.993   2.635  11.924 -0.0285  0.0366  0.5175
 4586SOL    HW125391   3.909   2.669  11.956  0.5215  0.5079  1.4477
 4586SOL    HW225392   4.016   2.573  11.994 -0.1455 -0.9777 -0.3434
 4587SOL     OW25393   2.742   0.129   9.086  0.5213  0.1693 -0.4434
 4587SOL    HW125394   2.756   0.106   9.178  0.4606  0.7185 -0.2942
 4587SOL    HW225395   2.807   0.198   9.071 -0.5621  1.0740 -0.9991
 4588SOL     OW25396   1.873   4.101  16.967  0.2115 -0.6880  0.5426
 4588SOL    HW125397   1.836   4.090  16.879  1.8718 -0.4449 -0.1901
 4588SOL    HW225398   1.966   4.099  16.941  0.4869  2.1807  1.3093
 4589SOL     OW25399   1.165   0.709   8.720  0.0676  0.3467 -0.2524
 4589SOL    HW125400   1.088   0.733   8.668 -0.6538  0.1495  0.7121
 4589SOL    HW225401   1.120   0.673   8.796 -1.0924 -0.1945 -1.1921
 4590SOL     OW25402   3.761   1.186  15.744  0.0666  0.2369 -0.3667
 4590SOL    HW125403   3.764   1.282  15.747 -0.6789  0.1836  1.9411
 4590SOL    HW225404   3.759   1.155  15.835  0.4683 -0.9392 -0.7536
 4591SOL     OW25405   4.650   3.122   7.547 -0.3432  0.5887  0.5366
 4591SOL    HW125406   4.567   3.078   7.565  0.1213 -1.1227 -1.3937
 4591SOL    HW225407   4.639   3.211   7.579 -0.3764  0.7848 -0.0212
 4592SOL     OW25408   0.376   0.699   0.817 -0.0220 -0.1700  0.0499
 4592SOL    HW125409   0.436   0.715   0.743  0.8498 -2.0389  0.3477
 4592SOL    HW225410   0.298   0.677   0.766  0.0617  0.2532 -0.2550
 4593SOL     OW25411   0.500   3.946   8.948  0.4409 -0.6272  0.1436
 4593SOL    HW125412   0.513   3.851   8.946 -0.9726 -0.7926 -1.3304
 4593SOL    HW225413   0.569   3.974   8.888  0.3689 -0.6218  0.0638
 4594SOL     OW25414   2.439   3.039  14.681 -0.0289  0.5307  0.4828
 4594SOL    HW125415   2.409   3.059  14.769  0.8153 -0.1337  0.9127
 4594SOL    HW225416   2.392   2.959  14.657  2.2944 -0.4913 -0.6487
 4595SOL     OW25417   4.125   4.034   8.086 -0.0896  0.0688 -0.0481
 4595SOL    HW125418   4.197   3.975   8.106  1.2562  1.8067  0.2694
 4595SOL    HW225419   4.084   4.035   8.172 -2.3572  2.3547 -1.1103
 4596SOL     OW25420   3.051   4.127  12.079 -0.1739 -0.1559 -0.2562
 4596SOL    HW125421   2.957   4.115  12.092 -0.3513  1.7791  0.1068
 4596SOL    HW225422   3.049   4.222  12.072  0.9811 -0.0935  0.3612
 4597SOL     OW25423   0.380   2.383  16.964 -0.3536  0.0003  0.3562
 4597SOL    HW125424   0.288   2.410  16.972 -0.1770  1.3305 -2.0225
 4597SOL    HW225425   0.403   2.397  17.056 -0.1507  0.3416  0.2514
 4598SOL     OW25426   0.494   4.306  17.217 -0.6315 -0.5472  0.0766
 4598SOL    HW125427   0.524   4.261  17.138  0.2445 -0.5775  0.4203
 4598SOL    HW225428   0.400   4.294  17.207 -0.5217 -1.5867  0.3476
 4599SOL     OW25429   1.248   1.085  10.052 -0.0951 -0.1334  0.3031
 4599SOL    HW125430   1.262   1.036   9.971 -0.8488  0.8609 -0.4330
 4599SOL    HW225431   1.179   1.148  10.030 -0.7517 -1.1585 -0.5445
 4600SOL     OW25432   0.744   2.547   6.882 -0.6862  0.6303 -0.9168
 4600SOL    HW125433   0.810   2.600   6.926 -0.7371 -0.6605  0.7100
 4600SOL    HW225434   0.766   2.552   6.789  3.1043 -0.1636 -0.0627
 4601SOL     OW25435   4.405   3.978   7.074 -0.0119 -0.1787  0.4719
 4601SOL    HW125436   4.428   4.048   7.012 -0.8811 -0.8493 -0.6199
 4601SOL    HW225437   4.408   4.026   7.157  2.2046  0.4707  0.0137
 4602SOL     OW25438   3.783   2.992   9.292  0.6480  0.0100  0.6886
 4602SOL    HW125439   3.713   3.058   9.291  1.9218  1.3060 -1.1409
 4602SOL    HW225440   3.738   2.929   9.234  0.7849 -1.6499  2.3750
 4603SOL     OW25441   0.208   4.611   4.147  0.2714  0.3436  0.1500
 4603SOL    HW125442   0.236   4.522   4.127 -1.5079  0.1210 -1.3215
 4603SOL    HW225443   0.217   4.606   4.242  0.8604 -2.0782 -0.0631
 4604SOL     OW25444   0.052   3.271   4.326 -0.2039 -0.0131  0.6908
 4604SOL    HW125445   0.123   3.208   4.337 -0.2065 -0.1471 -0.1009
 4604SOL    HW225446   0.099   3.354   4.328  3.0581 -1.8740 -0.5779
 4605SOL     OW25447   3.967   3.458   8.837 -0.3408 -0.2409 -0.4701
 4605SOL    HW125448   3.942   3.540   8.880  0.7088  0.1467 -0.5875
 4605SOL    HW225449   4.062   3.468   8.831 -0.1659 -0.3142  1.9956
 4606SOL     OW25450   1.579   4.479   9.335  0.8924  0.3868  0.8405
 4606SOL    HW125451   1.521   4.550   9.308  3.6866  2.2934 -0.1607
 4606SOL    HW225452   1.664   4.502   9.297 -0.8490  2.5453 -1.7853
 4607SOL     OW25453   0.417   0.453  11.051 -0.0928  0.3087  0.3671
 4607SOL    HW125454   0.371   0.378  11.014 -0.6097  0.2400  1.1320
 4607SOL    HW225455   0.395   0.429  11.141  0.4677  1.7268  0.8748
 4608SOL     OW25456   2.107   3.689   2.289 -0.1879  0.1733  0.1423
 4608SOL    HW125457   2.086   3.652   2.375 -0.9216  1.2074  0.4003
 4608SOL    HW225458   2.202   3.680   2.293 -0.1143  1.2921  0.8220
 4609SOL     OW25459   3.307   1.533   8.520  0.0450  0.4356  0.0137
 4609SOL    HW125460   3.400   1.509   8.517  0.8301  3.2253  1.8994
 4609SOL    HW225461   3.262   1.461   8.566  0.2702  2.1638  2.9353
 4610SOL     OW25462   2.898   4.261   4.061  0.5166  0.2502  0.0694
 4610SOL    HW125463   2.844   4.275   4.139 -1.4387  1.9290 -1.5927
 4610SOL    HW225464   2.978   4.312   4.074  2.0401 -2.4441  1.3405
 4611SOL     OW25465   4.054   2.469   5.049 -0.3452 -0.6360 -0.5360
 4611SOL    HW125466   4.035   2.401   5.114  2.2321  0.6071  1.5317
 4611SOL    HW225467   4.146   2.480   5.073 -0.0260 -3.1565 -0.5446
 4612SOL     OW25468   0.994   3.637  10.022  0.5197  0.0083 -0.3823
 4612SOL    HW125469   0.916   3.679   9.984  0.1745  0.0453  0.3796
 4612SOL    HW225470   0.999   3.665  10.113 -1.3661 -2.8535  0.6061
 4613SOL     OW25471   1.413   0.172  14.828 -0.5377 -0.3455  0.0326
 4613SOL    HW125472   1.431   0.084  14.794 -1.6931 -1.4436  2.2358
 4613SOL    HW225473   1.347   0.158  14.896 -0.2879 -1.7086 -0.0125
 4614SOL     OW25474   3.856   3.550  15.006 -0.1615  0.0802 -0.3429
 4614SOL    HW125475   3.799   3.524  15.079  1.6320 -2.7359  0.0544
 4614SOL    HW225476   3.803   3.620  14.968 -0.6066 -0.1343 -0.1218
 4615SOL     OW25477   0.164   4.147   9.279 -0.4206  0.2187 -0.3059
 4615SOL    HW125478   0.118   4.185   9.203  0.5106 -1.2484 -1.5928
 4615SOL    HW225479   0.206   4.078   9.229 -1.3311  1.1074 -2.3027
 4616SOL     OW25480   1.242   3.507   5.925 -0.1012 -0.5921 -0.0489
 4616SOL    HW125481   1.288   3.507   6.009  0.5031 -0.7077 -0.3744
 4616SOL    HW225482   1.273   3.428   5.881  3.4256  0.9593 -0.3699
 4617SOL     OW25483   1.849   1.397   4.846 -0.3738  0.0075 -0.8200
 4617SOL    HW125484   1.789   1.459   4.887 -0.3810  0.2303 -1.1635
 4617SOL    HW225485   1.859   1.437   4.759  0.1601  1.8768  0.0874
 4618SOL     OW25486   1.142   0.526  10.161  0.3092 -0.2004  0.0199
 4618SOL    HW125487   1.155   0.618  10.141 -0.3677  0.7916  4.1514
 4618SOL    HW225488   1.058   0.537  10.205 -0.0132 -1.4469 -0.2622
 4619SOL     OW25489   1.823   2.232   4.116 -0.2516 -0.2706  0.6474
 4619SOL    HW125490   1.834   2.302   4.052 -0.7019  1.5202  2.4925
 4619SOL    HW225491   1.755   2.173   4.085  0.2183  0.1130 -1.0900
 4620SOL     OW25492   3.314   4.426   1.203 -0.5374 -0.3010  0.1213
 4620SOL    HW125493   3.322   4.440   1.297 -0.4039 -0.4389  0.1310
 4620SOL    HW225494   3.229   4.382   1.207  0.0378 -1.6579 -1.8183
 4621SOL     OW25495   4.192   4.431   9.632 -0.3773  0.3732 -0.0616
 4621SOL    HW125496   4.166   4.347   9.593 -1.5892  0.6332  0.1844
 4621SOL    HW225497   4.267   4.402   9.684 -1.3851 -0.7100  0.7977
 4622SOL     OW25498   1.290   2.533  14.377  0.6560  0.1328 -0.1374
 4622SOL    HW125499   1.219   2.557  14.437 -0.6997  1.0804 -2.1193
 4622SOL    HW225500   1.334   2.612  14.345  1.2072 -0.4770 -0.8952
 4623SOL     OW25501   0.569   0.983   3.142  0.2542 -0.2312 -0.0682
 4623SOL    HW125502   0.576   1.042   3.067  1.4095 -2.9371 -2.1021
 4623SOL    HW225503   0.566   0.898   3.099  0.0021 -1.4304  2.3294
 4624SOL     OW25504   4.207   2.003  10.156  0.2875  0.0907 -0.3775
 4624SOL    HW125505   4.205   2.006  10.251 -1.2105 -0.5858 -0.3870
 4624SOL    HW225506   4.160   2.086  10.143 -1.5892 -1.1004 -1.2720
 4625SOL     OW25507   2.183   1.562  11.218  0.1571  0.0202  1.0389
 4625SOL    HW125508   2.249   1.533  11.155 -1.8274  0.8226 -1.3914
 4625SOL    HW225509   2.239   1.548  11.294  0.3582  2.0496  1.2810
 4626SOL     OW25510   0.769   2.967  13.877 -0.3944  0.1615  0.6788
 4626SOL    HW125511   0.794   2.875  13.866  1.5377  0.6745  0.6313
 4626SOL    HW225512   0.677   2.954  13.900 -1.2615  2.7746 -1.3651
 4627SOL     OW25513   3.758   0.970  10.025 -0.6807 -0.3061 -0.2551
 4627SOL    HW125514   3.669   1.002  10.038 -0.5720 -0.8507  1.8834
 4627SOL    HW225515   3.805   0.975  10.109  0.3293  0.8083 -0.8932
 4628SOL     OW25516   0.804   1.254   8.087  0.1116 -0.2148  0.2693
 4628SOL    HW125517   0.880   1.311   8.100  0.7217 -0.4808 -2.2413
 4628SOL    HW225518   0.795   1.209   8.171 -1.2401 -0.8400 -0.2168
 4629SOL     OW25519   1.508   0.204   8.811  0.3391  0.2162  0.2598
 4629SOL    HW125520   1.541   0.259   8.883  1.0313  0.0358  0.0764
 4629SOL    HW225521   1.515   0.268   8.741 -0.7341  0.4752  0.3781
 4630SOL     OW25522   3.425   3.602   8.522  0.0095  0.3752  0.3492
 4630SOL    HW125523   3.485   3.528   8.511 -0.6633 -0.0221 -0.6305
 4630SOL    HW225524   3.479   3.636   8.593 -0.7980  1.1616  0.5819
 4631SOL     OW25525   3.924   3.174  15.016 -0.0095 -0.0494  0.0369
 4631SOL    HW125526   3.929   3.268  15.031  0.0589 -0.0124 -0.2167
 4631SOL    HW225527   3.903   3.147  15.105 -0.5243 -0.8103 -0.3199
 4632SOL     OW25528   3.162   3.535   9.211 -0.0251  0.0842  0.2861
 4632SOL    HW125529   3.105   3.491   9.274  0.8266 -0.7632  0.4705
 4632SOL    HW225530   3.150   3.480   9.133  0.7554 -0.9117  0.8696
 4633SOL     OW25531   1.016   1.312  12.214 -0.5699 -0.3232 -0.4558
 4633SOL    HW125532   1.035   1.371  12.141 -1.9502 -1.2849 -1.5874
 4633SOL    HW225533   0.921   1.307  12.221 -0.5606  1.0460  0.6969
 4634SOL     OW25534   1.812   3.207  14.414 -0.3450  0.1721 -0.2743
 4634SOL    HW125535   1.788   3.115  14.403 -2.0257  0.3522  1.7800
 4634SOL    HW225536   1.726   3.245  14.401 -0.9480 -1.3405 -0.6572
 4635SOL     OW25537   4.213   4.199   2.127  0.0221 -0.3991 -0.3655
 4635SOL    HW125538   4.140   4.234   2.179  0.1232  2.0239 -1.8387
 4635SOL    HW225539   4.168   4.173   2.047  1.6785  1.0677 -1.7622
 4636SOL     OW25540   0.823   0.416   3.901 -0.0334 -0.3528 -0.3947
 4636SOL    HW125541   0.739   0.462   3.893 -0.4575 -0.9658  0.5492
 4636SOL    HW225542   0.818   0.379   3.989 -3.2901 -0.6091 -0.6783
 4637SOL     OW25543   1.603   4.401   8.125 -0.2290 -0.3773  0.2106
 4637SOL    HW125544   1.646   4.322   8.093 -1.1809 -0.6623 -0.3646
 4637SOL    HW225545   1.665   4.473   8.125 -1.4906  0.7147 -0.3864
 4638SOL     OW25546   2.296   2.848   4.566 -0.9687 -0.5062 -0.5486
 4638SOL    HW125547   2.238   2.924   4.575 -0.0742  0.0026  0.8116
 4638SOL    HW225548   2.246   2.784   4.515  0.6009 -0.9608 -1.5228
 4639SOL     OW25549   1.590   3.864  13.173 -0.4488  0.1137  0.0520
 4639SOL    HW125550   1.666   3.922  13.168 -1.0511  1.0123  1.1358
 4639SOL    HW225551   1.599   3.814  13.092 -1.3699 -0.1044  0.0908
 4640SOL     OW25552   0.311   3.911   3.762  0.3312 -0.1166  0.2636
 4640SOL    HW125553   0.333   3.818   3.769  1.4297  0.1128 -0.0282
 4640SOL    HW225554   0.394   3.942   3.726  0.2983  0.9563  1.1164
 4641SOL     OW25555   1.119   1.362  12.915  0.1088  0.1952  0.2482
 4641SOL    HW125556   1.134   1.455  12.934  1.5762 -0.3131  1.5492
 4641SOL    HW225557   1.145   1.364  12.823  1.2964  3.7076  0.6456
 4642SOL     OW25558   3.817   0.547   8.416 -0.0440  0.1716  0.7904
 4642SOL    HW125559   3.879   0.604   8.371 -1.5340  0.7829 -0.5083
 4642SOL    HW225560   3.886   0.507   8.468 -0.4448 -1.2601  0.2076
 4643SOL     OW25561   2.856   2.297   5.975 -0.1614  0.2968  0.3718
 4643SOL    HW125562   2.844   2.377   5.924 -0.2359 -0.4635 -0.7990
 4643SOL    HW225563   2.783   2.244   5.943  1.1993 -0.8309 -0.8771
 4644SOL     OW25564   3.305   3.917   9.607 -0.1267  0.4758 -0.5577
 4644SOL    HW125565   3.375   3.867   9.649 -0.5920  1.4825  1.3889
 4644SOL    HW225566   3.337   4.006   9.622  1.1849  0.3646 -2.7783
 4645SOL     OW25567   3.125   3.860   8.621 -0.1692 -0.6297  0.3560
 4645SOL    HW125568   3.129   3.912   8.702  1.8211  1.5797 -1.1548
 4645SOL    HW225569   3.197   3.801   8.643  0.7002 -0.3080 -1.6133
 4646SOL     OW25570   3.893   3.923   2.474 -0.4671 -0.6803 -0.3207
 4646SOL    HW125571   3.941   3.925   2.557 -1.3824  1.8235  0.1476
 4646SOL    HW225572   3.962   3.931   2.408  2.1806 -0.6011  2.4629
 4647SOL     OW25573   2.833   4.672   0.668  0.2244 -0.0540  0.1501
 4647SOL    HW125574   2.883   4.637   0.594  3.6777  0.4600  2.2861
 4647SOL    HW225575   2.863   0.025   0.673  0.0718  0.0492 -0.8132
 4648SOL     OW25576   0.526   2.172   6.985  0.5518  0.7322  0.0266
 4648SOL    HW125577   0.536   2.098   7.045 -0.8706  1.5021  1.2218
 4648SOL    HW225578   0.610   2.169   6.940  0.4927  0.2171 -0.0444
 4649SOL     OW25579   1.387   2.263   6.839 -0.0100 -0.2713 -0.5028
 4649SOL    HW125580   1.300   2.223   6.837 -0.4369  0.7510 -2.4578
 4649SOL    HW225581   1.422   2.229   6.757 -0.6907  0.7140 -1.2065
 4650SOL     OW25582   4.517   3.624  10.590  0.3218  0.2990  0.2695
 4650SOL    HW125583   4.603   3.620  10.548  0.8585  0.8298  1.3071
 4650SOL    HW225584   4.528   3.543  10.640  0.9968  0.0511 -0.2708
 4651SOL     OW25585   4.357   3.789   7.931  0.2556 -0.3168 -0.1880
 4651SOL    HW125586   4.313   3.792   8.015  1.7051 -1.3057  0.6017
 4651SOL    HW225587   4.383   3.697   7.927 -0.0856 -0.4762  1.3294
 4652SOL     OW25588   3.317   1.946   9.285 -0.2158 -0.5096 -0.2190
 4652SOL    HW125589   3.340   1.984   9.199  0.8799  4.0225  2.0812
 4652SOL    HW225590   3.404   1.912   9.306 -0.9628 -1.2192  1.6941
 4653SOL     OW25591   3.010   2.501  16.332  0.4780 -0.7018  0.4982
 4653SOL    HW125592   3.014   2.533  16.242 -3.0435 -2.4574 -0.2875
 4653SOL    HW225593   3.093   2.518  16.376  1.4076 -1.1930 -1.0836
 4654SOL     OW25594   4.679   2.815   8.606  0.2346  0.0082  0.8098
 4654SOL    HW125595   0.031   2.786   8.589  0.2877  1.2571 -1.0094
 4654SOL    HW225596   4.688   2.823   8.701  1.1939 -0.1958  0.7427
 4655SOL     OW25597   2.558   1.233   8.410 -0.4606  0.5155  0.0633
 4655SOL    HW125598   2.494   1.288   8.455 -2.2809  0.4036 -2.4010
 4655SOL    HW225599   2.613   1.220   8.487  1.0721  1.5593 -0.8559
 4656SOL     OW25600   1.286   3.731  10.191 -0.6639 -0.4991 -0.0617
 4656SOL    HW125601   1.193   3.714  10.207 -0.6500  1.4667  2.1970
 4656SOL    HW225602   1.307   3.694  10.105  0.7856 -0.5494  0.3054
 4657SOL     OW25603   3.720   1.776   4.195 -0.3384 -0.2670  0.2502
 4657SOL    HW125604   3.650   1.742   4.250 -2.2262  0.7145 -1.5573
 4657SOL    HW225605   3.763   1.813   4.272  0.1880 -0.4132  0.0307
 4658SOL     OW25606   1.838   4.324   0.478 -0.4595 -0.1474 -0.4347
 4658SOL    HW125607   1.751   4.349   0.510 -0.1594  0.3083  0.0327
 4658SOL    HW225608   1.885   4.403   0.505 -0.6143 -0.5196  0.9177
 4659SOL     OW25609   0.006   2.696   2.727 -0.0073 -0.5113 -0.4126
 4659SOL    HW125610   4.698   2.625   2.771 -1.1638  2.7024  3.5177
 4659SOL    HW225611   0.023   2.653   2.643  1.9062  0.7100 -0.6419
 4660SOL     OW25612   1.141   2.495  15.388  0.4175  0.1485  0.0411
 4660SOL    HW125613   1.053   2.521  15.413  0.4288  1.4532 -1.2968
 4660SOL    HW225614   1.175   2.576  15.427 -1.2686 -0.1187  2.0298
 4661SOL     OW25615   2.142   2.483   6.437  0.3089  0.2059  0.2108
 4661SOL    HW125616   2.160   2.399   6.395 -0.8786  1.3599 -2.6251
 4661SOL    HW225617   2.139   2.463   6.531 -1.4016  1.8889  0.5114
 4662SOL     OW25618   1.503   3.781   8.591  0.1123 -0.0450  0.0160
 4662SOL    HW125619   1.560   3.705   8.588 -1.0682 -0.9492  0.5393
 4662SOL    HW225620   1.509   3.816   8.502 -0.9886  0.8554  0.2949
 4663SOL     OW25621   2.936   4.405   7.792  0.1264 -0.5183 -0.4690
 4663SOL    HW125622   3.001   4.352   7.838  1.0588  1.3904  0.4356
 4663SOL    HW225623   2.974   4.423   7.706 -0.3972 -0.6558 -0.7298
 4664SOL     OW25624   1.308   3.495   2.964 -0.4779 -0.6988 -0.0676
 4664SOL    HW125625   1.379   3.555   2.944 -0.1325 -2.1824 -3.1754
 4664SOL    HW225626   1.232   3.515   2.909 -0.9142  1.2497  1.2226
 4665SOL     OW25627   1.000   0.664   7.658  0.2457  0.0832 -0.7752
 4665SOL    HW125628   0.994   0.735   7.594  0.5332  1.5236  0.7708
 4665SOL    HW225629   1.015   0.725   7.731  0.5102  0.8900 -1.5078
 4666SOL     OW25630   2.752   2.917   6.234  0.9679 -0.4525  0.5511
 4666SOL    HW125631   2.765   2.854   6.305  4.2186  0.3906  0.6813
 4666SOL    HW225632   2.791   2.997   6.268  0.8751 -0.5776  0.9501
 4667SOL     OW25633   4.644   3.601   6.352  0.1712  0.1573  0.3957
 4667SOL    HW125634   4.732   3.599   6.389  0.7794  0.7876 -1.0297
 4667SOL    HW225635   4.591   3.634   6.425  1.0716 -1.4987  1.7874
 4668SOL     OW25636   2.961   2.835  15.921 -0.4194 -0.2016  0.1013
 4668SOL    HW125637   2.936   2.777  15.849  1.1672 -0.7393 -0.0106
 4668SOL    HW225638   2.885   2.890  15.937  2.4503  4.3678 -2.1556
 4669SOL     OW25639   2.200   4.293  14.465 -0.3613 -0.3401  0.0440
 4669SOL    HW125640   2.208   4.254  14.378 -1.2647 -1.6221  0.5377
 4669SOL    HW225641   2.207   4.211  14.514 -0.4827 -1.2005 -1.3605
 4670SOL     OW25642   1.982   0.608   7.961  0.4383  0.6711 -0.2191
 4670SOL    HW125643   1.893   0.604   7.927  0.2911  0.4635  0.1912
 4670SOL    HW225644   2.023   0.564   7.887  2.1375  0.9063  0.5642
 4671SOL     OW25645   2.608   3.758   7.759 -0.7051 -0.0422  0.2281
 4671SOL    HW125646   2.676   3.724   7.817 -0.5315 -1.2585 -0.6922
 4671SOL    HW225647   2.532   3.730   7.809  0.6058 -1.9096  1.1505
 4672SOL     OW25648   2.098   3.591   6.302  0.7216  0.1079 -0.9911
 4672SOL    HW125649   2.054   3.675   6.290  1.0167  0.6423  1.5934
 4672SOL    HW225650   2.024   3.532   6.289  1.0608 -1.0981  2.5243
 4673SOL     OW25651   2.046   4.675   6.008 -0.0216  0.1338  0.7091
 4673SOL    HW125652   2.106   4.697   5.938 -0.3076 -2.6491 -0.3984
 4673SOL    HW225653   2.115   4.642   6.065 -0.1499 -1.8607 -0.2827
 4674SOL     OW25654   1.760   4.412  13.516 -0.0184 -0.6487 -0.1467
 4674SOL    HW125655   1.817   4.376  13.583  1.0481 -0.6044 -1.0224
 4674SOL    HW225656   1.799   4.498  13.500  0.6369 -1.0118 -0.4737
 4675SOL     OW25657   0.422   3.792   6.839 -0.4521  0.2874 -0.3807
 4675SOL    HW125658   0.382   3.723   6.891  0.5637 -0.7352 -0.9615
 4675SOL    HW225659   0.475   3.839   6.904  0.5226  0.4887 -1.3283
 4676SOL     OW25660   1.896   3.251   6.501 -0.5773 -0.3625  0.1505
 4676SOL    HW125661   1.972   3.219   6.453  0.1731  1.8984 -0.1540
 4676SOL    HW225662   1.927   3.311   6.569 -0.7392 -1.4473  1.1780
 4677SOL     OW25663   1.679   3.264  11.219 -0.5036 -0.6941  0.7869
 4677SOL    HW125664   1.752   3.202  11.209 -2.0999 -2.3674 -0.4397
 4677SOL    HW225665   1.722   3.324  11.280  2.7232 -1.5281 -0.6730
 4678SOL     OW25666   3.724   2.408   5.612  0.3767  0.2579  0.2804
 4678SOL    HW125667   3.678   2.355   5.546  0.0816 -0.8968  1.4128
 4678SOL    HW225668   3.741   2.491   5.569  0.0935 -0.7756 -1.8460
 4679SOL     OW25669   4.197   1.360   8.317 -0.8052  0.1765 -0.7662
 4679SOL    HW125670   4.275   1.410   8.294 -1.5582  1.5574 -0.2912
 4679SOL    HW225671   4.208   1.280   8.265  3.4103  0.4154 -0.2184
 4680SOL     OW25672   0.022   1.758   6.591  0.1459 -0.8723 -0.8852
 4680SOL    HW125673   4.698   1.815   6.545 -1.7536 -1.8010  0.5443
 4680SOL    HW225674   0.091   1.822   6.607 -0.9905  0.8462 -2.9627
 4681SOL     OW25675   3.045   0.143  11.727  0.1710  0.3608  0.6307
 4681SOL    HW125676   3.120   0.113  11.779 -0.9529 -1.1542  1.3717
 4681SOL    HW225677   3.076   0.139  11.637 -0.6507 -2.1817  0.4516
 4682SOL     OW25678   3.041   4.193   9.545  0.6923  0.0561 -0.5859
 4682SOL    HW125679   3.103   4.126   9.519 -0.5541 -0.7885 -1.3737
 4682SOL    HW225680   3.097   4.264   9.576  0.2871  0.3046 -0.4153
 4683SOL     OW25681   3.979   1.058  12.127 -0.3172  0.3460 -0.2715
 4683SOL    HW125682   3.951   1.137  12.174  0.0119  1.3107 -1.6983
 4683SOL    HW225683   3.941   0.990  12.183 -1.3887  0.7213 -0.5372
 4684SOL     OW25684   4.718   1.884   4.690 -0.0506  0.1381 -0.2516
 4684SOL    HW125685   0.046   1.818   4.711 -0.4029  0.7669  2.9316
 4684SOL    HW225686   4.643   1.827   4.707 -0.2351  0.3174 -0.4648
 4685SOL     OW25687   2.140   3.535  14.620  0.2506  0.6935  0.3321
 4685SOL    HW125688   2.192   3.493  14.551 -1.4039 -2.3692  0.9492
 4685SOL    HW225689   2.086   3.460  14.645 -0.3577  0.7539 -0.7902
 4686SOL     OW25690   3.631   0.746   6.784 -0.4945  0.6517 -0.1451
 4686SOL    HW125691   3.684   0.826   6.786  1.9239 -0.9369 -0.5303
 4686SOL    HW225692   3.545   0.784   6.803 -1.1204 -1.5582  1.3801
 4687SOL     OW25693   4.138   2.331   5.639 -0.6267  0.2916  0.0284
 4687SOL    HW125694   4.066   2.394   5.646 -0.4858  0.7806 -2.9042
 4687SOL    HW225695   4.181   2.350   5.722 -1.2729 -2.2813  0.9657
 4688SOL     OW25696   1.068   0.739   0.640 -0.3199  0.0455 -0.2775
 4688SOL    HW125697   0.979   0.707   0.628 -0.7152  1.5255 -1.2656
 4688SOL    HW225698   1.122   0.672   0.598  1.1864  0.0953  1.5662
 4689SOL     OW25699   0.700   3.862  15.469  0.2256  0.0485  0.0808
 4689SOL    HW125700   0.722   3.772  15.445 -1.6822  0.1889 -2.0818
 4689SOL    HW225701   0.608   3.850  15.493  0.5266 -0.0383  1.1996
 4690SOL     OW25702   1.364   4.376  17.131 -0.0973 -0.0363 -0.0135
 4690SOL    HW125703   1.291   4.314  17.130 -0.3036  0.2201 -0.5773
 4690SOL    HW225704   1.394   4.380  17.222 -0.6514  1.1066  0.1143
 4691SOL     OW25705   1.968   3.882   2.046  0.1243 -0.0148  0.0265
 4691SOL    HW125706   1.917   3.929   1.980  0.3656 -0.1859 -0.2845
 4691SOL    HW225707   1.903   3.825   2.086 -1.3463  3.9184  3.2214
 4692SOL     OW25708   1.112   4.070   9.746  0.7193  0.6611  0.7602
 4692SOL    HW125709   1.045   4.001   9.745 -0.2988  1.6868 -2.1870
 4692SOL    HW225710   1.160   4.024   9.815  0.4848 -2.3981 -1.1519
 4693SOL     OW25711   0.795   2.528  17.564 -0.1039 -1.0981  0.0875
 4693SOL    HW125712   0.772   2.611  17.522  0.2086 -0.8778  0.3452
 4693SOL    HW225713   0.867   2.550  17.623 -0.6018 -0.2957  0.3965
 4694SOL     OW25714   1.663   0.616   8.865  0.0486  0.2073  0.3848
 4694SOL    HW125715   1.721   0.691   8.875  1.2615 -0.3529 -2.5189
 4694SOL    HW225716   1.588   0.651   8.817  2.5972  1.5160 -2.6556
 4695SOL     OW25717   2.657   4.604   9.346 -0.2534 -0.0995 -0.6623
 4695SOL    HW125718   2.633   4.655   9.423 -0.2096 -1.7838  0.4786
 4695SOL    HW225719   2.589   4.637   9.288 -2.0372 -0.8825  0.9759
 4696SOL     OW25720   2.361   0.671   5.491  0.3432  0.4262  0.6240
 4696SOL    HW125721   2.274   0.632   5.502  0.1877  0.4993 -0.4202
 4696SOL    HW225722   2.379   0.702   5.580 -0.7171 -1.4763  1.5206
 4697SOL     OW25723   4.675   0.851  16.050 -0.4080  0.0174 -0.0273
 4697SOL    HW125724   4.606   0.917  16.055  0.0109  0.6115 -1.9936
 4697SOL    HW225725   4.637   0.780  16.102 -0.0010 -1.0337 -1.1593
 4698SOL     OW25726   0.427   0.679   4.433  0.1047  0.0784 -0.6445
 4698SOL    HW125727   0.436   0.685   4.338  2.8320 -0.6887 -0.4432
 4698SOL    HW225728   0.379   0.596   4.432 -0.4668  0.3763  2.8331
 4699SOL     OW25729   4.660   2.070   1.418 -0.3057  0.5079  0.0524
 4699SOL    HW125730   0.012   2.104   1.425 -0.7381  1.9116 -1.3864
 4699SOL    HW225731   4.615   2.149   1.447  2.4905  1.5632  1.5581
 4700SOL     OW25732   1.209   2.375   2.853 -0.3830 -0.2236 -0.2606
 4700SOL    HW125733   1.206   2.279   2.858  0.4282 -0.2680 -0.6601
 4700SOL    HW225734   1.210   2.381   2.757  2.5909 -0.5569 -0.2545
 4701SOL     OW25735   3.584   0.614  16.857 -0.0559  0.0665  0.0286
 4701SOL    HW125736   3.528   0.586  16.930  2.1341  0.0795  1.7351
 4701SOL    HW225737   3.578   0.710  16.865 -0.0110  0.0183  0.6590
 4702SOL     OW25738   0.024   1.094   2.163 -0.2104  0.1732 -0.2189
 4702SOL    HW125739   0.055   1.133   2.082 -3.1443  0.3871 -1.2242
 4702SOL    HW225740   4.709   1.022   2.129 -0.6051 -0.5504  1.8691
 4703SOL     OW25741   0.175   0.657   3.780  0.5022 -0.5061 -0.2008
 4703SOL    HW125742   0.188   0.570   3.740  2.7063 -1.0262  1.6344
 4703SOL    HW225743   0.260   0.699   3.766  0.1909  0.1604 -0.0693
 4704SOL     OW25744   0.853   4.267   6.962  0.5217 -0.0754  0.3623
 4704SOL    HW125745   0.905   4.315   7.026 -0.6810  0.3965  0.9722
 4704SOL    HW225746   0.769   4.309   6.978  0.9454  1.3417 -1.2014
 4705SOL     OW25747   2.177   2.966  17.212  0.0351 -0.0727 -0.3388
 4705SOL    HW125748   2.107   2.986  17.151  1.6517  1.0635 -1.8291
 4705SOL    HW225749   2.251   3.008  17.168  1.3636  0.7439  2.6682
 4706SOL     OW25750   1.877   1.352  17.682 -0.0520  0.0956  0.1718
 4706SOL    HW125751   1.894   1.434  17.637 -2.4449  0.5141  0.0474
 4706SOL    HW225752   1.882   1.290  17.610 -0.2469 -1.0661  1.1483
 4707SOL     OW25753   1.922   4.084  15.125  0.5593  0.1069 -0.0433
 4707SOL    HW125754   1.945   4.160  15.070  0.3175  0.7238  0.7047
 4707SOL    HW225755   1.994   4.025  15.104 -0.0640 -0.6526 -0.0481
 4708SOL     OW25756   3.121   3.955   7.975 -0.0690 -0.0516 -0.5268
 4708SOL    HW125757   3.060   3.977   8.045  0.2562 -1.5465  0.2388
 4708SOL    HW225758   3.168   3.876   8.003  0.4238 -0.2579 -1.9474
 4709SOL     OW25759   0.579   3.921   3.706 -0.2923 -0.8966 -0.0970
 4709SOL    HW125760   0.648   3.961   3.761 -0.7283 -2.6956  1.7434
 4709SOL    HW225761   0.600   3.952   3.618 -2.8467 -1.8944 -1.0310
 4710SOL     OW25762   0.352   1.669  17.284  0.0319 -0.1314 -0.1580
 4710SOL    HW125763   0.432   1.672  17.232 -0.0571  2.1240 -0.1709
 4710SOL    HW225764   0.280   1.645  17.226  0.4465 -2.5018  0.3015
 4711SOL     OW25765   2.482   4.595  14.435 -0.1278  0.1354 -0.1765
 4711SOL    HW125766   2.511   4.505  14.424  0.4834  0.6755 -2.9026
 4711SOL    HW225767   2.444   4.608  14.348 -0.6230  2.5950  0.3903
 4712SOL     OW25768   0.030   2.645   0.760 -0.0404  0.7793 -0.0112
 4712SOL    HW125769   4.725   2.664   0.677 -1.6980 -1.2106  0.3932
 4712SOL    HW225770   4.694   2.610   0.810 -0.1791  0.7091 -0.2676
 4713SOL     OW25771   0.528   3.665   8.959 -0.1678 -0.1324  0.5414
 4713SOL    HW125772   0.602   3.642   9.015 -0.8037 -0.6720  1.1429
 4713SOL    HW225773   0.489   3.578   8.959  2.5984 -1.3728  2.5753
 4714SOL     OW25774   3.460   4.182   3.441  0.6011 -0.6031  0.6131
 4714SOL    HW125775   3.392   4.247   3.462  2.7906  1.6428  0.7005
 4714SOL    HW225776   3.537   4.236   3.459  0.4735 -0.6543  1.3411
 4715SOL     OW25777   1.993   2.571   3.608 -0.0140 -0.9413 -0.0761
 4715SOL    HW125778   2.034   2.614   3.533 -0.5394 -0.2854  0.0168
 4715SOL    HW225779   1.953   2.500   3.559  0.0902 -1.2620  0.2999
 4716SOL     OW25780   0.369   2.485   5.157 -0.4198  0.0277 -0.0691
 4716SOL    HW125781   0.313   2.436   5.217  0.2314  0.7581  1.1350
 4716SOL    HW225782   0.332   2.574   5.154  0.4067  0.3431 -0.9418
 4717SOL     OW25783   1.866   4.690   5.188  0.1385  0.0237  0.2899
 4717SOL    HW125784   1.880   4.667   5.097 -0.7037 -0.8992  0.3927
 4717SOL    HW225785   1.770   4.697   5.189  0.3717  3.2697 -1.5192
 4718SOL     OW25786   4.577   1.593  10.060 -0.3394  0.0534  0.0619
 4718SOL    HW125787   4.601   1.596  10.152  0.9138 -2.8016 -0.1689
 4718SOL    HW225788   4.642   1.544  10.010 -2.5470 -1.1785 -1.6068
 4719SOL     OW25789   4.549   3.675  14.764  0.1815 -0.2510 -0.0015
 4719SOL    HW125790   4.479   3.692  14.827 -0.6066  2.0748 -1.5159
 4719SOL    HW225791   4.489   3.680  14.689  1.5068  1.0835 -0.9796
 4720SOL     OW25792   3.734   4.300   4.531  0.1553  0.2719  0.1852
 4720SOL    HW125793   3.742   4.395   4.525  0.5331  0.1777 -0.6617
 4720SOL    HW225794   3.640   4.291   4.551 -0.0842  0.9127 -0.6923
 4721SOL     OW25795   3.163   4.068   2.136  0.2926 -0.5405 -0.0783
 4721SOL    HW125796   3.236   4.128   2.121 -0.5506  0.9341  1.7592
 4721SOL    HW225797   3.133   4.090   2.224  0.5261  1.7623 -0.5796
 4722SOL     OW25798   4.525   0.676   7.481  0.2885 -0.2958  0.7125
 4722SOL    HW125799   4.461   0.648   7.416 -1.0322 -2.0332  2.7717
 4722SOL    HW225800   4.606   0.650   7.439 -0.3805 -2.3987  0.7337
 4723SOL     OW25801   0.390   4.236   4.297 -0.3649 -0.4343  0.1836
 4723SOL    HW125802   0.357   4.286   4.372  0.4976 -1.9714  1.6010
 4723SOL    HW225803   0.312   4.198   4.257 -0.6971 -0.6261  1.0202
 4724SOL     OW25804   2.015   0.832  11.183 -0.0175 -0.3028  0.9129
 4724SOL    HW125805   2.107   0.817  11.202 -0.0371  0.5375  1.6394
 4724SOL    HW225806   2.014   0.928  11.184  0.1453 -0.2810 -0.2563
 4725SOL     OW25807   3.175   3.728  11.607  0.7600  0.1418 -0.2174
 4725SOL    HW125808   3.088   3.762  11.585 -0.2929 -2.9595 -0.9035
 4725SOL    HW225809   3.218   3.810  11.631  0.4697  0.2430 -0.0440
 4726SOL     OW25810   4.259   0.135  10.787 -0.5073 -0.2045 -0.8553
 4726SOL    HW125811   4.305   0.205  10.741  0.2038 -0.0633  0.0672
 4726SOL    HW225812   4.333   0.108  10.842 -0.8239  1.7678  0.5208
 4727SOL     OW25813   1.979   3.277   8.271 -0.0718  0.2164 -0.0938
 4727SOL    HW125814   2.056   3.299   8.218  0.3233  0.7148  0.6940
 4727SOL    HW225815   1.982   3.350   8.333 -2.0405 -1.2969  1.7819
 4728SOL     OW25816   2.895   3.990  15.909  0.3714 -0.3914 -0.2365
 4728SOL    HW125817   2.804   3.962  15.916  0.2042  0.2071  0.0041
 4728SOL    HW225818   2.929   3.960  15.993 -1.3165 -1.4882  0.0644
 4729SOL     OW25819   1.298   0.769   2.517  0.0912  0.3295  0.3777
 4729SOL    HW125820   1.292   0.835   2.586  2.3404 -1.8006  2.5604
 4729SOL    HW225821   1.214   0.725   2.534  0.1018  0.4077  0.6325
 4730SOL     OW25822   1.717   1.109   6.702  1.0336  0.6683 -0.0586
 4730SOL    HW125823   1.759   1.139   6.622  1.8910  0.1273  0.1925
 4730SOL    HW225824   1.740   1.184   6.757  1.9040  0.7991 -0.6009
 4731SOL     OW25825   2.931   1.144   7.096  0.6231  0.3556  0.0559
 4731SOL    HW125826   2.843   1.153   7.060  0.9242 -0.8467 -0.9825
 4731SOL    HW225827   2.959   1.055   7.076  0.8523  0.1076  1.5557
 4732SOL     OW25828   1.510   4.578   7.037  0.5166 -0.2696 -0.1889
 4732SOL    HW125829   1.571   4.535   6.977  1.0740 -0.0199  0.2050
 4732SOL    HW225830   1.556   4.657   7.065 -0.2452 -0.1004  0.5720
 4733SOL     OW25831   0.270   2.630   0.219  0.3538 -0.4772 -0.7173
 4733SOL    HW125832   0.227   2.647   0.136 -2.7157  0.1530  1.0292
 4733SOL    HW225833   0.327   2.554   0.203  0.0376 -0.2967 -2.6952
 4734SOL     OW25834   1.667   2.011   4.005 -0.0887  0.8314 -0.0188
 4734SOL    HW125835   1.576   2.015   4.035 -0.3805  0.0169 -0.7930
 4734SOL    HW225836   1.644   1.979   3.918 -1.0268 -0.3468  0.6554
 4735SOL     OW25837   4.204   3.255   4.149 -0.3073  0.6708 -0.0113
 4735SOL    HW125838   4.120   3.266   4.104  0.1993  1.2181 -0.8173
 4735SOL    HW225839   4.259   3.316   4.101  0.5614 -0.1368 -0.0398
 4736SOL     OW25840   3.349   4.273   2.166  0.4595 -0.1400 -0.0348
 4736SOL    HW125841   3.408   4.345   2.147 -1.6778  1.5073 -0.3801
 4736SOL    HW225842   3.286   4.312   2.227  0.2020 -0.8755  0.1729
 4737SOL     OW25843   2.573   3.347   6.273 -0.1359 -0.3041  0.7849
 4737SOL    HW125844   2.575   3.425   6.328  1.3394 -0.9563  1.6693
 4737SOL    HW225845   2.599   3.286   6.342  0.9915 -1.4121 -0.5922
 4738SOL     OW25846   3.102   1.674   3.687 -0.2393 -0.5731  0.1409
 4738SOL    HW125847   3.158   1.656   3.763  2.0765 -0.6586 -1.5930
 4738SOL    HW225848   3.131   1.761   3.662  2.2682 -1.8323 -1.2864
 4739SOL     OW25849   2.703   1.092   6.951  0.4970  0.4516 -0.5134
 4739SOL    HW125850   2.732   1.032   6.882  0.0236 -0.2895 -0.0679
 4739SOL    HW225851   2.620   1.053   6.979 -0.2336  2.0004 -0.5287
 4740SOL     OW25852   3.215   4.618   7.715  0.3998  0.3099 -0.6687
 4740SOL    HW125853   3.150   4.677   7.754  1.9560 -0.0329  2.4293
 4740SOL    HW225854   3.154   4.571   7.659 -0.6983 -0.2738  1.0295
 4741SOL     OW25855   2.925   3.394   5.636  0.6037 -0.5823 -0.0507
 4741SOL    HW125856   2.982   3.382   5.712 -0.6452 -0.4757  0.9186
 4741SOL    HW225857   2.870   3.465   5.671 -1.0779 -1.3141 -1.1777
 4742SOL     OW25858   3.613   0.251   4.031 -0.4741 -0.2604  0.2669
 4742SOL    HW125859   3.595   0.287   3.945  0.8029  0.7938  0.4413
 4742SOL    HW225860   3.682   0.190   4.004  1.0927  1.9110 -0.6294
 4743SOL     OW25861   2.120   1.376   6.044 -0.3324  0.2531 -0.3251
 4743SOL    HW125862   2.060   1.305   6.067  1.1747 -0.3353  1.8024
 4743SOL    HW225863   2.062   1.436   5.998  0.0890  2.0497  1.4911
 4744SOL     OW25864   0.579   1.979   6.355 -0.2709 -0.3954  1.2562
 4744SOL    HW125865   0.486   1.984   6.376 -0.3776 -0.6302  0.8621
 4744SOL    HW225866   0.570   1.971   6.259 -1.3260 -0.6982  1.3736
 4745SOL     OW25867   0.779   2.960   5.950  0.0800 -0.0095 -0.5489
 4745SOL    HW125868   0.821   3.006   6.023 -2.2126  1.6785 -0.3222
 4745SOL    HW225869   0.716   2.904   5.996  1.3124 -0.7121  0.3055
 4746SOL     OW25870   3.913   1.596  17.404  0.1287  0.0818  0.0668
 4746SOL    HW125871   3.997   1.640  17.415 -0.1234  0.3663  0.8949
 4746SOL    HW225872   3.875   1.590  17.492 -2.3125 -0.3877 -1.0055
 4747SOL     OW25873   3.453   0.252   3.191 -0.2414  0.2658 -0.4118
 4747SOL    HW125874   3.368   0.288   3.217  0.7059  0.4085  2.5566
 4747SOL    HW225875   3.427   0.160   3.189  0.9810 -0.1366  1.9347
 4748SOL     OW25876   1.648   4.092   5.275 -0.1029  0.1652  0.5015
 4748SOL    HW125877   1.601   4.011   5.257  2.5341 -1.2926  0.2962
 4748SOL    HW225878   1.637   4.135   5.190 -1.4407  0.2344  0.7119
 4749SOL     OW25879   1.658   4.235   2.288  0.0085  0.1632  0.4677
 4749SOL    HW125880   1.628   4.209   2.201  2.6103  0.9058 -0.6361
 4749SOL    HW225881   1.753   4.235   2.280 -0.1113  1.2162 -1.0174
 4750SOL     OW25882   3.120   1.025   7.951  0.5180 -0.1866 -0.1420
 4750SOL    HW125883   3.118   1.046   7.858  0.6906  0.4690  0.0025
 4750SOL    HW225884   3.034   0.990   7.973  0.3374  0.8957  0.9357
 4751SOL     OW25885   0.247   3.666   9.250  0.2156 -0.1598 -0.2775
 4751SOL    HW125886   0.247   3.577   9.215  0.9498  0.2018 -1.2048
 4751SOL    HW225887   0.286   3.649   9.336 -1.9611  1.0207  0.9277
 4752SOL     OW25888   1.357   4.073   5.425 -0.2205  0.1036  0.3139
 4752SOL    HW125889   1.340   4.077   5.519 -1.1155 -2.2520  0.2626
 4752SOL    HW225890   1.310   4.152   5.399  0.2515  0.6302  1.0921
 4753SOL     OW25891   3.706   2.280   6.649  0.2662 -0.1679 -0.5837
 4753SOL    HW125892   3.681   2.203   6.699 -0.1080  0.1521 -0.2719
 4753SOL    HW225893   3.617   2.308   6.629  0.8654  2.6484  0.6095
 4754SOL     OW25894   2.729   0.385   3.673 -0.1239 -0.3253 -0.4698
 4754SOL    HW125895   2.788   0.332   3.726 -0.5479  0.0774  0.4043
 4754SOL    HW225896   2.795   0.417   3.611 -0.5480  0.1909 -0.6615
 4755SOL     OW25897   2.618   4.132   9.278 -0.1360 -0.0955  0.1767
 4755SOL    HW125898   2.687   4.069   9.301  1.1345 -0.0007 -3.3671
 4755SOL    HW225899   2.574   4.087   9.206 -0.4549 -0.0708  0.3592
 4756SOL     OW25900   4.648   2.169   8.444  0.3284  0.7640  0.3120
 4756SOL    HW125901   4.718   2.103   8.443 -2.0712 -1.7471 -0.6989
 4756SOL    HW225902   4.580   2.105   8.461  0.3580  0.6328 -0.0746
 4757SOL     OW25903   2.456   0.478   2.078 -0.4044 -0.3161  0.1434
 4757SOL    HW125904   2.462   0.573   2.093 -0.3375 -0.0585 -1.4160
 4757SOL    HW225905   2.373   0.486   2.030  0.0688 -0.6337 -0.7325
 4758SOL     OW25906   2.066   3.411   9.592  0.0276 -0.2523 -0.3208
 4758SOL    HW125907   2.119   3.331   9.581  0.1147 -0.4423  1.3969
 4758SOL    HW225908   2.125   3.454   9.655 -1.2599 -1.7978  1.9591
 4759SOL     OW25909   1.874   3.169   9.719  0.2411 -0.3584  0.0962
 4759SOL    HW125910   1.899   3.171   9.812  1.0176  0.0122 -0.1237
 4759SOL    HW225911   1.820   3.090   9.724  0.3707 -0.4640 -0.1639
 4760SOL     OW25912   4.393   0.163  12.506  0.3268  0.2915 -0.0673
 4760SOL    HW125913   4.456   0.161  12.434  1.1599  0.8389  0.6525
 4760SOL    HW225914   4.442   0.170  12.588  0.9281  1.2046 -0.5003
 4761SOL     OW25915   3.477   2.645   7.103  0.3979  0.3850  0.1229
 4761SOL    HW125916   3.507   2.692   7.025 -0.1494  0.6557  0.0758
 4761SOL    HW225917   3.384   2.650   7.081  0.3018  1.3904  0.8061
 4762SOL     OW25918   0.347   0.911  10.524 -0.1142  0.3298  0.3435
 4762SOL    HW125919   0.345   0.891  10.618 -0.5856 -1.3848 -0.0306
 4762SOL    HW225920   0.262   0.954  10.528 -1.7531 -2.7333 -1.6372
 4763SOL     OW25921   1.051   2.596   5.689  0.1800 -0.0074  0.6891
 4763SOL    HW125922   1.050   2.550   5.605 -2.5435  0.2281  0.5960
 4763SOL    HW225923   1.056   2.523   5.751  0.4835 -0.1227  0.5306
 4764SOL     OW25924   3.189   0.780  15.577  0.0722 -0.3023 -0.6058
 4764SOL    HW125925   3.190   0.782  15.673 -1.6293  0.0185 -0.5887
 4764SOL    HW225926   3.192   0.687  15.558 -0.4809 -0.6101  0.8267
 4765SOL     OW25927   2.106   3.119  14.809  0.7236  0.2752  0.0159
 4765SOL    HW125928   2.061   3.163  14.881  0.0595  0.3871 -0.4654
 4765SOL    HW225929   2.152   3.047  14.852  0.6966  0.3532  0.1760
 4766SOL     OW25930   2.265   2.484  12.753 -0.2409  0.1882 -0.6990
 4766SOL    HW125931   2.352   2.456  12.783 -1.1073 -1.5608  0.1993
 4766SOL    HW225932   2.289   2.539  12.679 -1.1643  1.6020  0.0455
 4767SOL     OW25933   0.657   1.070   4.898  0.5800  0.2421 -0.3811
 4767SOL    HW125934   0.565   1.056   4.920  0.8135 -0.3904  0.2161
 4767SOL    HW225935   0.698   0.983   4.891 -1.2217 -0.6917  0.6270
 4768SOL     OW25936   0.871   3.879   7.135 -0.0332 -0.5347  0.1280
 4768SOL    HW125937   0.906   3.961   7.169 -0.3650 -0.4021  0.1494
 4768SOL    HW225938   0.776   3.885   7.130  0.0442  1.2665  0.9360
 4769SOL     OW25939   2.163   2.808   7.942  0.5592 -1.0946  0.4475
 4769SOL    HW125940   2.102   2.835   7.873  1.2991  1.3903  0.7697
 4769SOL    HW225941   2.125   2.860   8.013  1.2677 -0.0793  0.0862
 4770SOL     OW25942   2.138   3.305   4.640 -0.0824  0.6830 -0.5286
 4770SOL    HW125943   2.207   3.302   4.706  0.4651  1.2841 -1.0786
 4770SOL    HW225944   2.148   3.397   4.615 -1.1655  0.7172 -0.8519
 4771SOL     OW25945   2.122   3.996  17.196  0.4361 -0.0098 -0.3244
 4771SOL    HW125946   2.179   3.974  17.122  1.4068 -2.0940  1.0429
 4771SOL    HW225947   2.033   3.994  17.162  0.3876 -2.7491 -0.0197
 4772SOL     OW25948   4.390   0.999   0.216  0.1913  0.1341  0.0882
 4772SOL    HW125949   4.403   1.094   0.214 -0.5976  0.2669  0.8783
 4772SOL    HW225950   4.324   0.986   0.148  0.5542 -2.9957  0.3054
 4773SOL     OW25951   2.013   1.746   9.097 -0.1102 -0.2469 -0.0096
 4773SOL    HW125952   1.937   1.712   9.144 -0.3608  0.1150 -0.1559
 4773SOL    HW225953   1.979   1.770   9.011  1.8284  0.7824 -0.4929
 4774SOL     OW25954   3.462   4.213   8.487 -0.4750 -0.6763 -0.2744
 4774SOL    HW125955   3.535   4.247   8.436 -0.1824 -0.4551  0.2957
 4774SOL    HW225956   3.475   4.119   8.476 -1.7072 -0.9494  0.5051
 4775SOL     OW25957   1.668   4.343   9.548  0.1536  0.4336  0.4318
 4775SOL    HW125958   1.619   4.399   9.488 -3.1909 -1.0227  1.8178
 4775SOL    HW225959   1.757   4.377   9.551 -0.1839  1.3874 -0.4909
 4776SOL     OW25960   0.004   0.475   9.487  0.2128 -0.2485  0.2970
 4776SOL    HW125961   4.679   0.418   9.442  1.9542 -1.1894 -0.9561
 4776SOL    HW225962   0.010   0.437   9.574  1.2735  0.6507  0.6172
 4777SOL     OW25963   0.407   4.324   3.852 -0.4675 -0.1612  0.0571
 4777SOL    HW125964   0.383   4.389   3.917 -0.7478  1.2208 -1.4177
 4777SOL    HW225965   0.400   4.242   3.901  1.1178  0.6142  1.5805
 4778SOL     OW25966   2.412   0.945   8.608  0.0870  0.0385  0.0494
 4778SOL    HW125967   2.494   0.991   8.628 -1.9395  3.5744  0.1618
 4778SOL    HW225968   2.369   0.957   8.692  1.5332  0.2516  0.7546
 4779SOL     OW25969   1.290   4.491   3.805  0.1907  0.1617  0.1456
 4779SOL    HW125970   1.212   4.534   3.839 -1.3965  0.0472 -3.2965
 4779SOL    HW225971   1.270   4.398   3.814  1.6351 -0.1283  0.4571
 4780SOL     OW25972   3.107   2.462   2.108  0.1872 -0.2074 -0.1021
 4780SOL    HW125973   3.143   2.390   2.160  1.9990 -1.6105 -3.2700
 4780SOL    HW225974   3.065   2.414   2.037  0.7123  2.6454 -2.3565
 4781SOL     OW25975   1.711   1.623   3.965 -0.0200 -0.1391 -0.0119
 4781SOL    HW125976   1.656   1.576   3.903 -1.1545  1.9815 -0.5768
 4781SOL    HW225977   1.772   1.553   3.990 -1.4682 -1.8855 -1.3788
 4782SOL     OW25978   3.011   3.429   2.211 -0.3673 -0.0030  0.0325
 4782SOL    HW125979   3.099   3.429   2.172  0.1780 -2.3073  1.2861
 4782SOL    HW225980   2.992   3.523   2.214  0.2705  0.0992  0.8448
 4783SOL     OW25981   2.462   2.346   3.618 -0.7040 -0.3514  0.4852
 4783SOL    HW125982   2.554   2.337   3.645 -0.7558  0.9899  1.1106
 4783SOL    HW225983   2.427   2.282   3.680 -0.2276 -2.6746 -1.6582
 4784SOL     OW25984   4.428   1.311   7.294  0.5266 -0.2077 -0.3087
 4784SOL    HW125985   4.439   1.326   7.388 -0.3220 -0.0789 -0.2340
 4784SOL    HW225986   4.516   1.317   7.255  0.8277 -3.5541 -0.1094
 4785SOL     OW25987   1.404   4.449   0.317  0.5473  0.0557 -0.4792
 4785SOL    HW125988   1.461   4.487   0.249  0.7412 -0.4615 -0.6023
 4785SOL    HW225989   1.383   4.535   0.355 -1.1096  0.0445 -1.3949
 4786SOL     OW25990   2.614   0.150  10.373  0.5365  0.0122  0.3334
 4786SOL    HW125991   2.543   0.187  10.425  0.1591  1.2282 -1.0397
 4786SOL    HW225992   2.625   0.058  10.399 -3.3260 -0.1327  1.4654
 4787SOL     OW25993   0.141   4.642   3.650  0.2505  0.4578 -0.1390
 4787SOL    HW125994   0.160   4.716   3.708  0.7527  1.0787 -1.0884
 4787SOL    HW225995   0.127   4.687   3.567 -0.1238  1.1334  0.2870
 4788SOL     OW25996   2.535   2.908   2.806 -0.2339 -0.1790 -0.6113
 4788SOL    HW125997   2.565   2.879   2.720 -1.3451 -0.1525 -1.0117
 4788SOL    HW225998   2.543   3.003   2.797  2.7939 -0.4871 -1.1129
 4789SOL     OW25999   4.149   3.386  15.523  0.2541 -0.7715  0.3075
 4789SOL    HW126000   4.084   3.324  15.556 -0.6320 -0.0876 -0.1501
 4789SOL    HW226001   4.228   3.371  15.576 -1.1568 -2.6237  1.8814
 4790SOL     OW26002   3.958   4.348   2.771 -0.2349  0.1895 -0.4504
 4790SOL    HW126003   3.926   4.258   2.779 -0.1123  0.0797 -1.2233
 4790SOL    HW226004   3.910   4.397   2.838 -1.4368 -2.0398  0.2831
 4791SOL     OW26005   3.063   2.066  17.209 -0.3781  1.0246 -0.2398
 4791SOL    HW126006   3.033   2.147  17.168  1.8139  1.4217 -1.0759
 4791SOL    HW226007   3.134   2.093  17.267 -0.6678 -0.1227  0.6342
 4792SOL     OW26008   2.565   2.973   6.055 -0.6610 -0.1815  0.0474
 4792SOL    HW126009   2.634   2.962   6.121 -1.3027 -1.4110  0.5119
 4792SOL    HW226010   2.509   2.901   6.084 -1.4271  0.2433 -0.3783
 4793SOL     OW26011   3.422   1.049   4.310  0.2333  0.2417 -0.2421
 4793SOL    HW126012   3.414   1.145   4.309 -0.7986  0.1639  0.5462
 4793SOL    HW226013   3.431   1.026   4.403  0.8473  0.3901 -0.2640
 4794SOL     OW26014   3.945   0.063  14.457  0.2862  0.3459  0.3879
 4794SOL    HW126015   3.879   4.731  14.461 -1.3105  1.7692 -0.7109
 4794SOL    HW226016   4.019   0.003  14.464 -1.8216 -2.3882 -0.5924
 4795SOL     OW26017   0.901   4.417   5.508 -0.5154  0.4489 -0.2061
 4795SOL    HW126018   0.807   4.419   5.492 -0.6505 -0.7304  0.3875
 4795SOL    HW226019   0.934   4.500   5.474  0.4355  0.8335  1.6438
 4796SOL     OW26020   2.709   1.784   3.415 -0.3993 -0.5964  0.1525
 4796SOL    HW126021   2.769   1.857   3.406 -0.2844 -0.6970  0.1017
 4796SOL    HW226022   2.752   1.724   3.477  2.2112 -0.6746 -1.7632
 4797SOL     OW26023   0.100   0.845   5.056 -0.0390 -0.3246 -0.1296
 4797SOL    HW126024   0.039   0.917   5.073  0.2876  0.1108 -0.7849
 4797SOL    HW226025   0.144   0.895   4.987 -1.0349 -0.2525 -0.7028
 4798SOL     OW26026   0.563   3.821   9.536 -0.0067 -0.0746  0.4257
 4798SOL    HW126027   0.653   3.850   9.525 -0.4208  0.5686 -1.3022
 4798SOL    HW226028   0.529   3.865   9.458  1.8481  1.4980  0.5232
 4799SOL     OW26029   0.397   3.766   4.654  0.9628 -0.2893 -0.6666
 4799SOL    HW126030   0.375   3.676   4.631 -4.0853  1.0207 -1.0726
 4799SOL    HW226031   0.402   3.795   4.563  2.2913  0.9046 -0.2219
 4800SOL     OW26032   3.161   0.331   5.907 -0.1364  0.3851  0.0830
 4800SOL    HW126033   3.207   0.373   5.981 -2.0675  2.7476 -0.0631
 4800SOL    HW226034   3.107   0.270   5.958  0.8803  0.7200  1.5712
 4801SOL     OW26035   2.757   0.040  16.470 -0.3474 -0.2005  0.3583
 4801SOL    HW126036   2.809   0.043  16.390  0.1857  0.9369  0.7453
 4801SOL    HW226037   2.673   0.034  16.425  0.8185 -2.4516 -1.5754
 4802SOL     OW26038   3.694   2.972   7.544 -0.5527 -0.1878 -0.1032
 4802SOL    HW126039   3.711   3.064   7.522 -0.7883 -0.0393  0.3459
 4802SOL    HW226040   3.733   2.965   7.631 -3.8336 -1.1523  1.2830
 4803SOL     OW26041   3.282   4.357   5.293  0.1797  0.0208  0.2480
 4803SOL    HW126042   3.188   4.366   5.278 -0.2475  1.3393  3.6349
 4803SOL    HW226043   3.284   4.318   5.380 -0.3959 -2.4802 -0.8576
 4804SOL     OW26044   2.190   0.348   4.888  0.6886 -0.1004 -0.1340
 4804SOL    HW126045   2.117   0.382   4.838 -0.9567 -2.8979  0.3854
 4804SOL    HW226046   2.233   0.432   4.906 -0.6700  0.1567  1.8829
 4805SOL     OW26047   1.178   2.390   4.748  0.2760 -0.1428  0.1400
 4805SOL    HW126048   1.200   2.304   4.713  0.5191  0.7137 -1.7792
 4805SOL    HW226049   1.096   2.365   4.790 -1.4553  1.6442 -2.1615
 4806SOL     OW26050   0.175   0.471   9.717 -0.1390 -0.1383 -0.0113
 4806SOL    HW126051   0.173   0.563   9.689  1.9081  0.0210  0.3550
 4806SOL    HW226052   0.270   0.459   9.727  0.0019  0.9756  0.0836
 4807SOL     OW26053   1.382   1.129  13.524 -0.1258  0.3051 -0.1074
 4807SOL    HW126054   1.434   1.157  13.599  0.2150 -1.3731  0.2833
 4807SOL    HW226055   1.439   1.148  13.449 -1.2064 -1.7682 -1.4443
 4808SOL     OW26056   3.485   0.740   5.596 -0.7796  0.9927  0.1076
 4808SOL    HW126057   3.546   0.696   5.655  0.2051 -0.1040 -1.7192
 4808SOL    HW226058   3.512   0.831   5.606  0.1732  0.6876  0.3298
 4809SOL     OW26059   1.833   4.635   0.248  0.1741  0.0242 -0.1899
 4809SOL    HW126060   1.809   4.631   0.155  2.3919 -1.4471 -0.7094
 4809SOL    HW226061   1.855   4.545   0.268  1.2485  0.2105 -0.5425
 4810SOL     OW26062   0.562   0.083  16.414 -0.3446  0.6784  0.2145
 4810SOL    HW126063   0.520   0.057  16.332 -1.8327  0.9219  0.9034
 4810SOL    HW226064   0.499   0.150  16.441 -1.5490  0.1956 -1.3819
 4811SOL     OW26065   0.766   1.148   6.595  0.0313  0.2587 -0.9222
 4811SOL    HW126066   0.803   1.104   6.672  0.5369 -0.7182 -1.7308
 4811SOL    HW226067   0.832   1.111   6.537  0.2701  0.2069 -0.6179
 4812SOL     OW26068   3.775   0.316   9.384  0.0255 -0.7914  0.1105
 4812SOL    HW126069   3.837   0.387   9.399  1.4497 -1.7417 -1.3062
 4812SOL    HW226070   3.766   0.309   9.289  0.0944  2.4113 -0.1375
 4813SOL     OW26071   2.254   4.349   2.250 -0.8386  0.3354  0.1327
 4813SOL    HW126072   2.276   4.316   2.162 -1.3942 -3.3649  1.3681
 4813SOL    HW226073   2.200   4.423   2.223 -0.7687 -0.1588 -1.3860
 4814SOL     OW26074   0.966   3.400   5.885 -0.1850  0.4648  0.1338
 4814SOL    HW126075   0.954   3.305   5.890  2.6939  0.2357  2.4132
 4814SOL    HW226076   1.053   3.409   5.847  0.3815 -0.2569  1.2522
 4815SOL     OW26077   2.523   4.474   7.109  0.2607 -0.1564  0.3099
 4815SOL    HW126078   2.528   4.474   7.205  0.2307  0.5816  0.3075
 4815SOL    HW226079   2.617   4.467   7.093  0.1514 -1.8494  0.3479
 4816SOL     OW26080   0.587   4.244  16.968 -0.3503  0.1088 -0.0453
 4816SOL    HW126081   0.518   4.179  16.957  1.0519 -1.3177 -0.4262
 4816SOL    HW226082   0.666   4.196  16.942 -1.5405 -2.4305  1.0214
 4817SOL     OW26083   0.280   4.277   5.832  0.3798 -0.2854  0.1378
 4817SOL    HW126084   0.268   4.355   5.886 -1.5311 -0.8523  0.5281
 4817SOL    HW226085   0.367   4.290   5.794  0.0397 -1.3033 -0.9767
 4818SOL     OW26086   0.552   2.783   6.491 -0.3984 -0.5480 -0.7177
 4818SOL    HW126087   0.539   2.696   6.529 -2.4862 -0.6696 -1.7086
 4818SOL    HW226088   0.588   2.758   6.406 -0.1070 -0.1564 -0.7088
 4819SOL     OW26089   3.514   1.819   8.371 -0.6088 -0.1757 -0.2610
 4819SOL    HW126090   3.522   1.749   8.307  0.4395 -2.7696  2.6896
 4819SOL    HW226091   3.605   1.846   8.371 -1.0800  1.3999 -0.8017
 4820SOL     OW26092   0.466   1.326   0.340  0.4379 -0.2909  0.7102
 4820SOL    HW126093   0.529   1.292   0.404 -0.7723 -1.0416  1.5208
 4820SOL    HW226094   0.500   1.293   0.257  0.4722  0.5448  0.3978
 4821SOL     OW26095   0.541   3.918   0.038  0.1501  0.0070 -0.1879
 4821SOL    HW126096   0.517   3.899  17.697  3.9851 -0.8572 -0.9882
 4821SOL    HW226097   0.577   3.836   0.071  0.2690  1.2562  2.8062
 4822SOL     OW26098   1.807   2.498   4.435  0.1691  0.1203 -0.1927
 4822SOL    HW126099   1.892   2.456   4.419 -0.2295 -0.7525 -0.0148
 4822SOL    HW226100   1.754   2.418   4.429 -0.0218  0.2182  0.2567
 4823SOL     OW26101   3.731   2.066   4.581  0.1796  0.1985 -0.2274
 4823SOL    HW126102   3.686   2.148   4.559 -1.0233 -0.6753 -1.0721
 4823SOL    HW226103   3.755   2.087   4.671  0.2543  1.0753 -0.4526
 4824SOL     OW26104   1.765   3.950  11.611 -0.9315  0.8439 -0.0535
 4824SOL    HW126105   1.706   4.012  11.654  1.3898  1.2997  2.4575
 4824SOL    HW226106   1.721   3.866  11.629  0.6221  0.0749  0.1628
 4825SOL     OW26107   0.887   1.605   7.148  0.0258  0.3146 -0.4808
 4825SOL    HW126108   0.856   1.580   7.061  1.8595 -0.7059 -0.8628
 4825SOL    HW226109   0.837   1.686   7.147  2.7459  1.9766 -0.3908
 4826SOL     OW26110   3.413   1.221   8.038 -0.0657  0.4261  0.4192
 4826SOL    HW126111   3.448   1.295   8.088  0.5214 -1.0092  2.1185
 4826SOL    HW226112   3.429   1.252   7.948  4.9034 -2.8800  0.1792
 4827SOL     OW26113   2.725   1.770   2.204 -0.3316 -0.0293  0.1322
 4827SOL    HW126114   2.750   1.860   2.183  1.6119 -0.6554 -0.2310
 4827SOL    HW226115   2.738   1.766   2.299  1.0071  0.6796 -0.0193
 4828SOL     OW26116   4.375   1.401   4.882 -0.0216  0.0594 -0.4066
 4828SOL    HW126117   4.326   1.379   4.803  0.6189  2.0281 -1.3354
 4828SOL    HW226118   4.367   1.496   4.873  1.1015  0.3396  1.5718
 4829SOL     OW26119   1.747   3.741   6.220  0.9456 -0.5231 -0.0443
 4829SOL    HW126120   1.718   3.831   6.208 -0.8874 -1.2408 -0.9842
 4829SOL    HW226121   1.842   3.752   6.215  1.0156 -1.1951 -0.2162
 4830SOL     OW26122   2.946   1.778  15.270 -0.6103 -0.3754 -0.3673
 4830SOL    HW126123   2.920   1.740  15.186 -0.3681 -2.2206  0.3805
 4830SOL    HW226124   2.914   1.717  15.337  1.3625 -0.0091  0.9101
 4831SOL     OW26125   2.416   4.342  16.152 -0.2331  0.5490  0.0397
 4831SOL    HW126126   2.409   4.360  16.058 -0.8364  1.2824  0.2228
 4831SOL    HW226127   2.417   4.247  16.160  1.6013  0.4024 -1.9140
 4832SOL     OW26128   2.032   0.667   5.357 -0.0373  0.3759  0.0245
 4832SOL    HW126129   2.056   0.754   5.325 -0.7205  0.8639  0.8343
 4832SOL    HW226130   1.945   0.669   5.318 -0.6838 -1.4799  1.3546
 4833SOL     OW26131   4.004   3.781   3.338  0.2629  0.2186 -0.1334
 4833SOL    HW126132   3.976   3.800   3.428  0.2752 -0.4706  0.0168
 4833SOL    HW226133   3.932   3.821   3.290  1.2438  1.1229 -0.8513
 4834SOL     OW26134   2.735   1.801   6.678 -0.0292 -0.2636  0.0858
 4834SOL    HW126135   2.693   1.868   6.624  0.0473 -0.2153  0.0856
 4834SOL    HW226136   2.757   1.864   6.747  0.6032 -0.6918  0.2802
 4835SOL     OW26137   3.221   1.134  16.167 -0.2911  0.2681  0.6880
 4835SOL    HW126138   3.197   1.226  16.182  0.5360  0.5655  0.2049
 4835SOL    HW226139   3.157   1.091  16.224  0.1884 -0.2348  0.8421
 4836SOL     OW26140   3.498   1.766  14.216 -0.5181 -0.2047 -0.2773
 4836SOL    HW126141   3.452   1.733  14.139 -0.6044 -2.4859  0.7471
 4836SOL    HW226142   3.434   1.742  14.283 -1.2142 -1.0676 -1.2447
 4837SOL     OW26143   2.461   1.034   6.109 -0.1996  0.0585  0.4529
 4837SOL    HW126144   2.438   1.079   6.190 -2.1833  1.2028 -0.7703
 4837SOL    HW226145   2.404   1.079   6.048 -0.2614  1.6801  1.6971
 4838SOL     OW26146   1.527   4.489   4.161  0.2582 -0.0265 -0.5823
 4838SOL    HW126147   1.574   4.417   4.118  2.8945  1.1951  0.2395
 4838SOL    HW226148   1.542   4.552   4.091 -0.0945 -0.3568 -0.9554
 4839SOL     OW26149   2.007   4.364   5.420 -0.4755 -0.5484 -0.1064
 4839SOL    HW126150   2.090   4.324   5.448 -0.6169  1.5028  3.2539
 4839SOL    HW226151   1.944   4.299   5.452 -0.9818  0.9938  2.0494
 4840SOL     OW26152   0.705   4.174   5.386  0.4453 -0.1430  0.1725
 4840SOL    HW126153   0.660   4.097   5.422 -0.5404 -0.0368 -0.8217
 4840SOL    HW226154   0.693   4.233   5.460 -0.6167 -0.5883  0.3585
 4841SOL     OW26155   3.939   1.067   2.716  0.9726  0.4829 -0.1523
 4841SOL    HW126156   4.009   1.122   2.679  0.8427  0.4544 -0.4422
 4841SOL    HW226157   3.882   1.040   2.644 -0.4343 -2.6035  2.1357
 4842SOL     OW26158   1.942   1.466   7.863 -0.3692 -0.2484 -0.5940
 4842SOL    HW126159   2.027   1.422   7.866 -1.1492 -1.5796  1.4085
 4842SOL    HW226160   1.912   1.464   7.954 -0.4650  0.0236 -0.6195
 4843SOL     OW26161   4.679   4.172   5.423 -0.2258  0.1606 -0.1233
 4843SOL    HW126162   4.644   4.205   5.340 -0.6633  0.4717  0.1813
 4843SOL    HW226163   4.634   4.225   5.489  0.0008 -1.5008  1.3455
 4844SOL     OW26164   0.488   2.540  16.763  0.0960  0.8442 -0.3888
 4844SOL    HW126165   0.584   2.545  16.767  0.0184  0.3986  1.8586
 4844SOL    HW226166   0.473   2.456  16.807 -2.9999  2.0019  0.7565
 4845SOL     OW26167   1.932   2.951   7.839 -0.1791  0.1365  0.6908
 4845SOL    HW126168   1.910   2.998   7.758 -1.4028  0.1174  1.0023
 4845SOL    HW226169   1.948   3.022   7.900  0.8273 -0.6793  1.3752
 4846SOL     OW26170   4.271   3.004   6.899  0.1530 -0.3776 -0.8036
 4846SOL    HW126171   4.224   2.996   6.816 -1.1479  1.0609 -0.2037
 4846SOL    HW226172   4.204   2.970   6.959  0.2795 -2.8105 -2.0297
 4847SOL     OW26173   3.765   2.134   8.504  0.2692 -0.5751 -0.3869
 4847SOL    HW126174   3.689   2.167   8.456 -1.0737  1.0853  2.8005
 4847SOL    HW226175   3.742   2.159   8.594 -0.1643  0.1256 -0.6886
 4848SOL     OW26176   2.869   2.708  12.381 -0.2452  0.4212  0.7652
 4848SOL    HW126177   2.776   2.687  12.373 -0.5446  0.8992  2.7854
 4848SOL    HW226178   2.884   2.709  12.476 -2.1703  1.7099  1.0568
 4849SOL     OW26179   2.636   4.082   5.268 -0.0773 -0.6069 -0.2680
 4849SOL    HW126180   2.650   4.174   5.244  3.6995 -1.3403 -0.8779
 4849SOL    HW226181   2.605   4.094   5.358 -0.0973 -0.0213 -0.3528
 4850SOL     OW26182   0.200   1.459   6.217  0.2046 -0.1702 -0.1356
 4850SOL    HW126183   0.194   1.555   6.222  0.8592 -0.1956  1.3055
 4850SOL    HW226184   0.146   1.443   6.294  0.0085  1.1598  0.0046
 4851SOL     OW26185   1.567   1.174  16.697  0.0676  0.0104  0.5288
 4851SOL    HW126186   1.593   1.264  16.677 -0.5547  0.0830  0.0243
 4851SOL    HW226187   1.550   1.194  16.789  1.3960 -0.3521  0.8545
 4852SOL     OW26188   3.843   4.125  17.182 -0.2536 -0.1165 -0.5195
 4852SOL    HW126189   3.787   4.085  17.116 -0.4149 -2.6367  1.1183
 4852SOL    HW226190   3.821   4.218  17.172 -3.8670 -0.8896  0.2431
 4853SOL     OW26191   3.976   2.899   5.172 -0.0174 -0.4854  0.0574
 4853SOL    HW126192   3.923   2.948   5.235  2.3134 -0.6374  2.1607
 4853SOL    HW226193   4.012   2.826   5.222  0.9596  1.0017  1.5583
 4854SOL     OW26194   4.677   2.729   7.896  0.3937  0.2204  0.1685
 4854SOL    HW126195   0.017   2.781   7.912  1.7748 -1.8683  0.1967
 4854SOL    HW226196   4.657   2.754   7.806  0.8752  0.0947  0.0317
 4855SOL     OW26197   1.681   2.936   9.416  0.2594 -0.6133 -0.1925
 4855SOL    HW126198   1.656   2.916   9.326 -0.0241 -0.9959 -0.0286
 4855SOL    HW226199   1.707   3.026   9.434  0.6956 -0.7080 -0.3490
 4856SOL     OW26200   2.238   4.345  13.830 -0.2233 -0.0108 -0.2125
 4856SOL    HW126201   2.252   4.252  13.847 -0.6638  0.0597  0.5011
 4856SOL    HW226202   2.323   4.388  13.837  0.6147 -2.2497  3.0300
 4857SOL     OW26203   0.524   1.407   8.935 -0.5341  0.7629  0.1805
 4857SOL    HW126204   0.528   1.316   8.965  0.3871  1.2623  1.5795
 4857SOL    HW226205   0.537   1.454   9.018  0.4150 -0.9835  1.0222
 4858SOL     OW26206   0.712   0.440   4.153  0.4784  0.3560 -0.1802
 4858SOL    HW126207   0.732   0.486   4.234  1.1838 -0.9020  0.3698
 4858SOL    HW226208   0.618   0.450   4.142  0.0226 -1.3475  2.1078
 4859SOL     OW26209   3.282   3.989   3.770 -0.2871  0.3720 -0.4896
 4859SOL    HW126210   3.204   3.934   3.770 -0.4446  0.5959 -0.9243
 4859SOL    HW226211   3.246   4.077   3.781 -0.2518  0.2454  0.5747
 4860SOL     OW26212   4.256   0.819   2.075  0.3035 -0.2647  0.2509
 4860SOL    HW126213   4.322   0.761   2.035  2.4082  3.8873 -2.2829
 4860SOL    HW226214   4.310   0.894   2.098  0.4713 -0.7878  1.5468
 4861SOL     OW26215   1.528   3.476   8.069 -0.2660  0.0815 -0.8850
 4861SOL    HW126216   1.461   3.485   8.138 -1.7995 -1.6980 -2.1565
 4861SOL    HW226217   1.571   3.398   8.103  0.7424  0.5497 -1.0913
 4862SOL     OW26218   3.406   3.582   4.683 -0.3390 -0.1104  0.4193
 4862SOL    HW126219   3.326   3.533   4.699  1.7603 -3.2539  1.4619
 4862SOL    HW226220   3.452   3.554   4.762  0.8365 -1.1998 -0.6437
 4863SOL     OW26221   0.509   3.696   6.429 -0.0945 -0.9022  0.4108
 4863SOL    HW126222   0.464   3.766   6.382  1.2598  0.4195  1.0853
 4863SOL    HW226223   0.478   3.613   6.393 -0.9877 -0.5927  0.4517
 4864SOL     OW26224   3.059   2.231  15.244  0.6749  0.0812  0.0152
 4864SOL    HW126225   3.063   2.297  15.314  0.3656 -1.5256  1.5435
 4864SOL    HW226226   3.143   2.249  15.204  1.0626 -0.3869  0.6191
 4865SOL     OW26227   0.294   4.623   6.425  0.8664  0.4329 -0.1253
 4865SOL    HW126228   0.341   4.585   6.499 -0.8973  1.1305  1.3478
 4865SOL    HW226229   0.308   4.565   6.351 -0.5955  0.6833 -0.5824
 4866SOL     OW26230   3.397   1.335   9.297  0.0169 -0.0834  0.3132
 4866SOL    HW126231   3.339   1.411   9.285 -0.1798  0.0549  2.0872
 4866SOL    HW226232   3.335   1.262   9.294 -0.6045  0.4861 -0.6598
 4867SOL     OW26233   3.539   4.347   3.987 -0.2009 -0.3463 -0.2129
 4867SOL    HW126234   3.606   4.327   3.921 -0.4146 -0.6367 -0.3408
 4867SOL    HW226235   3.560   4.288   4.059 -0.3298  2.1629  1.8524
 4868SOL     OW26236   0.244   3.334   7.716 -0.1472  0.2893  0.2485
 4868SOL    HW126237   0.237   3.427   7.740  0.0825  0.7610 -1.4712
 4868SOL    HW226238   0.237   3.339   7.620  0.2735 -1.1006  0.1505
 4869SOL     OW26239   0.065   3.585   2.925  0.6449 -0.0662  0.1675
 4869SOL    HW126240   0.051   3.554   3.014 -0.2797  0.5972  0.2489
 4869SOL    HW226241   0.073   3.678   2.943  1.9410  0.0878 -1.1849
 4870SOL     OW26242   2.845   1.832   8.420 -0.6880 -0.3418  0.2487
 4870SOL    HW126243   2.914   1.765   8.423 -0.8952 -0.6496 -1.3602
 4870SOL    HW226244   2.890   1.911   8.449 -0.0571 -1.1243  1.3790
 4871SOL     OW26245   4.674   2.259  17.442  0.6209  0.6178 -0.4701
 4871SOL    HW126246   4.600   2.206  17.471 -0.4939  1.5166 -1.7016
 4871SOL    HW226247   4.638   2.345  17.462  0.2308  0.1361  0.9390
 4872SOL     OW26248   2.696   2.250  17.658 -0.3094  0.3851 -0.2184
 4872SOL    HW126249   2.636   2.268  17.586 -0.3732  1.6712  0.1695
 4872SOL    HW226250   2.730   2.338  17.675  1.8159  0.1155 -3.0060
 4873SOL     OW26251   4.547   3.708  10.146 -0.2495 -0.3131 -0.4377
 4873SOL    HW126252   4.632   3.699  10.189  0.1607  1.6754 -0.8088
 4873SOL    HW226253   4.492   3.646  10.192  1.7950  0.6443  3.2937
 4874SOL     OW26254   2.394   1.641   3.887  0.3078  0.2578  0.7461
 4874SOL    HW126255   2.429   1.649   3.976 -1.1255  1.9902  1.1642
 4874SOL    HW226256   2.450   1.705   3.843 -0.5359  0.2476 -0.3410
 4875SOL     OW26257   1.761   4.521   6.034  0.2899  0.1412 -0.2527
 4875SOL    HW126258   1.778   4.468   6.112 -2.9274 -0.0219  0.3387
 4875SOL    HW226259   1.843   4.571   6.036  2.0349 -2.7714 -0.1811
 4876SOL     OW26260   3.218   2.835   1.174 -0.2709 -0.0955 -0.3022
 4876SOL    HW126261   3.145   2.775   1.160 -0.9298  0.3105  1.3973
 4876SOL    HW226262   3.291   2.780   1.201  0.4098  1.3133  0.7220
 4877SOL     OW26263   4.664   0.429   7.614 -0.0483 -0.3898 -0.1281
 4877SOL    HW126264   4.578   0.387   7.618 -1.2875  2.1991  0.8566
 4877SOL    HW226265   4.699   0.381   7.539  0.2721  0.3921 -0.4791
 4878SOL     OW26266   3.167   1.955  15.239 -0.3709  0.4006  0.0659
 4878SOL    HW126267   3.109   2.031  15.238 -0.3497  0.4231  1.1344
 4878SOL    HW226268   3.104   1.896  15.281 -1.1358  1.4807  0.4360
 4879SOL     OW26269   3.793   1.497   3.283 -0.1762  0.0573  0.5787
 4879SOL    HW126270   3.759   1.460   3.364  0.8209  0.2896  1.1031
 4879SOL    HW226271   3.880   1.529   3.307 -0.2678  1.2500 -0.6415
 4880SOL     OW26272   1.634   3.599   9.685  0.5914  0.1506 -1.1720
 4880SOL    HW126273   1.549   3.560   9.665  0.3085  0.3432 -0.3600
 4880SOL    HW226274   1.693   3.526   9.663 -1.8656 -2.0748 -0.3485
 4881SOL     OW26275   1.930   2.732  17.349  0.4335  0.2679 -0.3876
 4881SOL    HW126276   1.894   2.820  17.363  0.3134 -0.0867  1.5640
 4881SOL    HW226277   1.946   2.714  17.257 -0.3341 -0.4330 -0.3881
 4882SOL     OW26278   4.546   2.887   4.850  0.2113  0.6339 -0.3317
 4882SOL    HW126279   4.487   2.852   4.917 -0.0635  0.1327 -0.8409
 4882SOL    HW226280   4.629   2.867   4.894 -0.6783  0.0102  1.0698
 4883SOL     OW26281   0.821   4.229   2.259  0.1709  0.1433 -0.2427
 4883SOL    HW126282   0.864   4.311   2.234 -1.2402  0.8333 -0.3627
 4883SOL    HW226283   0.733   4.252   2.287 -0.5847 -1.0403 -1.7164
 4884SOL     OW26284   1.449   1.726   6.500 -0.4310  0.0909 -0.3391
 4884SOL    HW126285   1.415   1.789   6.564  2.4491 -0.4166  1.6950
 4884SOL    HW226286   1.384   1.722   6.430 -1.0334  0.6662  0.1915
 4885SOL     OW26287   0.375   1.863   3.674 -0.1099 -0.1191  0.2075
 4885SOL    HW126288   0.461   1.836   3.642 -0.3754  0.8080 -1.3346
 4885SOL    HW226289   0.310   1.834   3.609  0.1915 -2.4905  1.0003
 4886SOL     OW26290   0.398   4.598  13.536 -0.1990 -0.5754 -0.4293
 4886SOL    HW126291   0.445   4.587  13.619 -1.0175 -2.4684 -0.2205
 4886SOL    HW226292   0.417   4.686  13.503  1.2749  0.2360  2.5545
 4887SOL     OW26293   0.395   2.128  16.787  0.2286 -0.0446 -0.9960
 4887SOL    HW126294   0.328   2.075  16.830 -0.2231  2.0540  0.8767
 4887SOL    HW226295   0.393   2.203  16.847  2.1967 -0.9183  0.1819
 4888SOL     OW26296   0.574   2.903   7.808  0.1024 -0.5576  0.0357
 4888SOL    HW126297   0.653   2.909   7.754 -0.0580 -0.4430 -0.1852
 4888SOL    HW226298   0.556   2.994   7.833  0.8027 -0.8805  1.7149
 4889SOL     OW26299   2.911   4.246   6.996  0.3574  0.1877 -0.7144
 4889SOL    HW126300   2.891   4.335   7.025  0.1244 -0.4893  1.2212
 4889SOL    HW226301   2.965   4.219   7.070 -0.1687  0.8421 -0.0900
 4890SOL     OW26302   3.799   3.098   0.572  0.5298  0.1782 -0.1142
 4890SOL    HW126303   3.736   3.049   0.626  1.0845  0.6979  0.9918
 4890SOL    HW226304   3.767   3.187   0.584 -0.9725 -0.4251  0.3837
 4891SOL     OW26305   0.512   3.612   6.037  0.6292 -1.0877 -1.2606
 4891SOL    HW126306   0.591   3.560   6.022  0.3798 -1.6793 -0.5181
 4891SOL    HW226307   0.543   3.702   6.028 -0.4765 -0.4255  1.4674
 4892SOL     OW26308   1.949   1.694  11.209 -0.6911 -0.4338  0.3533
 4892SOL    HW126309   1.936   1.717  11.117  0.3346  1.4662  0.6842
 4892SOL    HW226310   2.029   1.643  11.203 -0.7341 -0.6251  1.4705
 4893SOL     OW26311   0.237   1.264   6.030  0.3866 -0.0020 -0.2850
 4893SOL    HW126312   0.235   1.334   6.095 -2.8785  0.0412 -0.4393
 4893SOL    HW226313   0.311   1.292   5.977  0.7361  0.5052  0.4670
 4894SOL     OW26314   1.598   2.926   1.969  0.1762  0.1137 -0.2099
 4894SOL    HW126315   1.599   3.011   1.925  2.1116  0.8807  1.3297
 4894SOL    HW226316   1.637   2.955   2.051 -0.1454  0.3328 -0.1343
 4895SOL     OW26317   2.176   0.135   5.128 -0.2610 -0.6333  0.4180
 4895SOL    HW126318   2.148   0.147   5.219  1.9562  0.4625  0.9633
 4895SOL    HW226319   2.130   0.211   5.094  3.1906  0.1570 -2.5356
 4896SOL     OW26320   0.262   3.945   9.146  0.4398  0.1342  0.2040
 4896SOL    HW126321   0.310   3.938   9.064 -0.3940 -1.9439 -0.1108
 4896SOL    HW226322   0.245   3.853   9.165  0.7855 -0.1947 -1.0534
 4897SOL     OW26323   2.479   1.772   6.518  0.4564 -0.6296  0.0608
 4897SOL    HW126324   2.457   1.865   6.507 -1.4634 -1.0217  0.5850
 4897SOL    HW226325   2.527   1.752   6.438 -0.0335  1.3288 -0.7351
 4898SOL     OW26326   2.791   1.060   2.020  0.2222 -0.0191 -0.3871
 4898SOL    HW126327   2.721   1.041   1.958 -0.2693 -1.2043  0.5212
 4898SOL    HW226328   2.786   1.153   2.042  1.1507  0.0876 -0.6005
 4899SOL     OW26329   1.645   4.199   3.628  0.5276  0.5349 -0.5400
 4899SOL    HW126330   1.600   4.282   3.613 -0.7864 -0.1037 -0.1731
 4899SOL    HW226331   1.717   4.229   3.683 -0.5242  1.6696  0.2220
 4900SOL     OW26332   1.405   1.586   9.010 -0.2314  0.2191  0.0555
 4900SOL    HW126333   1.317   1.622   8.995 -0.1664  0.0289 -0.8162
 4900SOL    HW226334   1.439   1.578   8.921 -1.7359  0.8889 -0.5928
 4901SOL     OW26335   4.724   3.940   6.515 -0.1055 -0.2260  0.5916
 4901SOL    HW126336   0.019   3.887   6.442  0.8601  0.2080  0.7110
 4901SOL    HW226337   0.053   3.926   6.581  0.3000  0.9218  0.4249
 4902SOL     OW26338   4.203   1.307   5.947  0.2296 -0.3903  0.5411
 4902SOL    HW126339   4.257   1.233   5.921  0.6629  0.3035 -0.5222
 4902SOL    HW226340   4.268   1.377   5.934 -2.0813  1.9419  1.4349
 4903SOL     OW26341   2.789   0.096   8.719 -0.9104 -0.1708 -0.2413
 4903SOL    HW126342   2.791   0.062   8.808 -0.7973 -2.2595 -1.0393
 4903SOL    HW226343   2.856   0.164   8.726 -0.0530 -1.3636  3.2626
 4904SOL     OW26344   3.929   3.094   0.128 -0.3782  0.4454  0.3634
 4904SOL    HW126345   3.954   3.058   0.213  1.7087 -3.3304 -1.8598
 4904SOL    HW226346   3.850   3.144   0.151 -0.0684  0.9492  0.3357
 4905SOL     OW26347   4.272   2.906   0.241  0.0665 -0.1335 -0.2609
 4905SOL    HW126348   4.359   2.900   0.202  0.2248  2.4304 -0.3152
 4905SOL    HW226349   4.227   2.838   0.191  0.7748  0.7158 -2.0695
 4906SOL     OW26350   2.099   0.723   4.582 -0.3696 -0.1010 -0.2829
 4906SOL    HW126351   2.090   0.817   4.599 -3.3124 -0.2400 -1.1364
 4906SOL    HW226352   2.141   0.734   4.497 -1.2751 -0.0667 -0.7217
 4907SOL     OW26353   1.416   1.353   5.310 -0.3231 -0.4615 -0.3593
 4907SOL    HW126354   1.430   1.292   5.237 -0.3430 -1.3246  0.3687
 4907SOL    HW226355   1.390   1.297   5.383 -3.1310  1.4434  0.0685
 4908SOL     OW26356   0.103   2.437   1.971 -0.5720  0.9312  0.2594
 4908SOL    HW126357   0.184   2.391   1.947 -1.4059 -0.4673  0.1273
 4908SOL    HW226358   0.071   2.480   1.892 -0.2567 -1.5430 -1.1999
 4909SOL     OW26359   2.556   0.095   6.851  0.0734 -0.3899 -0.4118
 4909SOL    HW126360   2.530   0.078   6.761 -1.8111 -0.2685  0.0962
 4909SOL    HW226361   2.524   0.183   6.868 -1.3709 -1.4643  2.6002
 4910SOL     OW26362   0.347   1.903   4.748  0.7343 -0.1687  0.5350
 4910SOL    HW126363   0.327   1.810   4.734  1.2350 -0.4486  1.6223
 4910SOL    HW226364   0.421   1.923   4.691  1.2970 -2.0392  0.6016
 4911SOL     OW26365   2.241   4.109   5.637 -0.4393  0.8565  0.1381
 4911SOL    HW126366   2.152   4.137   5.659 -0.8071 -0.4791  0.3542
 4911SOL    HW226367   2.234   4.090   5.544 -1.7710  2.2102 -0.0397
 4912SOL     OW26368   4.698   0.060   1.376  0.2509 -0.0811  0.1926
 4912SOL    HW126369   0.008   0.125   1.429 -2.1649 -0.0032  2.2760
 4912SOL    HW226370   4.647   0.119   1.321 -1.2311 -1.5710 -0.0234
 4913SOL     OW26371   1.543   0.499   6.531  0.3345  0.5437 -0.5514
 4913SOL    HW126372   1.539   0.500   6.436 -0.8932  0.5370 -0.5054
 4913SOL    HW226373   1.610   0.566   6.544 -0.4138  0.9819  1.1262
 4914SOL     OW26374   4.207   1.982   2.072  0.2200 -0.4921  0.3523
 4914SOL    HW126375   4.215   1.934   1.990  1.0099  0.0371  0.1207
 4914SOL    HW226376   4.256   2.060   2.048  0.9776 -1.1452 -0.2193
 4915SOL     OW26377   0.864   1.755  16.723 -0.0482  0.4232 -0.0207
 4915SOL    HW126378   0.928   1.684  16.725  0.3606  0.7581 -1.0820
 4915SOL    HW226379   0.908   1.824  16.673  1.9795  1.1914  2.8451
 4916SOL     OW26380   1.926   1.124   1.271  0.1547  0.1656 -0.2794
 4916SOL    HW126381   1.936   1.087   1.183  0.8443  0.1031 -0.1762
 4916SOL    HW226382   2.016   1.143   1.298 -0.2340  0.4605  0.7956
 4917SOL     OW26383   4.125   1.223   2.589  0.2439 -0.1814 -0.0438
 4917SOL    HW126384   4.134   1.305   2.542 -0.1800 -0.0044  0.1815
 4917SOL    HW226385   4.219   1.206   2.590  0.3242  0.2521 -0.8422
 4918SOL     OW26386   0.329   2.873   3.934 -0.3172 -0.1953  0.0443
 4918SOL    HW126387   0.300   2.962   3.914 -0.1768 -0.3755 -0.9466
 4918SOL    HW226388   0.243   2.833   3.923 -0.5936  1.2288 -2.9409
 4919SOL     OW26389   3.106   4.042  16.597  0.3075  0.2894  0.0707
 4919SOL    HW126390   3.088   4.078  16.684 -0.3218 -0.0109  0.0601
 4919SOL    HW226391   3.144   3.956  16.614 -3.4469 -1.5011 -0.6927
 4920SOL     OW26392   0.689   2.385  16.927  0.1706 -0.0519 -0.4300
 4920SOL    HW126393   0.741   2.318  16.972 -1.5356 -0.2175  1.3222
 4920SOL    HW226394   0.613   2.391  16.985  0.0045  1.0057 -0.7613
 4921SOL     OW26395   0.905   1.065   5.505  0.1366  0.1295  0.5626
 4921SOL    HW126396   0.945   1.152   5.497  0.5997 -0.1891 -0.6230
 4921SOL    HW226397   0.977   1.008   5.479 -0.7644  0.4544 -2.6963
 4922SOL     OW26398   3.871   1.284   3.664  0.2622  0.1885 -0.2122
 4922SOL    HW126399   3.882   1.233   3.584 -1.3412 -0.0709 -0.2716
 4922SOL    HW226400   3.809   1.233   3.716  0.7256  0.0595  0.2062
 4923SOL     OW26401   0.060   0.709   0.916 -0.1531 -0.0608 -0.3524
 4923SOL    HW126402   0.141   0.758   0.897  1.5142 -2.6370  0.0635
 4923SOL    HW226403   0.017   0.792   0.939 -0.4172 -0.1898 -0.3832
 4924SOL     OW26404   4.172   0.506   4.717  0.2871 -0.7500  0.0671
 4924SOL    HW126405   4.174   0.521   4.811  0.6715 -1.4156  0.1637
 4924SOL    HW226406   4.084   0.469   4.711  0.8900 -2.0958 -0.5244
 4925SOL     OW26407   0.227   2.736   8.591  0.9783 -0.1548 -0.5355
 4925SOL    HW126408   0.263   2.759   8.677 -1.9642 -2.0637  1.1744
 4925SOL    HW226409   0.296   2.778   8.540  0.1065 -0.0398 -1.6077
 4926SOL     OW26410   0.855   4.168  16.551 -0.4004  0.5032  0.3130
 4926SOL    HW126411   0.870   4.155  16.645 -0.8075 -2.5161 -0.0447
 4926SOL    HW226412   0.800   4.246  16.561  0.2012  1.4022 -3.5805
 4927SOL     OW26413   0.133   3.217   5.117  0.1646  0.2017  0.7937
 4927SOL    HW126414   0.193   3.244   5.048  2.2608 -0.6307  2.3273
 4927SOL    HW226415   0.145   3.286   5.183 -0.0605  2.1134 -1.1476
 4928SOL     OW26416   1.893   4.555   2.384 -0.5037  0.7409 -0.3395
 4928SOL    HW126417   1.874   4.461   2.389  2.8769  0.1534  1.2368
 4928SOL    HW226418   1.958   4.563   2.315  0.4705 -1.6754  0.3102
 4929SOL     OW26419   3.403   4.461   5.068  0.2168  0.6425  0.3941
 4929SOL    HW126420   3.388   4.455   5.163  0.6609 -0.5167  0.3980
 4929SOL    HW226421   3.409   4.369   5.040  3.5729  0.8666  0.4253
 4930SOL     OW26422   4.089   0.928   1.726  0.2146 -0.2998  0.5194
 4930SOL    HW126423   4.060   0.930   1.635  1.7139 -0.3288  0.0447
 4930SOL    HW226424   4.175   0.968   1.733  0.0724 -0.1677  1.6021
 4931SOL     OW26425   3.484   2.114   4.174  0.3270  0.0076  0.1451
 4931SOL    HW126426   3.417   2.054   4.141  1.5109 -1.3493  0.2258
 4931SOL    HW226427   3.482   2.100   4.269  0.0251 -1.0101 -0.0170
 4932SOL     OW26428   4.094   1.528   1.597  0.0093 -0.3871  0.2605
 4932SOL    HW126429   4.056   1.456   1.546  0.3717  0.8303 -1.7456
 4932SOL    HW226430   4.021   1.541   1.658 -0.0790 -0.6545  0.2143
 4933SOL     OW26431   2.372   2.976   1.512 -0.1779 -0.6092 -0.6550
 4933SOL    HW126432   2.370   2.932   1.427 -0.0981  1.7937 -1.9228
 4933SOL    HW226433   2.323   3.052   1.481 -1.6753 -0.6693  1.5833
 4934SOL     OW26434   2.300   1.265   8.209  0.3089  0.3211  0.3203
 4934SOL    HW126435   2.291   1.237   8.300  1.0306 -1.1090 -0.0547
 4934SOL    HW226436   2.262   1.353   8.212  0.8291  0.5194  1.2054
 4935SOL     OW26437   0.349   1.228   2.865  0.3578 -0.1143  0.4988
 4935SOL    HW126438   0.354   1.168   2.790  0.6611  0.8910 -0.2845
 4935SOL    HW226439   0.328   1.170   2.938 -0.5602  1.6502  1.6269
 4936SOL     OW26440   1.511   4.133  11.096 -0.2139 -0.1991  0.0160
 4936SOL    HW126441   1.555   4.217  11.110 -0.0940 -0.7056  2.8321
 4936SOL    HW226442   1.503   4.095  11.184  1.0155 -0.7617 -0.1128
 4937SOL     OW26443   0.587   1.834  17.559 -0.5038 -0.3668 -0.2395
 4937SOL    HW126444   0.520   1.794  17.504 -0.5732  0.7129 -0.9419
 4937SOL    HW226445   0.646   1.876  17.496  0.2008 -0.7275  0.1733
 4938SOL     OW26446   3.913   1.443  11.368 -0.1620 -0.5392 -0.4681
 4938SOL    HW126447   3.882   1.522  11.325  1.6903 -0.4946 -1.7375
 4938SOL    HW226448   3.891   1.450  11.461 -2.5316 -0.7305 -1.0170
 4939SOL     OW26449   3.133   0.770   6.270  0.7272 -0.3134  0.0973
 4939SOL    HW126450   3.040   0.778   6.246  1.2655  1.1445 -1.4721
 4939SOL    HW226451   3.137   0.775   6.366  1.9116  1.1345 -0.0262
 4940SOL     OW26452   2.214   0.788  13.920 -0.4997  0.2842 -0.9475
 4940SOL    HW126453   2.268   0.745  13.986 -1.5868  2.0719  1.1160
 4940SOL    HW226454   2.268   0.866  13.907  2.8950 -1.8071  0.6430
 4941SOL     OW26455   2.240   2.663   4.216  0.4297  0.6798  0.4394
 4941SOL    HW126456   2.335   2.662   4.221  0.4571 -1.0603 -0.5747
 4941SOL    HW226457   2.230   2.741   4.162 -2.5222 -0.2104 -0.3060
 4942SOL     OW26458   3.862   4.177   7.985  0.1925  0.3750 -0.3571
 4942SOL    HW126459   3.813   4.153   8.063 -0.2074  3.2365  0.2679
 4942SOL    HW226460   3.940   4.121   7.987 -0.3509 -0.2809  1.9394
 4943SOL     OW26461   2.200   1.136  14.182 -0.0539 -0.6601  0.5243
 4943SOL    HW126462   2.210   1.218  14.134 -2.4321 -0.4556  0.3851
 4943SOL    HW226463   2.130   1.092  14.135  0.3485  0.5265 -1.1978
 4944SOL     OW26464   3.764   4.623  14.476  0.0942  0.0513  0.4519
 4944SOL    HW126465   3.684   4.603  14.427 -0.8485  2.9779  0.8428
 4944SOL    HW226466   3.743   4.572  14.554  1.3520  1.1819  1.5167
 4945SOL     OW26467   2.454   0.963  16.549  0.3720  0.0413 -0.2516
 4945SOL    HW126468   2.478   1.056  16.552 -0.5247  0.2818 -0.7645
 4945SOL    HW226469   2.413   0.940  16.632 -1.2303 -0.8253 -1.2846
 4946SOL     OW26470   4.298   4.528  16.128  0.2951  0.4473 -0.2091
 4946SOL    HW126471   4.305   4.433  16.115  0.3752  0.3014  0.8623
 4946SOL    HW226472   4.220   4.534  16.183  1.0774 -1.0477  1.0890
 4947SOL     OW26473   4.012   3.429   0.084 -0.4097  0.6184  0.4602
 4947SOL    HW126474   4.041   3.448   0.173 -2.4443  0.7979  1.0976
 4947SOL    HW226475   4.086   3.457   0.031 -1.2000 -0.6664 -1.3179
 4948SOL     OW26476   2.013   4.063   7.667  0.0406 -0.3830 -0.7076
 4948SOL    HW126477   1.927   4.098   7.692  0.3480  0.6830 -1.1208
 4948SOL    HW226478   2.076   4.131   7.690 -0.8899  0.1370  0.3726
 4949SOL     OW26479   1.421   4.115  15.366 -0.3125 -0.2362  0.2931
 4949SOL    HW126480   1.447   4.030  15.328 -0.5171 -1.3445  2.6619
 4949SOL    HW226481   1.394   4.147  15.280  0.2771  2.0285  0.9587
 4950SOL     OW26482   2.839   4.254   9.018 -0.3298  0.5610  0.6013
 4950SOL    HW126483   2.887   4.259   9.101 -0.7658  1.5311  0.7897
 4950SOL    HW226484   2.773   4.186   9.032 -1.0432  1.0200 -0.5733
 4951SOL     OW26485   0.880   3.349  10.088 -0.0221  0.1379  0.3489
 4951SOL    HW126486   0.888   3.443  10.070  0.4043  0.1428  0.5528
 4951SOL    HW226487   0.824   3.351  10.166 -3.6486 -1.0456 -2.2707
 4952SOL     OW26488   0.506   1.815   1.571 -0.1112  0.0037  0.0173
 4952SOL    HW126489   0.412   1.811   1.553 -0.2736 -0.8962  1.0806
 4952SOL    HW226490   0.500   1.795   1.664  0.7083 -1.8975 -0.3488
 4953SOL     OW26491   2.739   1.392  12.224  0.0685 -0.0632 -0.3470
 4953SOL    HW126492   2.718   1.306  12.189  1.8355 -0.9441  0.7523
 4953SOL    HW226493   2.788   1.424  12.148 -0.8550  0.0649 -0.8838
 4954SOL     OW26494   4.192   2.726   0.055  0.0945  0.0744  0.3393
 4954SOL    HW126495   4.139   2.654   0.090 -1.6091  0.8942 -0.5649
 4954SOL    HW226496   4.223   2.687  17.722 -1.3376  1.3276 -0.7948
 4955SOL     OW26497   3.424   0.324   9.592 -0.3921  0.5842 -0.3893
 4955SOL    HW126498   3.336   0.361   9.598 -1.1528 -1.2724 -0.1105
 4955SOL    HW226499   3.485   0.395   9.572  2.7412 -2.1265 -0.4428
 4956SOL     OW26500   3.088   0.056   3.422 -0.2719 -0.0901 -0.1693
 4956SOL    HW126501   3.045   0.110   3.356 -0.1327  0.2321  0.0013
 4956SOL    HW226502   3.063   0.095   3.506  0.6927 -0.2070  0.1771
 4957SOL     OW26503   1.388   2.079   3.632 -0.0091  0.0381 -0.3740
 4957SOL    HW126504   1.339   2.077   3.715  0.5219  2.8535 -0.0012
 4957SOL    HW226505   1.398   1.984   3.622  0.8501  0.2735 -1.6673
 4958SOL     OW26506   1.254   4.632   2.762  0.3143 -0.9328 -0.2774
 4958SOL    HW126507   1.331   4.665   2.717 -0.5079  1.0914 -0.1867
 4958SOL    HW226508   1.297   4.586   2.834  1.8436 -1.4618 -1.5452
 4959SOL     OW26509   2.043   3.372   6.043 -0.0437 -0.1213 -0.2426
 4959SOL    HW126510   2.117   3.358   5.984  0.2654 -0.4065  0.2183
 4959SOL    HW226511   2.036   3.283   6.077  0.7570  0.6486  1.9336
 4960SOL     OW26512   0.475   3.275  14.142  0.0700  0.5509  0.1899
 4960SOL    HW126513   0.435   3.273  14.229  1.9161 -0.7653  0.9964
 4960SOL    HW226514   0.442   3.359  14.109 -0.8754  0.1765  0.1894
 4961SOL     OW26515   2.505   0.277  16.759 -0.2508  0.0149 -0.1139
 4961SOL    HW126516   2.412   0.255  16.757 -0.4537  0.7855  1.0881
 4961SOL    HW226517   2.541   0.190  16.741 -0.7562 -0.2881  0.3468
 4962SOL     OW26518   3.404   4.029   7.164 -0.6909  1.1165  0.4041
 4962SOL    HW126519   3.492   4.067   7.175 -1.0669  1.5999  1.8215
 4962SOL    HW226520   3.418   3.995   7.076 -0.9571 -0.6292  1.0289
 4963SOL     OW26521   2.481   0.718   7.454  0.2560 -0.3652  0.1462
 4963SOL    HW126522   2.565   0.697   7.412 -0.8592  0.3815 -2.4601
 4963SOL    HW226523   2.421   0.656   7.413 -0.1584  0.5961 -0.7006
 4964SOL     OW26524   1.042   2.379  15.001 -0.3635 -0.3664  0.2788
 4964SOL    HW126525   0.969   2.374  14.939  0.3696  2.3227 -0.8193
 4964SOL    HW226526   1.023   2.293  15.036  0.8915 -0.4838  0.6938
 4965SOL     OW26527   1.898   1.104   3.955  0.4545 -0.0293 -0.1779
 4965SOL    HW126528   1.903   1.177   4.017 -0.2186  0.0294 -0.1933
 4965SOL    HW226529   1.988   1.079   3.933  1.4869  3.8405 -0.2638
 4966SOL     OW26530   1.088   1.279  13.387  0.6223 -0.5699  0.2290
 4966SOL    HW126531   1.065   1.194  13.425  0.9831 -0.6226  0.3346
 4966SOL    HW226532   1.116   1.334  13.461  1.7673 -0.9312  0.0544
 4967SOL     OW26533   0.908   0.538  10.306  0.1773 -0.4005 -0.0843
 4967SOL    HW126534   0.859   0.490  10.373 -0.8307 -0.2651 -0.7208
 4967SOL    HW226535   0.842   0.577  10.248 -0.8540  0.9432  1.9893
 4968SOL     OW26536   0.948   1.596   6.464 -0.3485  0.5891 -0.1101
 4968SOL    HW126537   1.029   1.594   6.515 -1.8014 -0.5504  2.1137
 4968SOL    HW226538   0.953   1.509   6.424  0.9260  0.1778  0.9376
 4969SOL     OW26539   1.538   0.165   2.026 -0.0561  0.2789 -0.2675
 4969SOL    HW126540   1.526   0.255   2.058  0.5630  0.6819 -1.1669
 4969SOL    HW226541   1.622   0.136   2.062 -0.0798  0.3768 -0.1307
 4970SOL     OW26542   2.026   3.702  13.346  0.1522 -0.3088  0.9511
 4970SOL    HW126543   1.966   3.776  13.343 -0.1110 -0.6210 -1.9421
 4970SOL    HW226544   1.964   3.630  13.360  1.1460 -0.9108  2.2840
 4971SOL     OW26545   2.070   1.494   6.587 -0.0914  0.1823  0.1486
 4971SOL    HW126546   2.116   1.575   6.567 -0.4697 -0.2200 -2.3813
 4971SOL    HW226547   2.117   1.474   6.668 -1.3135  2.4231  1.3849
 4972SOL     OW26548   3.487   0.839  13.711 -0.4926 -0.1958  0.1744
 4972SOL    HW126549   3.495   0.750  13.744  1.7692  0.3950  1.2211
 4972SOL    HW226550   3.575   0.852  13.675 -0.4142 -0.1040  0.3990
 4973SOL     OW26551   1.711   3.378   8.812  0.0600  0.2089  0.1084
 4973SOL    HW126552   1.741   3.405   8.898  0.3379  1.1712 -0.2956
 4973SOL    HW226553   1.797   3.363   8.771 -0.6721 -1.0754 -0.9865
 4974SOL     OW26554   2.396   3.998   9.165  0.2428 -0.1190 -0.3546
 4974SOL    HW126555   2.316   3.947   9.149  0.3957 -0.8018  1.0371
 4974SOL    HW226556   2.438   3.937   9.225 -1.8764  0.1498  1.4041
 4975SOL     OW26557   2.966   3.462   0.548  0.7476  0.6992 -0.3066
 4975SOL    HW126558   2.946   3.428   0.461 -0.6283  0.1867  0.2159
 4975SOL    HW226559   2.962   3.555   0.528  1.6455  0.7932 -0.0802
 4976SOL     OW26560   0.178   1.162   7.462 -0.3472  0.5199 -0.3031
 4976SOL    HW126561   0.267   1.141   7.491 -0.0342  2.4409  0.1076
 4976SOL    HW226562   0.135   1.188   7.543 -0.3411  1.7227 -0.6841
 4977SOL     OW26563   1.697   4.642   7.945  0.1507  0.1773 -0.5764
 4977SOL    HW126564   1.641   4.719   7.952 -0.4496 -0.3743  0.6261
 4977SOL    HW226565   1.784   4.682   7.958  0.9220 -1.3921 -0.8950
 4978SOL     OW26566   0.058   1.359  17.183  0.0317  0.2714 -0.0014
 4978SOL    HW126567   0.005   1.280  17.180  0.0800  0.0571  3.9984
 4978SOL    HW226568   0.128   1.324  17.239 -0.7192  0.8242  1.2955
 4979SOL     OW26569   4.288   1.447   4.433  0.3218  0.4516  0.6154
 4979SOL    HW126570   4.209   1.487   4.471 -1.0170  0.8709 -2.5701
 4979SOL    HW226571   4.349   1.521   4.432  0.9317 -0.0546  1.0690
 4980SOL     OW26572   2.303   3.178   1.075  0.3704  0.7077 -0.0401
 4980SOL    HW126573   2.374   3.211   1.130 -0.3452  2.9360 -0.4407
 4980SOL    HW226574   2.332   3.214   0.991  0.9468 -3.7567 -1.7096
 4981SOL     OW26575   0.455   0.201   6.122 -0.7230 -0.1661 -0.1432
 4981SOL    HW126576   0.504   0.281   6.143 -2.8152  1.1235 -0.2243
 4981SOL    HW226577   0.509   0.155   6.058 -1.9046  0.3745 -1.5155
 4982SOL     OW26578   2.602   2.252   2.932  0.1082  0.5003  0.1376
 4982SOL    HW126579   2.628   2.335   2.894 -1.7613  0.5704 -1.0015
 4982SOL    HW226580   2.511   2.264   2.960  0.5853 -1.9664  2.8470
 4983SOL     OW26581   3.642   4.162   5.312 -0.0968  0.0330  0.3223
 4983SOL    HW126582   3.549   4.147   5.332 -0.2662  0.6551  0.0205
 4983SOL    HW226583   3.669   4.073   5.333  0.5081  0.0016 -0.5847
 4984SOL     OW26584   3.244   4.275   4.864 -0.6678 -0.6450 -0.0894
 4984SOL    HW126585   3.168   4.257   4.920  0.0776  1.1207  1.4761
 4984SOL    HW226586   3.308   4.221   4.911  1.8176  0.5427 -2.1452
 4985SOL     OW26587   1.521   0.493   9.668 -0.0247  0.5313 -0.3142
 4985SOL    HW126588   1.591   0.438   9.702 -0.1619 -0.0379 -0.9503
 4985SOL    HW226589   1.457   0.499   9.740 -0.9381 -3.7075 -0.7868
 4986SOL     OW26590   2.457   3.317   0.600  0.1794  0.2719  0.7567
 4986SOL    HW126591   2.539   3.345   0.641  0.9725 -0.2746 -0.4678
 4986SOL    HW226592   2.421   3.404   0.586  0.2749  0.0174 -0.9757
 4987SOL     OW26593   1.448   1.298   3.479  0.3330  0.8088  0.6456
 4987SOL    HW126594   1.410   1.380   3.448 -2.0600 -0.2724  0.7334
 4987SOL    HW226595   1.508   1.270   3.410  1.6827  1.3830  1.6052
 4988SOL     OW26596   3.087   1.357   7.796 -0.0137  0.2057  0.5562
 4988SOL    HW126597   3.054   1.273   7.762  0.7978  0.2713 -0.3998
 4988SOL    HW226598   3.012   1.417   7.798  0.3207  0.7087 -1.8336
 4989SOL     OW26599   0.547   2.561   5.344 -0.2646  0.4739 -0.2724
 4989SOL    HW126600   0.532   2.516   5.427  0.2250 -0.5682 -0.7511
 4989SOL    HW226601   0.472   2.531   5.292  0.5194 -1.1216 -0.4547
 4990SOL     OW26602   3.405   2.916   7.478  0.4193 -0.0010  0.1000
 4990SOL    HW126603   3.493   2.894   7.508  0.8408  0.7843 -0.5674
 4990SOL    HW226604   3.406   3.003   7.439 -0.5485 -0.0648 -0.0690
 4991SOL     OW26605   2.438   0.529   8.157 -0.4228  0.1065  0.3286
 4991SOL    HW126606   2.529   0.558   8.169  0.5563 -2.6088 -0.4062
 4991SOL    HW226607   2.398   0.599   8.106 -0.0444 -0.5728 -0.8816
 4992SOL     OW26608   3.691   4.047  16.986 -0.0505 -0.1936 -0.3332
 4992SOL    HW126609   3.661   3.967  16.942  0.2342 -0.3114 -0.3136
 4992SOL    HW226610   3.669   4.111  16.918 -1.7957  0.1486  0.5479
 4993SOL     OW26611   1.730   3.442  16.337 -0.0978 -0.1677 -0.3271
 4993SOL    HW126612   1.649   3.401  16.307 -1.0960  0.9724  0.8183
 4993SOL    HW226613   1.786   3.448  16.259  1.2319  1.7662  0.8039
 4994SOL     OW26614   3.302   0.033   9.397 -0.3080 -0.0346  0.2150
 4994SOL    HW126615   3.384   0.080   9.384 -0.7272  0.1839 -1.6310
 4994SOL    HW226616   3.234   0.100   9.382 -0.3465 -0.3950 -1.1876
 4995SOL     OW26617   2.909   2.679   7.551  0.4767 -0.2270  0.2077
 4995SOL    HW126618   3.002   2.685   7.573 -0.0364  2.1808  1.7599
 4995SOL    HW226619   2.908   2.716   7.463 -0.3066  0.7956  0.6587
 4996SOL     OW26620   0.066   3.935   3.639  0.3130  0.4511 -0.1347
 4996SOL    HW126621   0.147   3.922   3.688  0.9409  1.3519 -0.9521
 4996SOL    HW226622   0.073   3.865   3.574 -2.6884  0.7533 -0.7851
 4997SOL     OW26623   1.639   4.678   6.533 -0.1937  0.2626  0.2218
 4997SOL    HW126624   1.553   4.691   6.492 -1.4524 -1.3786  2.3365
 4997SOL    HW226625   1.621   4.641   6.620  0.2918  2.0106  1.0601
 4998SOL     OW26626   2.983   2.902  13.928 -0.7152 -0.8512 -0.0826
 4998SOL    HW126627   2.995   2.997  13.936  0.0943 -0.6931 -3.2939
 4998SOL    HW226628   2.892   2.917  13.904 -0.4955 -0.8332 -0.8985
 4999SOL     OW26629   2.654   4.172   8.700 -0.0823  0.0758 -0.5462
 4999SOL    HW126630   2.574   4.128   8.670  0.0690  1.0702 -2.4546
 4999SOL    HW226631   2.642   4.168   8.795 -0.5759 -1.1386 -0.6565
 5000SOL     OW26632   4.529   2.284   1.518 -0.7084  0.1412 -0.6363
 5000SOL    HW126633   4.513   2.329   1.435  0.9180  0.6219 -0.6921
 5000SOL    HW226634   4.509   2.353   1.580 -1.3158 -0.6677  0.0735
 5001SOL     OW26635   3.225   4.493   6.196  0.0129 -1.0530  0.0449
 5001SOL    HW126636   3.301   4.465   6.247 -0.3232 -2.3613 -0.1496
 5001SOL    HW226637   3.263   4.490   6.108  1.6596 -1.1455  0.7645
 5002SOL     OW26638   0.421   0.346  17.319  0.0808  0.2634  0.0639
 5002SOL    HW126639   0.436   0.285  17.391  1.0511 -0.4600 -0.7454
 5002SOL    HW226640   0.463   0.302  17.244 -0.9555 -1.4353  0.5016
 5003SOL     OW26641   0.187   3.056  17.080 -0.0302 -0.1741 -0.7799
 5003SOL    HW126642   0.238   2.987  17.037  1.1707 -0.3915  1.0267
 5003SOL    HW226643   0.240   3.133  17.059 -0.5607  0.1781 -0.8485
 5004SOL     OW26644   3.814   3.640   7.475  0.1094  0.2603  0.2121
 5004SOL    HW126645   3.798   3.667   7.385 -3.2235 -1.9174  0.1654
 5004SOL    HW226646   3.885   3.580   7.454  0.8538  0.9193  0.8346
 5005SOL     OW26647   1.028   2.901   3.250  0.0940  0.0157 -0.4132
 5005SOL    HW126648   0.945   2.882   3.293 -0.2115  0.3656 -0.8415
 5005SOL    HW226649   1.086   2.832   3.279 -0.3380 -0.7630 -1.3929
 5006SOL     OW26650   1.854   4.033   8.567  0.2115 -0.1369 -0.3144
 5006SOL    HW126651   1.777   4.062   8.617  0.6181  0.4077 -0.0013
 5006SOL    HW226652   1.895   4.119   8.575 -0.7843  0.2910  0.1538
 5007SOL     OW26653   0.110   3.876   7.821  0.0455 -0.0390 -0.4213
 5007SOL    HW126654   0.122   3.963   7.781  3.4894 -0.1022  0.4535
 5007SOL    HW226655   0.025   3.894   7.860  0.2718 -0.7610  0.4020
 5008SOL     OW26656   1.647   4.398   2.487  0.1624  0.5169 -0.3706
 5008SOL    HW126657   1.646   4.333   2.417 -1.4948  0.3876 -0.2155
 5008SOL    HW226658   1.555   4.400   2.515  0.1315  0.2548 -0.4508
 5009SOL     OW26659   1.431   1.007   4.111  0.5908  0.0480  0.1551
 5009SOL    HW126660   1.397   0.949   4.043 -1.4249 -0.2756  1.4301
 5009SOL    HW226661   1.426   1.087   4.059 -1.5484 -0.6230 -0.6872
 5010SOL     OW26662   1.049   3.820  11.665  0.3890  0.0848 -0.2145
 5010SOL    HW126663   1.090   3.886  11.722  0.4658  0.0883 -0.2732
 5010SOL    HW226664   0.998   3.766  11.725 -0.6106  1.4518  0.1703
 5011SOL     OW26665   3.199   2.457  13.958  0.2385 -0.4322  0.1045
 5011SOL    HW126666   3.153   2.398  14.018 -1.3655  0.2682 -0.4297
 5011SOL    HW226667   3.130   2.524  13.957  0.4606 -0.1434  2.6900
 5012SOL     OW26668   1.726   3.525   2.744  0.1613 -0.0457 -0.2408
 5012SOL    HW126669   1.798   3.464   2.760 -1.5706 -2.4541 -1.4467
 5012SOL    HW226670   1.771   3.609   2.748  0.4638 -0.1676 -1.1659
 5013SOL     OW26671   0.403   0.073  15.090 -0.4664 -0.0537 -0.2364
 5013SOL    HW126672   0.380   4.725  15.052  0.6479  0.4520 -2.0615
 5013SOL    HW226673   0.414   0.121  15.007  1.4426 -0.6508 -0.3289
 5014SOL     OW26674   4.301   3.078   8.198 -0.0114 -0.2311 -0.8954
 5014SOL    HW126675   4.216   3.075   8.154  1.0562 -1.6383 -2.8622
 5014SOL    HW226676   4.280   3.005   8.256 -0.3450  2.0312  1.7951
 5015SOL     OW26677   1.842   1.897   4.506 -0.1421 -0.4306 -0.3882
 5015SOL    HW126678   1.888   1.832   4.452  1.1754  0.8269 -0.7650
 5015SOL    HW226679   1.882   1.979   4.479 -1.2846  0.3551  0.3005
 5016SOL     OW26680   0.435   1.688   6.125  0.7693  0.5669  0.1329
 5016SOL    HW126681   0.464   1.630   6.195  0.1978 -0.8028 -0.7557
 5016SOL    HW226682   0.356   1.719   6.169  2.1755  1.6890  1.8200
 5017SOL     OW26683   3.352   3.070   3.138  0.1334 -0.3723  0.2986
 5017SOL    HW126684   3.354   3.147   3.081 -3.6128 -0.3873  0.1584
 5017SOL    HW226685   3.394   3.109   3.215  0.6460  0.1879 -0.2694
 5018SOL     OW26686   0.007   1.677   7.862 -0.3828  0.0463 -0.0609
 5018SOL    HW126687   0.023   1.650   7.953  0.1461  2.7428  0.6548
 5018SOL    HW226688   0.084   1.638   7.822 -0.0241 -0.2604  0.9093
 5019SOL     OW26689   3.632   3.138   0.320  0.1978  0.3519 -0.2872
 5019SOL    HW126690   3.680   3.093   0.389 -2.2103 -0.3337  0.9393
 5019SOL    HW226691   3.546   3.154   0.358 -0.3480 -0.2629 -1.2762
 5020SOL     OW26692   0.902   3.424   2.320  0.3555  0.0784 -0.0756
 5020SOL    HW126693   0.861   3.400   2.237 -1.1778  1.7185  0.2066
 5020SOL    HW226694   0.891   3.344   2.372 -0.8122  1.2738  1.5319
 5021SOL     OW26695   2.454   2.356   0.297 -0.4371  0.4671 -0.1420
 5021SOL    HW126696   2.446   2.411   0.219 -2.1720  0.2062 -0.1577
 5021SOL    HW226697   2.469   2.269   0.261  2.2170  0.6579  0.5304
 5022SOL     OW26698   2.864   2.786   2.849  0.1251  0.4139  0.2281
 5022SOL    HW126699   2.809   2.762   2.775  0.3715  0.0739  0.1606
 5022SOL    HW226700   2.867   2.882   2.844 -1.7084  0.5223  1.1438
 5023SOL     OW26701   2.949   2.689   4.168 -0.1444 -0.1774 -0.2665
 5023SOL    HW126702   2.986   2.703   4.255 -0.0096 -2.9423  0.1056
 5023SOL    HW226703   2.857   2.679   4.192 -0.2711 -0.9964 -1.1158
 5024SOL     OW26704   3.855   2.642   9.451 -0.1304  0.0365  0.1089
 5024SOL    HW126705   3.950   2.648   9.438  0.0266  1.8336  2.2018
 5024SOL    HW226706   3.821   2.599   9.373  0.5932 -1.8229  0.8025
 5025SOL     OW26707   2.592   0.152  12.643 -0.0541  0.1292  0.4950
 5025SOL    HW126708   2.498   0.132  12.645 -0.1123  0.2826 -1.3119
 5025SOL    HW226709   2.622   0.106  12.721 -0.1201  0.9249  0.9914
 5026SOL     OW26710   1.387   3.784   7.524  0.7304 -0.2579 -0.6323
 5026SOL    HW126711   1.421   3.694   7.519 -0.8321 -0.9058  0.4367
 5026SOL    HW226712   1.305   3.775   7.573  0.6965 -0.8158 -0.7880
 5027SOL     OW26713   1.702   2.188  14.669  0.3289 -0.5502 -0.1104
 5027SOL    HW126714   1.775   2.192  14.731  0.7167 -0.2766 -0.5837
 5027SOL    HW226715   1.646   2.260  14.699  2.3578  0.8400  0.3591
 5028SOL     OW26716   3.617   2.317   1.087  0.0231 -0.7648 -0.3853
 5028SOL    HW126717   3.635   2.381   1.018 -0.7849  0.7452  0.8001
 5028SOL    HW226718   3.523   2.309   1.077 -0.3569  1.7411  1.1821
 5029SOL     OW26719   3.725   2.296   2.753  0.2058  0.0065 -0.4360
 5029SOL    HW126720   3.691   2.383   2.732  0.0864  0.5806  2.1638
 5029SOL    HW226721   3.639   2.267   2.783 -0.5599  0.9033 -1.7546
 5030SOL     OW26722   0.335   0.517  12.720  0.3361  0.2285 -0.0412
 5030SOL    HW126723   0.265   0.568  12.679 -0.2781  1.7851  2.9274
 5030SOL    HW226724   0.399   0.584  12.743 -0.7525  1.3060 -0.1525
 5031SOL     OW26725   4.022   2.681   8.134  0.3869 -0.1823 -0.4262
 5031SOL    HW126726   4.036   2.775   8.139  0.1859 -0.1868  0.1376
 5031SOL    HW226727   4.079   2.653   8.062  1.5077  0.9292  0.0397
 5032SOL     OW26728   0.074   1.180   7.698  0.3782  0.8165 -0.0583
 5032SOL    HW126729   0.054   1.273   7.712  1.2875  0.7781  1.4513
 5032SOL    HW226730   0.034   1.133   7.771 -0.0358 -0.7729 -1.3306
 5033SOL     OW26731   4.353   3.251  12.161 -0.1095 -0.3788  0.0420
 5033SOL    HW126732   4.340   3.327  12.104 -2.3368 -0.6178  0.2368
 5033SOL    HW226733   4.448   3.256  12.167 -0.0444 -1.5925 -0.0130
 5034SOL     OW26734   2.368   2.865   9.201 -0.1009 -0.3348  0.3962
 5034SOL    HW126735   2.317   2.792   9.235  0.4808 -0.5612  0.7846
 5034SOL    HW226736   2.305   2.931   9.171 -2.3946 -2.1190  1.2870
 5035SOL     OW26737   4.029   2.550   5.754  0.0084  0.3476  0.0282
 5035SOL    HW126738   4.109   2.529   5.802  2.7354  0.4345 -4.5251
 5035SOL    HW226739   3.973   2.577   5.827  1.9100 -1.5362  2.1678
 5036SOL     OW26740   3.425   1.122   2.946  0.5950  1.1040  0.1953
 5036SOL    HW126741   3.421   1.170   2.863  1.6438 -2.1549 -1.7474
 5036SOL    HW226742   3.432   1.029   2.925 -2.5180  1.4446 -2.3269
 5037SOL     OW26743   1.460   1.607   5.247  0.7996 -0.0073 -0.2900
 5037SOL    HW126744   1.395   1.621   5.178  0.3028 -1.3479 -0.1046
 5037SOL    HW226745   1.436   1.518   5.276  3.2213 -1.2013 -1.9458
 5038SOL     OW26746   3.246   0.220   7.982  0.4448 -0.2870 -0.6890
 5038SOL    HW126747   3.226   0.277   8.056 -2.1298 -0.9516 -0.8880
 5038SOL    HW226748   3.315   0.163   8.017  1.4855  2.1407  1.1986
 5039SOL     OW26749   1.396   2.616   8.784 -0.2006 -0.2957  0.2297
 5039SOL    HW126750   1.353   2.590   8.703  1.9404 -1.5858 -0.4730
 5039SOL    HW226751   1.403   2.712   8.785  0.0676 -0.3095 -0.4329
 5040SOL     OW26752   3.997   0.778   4.395 -0.1726  0.0631  0.0186
 5040SOL    HW126753   4.090   0.767   4.414 -0.1941  0.0930  0.1412
 5040SOL    HW226754   3.997   0.845   4.327  1.4185 -0.3489 -0.3790
 5041SOL     OW26755   2.841   1.924   2.668  0.6173 -0.0544  0.7265
 5041SOL    HW126756   2.764   1.981   2.670 -0.7323 -1.9541  2.3400
 5041SOL    HW226757   2.859   1.917   2.762  2.4533  2.7421  0.5886
 5042SOL     OW26758   1.062   2.998  10.760 -0.8672 -0.6520  0.3222
 5042SOL    HW126759   1.110   3.059  10.815  0.1419 -0.6810 -0.5131
 5042SOL    HW226760   1.122   2.925  10.748 -2.1235 -1.5796 -0.3697
 5043SOL     OW26761   0.071   4.281   9.068 -0.5236  0.3206 -0.7405
 5043SOL    HW126762   0.156   4.298   9.028 -0.8282 -2.4690 -2.5951
 5043SOL    HW226763   0.010   4.342   9.026  0.2125  0.3380 -1.7997
 5044SOL     OW26764   3.056   1.029   3.991  0.7953 -0.0645 -0.1610
 5044SOL    HW126765   3.141   0.990   3.973  0.2442 -0.6690 -1.3978
 5044SOL    HW226766   3.059   1.095   3.922 -0.4989 -0.0332 -0.1894
 5045SOL     OW26767   2.306   3.113   2.721  0.5757 -0.0786 -0.2871
 5045SOL    HW126768   2.357   3.076   2.649 -0.6564 -0.1889 -1.1147
 5045SOL    HW226769   2.222   3.113   2.674 -0.8328 -1.5994  2.2481
 5046SOL     OW26770   3.439   3.885   9.058 -0.5041 -0.2922  0.1736
 5046SOL    HW126771   3.403   3.910   9.143  0.0173 -1.6879  0.8009
 5046SOL    HW226772   3.531   3.908   9.071 -0.1831 -0.6403 -1.5119
 5047SOL     OW26773   0.110   0.170   7.183  0.3772 -0.4642  0.1590
 5047SOL    HW126774   0.172   0.148   7.252 -1.5352 -1.5145  1.5436
 5047SOL    HW226775   0.154   0.109   7.124 -2.4657 -1.4955 -0.8592
 5048SOL     OW26776   3.993   0.232   3.909 -0.0391 -0.0368  0.2175
 5048SOL    HW126777   3.965   0.306   3.964 -2.6012 -0.5904 -0.3707
 5048SOL    HW226778   3.934   0.164   3.942 -0.5813  0.2102 -0.2608
 5049SOL     OW26779   2.261   4.026   6.589  0.2537  0.1521  0.3798
 5049SOL    HW126780   2.294   3.941   6.618  2.7038  0.3705 -1.7378
 5049SOL    HW226781   2.342   4.060   6.550  0.6342  1.0425  1.9624
 5050SOL     OW26782   0.488   4.678   3.982  0.1607  0.0981  0.1806
 5050SOL    HW126783   0.503   4.732   4.060 -1.1331  2.2002 -1.0278
 5050SOL    HW226784   0.485   4.588   4.015  2.9205  0.1080  0.3989
 5051SOL     OW26785   0.736   1.854   8.714  0.1144 -0.2103 -0.3628
 5051SOL    HW126786   0.675   1.859   8.641  0.0881  0.0066 -0.3240
 5051SOL    HW226787   0.753   1.944   8.741  0.7517 -0.0532 -1.2873
 5052SOL     OW26788   2.103   1.214   2.968 -0.0255 -0.7565  0.0322
 5052SOL    HW126789   2.064   1.266   3.039 -1.0209 -0.2978 -0.8484
 5052SOL    HW226790   2.194   1.237   2.985  0.1174 -1.8083  0.7136
 5053SOL     OW26791   1.169   4.003  13.678 -0.3426 -0.0982 -0.4842
 5053SOL    HW126792   1.263   4.001  13.659  0.0051  0.5782  1.1678
 5053SOL    HW226793   1.174   3.981  13.771  0.1738 -1.0651 -0.7357
 5054SOL     OW26794   4.402   1.664   5.115 -0.3586 -0.1567 -0.2503
 5054SOL    HW126795   4.455   1.694   5.189  0.8484 -0.7379 -0.8868
 5054SOL    HW226796   4.456   1.675   5.037 -1.0361 -1.6260 -0.9252
 5055SOL     OW26797   1.675   1.242   2.763  0.4277 -0.4904  0.1263
 5055SOL    HW126798   1.759   1.225   2.719  1.0802  2.3201  0.2736
 5055SOL    HW226799   1.694   1.201   2.847 -0.5670  0.9363  1.0310
 5056SOL     OW26800   1.118   4.376   2.875  0.2104 -0.2397  0.6215
 5056SOL    HW126801   1.201   4.363   2.830 -1.4262 -1.3322 -2.0340
 5056SOL    HW226802   1.052   4.358   2.808  1.1131 -0.7410 -0.1398
 5057SOL     OW26803   4.187   1.620   7.553 -0.5947  0.2188 -0.0845
 5057SOL    HW126804   4.134   1.545   7.527 -0.7908  0.8475 -1.4710
 5057SOL    HW226805   4.115   1.669   7.593  0.2271  1.4931 -0.1942
 5058SOL     OW26806   4.190   1.129   1.214 -0.3622 -0.0268 -0.1597
 5058SOL    HW126807   4.230   1.132   1.127 -1.5934  0.9238 -0.6998
 5058SOL    HW226808   4.108   1.178   1.207 -2.0402 -2.5462  1.7631
 5059SOL     OW26809   3.970   1.347   8.466 -0.2754  0.7195  0.1162
 5059SOL    HW126810   4.058   1.334   8.429 -0.8817 -1.3837 -0.5592
 5059SOL    HW226811   3.986   1.420   8.526 -1.2063  0.7038  0.3834
 5060SOL     OW26812   3.607   0.582   3.167  0.1230 -0.5699  0.3576
 5060SOL    HW126813   3.532   0.547   3.215 -0.1112 -0.7899 -0.1633
 5060SOL    HW226814   3.597   0.554   3.076 -1.6675  0.5997  0.1982
 5061SOL     OW26815   3.225   3.005  17.502  0.4938 -0.1658  0.9474
 5061SOL    HW126816   3.289   3.003  17.573  0.5236 -2.4824  0.8644
 5061SOL    HW226817   3.177   2.924  17.519  0.0113 -0.0502  0.1424
 5062SOL     OW26818   0.562   2.893   4.844  0.5777 -0.4193 -0.2258
 5062SOL    HW126819   0.581   2.853   4.759 -0.0706 -2.5985  0.6609
 5062SOL    HW226820   0.633   2.864   4.902  2.4077  1.6316 -1.4167
 5063SOL     OW26821   3.793   4.121   6.571 -0.4878 -0.2294  0.2964
 5063SOL    HW126822   3.832   4.207   6.557  0.6887 -1.0894 -1.6194
 5063SOL    HW226823   3.754   4.150   6.654  0.1986 -0.6392  0.7627
 5064SOL     OW26824   0.064   3.381  10.713  0.1409  0.3294  0.3586
 5064SOL    HW126825   0.066   3.466  10.758 -0.1796  0.8347 -0.5745
 5064SOL    HW226826   0.069   3.327  10.792 -0.9808  1.4129  1.1965
 5065SOL     OW26827   0.015   3.262   2.056 -0.0788 -0.0351  0.1251
 5065SOL    HW126828   4.735   3.346   2.100  1.4230  1.0599 -1.3323
 5065SOL    HW226829   0.007   3.293   1.966  1.0210 -3.2935 -1.0524
 5066SOL     OW26830   2.873   3.819   8.526 -0.6353 -0.0123  0.1975
 5066SOL    HW126831   2.859   3.748   8.590 -3.3340  0.3646  0.0030
 5066SOL    HW226832   2.961   3.850   8.546  0.4877 -1.6700 -2.1181
 5067SOL     OW26833   0.895   4.736   2.946  0.1302 -0.0965  0.0994
 5067SOL    HW126834   0.966   4.694   2.995 -0.3673  0.4672  1.3093
 5067SOL    HW226835   0.922   4.700   2.862 -2.7787 -2.0997  0.0422
 5068SOL     OW26836   3.769   0.431   6.329  0.3831  0.6309  0.1909
 5068SOL    HW126837   3.707   0.475   6.387 -1.7581 -2.3409  0.1614
 5068SOL    HW226838   3.843   0.492   6.328  1.5994 -0.8369  0.2808
 5069SOL     OW26839   4.396   0.934   9.015  0.4947  0.1299  0.3726
 5069SOL    HW126840   4.435   0.867   9.072 -3.5455 -0.5906  2.3037
 5069SOL    HW226841   4.303   0.923   9.036  0.4911 -0.4560  0.0250
 5070SOL     OW26842   3.299   4.075   6.444 -0.8496 -0.0097 -0.3418
 5070SOL    HW126843   3.370   4.113   6.391 -0.7720  1.3570  0.7414
 5070SOL    HW226844   3.258   4.002   6.399 -1.5676 -1.2106  2.3365
 5071SOL     OW26845   1.245   4.252   0.688 -0.3339  0.2219 -0.1279
 5071SOL    HW126846   1.299   4.269   0.765  0.5854 -1.8687 -0.3326
 5071SOL    HW226847   1.307   4.236   0.617  1.7119  3.0161  1.0127
 5072SOL     OW26848   0.738   2.021   4.719 -0.1852  0.2392 -0.8052
 5072SOL    HW126849   0.707   2.039   4.808 -1.4890 -3.1660 -0.5456
 5072SOL    HW226850   0.653   2.012   4.675 -0.1176 -0.2781 -0.8266
 5073SOL     OW26851   3.632   2.985   8.396  0.2050  0.1785 -0.5396
 5073SOL    HW126852   3.671   2.947   8.475  0.8896  1.3760 -0.2998
 5073SOL    HW226853   3.701   3.047   8.372  1.8863 -1.6623 -0.4257
 5074SOL     OW26854   3.785   1.068  12.346 -0.0709  0.3374 -0.0054
 5074SOL    HW126855   3.704   1.096  12.389 -1.1506 -2.1363 -0.4579
 5074SOL    HW226856   3.850   1.083  12.415  0.3069  0.4948 -0.3972
 5075SOL     OW26857   2.746   2.891   2.348 -0.4178 -0.4547 -0.2736
 5075SOL    HW126858   2.837   2.873   2.323  0.4719  1.0245  1.9018
 5075SOL    HW226859   2.704   2.851   2.271 -0.3092 -0.5361 -0.2906
 5076SOL     OW26860   0.029   1.783   5.877  0.4009  0.1730 -0.3579
 5076SOL    HW126861   0.110   1.752   5.838  0.2322  0.0533 -0.6111
 5076SOL    HW226862   4.710   1.799   5.801 -2.1991  0.9589  1.7238
 5077SOL     OW26863   1.110   3.078  10.510 -0.1403 -0.7156 -0.0262
 5077SOL    HW126864   1.098   3.051  10.601  0.9428  2.2876  1.0175
 5077SOL    HW226865   1.100   3.172  10.528 -1.5117 -1.0071  0.7588
 5078SOL     OW26866   4.035   1.283  10.653  0.1334  0.3330 -0.2512
 5078SOL    HW126867   3.950   1.311  10.687  1.4942  2.7015  1.1439
 5078SOL    HW226868   4.095   1.352  10.680  0.4218  0.5862 -1.5595
 5079SOL     OW26869   0.499   1.975   8.868 -0.2181  0.4691 -0.2178
 5079SOL    HW126870   0.453   2.010   8.945  0.4481  0.6492  0.1060
 5079SOL    HW226871   0.449   1.898   8.844  1.3458 -0.4660 -0.5193
 5080SOL     OW26872   1.593   2.618  12.962  0.6548  0.1701  0.0120
 5080SOL    HW126873   1.624   2.540  12.915 -0.2666  0.3164 -0.8370
 5080SOL    HW226874   1.647   2.689  12.926  1.2375 -1.0448 -1.5577
 5081SOL     OW26875   2.463   4.087  16.162  0.4245 -0.2597 -0.7061
 5081SOL    HW126876   2.550   4.051  16.183  0.3125 -0.8605 -1.2842
 5081SOL    HW226877   2.429   4.008  16.121  0.0251  0.2944 -1.4396
 5082SOL     OW26878   0.980   1.048   6.472  0.0914 -0.6242 -0.3118
 5082SOL    HW126879   1.006   0.966   6.432  1.4233  0.3935 -1.5268
 5082SOL    HW226880   1.012   1.035   6.561 -1.8531  0.7947  0.6056
 5083SOL     OW26881   2.258   4.663   3.865  0.3134 -0.1117  0.5767
 5083SOL    HW126882   2.195   4.735   3.873 -0.1874 -0.2676 -2.0501
 5083SOL    HW226883   2.309   4.672   3.945  2.1632  1.1259 -0.7355
 5084SOL     OW26884   2.455   3.285  15.450  0.3567  0.1133 -0.0748
 5084SOL    HW126885   2.541   3.322  15.430 -0.8478  2.0836 -1.7296
 5084SOL    HW226886   2.487   3.228  15.520 -0.9662  0.3934  0.7648
 5085SOL     OW26887   2.390   4.108   5.878  0.8593 -0.5441  0.1181
 5085SOL    HW126888   2.347   4.114   5.792 -0.0594 -3.1087  0.4098
 5085SOL    HW226889   2.450   4.039   5.850 -0.0089 -1.1798 -0.1788
 5086SOL     OW26890   0.415   4.368  11.941 -0.2340 -0.8245 -0.0572
 5086SOL    HW126891   0.427   4.436  12.006 -0.5493 -1.9153  1.1429
 5086SOL    HW226892   0.332   4.326  11.962  0.2429 -0.8221  1.8554
 5087SOL     OW26893   1.635   3.413   4.405 -0.1696  0.1158 -0.0070
 5087SOL    HW126894   1.691   3.359   4.462  1.2166  1.4665 -0.0951
 5087SOL    HW226895   1.602   3.345   4.346 -1.2858 -0.4697  1.2864
 5088SOL     OW26896   3.884   3.204   1.190 -0.4228  0.2699 -0.4967
 5088SOL    HW126897   3.845   3.250   1.264  1.4893 -0.7401  1.1433
 5088SOL    HW226898   3.831   3.240   1.118  0.6335  0.4401 -1.1905
 5089SOL     OW26899   2.126   1.804   2.024  0.3315  0.6115 -0.5275
 5089SOL    HW126900   2.167   1.865   1.962  0.3332 -1.4883 -2.6065
 5089SOL    HW226901   2.195   1.789   2.087 -1.7343  1.4777  1.9411
 5090SOL     OW26902   3.436   3.654   7.756 -0.6074  0.6786 -0.0160
 5090SOL    HW126903   3.487   3.718   7.705 -0.8914 -0.3740 -1.6240
 5090SOL    HW226904   3.411   3.610   7.674  1.8386 -0.3609 -0.1909
 5091SOL     OW26905   0.704   0.009   9.697  0.0407 -0.7355 -0.2050
 5091SOL    HW126906   0.784   4.695   9.710 -0.0256 -0.9796 -0.7642
 5091SOL    HW226907   0.694   4.721   9.606 -0.7600  0.7206 -0.5172
 5092SOL     OW26908   3.421   1.069   8.938 -0.0872  0.1083  0.0581
 5092SOL    HW126909   3.408   1.164   8.944  0.7988  0.2591 -0.3293
 5092SOL    HW226910   3.421   1.040   9.029 -0.1823  1.5727  0.5226
 5093SOL     OW26911   2.529   4.632   2.583  0.5538  0.0272 -0.1241
 5093SOL    HW126912   2.601   4.573   2.558  0.8909  2.4407 -4.8845
 5093SOL    HW226913   2.459   4.571   2.606  0.0918  0.7317  0.3023
 5094SOL     OW26914   3.367   1.451   3.882  0.3714  0.3142 -0.1261
 5094SOL    HW126915   3.392   1.501   3.804 -0.5383  1.4114  0.2790
 5094SOL    HW226916   3.436   1.488   3.936  0.4930  1.0388 -0.7680
 5095SOL     OW26917   3.876   3.252   8.062 -0.6177  0.1651 -0.0835
 5095SOL    HW126918   3.926   3.324   8.024 -1.0280 -0.7544 -2.3697
 5095SOL    HW226919   3.867   3.275   8.155  0.0249  2.5134 -0.6103
 5096SOL     OW26920   1.578   0.670  16.827  0.5893 -0.2453 -0.0214
 5096SOL    HW126921   1.578   0.763  16.803 -1.4779 -0.7125 -1.8534
 5096SOL    HW226922   1.582   0.617  16.747 -0.0842 -0.6405  0.2074
 5097SOL     OW26923   1.107   0.063   9.438 -0.5196  0.1344  0.4299
 5097SOL    HW126924   1.184   0.101   9.396 -0.2665  1.0713  1.7604
 5097SOL    HW226925   1.082   4.727   9.382 -0.8848  0.8561 -0.3584
 5098SOL     OW26926   2.320   1.125   3.534  0.3852  0.7884  0.4360
 5098SOL    HW126927   2.363   1.151   3.452  0.7522  2.3826  1.1361
 5098SOL    HW226928   2.269   1.051   3.499 -0.0989 -0.1743  3.2133
 5099SOL     OW26929   0.300   2.258   7.816 -0.2168 -0.3562  0.1091
 5099SOL    HW126930   0.393   2.236   7.810 -0.0332  0.2001  0.9292
 5099SOL    HW226931   0.256   2.173   7.811  0.2015 -0.6924  2.0566
 5100SOL     OW26932   3.005   2.651  14.027 -0.4926  0.1103 -0.0880
 5100SOL    HW126933   3.020   2.742  14.001  1.5079  0.1886  1.3126
 5100SOL    HW226934   3.012   2.662  14.122 -0.1521  0.5130 -0.1601
 5101SOL     OW26935   3.370   1.416   4.877 -0.1517 -0.2546  0.3921
 5101SOL    HW126936   3.425   1.395   4.802 -1.0054 -1.2382  0.0281
 5101SOL    HW226937   3.428   1.374   4.941  0.0064  0.9168  1.0104
 5102SOL     OW26938   4.337   1.284  14.529 -0.0905 -0.1193 -0.1456
 5102SOL    HW126939   4.295   1.307  14.612  0.7546 -1.2075  0.5801
 5102SOL    HW226940   4.413   1.342  14.541 -1.7984  2.0756 -0.0538
 5103SOL     OW26941   0.039   1.867   8.686 -0.0397 -0.0495 -0.0800
 5103SOL    HW126942   0.086   1.891   8.606  0.1597  1.8749  0.6059
 5103SOL    HW226943   0.004   1.949   8.722 -0.3834  0.5985 -1.8595
 5104SOL     OW26944   0.724   1.628   5.372  0.3460 -0.1118 -0.5760
 5104SOL    HW126945   0.699   1.679   5.449 -0.6827 -2.4380  0.6243
 5104SOL    HW226946   0.813   1.597   5.388  0.7727  0.3536 -2.0377
 5105SOL     OW26947   3.832   4.187   5.899 -0.0199  0.1512  0.3314
 5105SOL    HW126948   3.744   4.200   5.936 -0.1714 -0.4799  0.1854
 5105SOL    HW226949   3.858   4.101   5.932 -1.0263 -0.4209 -0.3761
 5106SOL     OW26950   3.860   4.454   2.990  0.4123 -0.0973  0.6415
 5106SOL    HW126951   3.768   4.481   2.986  0.7869  1.0476 -0.1688
 5106SOL    HW226952   3.875   4.435   3.083  0.5180  2.1523  1.0994
 5107SOL     OW26953   0.397   2.585  11.191  0.4942  0.1581  0.5986
 5107SOL    HW126954   0.308   2.586  11.224  1.1803 -1.3533  2.4598
 5107SOL    HW226955   0.448   2.623  11.262  0.6185 -0.3348  0.7737
 5108SOL     OW26956   0.948   4.686   5.770  0.4707  0.0718  0.1057
 5108SOL    HW126957   0.872   4.694   5.714  0.5734 -0.4874 -0.1184
 5108SOL    HW226958   0.936   0.017   5.836 -3.2194 -0.1023 -0.3990
 5109SOL     OW26959   4.632   1.394   3.892  0.4676 -0.4746 -0.3265
 5109SOL    HW126960   4.653   1.385   3.799 -1.1792 -0.0166 -0.7422
 5109SOL    HW226961   4.539   1.418   3.890  0.9394  1.3841 -0.2375
 5110SOL     OW26962   1.063   2.338   8.054  0.6350 -0.0543  0.3942
 5110SOL    HW126963   1.117   2.375   8.123 -1.3173  0.4629  1.6318
 5110SOL    HW226964   1.119   2.329   7.977  0.9393  0.0723  0.6051
 5111SOL     OW26965   2.353   0.936   7.752  0.4284 -0.2012  0.5970
 5111SOL    HW126966   2.339   0.994   7.827  0.1252  1.9428 -1.0924
 5111SOL    HW226967   2.284   0.971   7.695  2.5590  1.7655 -0.7735
 5112SOL     OW26968   2.510   1.759   5.592 -0.2143  0.0320 -0.1092
 5112SOL    HW126969   2.564   1.797   5.522  0.1828 -0.9392 -0.3311
 5112SOL    HW226970   2.483   1.682   5.542 -0.9778  0.1978  0.0456
 5113SOL     OW26971   3.242   0.553  13.861 -0.1928 -0.5547  0.0668
 5113SOL    HW126972   3.272   0.556  13.771 -1.7515  1.3800 -0.3775
 5113SOL    HW226973   3.308   0.601  13.912  0.8889 -1.6099 -0.3446
 5114SOL     OW26974   1.068   1.233   5.108  1.1733  0.0720  0.0662
 5114SOL    HW126975   1.161   1.211   5.102  1.0747 -0.3885  0.2389
 5114SOL    HW226976   1.025   1.182   5.039 -1.5355 -0.4455  2.1097
 5115SOL     OW26977   4.246   3.770   9.869  0.2263 -0.6243 -0.1737
 5115SOL    HW126978   4.318   3.831   9.855 -0.9521  0.5006 -1.4347
 5115SOL    HW226979   4.195   3.774   9.788 -0.9535 -1.2665  0.5413
 5116SOL     OW26980   2.721   3.235   5.568 -0.3900  0.0382  0.3263
 5116SOL    HW126981   2.723   3.151   5.614  3.3050  0.6696  1.2891
 5116SOL    HW226982   2.784   3.280   5.624 -1.6726  1.2690  0.7649
 5117SOL     OW26983   1.666   0.965   3.294 -0.3601  0.2885 -0.5740
 5117SOL    HW126984   1.600   0.908   3.255 -0.8768 -0.8627  1.9946
 5117SOL    HW226985   1.615   1.046   3.299  1.0339  1.0782  0.7717
 5118SOL     OW26986   4.298   2.107   5.591  0.0416  0.0976  0.6526
 5118SOL    HW126987   4.333   2.184   5.546  0.8221  0.4768  1.9020
 5118SOL    HW226988   4.213   2.141   5.620  1.2023  2.2130  1.6325
 5119SOL     OW26989   0.917   1.483   3.003 -0.3635  0.8951  0.1485
 5119SOL    HW126990   0.991   1.527   2.961 -1.1948  1.4772 -0.6948
 5119SOL    HW226991   0.841   1.510   2.953 -1.3461 -1.2640  0.4742
 5120SOL     OW26992   0.400   1.167   0.820  0.1166  0.2974 -0.4809
 5120SOL    HW126993   0.353   1.133   0.896 -0.6864  1.5400 -0.4168
 5120SOL    HW226994   0.428   1.249   0.860  1.5909 -0.6544  0.4625
 5121SOL     OW26995   1.632   0.843   6.730  0.3548 -0.1442  0.3893
 5121SOL    HW126996   1.671   0.930   6.725 -0.0069  0.1534  2.4554
 5121SOL    HW226997   1.698   0.791   6.685 -0.9539 -0.9683 -0.5807
 5122SOL     OW26998   0.261   2.831   9.746 -0.7068  0.1293  0.2244
 5122SOL    HW126999   0.254   2.754   9.688  0.4498 -0.3373  0.7102
 5122SOL    HW227000   0.354   2.822   9.767 -0.8919 -1.5316  0.3633
 5123SOL     OW27001   3.063   0.789   2.434  0.0609  0.1992  0.1981
 5123SOL    HW127002   2.987   0.753   2.480  0.7711 -0.4549  0.8612
 5123SOL    HW227003   3.041   0.882   2.428  0.7314  0.2488 -1.3293
 5124SOL     OW27004   1.148   0.051   4.885  0.5843  0.1639  0.2260
 5124SOL    HW127005   1.116   4.712   4.933  2.0018 -0.7794 -0.3469
 5124SOL    HW227006   1.079   0.114   4.904  0.6310  0.7686 -1.6738
 5125SOL     OW27007   0.671   1.663  14.221 -0.3946  0.3562 -0.7635
 5125SOL    HW127008   0.695   1.674  14.313  1.1734  0.7955 -1.2139
 5125SOL    HW227009   0.730   1.724  14.177  0.3275  0.2111  0.0003
 5126SOL     OW27010   0.468   3.478   5.074 -0.0697  0.3573 -0.0689
 5126SOL    HW127011   0.436   3.490   5.163  1.2110  1.1433  0.2716
 5126SOL    HW227012   0.498   3.387   5.071  0.5553  0.6536 -3.1435
 5127SOL     OW27013   3.668   2.017   1.127  0.1219  0.0866 -0.1903
 5127SOL    HW127014   3.670   2.106   1.093 -3.8893  1.4040  3.0674
 5127SOL    HW227015   3.685   1.971   1.045 -1.2810  0.5676 -0.7521
 5128SOL     OW27016   1.033   0.703  12.412  0.0383  0.1500  0.1631
 5128SOL    HW127017   0.970   0.730  12.479 -1.1954  2.1413 -1.8207
 5128SOL    HW227018   1.114   0.687  12.460  0.4195 -1.4638 -1.0352
 5129SOL     OW27019   0.898   4.326   3.897 -0.1850 -0.0478 -0.4523
 5129SOL    HW127020   0.862   4.351   3.982 -0.7366 -2.8105  0.1287
 5129SOL    HW227021   0.960   4.398   3.888  1.2813 -1.4140 -1.2936
 5130SOL     OW27022   0.550   4.251   5.854  0.0665 -0.4463  0.4430
 5130SOL    HW127023   0.578   4.273   5.943 -1.6105 -0.6864  1.0285
 5130SOL    HW227024   0.594   4.168   5.837 -1.2687 -1.2216  0.7911
 5131SOL     OW27025   2.481   1.773   3.621  0.1861 -0.1206  0.7090
 5131SOL    HW127026   2.395   1.801   3.589  0.8982  0.8160 -0.3734
 5131SOL    HW227027   2.533   1.777   3.541 -0.0572  0.7754  0.5923
 5132SOL     OW27028   3.454   1.351   3.492 -0.3504 -0.2266  0.3681
 5132SOL    HW127029   3.487   1.296   3.563 -0.5471  2.5630  2.6181
 5132SOL    HW227030   3.369   1.309   3.480  0.3383 -0.8199 -2.4469
 5133SOL     OW27031   3.980   2.972   2.245 -0.7144 -0.4215  0.9128
 5133SOL    HW127032   4.074   2.988   2.240 -0.7849  0.0311  1.0241
 5133SOL    HW227033   3.941   3.043   2.194  0.1078 -0.9750 -0.4855
 5134SOL     OW27034   1.686   3.085   6.888 -0.0174 -0.1039 -0.6166
 5134SOL    HW127035   1.691   3.074   6.793 -3.7690  1.4750 -0.9904
 5134SOL    HW227036   1.774   3.052   6.907 -0.0970 -0.9333 -1.6846
 5135SOL     OW27037   1.344   1.511   4.106 -1.1886 -0.0381  0.0185
 5135SOL    HW127038   1.358   1.588   4.051 -0.6961 -0.0967  0.0635
 5135SOL    HW227039   1.419   1.519   4.166  0.9528 -1.5145 -2.4680
 5136SOL     OW27040   1.053   2.818   2.882  0.0229  0.5081 -0.2939
 5136SOL    HW127041   1.009   2.882   2.939 -1.5681 -2.0543  1.3276
 5136SOL    HW227042   1.026   2.734   2.919  3.6588 -0.4430  0.2326
 5137SOL     OW27043   3.915   2.071  14.013  0.7186  0.0482  0.0825
 5137SOL    HW127044   3.879   2.020  14.085 -0.0186 -0.1374 -0.4213
 5137SOL    HW227045   3.859   2.054  13.937 -0.3422  0.1717  0.8398
 5138SOL     OW27046   2.159   0.854  11.919  0.1597  0.3552 -0.3008
 5138SOL    HW127047   2.075   0.900  11.928  0.9286  2.1089 -1.8863
 5138SOL    HW227048   2.200   0.885  12.000 -0.7226  1.1511 -0.1646
 5139SOL     OW27049   0.246   3.432   3.693  0.2517  0.4562 -0.2474
 5139SOL    HW127050   0.330   3.392   3.717 -0.2370  0.4421  1.4408
 5139SOL    HW227051   0.243   3.382   3.612  1.5175  0.8257 -0.5278
 5140SOL     OW27052   4.674   2.794   2.029 -0.6713  0.5004 -0.1256
 5140SOL    HW127053   0.026   2.818   2.053 -0.5064 -0.2701  0.0326
 5140SOL    HW227054   4.676   2.731   1.957  0.8576 -1.0908  1.3107
 5141SOL     OW27055   0.424   3.506  16.981  0.3602 -0.5580  0.2542
 5141SOL    HW127056   0.498   3.457  16.945 -0.0232 -0.7761 -0.2215
 5141SOL    HW227057   0.438   3.532  17.072 -1.5482  1.6376 -0.1045
 5142SOL     OW27058   4.400   2.100   7.761 -0.7208  0.3862  0.2246
 5142SOL    HW127059   4.422   2.170   7.823  2.1720  0.4227 -0.8630
 5142SOL    HW227060   4.464   2.038   7.796 -1.0857 -0.6805 -0.9858
 5143SOL     OW27061   2.884   3.607   3.394  0.3587  0.1994  0.5090
 5143SOL    HW127062   2.945   3.537   3.369 -1.9757 -1.6207 -0.0421
 5143SOL    HW227063   2.933   3.686   3.373 -0.1116  0.3722  0.0706
 5144SOL     OW27064   0.984   2.846  13.475 -0.4557 -0.1613  0.4847
 5144SOL    HW127065   1.010   2.914  13.536 -2.0091 -0.7188  1.7694
 5144SOL    HW227066   0.994   2.883  13.387 -0.4987  1.7570  1.2887
 5145SOL     OW27067   0.584   3.198   7.358  0.0587  0.3093 -0.2430
 5145SOL    HW127068   0.515   3.137   7.385 -0.2205  1.5776  1.9505
 5145SOL    HW227069   0.628   3.231   7.437 -1.3032 -1.3966  1.2499
 5146SOL     OW27070   1.971   0.900   8.036 -0.6356 -0.5323 -0.5133
 5146SOL    HW127071   1.940   0.810   8.048 -1.1168 -0.0596  1.9007
 5146SOL    HW227072   2.061   0.888   8.067 -0.3960  2.5377 -0.0073
 5147SOL     OW27073   3.712   4.345   4.957  0.0190 -0.2165  0.0961
 5147SOL    HW127074   3.708   4.375   5.047 -0.3973 -0.5991  0.2038
 5147SOL    HW227075   3.739   4.424   4.911  0.5319 -1.7674 -2.2933
 5148SOL     OW27076   1.757   2.524   3.286  0.0106  0.3590  0.1731
 5148SOL    HW127077   1.667   2.558   3.289 -0.2232 -0.3292  1.0223
 5148SOL    HW227078   1.755   2.487   3.198  0.4464  0.9811 -0.1017
 5149SOL     OW27079   4.588   4.238   0.666  0.1520  0.3976  0.4564
 5149SOL    HW127080   4.534   4.292   0.724  0.4017  0.8927  0.2196
 5149SOL    HW227081   4.638   4.307   0.624  3.2226 -1.1947  1.4773
 5150SOL     OW27082   1.115   3.580   8.323 -0.2615 -0.2063 -0.0343
 5150SOL    HW127083   1.152   3.620   8.401 -1.4881 -0.7565  0.8238
 5150SOL    HW227084   1.026   3.561   8.354  0.0464 -1.5185  0.0213
 5151SOL     OW27085   0.533   1.990   4.085 -0.5957  0.1916 -0.3541
 5151SOL    HW127086   0.487   2.010   4.003 -2.8458 -2.2064  0.3238
 5151SOL    HW227087   0.510   2.074   4.125 -1.1960  0.1158 -0.5347
 5152SOL     OW27088   4.404   4.184  10.003  0.6718  0.9322 -0.0066
 5152SOL    HW127089   4.321   4.164  10.046  1.0527  0.5443  0.5479
 5152SOL    HW227090   4.450   4.100  10.005 -0.6622  0.3111  3.4605
 5153SOL     OW27091   3.931   1.132  12.616 -0.4753  0.7985  0.0838
 5153SOL    HW127092   3.982   1.210  12.641 -1.9927  2.4789 -2.0394
 5153SOL    HW227093   3.856   1.147  12.673 -1.5444  1.2008 -1.4357
 5154SOL     OW27094   3.851   2.068  11.495  0.2962 -0.2051 -0.0459
 5154SOL    HW127095   3.943   2.095  11.490 -0.1513  1.5828  1.1472
 5154SOL    HW227096   3.820   2.118  11.571  0.5647 -0.2237  0.0767
 5155SOL     OW27097   2.809   1.597   2.788  0.2235 -0.4127 -0.7934
 5155SOL    HW127098   2.714   1.601   2.775  0.3619  1.9477 -1.0155
 5155SOL    HW227099   2.816   1.672   2.846 -3.1410  0.4997 -1.5335
 5156SOL     OW27100   0.103   2.804   7.578 -0.3632  0.1929 -0.5208
 5156SOL    HW127101   0.178   2.767   7.625 -0.2325  2.4739  1.0416
 5156SOL    HW227102   0.137   2.893   7.569  0.8859 -0.0420  1.8739
 5157SOL     OW27103   1.678   1.644  14.733  0.1184  0.3192 -0.1230
 5157SOL    HW127104   1.587   1.633  14.707  0.3961  1.0188 -1.4496
 5157SOL    HW227105   1.685   1.615  14.824 -1.9168  1.1340  0.2795
 5158SOL     OW27106   1.169   0.507   9.276  0.1580 -0.3153 -0.2292
 5158SOL    HW127107   1.185   0.593   9.239 -1.3797  0.8084  1.6879
 5158SOL    HW227108   1.198   0.523   9.366 -0.4068 -2.3526  0.3154
 5159SOL     OW27109   1.549   0.406   2.120  0.4515 -0.3729  0.1256
 5159SOL    HW127110   1.575   0.424   2.210 -1.7568 -0.5010  0.7829
 5159SOL    HW227111   1.521   0.490   2.085 -1.3797 -1.2454 -0.4838
 5160SOL     OW27112   4.721   4.438   2.724 -0.4895  0.3223  0.3513
 5160SOL    HW127113   4.695   4.521   2.684  2.1426 -0.3748 -2.7269
 5160SOL    HW227114   4.636   4.394   2.731 -0.6446  0.7438  1.2257
 5161SOL     OW27115   4.358   4.404  16.544 -0.2591  0.2798  0.4135
 5161SOL    HW127116   4.426   4.346  16.578  1.5442  2.3408  0.3265
 5161SOL    HW227117   4.400   4.488  16.565 -0.0221  0.2423  0.0773
 5162SOL     OW27118   2.325   3.554   6.145 -0.0750 -0.1981 -0.0218
 5162SOL    HW127119   2.358   3.466   6.161 -0.8201 -0.9488 -2.5843
 5162SOL    HW227120   2.252   3.554   6.207  1.1478  0.0162  1.4044
 5163SOL     OW27121   1.678   0.266   4.805  0.1102 -0.0822 -0.2761
 5163SOL    HW127122   1.603   0.220   4.766 -1.8080  1.3152  1.7399
 5163SOL    HW227123   1.749   0.222   4.759  0.6622 -0.0499  0.5414
 5164SOL     OW27124   3.285   2.634   1.750 -0.3544  0.4920 -0.2191
 5164SOL    HW127125   3.300   2.645   1.844 -1.6675  2.5817 -0.2647
 5164SOL    HW227126   3.209   2.575   1.753 -0.7711  0.9051 -2.4530
 5165SOL     OW27127   4.651   3.568   2.604 -0.1626 -0.8173 -0.0745
 5165SOL    HW127128   4.697   3.507   2.660 -2.2127  0.1123  2.6096
 5165SOL    HW227129   4.616   3.524   2.526 -1.3057  0.7595 -0.4505
 5166SOL     OW27130   1.306   4.179  15.137 -0.0378  0.0439 -0.3282
 5166SOL    HW127131   1.247   4.224  15.076 -1.1781 -0.5795  0.3262
 5166SOL    HW227132   1.380   4.239  15.130  0.1091 -0.0414  0.6225
 5167SOL     OW27133   1.074   0.047   8.345 -0.5461  0.1018 -0.1597
 5167SOL    HW127134   1.001   4.723   8.351  2.3545 -3.3369  0.3931
 5167SOL    HW227135   1.136   0.006   8.284  1.9434  1.6848  1.2827
 5168SOL     OW27136   3.541   3.230   3.344  0.5995  0.3914 -0.2330
 5168SOL    HW127137   3.636   3.239   3.340  0.6182 -0.4057 -1.7372
 5168SOL    HW227138   3.529   3.145   3.387 -0.8194  1.1881  0.9176
 5169SOL     OW27139   1.507   1.120  13.253 -0.3074  0.4963  0.4852
 5169SOL    HW127140   1.556   1.042  13.227  0.7128  0.6270  2.0124
 5169SOL    HW227141   1.446   1.123  13.179  1.5403  3.3371 -0.8742
 5170SOL     OW27142   2.777   2.326   7.806  0.7528  0.0047 -0.1890
 5170SOL    HW127143   2.716   2.312   7.734  1.7856 -1.2569 -0.8168
 5170SOL    HW227144   2.788   2.234   7.830  1.7686  0.7455  2.2345
 5171SOL     OW27145   1.268   0.860   2.850  0.3360  0.0769 -0.0776
 5171SOL    HW127146   1.258   0.766   2.865  0.1620  0.4496  2.0729
 5171SOL    HW227147   1.182   0.872   2.810  1.1790  1.6200 -1.4756
 5172SOL     OW27148   0.434   3.821   1.990 -0.2626  0.2375  0.0095
 5172SOL    HW127149   0.424   3.729   2.015 -0.0236 -0.2834 -1.7942
 5172SOL    HW227150   0.500   3.817   1.920 -2.9011 -0.2733 -2.4676
 5173SOL     OW27151   3.208   3.738   8.131  0.2039  0.0013  0.8085
 5173SOL    HW127152   3.190   3.657   8.084 -0.8882  1.6147 -1.5666
 5173SOL    HW227153   3.189   3.709   8.220 -1.7135  0.0307  0.4125
 5174SOL     OW27154   1.019   3.437   6.536 -0.2057 -0.5168  0.0883
 5174SOL    HW127155   0.946   3.434   6.475 -0.3094  0.3140  0.1658
 5174SOL    HW227156   1.094   3.392   6.497 -0.6218 -0.3429 -0.9252
 5175SOL     OW27157   3.386   3.870   2.881  0.2000  0.5147 -0.0459
 5175SOL    HW127158   3.466   3.907   2.843  0.8098 -2.5486 -1.7064
 5175SOL    HW227159   3.327   3.945   2.885 -0.8825 -0.3733  0.4137
 5176SOL     OW27160   2.057   3.987   7.401  0.4217  0.3329 -0.5787
 5176SOL    HW127161   2.141   4.019   7.369  0.1175 -0.7345 -2.4899
 5176SOL    HW227162   2.039   4.035   7.481  2.2011  0.4234 -0.2370
 5177SOL     OW27163   1.389   2.527   6.808  0.0986 -0.1569  0.2764
 5177SOL    HW127164   1.439   2.567   6.736 -0.0130  1.9935  1.3757
 5177SOL    HW227165   1.370   2.435   6.789  1.3839 -0.6583  1.4263
 5178SOL     OW27166   2.212   2.559   2.339 -0.4905  0.4830  0.0667
 5178SOL    HW127167   2.188   2.514   2.420  0.5646 -2.7780 -1.4333
 5178SOL    HW227168   2.127   2.561   2.295  0.1236 -0.6147 -1.1785
 5179SOL     OW27169   0.022   0.459   4.569 -0.3107 -0.0784  0.2594
 5179SOL    HW127170   0.027   0.524   4.499  1.9380  0.1801  0.6749
 5179SOL    HW227171   0.067   0.384   4.531  0.2485 -0.4198  1.5948
 5180SOL     OW27172   0.253   4.307   7.093 -0.6537  0.3150 -0.3025
 5180SOL    HW127173   0.200   4.231   7.119 -0.4574  0.3464  0.1951
 5180SOL    HW227174   0.282   4.322   7.183  1.2861 -0.2780 -0.8320
 5181SOL     OW27175   0.687   3.676  16.379 -0.5751  0.1073  0.1594
 5181SOL    HW127176   0.768   3.636  16.347 -1.2718 -0.6225 -0.6889
 5181SOL    HW227177   0.725   3.754  16.420  1.2967 -0.9318  0.4118
 5182SOL     OW27178   1.797   0.126   7.657 -0.8056  0.1166  0.5295
 5182SOL    HW127179   1.774   0.035   7.641 -0.1274  0.2477 -1.3142
 5182SOL    HW227180   1.712   0.163   7.681 -0.5674 -0.4266  2.1698
 5183SOL     OW27181   4.142   4.157  10.049  0.5221  0.0216 -0.2085
 5183SOL    HW127182   4.087   4.115  10.116  2.5975 -0.4094  1.2010
 5183SOL    HW227183   4.127   4.250  10.065 -1.7854 -0.4710  0.4719
 5184SOL     OW27184   1.228   2.625  10.349 -0.7104  0.2632  0.2067
 5184SOL    HW127185   1.258   2.635  10.259 -1.7028  0.5669 -0.0941
 5184SOL    HW227186   1.252   2.711  10.383 -0.2291  0.5576 -0.8989
 5185SOL     OW27187   3.269   2.662  15.215  0.4103  0.1381 -0.3188
 5185SOL    HW127188   3.244   2.707  15.295 -1.4366  0.5257 -1.1034
 5185SOL    HW227189   3.324   2.720  15.163  1.1577  0.2107  0.5612
 5186SOL     OW27190   1.659   2.849   3.563 -0.0189 -0.1896  0.1568
 5186SOL    HW127191   1.647   2.841   3.658  0.2847  2.3167  0.3901
 5186SOL    HW227192   1.709   2.930   3.554 -0.5821  0.1224 -0.1223
 5187SOL     OW27193   1.591   2.293   3.398  0.7854 -0.5604 -0.0304
 5187SOL    HW127194   1.530   2.365   3.379  2.1412  0.8586  0.9715
 5187SOL    HW227195   1.581   2.283   3.493 -0.6924 -0.4359 -0.1678
 5188SOL     OW27196   1.828   4.083   4.154 -0.1687 -0.0522 -0.0586
 5188SOL    HW127197   1.758   4.019   4.171 -1.7914  2.4554  2.7414
 5188SOL    HW227198   1.849   4.058   4.064 -0.0758 -2.5449  0.6514
 5189SOL     OW27199   4.711   2.345  12.262 -0.0254 -0.2990  0.4184
 5189SOL    HW127200   0.005   2.256  12.249  0.5387  0.1223 -1.0708
 5189SOL    HW227201   4.618   2.334  12.241 -0.1230  1.1156  0.0960
 5190SOL     OW27202   2.419   1.375  11.334  0.3547  0.6866  0.1504
 5190SOL    HW127203   2.341   1.322  11.317 -0.3767  2.2840 -1.4296
 5190SOL    HW227204   2.424   1.410  11.245  2.7873  1.3647  0.5644
 5191SOL     OW27205   2.336   2.596   3.541 -0.2572 -0.3749  0.0408
 5191SOL    HW127206   2.294   2.591   3.627  0.8382  1.6052  0.7122
 5191SOL    HW227207   2.386   2.514   3.540  0.2708 -0.0792  1.0618
 5192SOL     OW27208   1.660   0.116   9.343  0.8772 -0.1328  0.6672
 5192SOL    HW127209   1.712   0.117   9.262 -0.8447 -2.4135 -0.4403
 5192SOL    HW227210   1.718   0.171   9.396 -0.6799  1.5593  0.6378
 5193SOL     OW27211   1.581   1.111  14.515 -0.2478  0.0113 -0.0817
 5193SOL    HW127212   1.609   1.035  14.566 -0.2527  0.7920  1.0818
 5193SOL    HW227213   1.555   1.074  14.431  1.1993  1.1306 -1.0299
 5194SOL     OW27214   0.671   2.224   3.804  0.4317 -0.1588 -0.0809
 5194SOL    HW127215   0.738   2.185   3.860  0.4848  0.0837  0.0247
 5194SOL    HW227216   0.657   2.310   3.843  1.3350 -0.6012  1.2321
 5195SOL     OW27217   3.777   3.002   5.345 -0.0744  0.1446  0.5053
 5195SOL    HW127218   3.710   2.955   5.394 -0.0521 -2.3372 -1.7693
 5195SOL    HW227219   3.845   3.012   5.412  0.6217  3.5868 -0.7450
 5196SOL     OW27220   0.428   4.040  16.889 -0.1357  0.4357  0.0403
 5196SOL    HW127221   0.355   4.086  16.848  0.4023  0.9067 -0.3947
 5196SOL    HW227222   0.422   3.950  16.857 -1.1132  0.7082 -0.5338
 5197SOL     OW27223   3.799   2.192   2.168 -0.2131 -0.1746 -0.1284
 5197SOL    HW127224   3.724   2.228   2.215  0.7966 -1.1538  2.2077
 5197SOL    HW227225   3.852   2.157   2.239  2.8185  1.7965 -1.4043
 5198SOL     OW27226   2.834   4.551   7.394 -0.7395  0.4918 -0.2071
 5198SOL    HW127227   2.763   4.536   7.457  0.4054 -2.3239  0.3988
 5198SOL    HW227228   2.913   4.537   7.448 -0.5672  0.0721 -0.5785
 5199SOL     OW27229   1.130   3.165   9.808  0.2898 -0.4601 -0.6913
 5199SOL    HW127230   1.193   3.225   9.767 -0.6144  1.3055  0.4912
 5199SOL    HW227231   1.193   3.093   9.813 -0.6066 -1.0694  1.8911
 5200SOL     OW27232   1.234   0.902   3.881  0.1528  0.2392 -0.5097
 5200SOL    HW127233   1.160   0.961   3.894  1.1821  1.6920 -1.2560
 5200SOL    HW227234   1.228   0.896   3.786 -0.9914 -0.4759 -0.4013
 5201SOL     OW27235   1.185   0.396  12.165 -0.0958 -0.1761  0.0779
 5201SOL    HW127236   1.175   0.471  12.107  1.1817  0.5241  0.7567
 5201SOL    HW227237   1.092   0.392  12.191 -0.2690  2.1762 -0.2135
 5202SOL     OW27238   0.194   1.252   7.056 -0.4987 -0.1004 -0.2988
 5202SOL    HW127239   0.135   1.292   6.992  0.0516  0.5962 -0.3763
 5202SOL    HW227240   0.169   1.160   7.045 -0.5625 -0.3626  2.1075
 5203SOL     OW27241   4.507   1.831   1.837 -0.1106  0.0116  0.1261
 5203SOL    HW127242   4.537   1.921   1.849 -0.4928  0.0368  0.8968
 5203SOL    HW227243   4.514   1.824   1.742  1.4299 -2.2530  0.3918
 5204SOL     OW27244   3.301   3.306   2.379 -0.3543 -0.4393  0.0317
 5204SOL    HW127245   3.212   3.278   2.402  0.1446 -0.7480  1.5447
 5204SOL    HW227246   3.278   3.345   2.294 -0.9813  0.2497  0.5180
 5205SOL     OW27247   1.840   4.039  10.586  0.0467  0.0493  0.2353
 5205SOL    HW127248   1.768   4.078  10.537 -0.0585 -0.6081 -0.1347
 5205SOL    HW227249   1.798   3.967  10.634  1.6924 -1.2086 -0.1999
 5206SOL     OW27250   0.743   0.948   9.343 -0.5694  0.1273  0.0256
 5206SOL    HW127251   0.710   0.901   9.420  1.4928  2.3434  2.2802
 5206SOL    HW227252   0.739   1.041   9.364  0.0445  0.1573  0.0184
 5207SOL     OW27253   3.546   1.648   7.882  0.0573  0.1270 -0.0112
 5207SOL    HW127254   3.459   1.609   7.890  0.6095 -0.9741  0.6040
 5207SOL    HW227255   3.532   1.714   7.813  0.1422  0.6461  0.4737
 5208SOL     OW27256   0.165   3.752  12.727 -0.8354  0.1281 -0.4840
 5208SOL    HW127257   0.243   3.706  12.695 -1.7677 -0.5698 -1.7781
 5208SOL    HW227258   0.176   3.756  12.822  1.9677 -1.5702 -0.7252
 5209SOL     OW27259   4.443   0.299  16.151  0.0283  0.5550 -0.2275
 5209SOL    HW127260   4.465   0.310  16.243  0.8681  0.7702 -0.4549
 5209SOL    HW227261   4.498   0.365  16.109  0.3342  0.0430 -0.6475
 5210SOL     OW27262   1.097   0.760   6.006 -0.2549  0.7100  0.9069
 5210SOL    HW127263   1.030   0.720   6.061 -0.3005  1.0331  1.0858
 5210SOL    HW227264   1.040   0.781   5.931  1.4843 -2.0241 -1.1873
 5211SOL     OW27265   2.402   1.171   6.345  0.4413  0.7314 -0.2612
 5211SOL    HW127266   2.365   1.254   6.315  0.0796  0.5755 -0.2439
 5211SOL    HW227267   2.421   1.195   6.436 -0.7920 -0.8298  0.4103
 5212SOL     OW27268   3.134   2.110   4.881 -0.2195  0.0998 -0.4071
 5212SOL    HW127269   3.115   2.196   4.918  0.3424 -0.5906  1.4926
 5212SOL    HW227270   3.079   2.099   4.804 -1.5507  2.2452  0.2415
 5213SOL     OW27271   0.270   4.053   7.460 -0.2745  0.1623  0.0969
 5213SOL    HW127272   0.186   4.099   7.465 -1.2910 -1.6549 -0.2651
 5213SOL    HW227273   0.317   4.065   7.543  0.0529 -0.8643  0.0547
 5214SOL     OW27274   2.772   1.256   8.228  0.4770 -1.3599 -0.0262
 5214SOL    HW127275   2.705   1.255   8.296  0.7971  1.0319  0.3171
 5214SOL    HW227276   2.723   1.199   8.168 -0.1555  0.6649 -1.4146
 5215SOL     OW27277   2.788   2.360   3.555  0.3607  0.2570 -0.0883
 5215SOL    HW127278   2.806   2.454   3.547  0.7347  0.2575  0.7239
 5215SOL    HW227279   2.869   2.326   3.593  0.2479  0.4411  0.3282
 5216SOL     OW27280   3.531   4.390   9.488 -0.2395 -0.7263 -0.5069
 5216SOL    HW127281   3.526   4.427   9.400  1.7014 -1.8875 -1.0980
 5216SOL    HW227282   3.625   4.397   9.503 -0.0849 -2.5370 -0.6041
 5217SOL     OW27283   1.675   0.664   6.225  0.6316  0.7895  0.3642
 5217SOL    HW127284   1.621   0.736   6.257  4.2976  2.7985  1.9372
 5217SOL    HW227285   1.602   0.614   6.188  1.3006 -0.1014  0.2364
 5218SOL     OW27286   4.098   0.336  14.531 -0.3916  0.6439  0.2397
 5218SOL    HW127287   4.067   0.269  14.470  0.0125  2.5795 -2.0620
 5218SOL    HW227288   4.129   0.401  14.468 -0.7651  0.2465 -0.3506
 5219SOL     OW27289   0.555   1.920   7.603  0.2255  0.0143 -0.6353
 5219SOL    HW127290   0.467   1.958   7.604 -0.9578 -2.7266 -1.8650
 5219SOL    HW227291   0.602   1.978   7.543 -0.6462 -0.6177 -1.9290
 5220SOL     OW27292   3.973   1.046   4.803  0.0161 -0.2474 -0.0835
 5220SOL    HW127293   4.024   1.055   4.722 -1.3339 -1.8668 -1.1104
 5220SOL    HW227294   3.937   0.963   4.771 -0.7944  0.6633 -1.5631
 5221SOL     OW27295   0.440   2.338   8.802 -0.6042 -0.1952  0.6630
 5221SOL    HW127296   0.386   2.304   8.873  0.7674 -1.6780  1.0008
 5221SOL    HW227297   0.390   2.324   8.721 -1.9296  2.2480  1.0533
 5222SOL     OW27298   0.164   1.845   0.889  0.1794  0.4255 -0.3202
 5222SOL    HW127299   0.235   1.886   0.840  0.2132  2.5467  1.4855
 5222SOL    HW227300   0.090   1.820   0.834 -1.5440  0.7224  1.8707
 5223SOL     OW27301   3.841   2.508   6.746  0.3456 -0.1280  0.2214
 5223SOL    HW127302   3.866   2.479   6.834 -0.9955  0.2117  0.7037
 5223SOL    HW227303   3.796   2.434   6.705 -0.7488  0.3295  0.6232
 5224SOL     OW27304   4.328   2.785   6.353  0.3119 -0.8651 -0.0416
 5224SOL    HW127305   4.271   2.840   6.407  0.5080 -0.8762  0.1762
 5224SOL    HW227306   4.310   2.693   6.368 -0.0090 -0.5443  1.4827
 5225SOL     OW27307   3.048   3.583   3.905  0.3628  0.5170 -0.3576
 5225SOL    HW127308   3.126   3.567   3.959  0.6835 -0.9847 -1.2830
 5225SOL    HW227309   3.014   3.657   3.956 -0.3319 -0.0292 -0.0235
 5226SOL     OW27310   0.173   0.448   1.225 -0.4166  0.0096 -0.1615
 5226SOL    HW127311   0.219   0.512   1.280 -2.4270  1.7559 -0.4957
 5226SOL    HW227312   0.238   0.379   1.214 -1.8634 -1.6111  1.3913
 5227SOL     OW27313   4.431   0.716  15.410 -0.2344  0.5078 -0.1080
 5227SOL    HW127314   4.469   0.779  15.349 -3.0178  1.3157 -0.9952
 5227SOL    HW227315   4.474   0.735  15.493  0.4326 -0.1063 -0.3118
 5228SOL     OW27316   4.249   4.401   5.670  0.1713  0.2947  0.7862
 5228SOL    HW127317   4.191   4.460   5.622  0.0994 -0.3060  0.1361
 5228SOL    HW227318   4.187   4.342   5.714 -1.0637 -0.6939 -2.2328
 5229SOL     OW27319   0.254   3.901  11.354 -0.5484  0.0020 -0.2238
 5229SOL    HW127320   0.185   3.942  11.406 -1.8763 -1.6939 -0.6566
 5229SOL    HW227321   0.296   3.837  11.411  0.2108 -1.6723 -2.6649
 5230SOL     OW27322   4.117   3.245  11.918  0.0222 -0.3648  0.1453
 5230SOL    HW127323   4.155   3.182  11.979  0.0864  0.8171  1.3490
 5230SOL    HW227324   4.168   3.326  11.923 -1.2110  0.3182  1.8399
 5231SOL     OW27325   0.415   0.514  13.223 -0.0147  0.0929  0.4649
 5231SOL    HW127326   0.488   0.575  13.212  1.2392 -0.8417  3.5684
 5231SOL    HW227327   0.421   0.468  13.140  0.9937  0.6242  0.2425
 5232SOL     OW27328   0.620   3.083   7.130 -0.0159 -0.3651 -0.2839
 5232SOL    HW127329   0.618   3.120   7.219 -2.1879  3.2225 -1.8557
 5232SOL    HW227330   0.532   3.046   7.126 -0.1583  0.1706 -1.9027
 5233SOL     OW27331   2.369   0.903   6.382 -0.1396  0.1192 -0.0545
 5233SOL    HW127332   2.326   0.859   6.309 -1.3022 -0.2440  0.8578
 5233SOL    HW227333   2.361   0.993   6.349  1.0988  0.1575 -0.2649
 5234SOL     OW27334   2.436   4.558   5.958  0.3238 -0.0998 -0.1372
 5234SOL    HW127335   2.458   4.495   5.889  4.5362  1.2659  0.0065
 5234SOL    HW227336   2.409   4.498   6.028  0.2047 -1.2134 -1.1266
 5235SOL     OW27337   3.730   1.427   7.765 -0.5389 -0.5670  0.3730
 5235SOL    HW127338   3.680   1.502   7.797 -0.2898 -0.5836  0.8128
 5235SOL    HW227339   3.800   1.452   7.706 -0.5851  0.6180  0.8216
 5236SOL     OW27340   4.134   0.804  13.125  0.4117 -0.1016  0.3478
 5236SOL    HW127341   4.136   0.825  13.032 -0.4889  0.5711  0.4819
 5236SOL    HW227342   4.045   0.770  13.133  1.6494 -3.5304 -0.5289
 5237SOL     OW27343   1.053   2.093   7.637 -0.2678 -0.4648  0.0540
 5237SOL    HW127344   1.053   2.042   7.556 -0.3638  0.0601 -0.2752
 5237SOL    HW227345   1.109   2.036   7.690  0.5444  1.1051  0.8986
 5238SOL     OW27346   0.043   2.389   6.101 -0.0256 -0.0701  0.8098
 5238SOL    HW127347   4.714   2.442   6.144 -1.0411 -1.1086  0.5021
 5238SOL    HW227348   0.085   2.359   6.182  0.7629 -0.6141  0.1912
 5239SOL     OW27349   4.086   3.906   3.844 -0.3298  0.5081 -0.0945
 5239SOL    HW127350   4.164   3.854   3.864 -1.4543 -1.1563 -0.0585
 5239SOL    HW227351   4.070   3.956   3.925 -1.1492 -0.5439  0.3891
 5240SOL     OW27352   1.010   1.771   3.549 -0.0928  0.6492 -0.4055
 5240SOL    HW127353   1.092   1.741   3.510  0.0498  0.9195 -0.3148
 5240SOL    HW227354   0.983   1.682   3.572  3.4731  0.3915  2.7402
 5241SOL     OW27355   3.043   3.504  12.488  0.2635 -0.0683  0.3798
 5241SOL    HW127356   2.952   3.531  12.479  0.2808 -1.0182 -2.5689
 5241SOL    HW227357   3.100   3.568  12.445  1.7788 -0.6704  1.5003
 5242SOL     OW27358   1.550   0.987  16.441 -0.2658 -0.1947 -0.5966
 5242SOL    HW127359   1.644   0.971  16.431 -0.1383  1.1596 -1.5955
 5242SOL    HW227360   1.566   1.078  16.417  2.5697 -1.0105 -1.7825
 5243SOL     OW27361   3.964   0.524   9.455 -0.1601 -0.0239 -0.2419
 5243SOL    HW127362   4.010   0.587   9.400 -0.8864  0.7044 -0.0134
 5243SOL    HW227363   3.900   0.584   9.492  1.1006 -0.3747  2.5400
 5244SOL     OW27364   2.830   3.070   7.998  0.1273  0.9538  0.3417
 5244SOL    HW127365   2.736   3.048   7.997 -0.0504  1.7623 -0.3676
 5244SOL    HW227366   2.849   3.060   8.092 -0.5591  1.8949  0.5832
 5245SOL     OW27367   1.206   4.232  16.191 -0.1311  0.0262 -0.3081
 5245SOL    HW127368   1.188   4.221  16.098  2.8813 -1.4115 -0.6983
 5245SOL    HW227369   1.122   4.224  16.236  0.2589  5.3609  1.4182
 5246SOL     OW27370   0.551   2.518   3.915 -0.1582 -0.3313  0.9059
 5246SOL    HW127371   0.595   2.567   3.845  0.0834  0.6296  1.7322
 5246SOL    HW227372   0.622   2.514   3.979  1.6437 -0.3180 -1.0797
 5247SOL     OW27373   4.127   2.433   7.391 -0.0415 -0.6173 -0.2650
 5247SOL    HW127374   4.076   2.395   7.463 -0.7041  0.4161 -0.1781
 5247SOL    HW227375   4.203   2.376   7.380 -0.0129 -0.8205  0.9303
 5248SOL     OW27376   0.848   0.715   4.596  0.1750 -0.8689 -0.1587
 5248SOL    HW127377   0.928   0.727   4.647 -0.3560  1.9440 -0.0277
 5248SOL    HW227378   0.781   0.692   4.660  0.6517 -0.1234  0.5978
 5249SOL     OW27379   2.348   2.567  12.504 -0.5164 -0.1953  0.0118
 5249SOL    HW127380   2.382   2.514  12.431 -1.3976 -0.6176 -0.1031
 5249SOL    HW227381   2.334   2.655  12.470 -1.5659 -0.9534 -1.5612
 5250SOL     OW27382   0.193   3.856   0.014 -0.2954  0.8225  0.1272
 5250SOL    HW127383   0.181   3.951   0.016  0.1097  0.9282 -3.5802
 5250SOL    HW227384   0.215   3.835   0.105 -2.8915  1.2937  0.8513
 5251SOL     OW27385   0.340   1.898  15.774  0.7601 -0.6570  0.5630
 5251SOL    HW127386   0.382   1.891  15.860  2.4055 -1.4979 -0.2969
 5251SOL    HW227387   0.408   1.860  15.718  0.0529 -1.1305  0.0263
 5252SOL     OW27388   2.235   2.856   4.008 -0.2431 -0.1669 -0.3422
 5252SOL    HW127389   2.309   2.900   3.966 -1.8518  1.8859 -1.0206
 5252SOL    HW227390   2.212   2.786   3.947 -2.9352  1.4790 -1.2207
 5253SOL     OW27391   0.512   2.145   2.539 -0.0142  0.1033 -0.6504
 5253SOL    HW127392   0.559   2.138   2.455 -0.4368  1.7162 -1.0138
 5253SOL    HW227393   0.523   2.239   2.551 -0.9396  0.1454 -0.1710
 5254SOL     OW27394   2.653   3.569   9.842 -0.5121  0.3399 -0.2988
 5254SOL    HW127395   2.605   3.568   9.925  0.8407  1.6598  0.5161
 5254SOL    HW227396   2.584   3.578   9.777 -0.9755 -0.1461  0.1284
 5255SOL     OW27397   3.712   0.938   5.747  0.1072 -0.0621 -0.1283
 5255SOL    HW127398   3.744   1.029   5.752 -0.2435  0.0562 -0.0318
 5255SOL    HW227399   3.635   0.951   5.802 -0.9006 -0.7272 -1.4120
 5256SOL     OW27400   0.198   4.526   8.575 -0.0022  0.0222  0.4965
 5256SOL    HW127401   0.282   4.568   8.595  0.7612 -1.2038 -0.1629
 5256SOL    HW227402   0.140   4.600   8.558 -0.0980 -0.0254  0.6184
 5257SOL     OW27403   2.945   0.720   5.469  0.1421 -0.4787  0.0181
 5257SOL    HW127404   3.008   0.778   5.426  0.8063  0.1473  1.7973
 5257SOL    HW227405   2.981   0.632   5.464 -0.4621 -0.7043 -0.3182
 5258SOL     OW27406   2.479   0.847   1.081 -0.2836  0.2793  0.3579
 5258SOL    HW127407   2.466   0.935   1.045 -0.3261  0.4139  0.6988
 5258SOL    HW227408   2.413   0.838   1.151 -0.1571  0.3936  0.4936
 5259SOL     OW27409   0.625   3.977   6.987 -0.0119  0.4868 -0.0177
 5259SOL    HW127410   0.564   4.037   6.943 -1.0441 -2.3552 -2.4193
 5259SOL    HW227411   0.608   4.015   7.073 -1.0932 -0.6990  0.2805
 5260SOL     OW27412   0.538   0.391   9.764 -0.4937  0.2183 -0.0222
 5260SOL    HW127413   0.463   0.345   9.728 -0.4562 -0.3966  0.6744
 5260SOL    HW227414   0.569   0.326   9.828  0.3971 -0.1071 -0.7880
 5261SOL     OW27415   0.349   4.561   5.157  0.1313  0.1653  0.1885
 5261SOL    HW127416   0.290   4.619   5.109  0.8586  2.0576  1.5665
 5261SOL    HW227417   0.311   4.478   5.128 -0.6947  0.6991 -0.2695
 5262SOL     OW27418   2.264   0.038   7.344 -0.9581  0.2710 -0.0828
 5262SOL    HW127419   2.238   4.692   7.306  1.4138 -0.1444 -0.7530
 5262SOL    HW227420   2.303   0.073   7.264  0.0532  2.5997  1.4091
 5263SOL     OW27421   2.456   0.538  11.829  0.1991  0.0209  0.1034
 5263SOL    HW127422   2.470   0.486  11.908  0.1787  0.2657  0.2684
 5263SOL    HW227423   2.360   0.543  11.835  0.2617  0.5694  0.6095
 5264SOL     OW27424   0.110   4.310   7.567  0.0549 -0.0959 -0.3037
 5264SOL    HW127425   0.085   4.229   7.612  2.0661 -0.2609  0.4958
 5264SOL    HW227426   0.168   4.348   7.632 -1.1456 -2.1721  2.0009
 5265SOL     OW27427   4.192   3.023   5.665  0.1351 -0.0083  0.1690
 5265SOL    HW127428   4.193   3.108   5.710  1.1988 -0.0712  0.2652
 5265SOL    HW227429   4.285   3.002   5.664 -0.0530 -0.8444  0.1066
 5266SOL     OW27430   4.724   3.998   0.693  0.2151 -0.4365  0.3388
 5266SOL    HW127431   4.665   4.065   0.729 -2.5491 -2.0425 -1.1413
 5266SOL    HW227432   4.707   4.009   0.599  0.5311 -1.8792  0.1113
 5267SOL     OW27433   3.720   3.004   2.752 -0.1255 -0.6481 -0.1935
 5267SOL    HW127434   3.813   3.006   2.771 -0.0126  0.6261 -0.8194
 5267SOL    HW227435   3.716   2.930   2.692 -2.3526 -0.4712 -0.2863
 5268SOL     OW27436   0.795   3.903  16.422 -0.3593 -0.0945  0.2929
 5268SOL    HW127437   0.890   3.892  16.413 -0.4419 -1.2549  0.9040
 5268SOL    HW227438   0.798   3.990  16.463  1.2590  0.2630 -0.5527
 5269SOL     OW27439   1.569   0.908  16.703  0.0088 -0.2998  0.4544
 5269SOL    HW127440   1.557   1.003  16.703  1.1863 -0.1517 -0.0806
 5269SOL    HW227441   1.553   0.872  16.616 -1.9095  0.1116  0.6317
 5270SOL     OW27442   2.253   2.107  17.155 -0.0456 -0.0379 -0.1614
 5270SOL    HW127443   2.346   2.127  17.166 -0.1047  0.8740 -1.2978
 5270SOL    HW227444   2.213   2.153  17.228 -1.1257 -0.5765 -0.4111
 5271SOL     OW27445   1.234   0.146   7.252  0.1469 -0.2420  0.6946
 5271SOL    HW127446   1.286   0.124   7.329  0.7514  0.4989  0.5007
 5271SOL    HW227447   1.277   0.227   7.225 -1.0155  1.2620  3.2337
 5272SOL     OW27448   0.989   1.386   9.006 -0.0169  0.3565 -0.4198
 5272SOL    HW127449   0.934   1.458   9.038 -0.0981 -0.9037  2.2480
 5272SOL    HW227450   0.937   1.312   9.034 -0.2707  0.1700 -1.3845
 5273SOL     OW27451   2.140   1.231  11.685 -0.2192  0.0885 -0.3769
 5273SOL    HW127452   2.119   1.319  11.714 -0.7560 -0.7073  1.6055
 5273SOL    HW227453   2.225   1.225  11.728  0.4757  0.2110 -1.7179
 5274SOL     OW27454   0.094   1.362   6.472 -0.8323  0.0627 -0.1623
 5274SOL    HW127455   0.129   1.393   6.555  0.1568  1.4242 -1.0792
 5274SOL    HW227456   0.001   1.369   6.493 -0.3025 -0.3588  2.2834
 5275SOL     OW27457   2.314   3.805  13.762  0.0460  0.1579  0.1716
 5275SOL    HW127458   2.234   3.753  13.777 -0.9114  1.5710 -0.0954
 5275SOL    HW227459   2.374   3.731  13.751  1.5591  1.7055 -1.6555
 5276SOL     OW27460   4.421   2.675  11.383  0.2588  0.0336  0.2354
 5276SOL    HW127461   4.381   2.734  11.319 -2.7475 -1.7347  0.4974
 5276SOL    HW227462   4.514   2.665  11.365  0.1004  0.7509 -0.9689
 5277SOL     OW27463   3.650   1.640   6.250 -0.4737 -0.0218  0.1093
 5277SOL    HW127464   3.717   1.579   6.218  0.5219  1.9123 -1.4942
 5277SOL    HW227465   3.580   1.623   6.187 -3.3945 -1.2603  3.6658
 5278SOL     OW27466   1.994   3.492   8.457 -0.4793 -0.7451 -0.0660
 5278SOL    HW127467   1.984   3.434   8.532 -1.6662  1.9761  1.8905
 5278SOL    HW227468   1.990   3.578   8.499  1.3681 -0.0133 -1.4001
 5279SOL     OW27469   2.236   1.990   0.959  0.1969  0.0826 -1.0889
 5279SOL    HW127470   2.246   2.082   0.931  0.8632  0.6216  0.9093
 5279SOL    HW227471   2.266   1.947   0.879  2.4966  0.2034 -0.2834
 5280SOL     OW27472   1.119   1.000   0.470 -0.1259  0.1605  0.2219
 5280SOL    HW127473   1.131   1.069   0.405 -1.5930  0.3919  0.1970
 5280SOL    HW227474   1.146   0.922   0.421 -3.0084 -0.9516  0.4175
 5281SOL     OW27475   3.629   1.698   3.202  0.0401 -0.4969  0.2310
 5281SOL    HW127476   3.564   1.691   3.273 -1.4337  1.0881 -0.9816
 5281SOL    HW227477   3.667   1.611   3.213  0.9330  0.0228  1.2002
 5282SOL     OW27478   2.089   1.212   9.776  0.6425 -0.0643  0.2964
 5282SOL    HW127479   2.000   1.213   9.740  0.9497 -0.2139 -0.4565
 5282SOL    HW227480   2.126   1.287   9.730  0.0119  0.0956  0.0481
 5283SOL     OW27481   3.865   3.100  11.438 -0.2169  0.1416  0.0031
 5283SOL    HW127482   3.932   3.067  11.498  1.9082  1.9994 -1.3388
 5283SOL    HW227483   3.787   3.088  11.493 -1.7323 -0.6672 -2.3347
 5284SOL     OW27484   1.935   2.277   7.063 -0.2218 -0.0577  0.3823
 5284SOL    HW127485   2.013   2.221   7.070 -1.5182 -2.2020 -2.2622
 5284SOL    HW227486   1.971   2.364   7.047  1.5553 -0.6703  1.0649
 5285SOL     OW27487   2.482   3.017   4.345  0.5813  0.0829 -0.0750
 5285SOL    HW127488   2.507   2.991   4.257 -2.0311 -0.6316 -0.6103
 5285SOL    HW227489   2.441   2.937   4.379  2.7771 -2.3269 -3.2003
 5286SOL     OW27490   1.751   0.927   3.812  0.2141  0.1579  0.2875
 5286SOL    HW127491   1.725   0.963   3.728 -2.8638  0.2055  1.2614
 5286SOL    HW227492   1.799   0.998   3.856  0.5274 -0.6782  1.3199
 5287SOL     OW27493   3.588   1.603   2.675  0.3805 -0.4637  0.3280
 5287SOL    HW127494   3.567   1.578   2.585  2.3917 -0.5018 -0.1370
 5287SOL    HW227495   3.619   1.524   2.719 -0.4837 -1.5753 -1.0857
 5288SOL     OW27496   3.549   3.382   4.121  0.5820  0.1012 -0.1315
 5288SOL    HW127497   3.558   3.428   4.037  2.5422  1.2613  0.7127
 5288SOL    HW227498   3.564   3.459   4.176  0.2033  1.2319 -1.5775
 5289SOL     OW27499   4.157   1.876   4.831 -0.0056  0.9289 -0.0256
 5289SOL    HW127500   4.144   1.964   4.798  0.0297  0.8511 -0.2435
 5289SOL    HW227501   4.246   1.855   4.803  0.1151  0.9509  0.3408
 5290SOL     OW27502   2.510   3.455   0.871 -0.2260 -0.4680 -0.0557
 5290SOL    HW127503   2.418   3.483   0.864 -0.5871 -2.0698 -1.9041
 5290SOL    HW227504   2.514   3.384   0.936 -0.3403 -1.3528 -1.0065
 5291SOL     OW27505   1.356   4.602   4.565 -0.0727  0.8841  0.1891
 5291SOL    HW127506   1.289   4.667   4.586 -0.3250  1.1423 -1.4450
 5291SOL    HW227507   1.413   4.636   4.497 -0.8263 -1.5364 -1.6546
 5292SOL     OW27508   3.334   1.047   5.214 -0.0111  0.0208 -0.2583
 5292SOL    HW127509   3.318   1.138   5.241 -0.7538  0.9719 -3.8211
 5292SOL    HW227510   3.428   1.050   5.197  0.3902 -1.1132  1.9061
 5293SOL     OW27511   1.039   1.669  15.973  0.2202  0.7296 -0.1111
 5293SOL    HW127512   1.047   1.603  15.904  0.3832 -0.0582  0.6607
 5293SOL    HW227513   1.083   1.632  16.050  1.3114  1.6692 -0.2865
 5294SOL     OW27514   4.428   2.206   3.959  0.6883 -0.0481 -0.2312
 5294SOL    HW127515   4.366   2.217   3.886  1.9303  1.4201 -1.0781
 5294SOL    HW227516   4.506   2.227   3.907 -0.1426  0.8627 -1.1150
 5295SOL     OW27517   2.255   3.197   5.230 -0.3561  0.0464 -0.0300
 5295SOL    HW127518   2.218   3.157   5.309  2.7015 -0.5892  1.0938
 5295SOL    HW227519   2.240   3.289   5.253  1.7952  1.0088 -2.5829
 5296SOL     OW27520   1.452   1.306   4.671  0.2227 -0.4274 -0.4699
 5296SOL    HW127521   1.495   1.222   4.686  0.7090  0.0834  1.0296
 5296SOL    HW227522   1.358   1.295   4.687  0.5109 -1.2127  0.7092
 5297SOL     OW27523   3.168   3.336  10.902  0.2132 -0.5714  0.6478
 5297SOL    HW127524   3.163   3.356  10.995  0.8784  0.0226  0.5488
 5297SOL    HW227525   3.224   3.259  10.910  0.6073 -0.3514 -0.0073
 5298SOL     OW27526   3.033   2.454   7.169 -0.0150  0.1087  0.0057
 5298SOL    HW127527   2.997   2.379   7.216 -0.6691  0.9021  0.7825
 5298SOL    HW227528   2.974   2.456   7.093  0.0099 -0.3601 -0.0213
 5299SOL     OW27529   1.944   1.855  13.937 -0.2536  0.1510  0.3422
 5299SOL    HW127530   1.985   1.835  13.853 -1.3778 -1.5826  0.1963
 5299SOL    HW227531   1.857   1.823  13.913  0.0877 -1.1477  0.8446
 5300SOL     OW27532   4.053   0.472   5.181 -0.2171 -0.1379  0.0199
 5300SOL    HW127533   3.961   0.447   5.183 -0.6005  1.4651  2.7976
 5300SOL    HW227534   4.083   0.381   5.183  0.4663  0.0540 -1.3275
 5301SOL     OW27535   0.072   2.865   5.311 -0.3573 -0.4576 -0.5517
 5301SOL    HW127536   0.043   2.815   5.387  0.9548  1.2755  1.0984
 5301SOL    HW227537   4.726   2.906   5.291  0.3388  1.3956  0.2895
 5302SOL     OW27538   4.706   1.759   3.251 -0.0274 -0.3950 -0.3821
 5302SOL    HW127539   4.724   1.710   3.170  0.3593  0.9965 -1.1400
 5302SOL    HW227540   4.692   1.848   3.220  1.1027  0.0292  0.3507
 5303SOL     OW27541   1.145   0.813   5.547 -0.4978  0.2073 -0.3968
 5303SOL    HW127542   1.239   0.799   5.547 -0.4660  0.4370 -0.8675
 5303SOL    HW227543   1.128   0.841   5.457  2.4291 -1.4130 -1.4372
 5304SOL     OW27544   1.716   4.009   9.257 -0.2214  0.1828 -0.4137
 5304SOL    HW127545   1.681   4.055   9.333  1.6918 -1.0071  1.1781
 5304SOL    HW227546   1.671   4.056   9.186  0.0393 -0.0502 -0.7356
 5305SOL     OW27547   1.932   2.105  12.940  0.2855 -0.1866 -0.1351
 5305SOL    HW127548   1.969   2.137  12.857 -2.2005  0.8408 -0.8588
 5305SOL    HW227549   2.011   2.091  12.991 -0.2137 -1.5278  0.2771
 5306SOL     OW27550   4.303   3.623   8.583  0.1758  0.3076 -0.3801
 5306SOL    HW127551   4.297   3.589   8.673 -0.8647  0.8746 -0.2412
 5306SOL    HW227552   4.395   3.650   8.570  0.1033  0.7585  0.0322
 5307SOL     OW27553   0.607   1.230   0.131  0.5037  0.0125 -0.1590
 5307SOL    HW127554   0.537   1.253   0.070  0.8105 -1.0520 -0.9034
 5307SOL    HW227555   0.687   1.241   0.081 -0.8580  0.4002 -2.2320
 5308SOL     OW27556   2.947   2.043   8.180  0.5792  0.3909 -0.5078
 5308SOL    HW127557   2.943   1.955   8.143 -1.6985  0.8589 -1.3540
 5308SOL    HW227558   2.884   2.039   8.252  0.3871  1.2230 -0.6338
 5309SOL     OW27559   2.172   4.433   7.503 -0.1657  0.3603 -0.0629
 5309SOL    HW127560   2.186   4.520   7.542  0.3444 -0.4224  1.4936
 5309SOL    HW227561   2.078   4.418   7.505 -0.0982 -0.1480 -0.8731
 5310SOL     OW27562   1.407   4.293   6.853 -0.0460  0.3403 -0.6659
 5310SOL    HW127563   1.327   4.240   6.847  0.6167 -0.8221  0.8659
 5310SOL    HW227564   1.374   4.368   6.902 -0.3742 -0.8912  1.0076
 5311SOL     OW27565   1.458   1.848   7.249  0.5210 -0.8045  0.0462
 5311SOL    HW127566   1.482   1.806   7.331 -0.2407 -1.1440  0.0997
 5311SOL    HW227567   1.526   1.808   7.195  0.5523  0.3530 -0.7825
 5312SOL     OW27568   0.198   1.119   2.364 -0.4643  0.4647 -0.0594
 5312SOL    HW127569   0.175   1.032   2.397 -2.5390 -0.3605 -3.6943
 5312SOL    HW227570   0.125   1.138   2.306 -0.0666  2.5104  0.0983
 5313SOL     OW27571   0.029   3.977   1.836 -0.1559  0.8318 -0.3925
 5313SOL    HW127572   4.717   3.898   1.858  3.2124 -0.5525  2.3337
 5313SOL    HW227573   4.726   4.038   1.897 -1.5803 -0.6645  0.1619
 5314SOL     OW27574   1.073   0.548   6.866  0.1849 -0.1567 -0.3655
 5314SOL    HW127575   1.015   0.496   6.809  3.3868 -0.7892 -3.0151
 5314SOL    HW227576   1.052   0.632   6.825  2.8143  1.0556  0.7797
 5315SOL     OW27577   0.443   4.541  16.420 -0.3940  0.6901 -0.0282
 5315SOL    HW127578   0.491   4.619  16.392  1.3882 -0.3183  0.2174
 5315SOL    HW227579   0.437   4.504  16.332 -1.4582 -0.4492  0.5341
 5316SOL     OW27580   2.116   3.237   7.725  0.5689 -0.2600  0.1688
 5316SOL    HW127581   2.109   3.328   7.752  1.6259 -0.2151  0.2701
 5316SOL    HW227582   2.024   3.215   7.706  0.2256 -0.3653  1.9796
 5317SOL     OW27583   0.142   3.691   3.528 -0.9754  0.3495  0.1921
 5317SOL    HW127584   0.164   3.598   3.540  1.3546  1.0504  1.1375
 5317SOL    HW227585   0.216   3.717   3.474 -1.7586 -0.8352 -1.4551
 5318SOL     OW27586   4.521   3.840   8.613 -0.1815 -0.5634 -0.1628
 5318SOL    HW127587   4.580   3.904   8.652 -0.5519 -1.8518  2.4897
 5318SOL    HW227588   4.545   3.846   8.521 -2.6834  0.4339 -0.7641
 5319SOL     OW27589   0.719   4.270   5.146  0.0629 -0.1078  1.0790
 5319SOL    HW127590   0.735   4.220   5.226  1.0021 -0.2994  0.7686
 5319SOL    HW227591   0.661   4.335   5.187  0.3904  1.4875 -1.0195
 5320SOL     OW27592   2.022   1.743  13.431  0.2815 -0.3306  0.6300
 5320SOL    HW127593   1.953   1.725  13.367  0.5265  1.5852 -0.1765
 5320SOL    HW227594   2.097   1.752  13.372 -1.6819  0.0665 -1.8050
 5321SOL     OW27595   0.437   3.243  12.070 -0.2983  0.0852 -0.2508
 5321SOL    HW127596   0.347   3.210  12.069  0.6408 -2.4644  0.1068
 5321SOL    HW227597   0.473   3.231  12.158 -0.8588 -1.0024 -0.1717
 5322SOL     OW27598   0.788   4.193  10.840  0.0374 -0.1084  0.2823
 5322SOL    HW127599   0.743   4.240  10.770  0.4491 -0.7847 -0.4230
 5322SOL    HW227600   0.806   4.267  10.899  1.7826 -0.4536  0.1728
 5323SOL     OW27601   2.232   0.091   1.515 -0.0595 -0.5432  0.2386
 5323SOL    HW127602   2.195   0.037   1.445 -0.3886  2.0990 -1.6412
 5323SOL    HW227603   2.277   0.156   1.462 -0.5721  0.2993  0.8268
 5324SOL     OW27604   3.604   4.664   1.621  0.2644  0.1343  0.0137
 5324SOL    HW127605   3.544   4.737   1.612  0.3034  0.4941  2.7103
 5324SOL    HW227606   3.665   4.683   1.550  1.3538 -3.3179  0.0242
 5325SOL     OW27607   2.912   0.107   6.344  0.3036 -0.5463 -0.0802
 5325SOL    HW127608   2.951   0.059   6.417  2.1612  0.6629 -0.2979
 5325SOL    HW227609   2.981   0.169   6.322 -1.1821  1.8773  2.1761
 5326SOL     OW27610   3.996   4.201  10.443  0.1169  0.6458 -0.2276
 5326SOL    HW127611   4.003   4.137  10.372  2.4103 -1.9110  2.3463
 5326SOL    HW227612   4.043   4.268  10.392 -0.6482  1.3456 -0.0182
 5327SOL     OW27613   0.974   2.861   4.172  0.0506  0.4263  0.1363
 5327SOL    HW127614   1.049   2.912   4.203  0.7722  0.0474 -0.9952
 5327SOL    HW227615   0.954   2.803   4.246  0.9879  0.5894  0.5131
 5328SOL     OW27616   0.528   2.449   5.611 -0.2038  0.7557  1.5966
 5328SOL    HW127617   0.448   2.397   5.610  0.2072  0.1564 -2.5690
 5328SOL    HW227618   0.590   2.376   5.619  0.1603  0.7583 -1.1784
 5329SOL     OW27619   2.454   4.582   7.657 -0.8786 -0.0570 -0.3095
 5329SOL    HW127620   2.434   4.610   7.747 -0.6892 -0.3219 -0.1842
 5329SOL    HW227621   2.458   4.669   7.618 -1.1057  0.6408  1.1949
 5330SOL     OW27622   2.376   2.459   2.617  0.3629  0.3468 -0.1842
 5330SOL    HW127623   2.424   2.502   2.546  1.0759  0.5305  0.3993
 5330SOL    HW227624   2.420   2.502   2.690 -1.4869 -0.0219  1.1250
 5331SOL     OW27625   1.662   1.975   3.308  0.1816 -0.0002  0.3639
 5331SOL    HW127626   1.667   2.060   3.351 -1.1121  0.5852 -0.6571
 5331SOL    HW227627   1.754   1.962   3.287 -0.4344 -0.2897 -2.1562
 5332SOL     OW27628   1.466   1.991   1.773 -0.3780  0.6222  0.1433
 5332SOL    HW127629   1.424   2.067   1.813  1.2343  1.9386 -0.6546
 5332SOL    HW227630   1.468   1.925   1.842 -0.3249  1.1763  0.6751
 5333SOL     OW27631   3.959   3.941   4.885  0.2666  0.1524 -0.1488
 5333SOL    HW127632   4.017   3.875   4.847 -0.6570 -0.8618  0.1615
 5333SOL    HW227633   3.883   3.901   4.842 -2.4562  2.3308  2.6281
 5334SOL     OW27634   2.853   0.706   5.100  0.0170  0.5331 -0.3594
 5334SOL    HW127635   2.948   0.712   5.088  0.1068  1.5338  0.7618
 5334SOL    HW227636   2.824   0.790   5.137 -2.5757 -0.8419  0.6571
 5335SOL     OW27637   1.229   3.652   1.752 -0.1845 -0.2334  0.0892
 5335SOL    HW127638   1.143   3.641   1.710  0.7798 -0.9977 -1.6740
 5335SOL    HW227639   1.286   3.621   1.682  0.9579  1.5618  0.2404
 5336SOL     OW27640   3.136   2.881   7.928 -0.3093  0.3910 -0.4225
 5336SOL    HW127641   3.094   2.920   7.851 -0.0181  1.7352  0.1066
 5336SOL    HW227642   3.189   2.957   7.951 -1.9068  1.9139 -1.7398
 5337SOL     OW27643   3.391   1.197  15.319  0.1356  0.5935  0.4927
 5337SOL    HW127644   3.362   1.121  15.370 -1.7024  1.6921  1.0538
 5337SOL    HW227645   3.482   1.208  15.348  1.0243 -0.9333 -1.6573
 5338SOL     OW27646   2.764   3.783   8.116  0.2699 -0.4462  0.0125
 5338SOL    HW127647   2.840   3.745   8.071 -0.7954 -1.8926 -0.5580
 5338SOL    HW227648   2.792   3.873   8.136  2.4894 -0.6590 -2.1462
 5339SOL     OW27649   1.741   0.944   4.466  0.0758  0.3941  0.2866
 5339SOL    HW127650   1.744   1.039   4.453 -0.9078  0.6388  1.8044
 5339SOL    HW227651   1.757   0.913   4.377 -0.0192 -2.1994  1.1722
 5340SOL     OW27652   4.326   0.509  15.264 -0.2167  0.2755  0.3080
 5340SOL    HW127653   4.265   0.483  15.334 -1.3593 -0.8253 -1.0998
 5340SOL    HW227654   4.375   0.581  15.303  1.2694  0.2455 -1.4889
 5341SOL     OW27655   2.372   0.693  15.751 -0.0764  0.2936  0.5770
 5341SOL    HW127656   2.381   0.603  15.783  0.4643  0.4080  0.7356
 5341SOL    HW227657   2.284   0.698  15.713 -0.9146  0.9156  2.6040
 5342SOL     OW27658   4.043   1.515   7.833  0.3525 -0.5547 -0.8798
 5342SOL    HW127659   4.116   1.575   7.815  2.5315 -2.7542  0.6990
 5342SOL    HW227660   3.990   1.528   7.754 -1.8646  2.6088  1.1219
 5343SOL     OW27661   0.917   3.783   5.259 -0.1515 -0.0054 -0.0827
 5343SOL    HW127662   0.839   3.756   5.211 -0.0018 -1.9706  0.7484
 5343SOL    HW227663   0.972   3.804   5.184 -0.3077  2.4395  0.4850
 5344SOL     OW27664   3.260   1.632   4.975 -0.5003  0.1587 -0.1027
 5344SOL    HW127665   3.300   1.555   4.936 -2.2285 -1.7944  1.9449
 5344SOL    HW227666   3.284   1.702   4.915 -0.5857 -0.9025 -1.3613
 5345SOL     OW27667   0.650   3.648  17.517  0.0573 -0.0421  0.1811
 5345SOL    HW127668   0.639   3.572  17.576  2.2317  0.6041  1.4149
 5345SOL    HW227669   0.559   3.677  17.520 -0.2813 -1.1149  0.5480
 5346SOL     OW27670   3.590   3.513   5.483 -0.3256  0.5569 -0.5011
 5346SOL    HW127671   3.673   3.522   5.530 -1.0802  1.4949  0.6365
 5346SOL    HW227672   3.561   3.428   5.515  1.4015  0.8247  1.7339
 5347SOL     OW27673   3.328   0.410   6.098 -0.3404 -0.4382 -0.1810
 5347SOL    HW127674   3.400   0.348   6.109  0.8780  1.2849  1.7325
 5347SOL    HW227675   3.340   0.469   6.173  0.7241 -0.7251 -0.1259
 5348SOL     OW27676   4.547   4.359   5.568  0.2753  0.1048  0.2284
 5348SOL    HW127677   4.457   4.352   5.599  0.3595  1.0307  0.6786
 5348SOL    HW227678   4.553   4.449   5.535 -2.6230  1.2139  2.7245
 5349SOL     OW27679   0.039   0.662   9.154  0.1706  0.2891 -0.0901
 5349SOL    HW127680   0.123   0.703   9.173  0.4438 -0.8028  1.1059
 5349SOL    HW227681   4.715   0.701   9.216 -3.4019 -2.7082 -1.6903
 5350SOL     OW27682   0.513   3.315   3.384  0.0582 -0.0506 -0.0446
 5350SOL    HW127683   0.547   3.342   3.299 -1.0413 -0.4214 -0.5962
 5350SOL    HW227684   0.534   3.223   3.397  0.8096 -0.1555 -2.0640
 5351SOL     OW27685   3.518   3.040   3.771  0.1872 -0.2325 -0.2754
 5351SOL    HW127686   3.570   3.116   3.797 -1.7539  0.8667  0.3971
 5351SOL    HW227687   3.520   3.059   3.678 -0.0689  1.2926  0.0322
 5352SOL     OW27688   0.034   2.772   5.987 -0.0129 -0.3206  0.4593
 5352SOL    HW127689   0.011   2.849   5.935 -0.5922 -0.8762 -0.0977
 5352SOL    HW227690   0.118   2.798   6.026 -0.3963  1.1808  0.2954
 5353SOL     OW27691   0.486   3.133  11.812  0.2449  0.6630 -0.2235
 5353SOL    HW127692   0.548   3.068  11.846  0.2512  1.2617  0.8939
 5353SOL    HW227693   0.461   3.177  11.893 -0.6560  1.0434 -0.7018
 5354SOL     OW27694   1.438   0.912  11.655  0.3675  0.0088 -0.2139
 5354SOL    HW127695   1.405   0.863  11.579  1.5434  1.6724 -1.8003
 5354SOL    HW227696   1.499   0.958  11.598 -0.2864 -0.5945 -1.4058
 5355SOL     OW27697   1.446   0.845   9.922  0.0026  0.7728 -0.0185
 5355SOL    HW127698   1.516   0.859   9.986 -0.3253  0.4820  0.4018
 5355SOL    HW227699   1.466   0.929   9.880  1.6089  0.8668  0.9200
 5356SOL     OW27700   0.651   0.659   9.105 -0.4425 -0.1676 -0.7627
 5356SOL    HW127701   0.742   0.629   9.117  0.1697  1.9798 -0.1572
 5356SOL    HW227702   0.611   0.583   9.062  1.8887 -1.0351 -1.4552
 5357SOL     OW27703   1.760   0.231   7.306  0.0168 -0.2197 -0.1469
 5357SOL    HW127704   1.848   0.204   7.332  1.6701  2.8676 -2.4228
 5357SOL    HW227705   1.777   0.310   7.254 -1.9966  0.4498  0.2284
 5358SOL     OW27706   2.375   3.366   4.760 -0.0197 -0.2930  0.2173
 5358SOL    HW127707   2.460   3.323   4.773 -0.3215 -1.1761 -0.8050
 5358SOL    HW227708   2.384   3.413   4.678  0.5741  0.6464  0.8129
 5359SOL     OW27709   4.672   1.584   4.751 -0.1619 -0.5534  0.0390
 5359SOL    HW127710   0.021   1.589   4.790 -1.0135 -1.1674  2.0148
 5359SOL    HW227711   4.675   1.490   4.732  0.5833 -0.2600 -1.2718
 5360SOL     OW27712   2.818   3.958   9.243 -0.0324 -0.1994  0.1315
 5360SOL    HW127713   2.841   3.892   9.177  0.0570 -0.7680  0.7306
 5360SOL    HW227714   2.902   4.004   9.237  0.4278 -0.7549  2.7043
 5361SOL     OW27715   4.110   0.122   6.032  0.2257 -0.8923 -0.1412
 5361SOL    HW127716   4.201   0.106   6.008  0.3573  1.6013 -1.2769
 5361SOL    HW227717   4.059   0.080   5.962 -0.3742  2.4993 -1.7288
 5362SOL     OW27718   3.742   0.802  15.591 -0.0849  0.5334  0.3306
 5362SOL    HW127719   3.660   0.814  15.639 -0.1007  1.4906  0.0659
 5362SOL    HW227720   3.719   0.732  15.529  0.9275  0.5338 -0.0518
 5363SOL     OW27721   2.847   2.537   2.233 -0.3448  0.2494 -1.0840
 5363SOL    HW127722   2.821   2.453   2.194 -0.2888  1.2878 -3.3707
 5363SOL    HW227723   2.942   2.537   2.222 -0.0016  1.1747  1.7759
 5364SOL     OW27724   0.083   1.930   2.939 -0.3161 -0.1239  0.1727
 5364SOL    HW127725   0.041   1.845   2.949 -1.4279  0.1640 -2.2501
 5364SOL    HW227726   0.146   1.903   2.873 -1.9563 -0.1193 -1.3694
 5365SOL     OW27727   3.958   3.442   9.421 -0.4567 -0.5972  0.3777
 5365SOL    HW127728   3.930   3.422   9.331  0.4803 -0.7457  0.1213
 5365SOL    HW227729   3.951   3.537   9.420  0.1594 -0.5313  2.2626
 5366SOL     OW27730   3.052   0.474   6.876 -0.7353  0.2992  0.4930
 5366SOL    HW127731   3.071   0.524   6.956  2.7347 -3.5222  2.0740
 5366SOL    HW227732   2.969   0.431   6.895 -0.5792 -1.0510 -1.9222
 5367SOL     OW27733   0.837   2.042  14.407  0.1481  0.5424 -0.3727
 5367SOL    HW127734   0.905   1.995  14.360  1.4187  1.0964  0.9147
 5367SOL    HW227735   0.847   2.131  14.373 -0.9473  0.3129 -1.2963
 5368SOL     OW27736   0.969   2.354   7.674 -0.2864  0.6993 -1.0191
 5368SOL    HW127737   1.036   2.419   7.652  0.3291  0.0525 -1.0553
 5368SOL    HW227738   1.019   2.273   7.666 -1.1209  0.2453 -1.5311
 5369SOL     OW27739   0.824   4.122   8.534  0.5362  0.2995 -0.1913
 5369SOL    HW127740   0.910   4.130   8.574  0.7350 -0.1074 -0.5310
 5369SOL    HW227741   0.793   4.211   8.550  0.6248  0.0437  1.3426
 5370SOL     OW27742   4.410   0.315   8.479 -0.0790  0.3831  0.2569
 5370SOL    HW127743   4.418   0.248   8.547  0.7664  0.2394  0.0151
 5370SOL    HW227744   4.426   0.397   8.525  0.9859  1.3169 -1.8161
 5371SOL     OW27745   0.951   3.871   4.833 -0.6166  0.3755  0.3447
 5371SOL    HW127746   0.982   3.825   4.911 -0.0066  0.8575  0.3876
 5371SOL    HW227747   0.938   3.799   4.771  1.3142  1.1539 -0.9555
 5372SOL     OW27748   2.187   3.955   2.191 -0.4447  0.3115  0.0660
 5372SOL    HW127749   2.144   3.955   2.105  0.8547  0.9164 -0.5958
 5372SOL    HW227750   2.175   3.864   2.216 -2.0991  0.3496 -0.6308
 5373SOL     OW27751   0.396   3.182  16.377  0.2333 -0.1564 -0.1249
 5373SOL    HW127752   0.360   3.099  16.346  2.0488 -1.9614  2.6182
 5373SOL    HW227753   0.307   3.216  16.387  0.3773 -0.2606  1.4649
 5374SOL     OW27754   4.326   1.479  15.261 -0.1851 -0.5099  0.0140
 5374SOL    HW127755   4.416   1.446  15.254  0.3570  0.9893  0.0232
 5374SOL    HW227756   4.308   1.424  15.337  2.0542 -1.1213  0.0965
 5375SOL     OW27757   4.474   4.682   9.746  0.5554 -0.1374 -0.1655
 5375SOL    HW127758   4.548   4.623   9.729 -1.2758 -1.8397 -2.0763
 5375SOL    HW227759   4.450   4.648   9.832 -1.6420  1.6183 -0.0951
 5376SOL     OW27760   0.694   0.593  15.170  0.4503 -0.2708 -0.1688
 5376SOL    HW127761   0.748   0.670  15.152  0.8148 -0.8507 -1.5814
 5376SOL    HW227762   0.642   0.627  15.243  1.9355  0.5130  0.5319
 5377SOL     OW27763   4.202   0.456   8.309  0.6706 -0.0894 -0.5576
 5377SOL    HW127764   4.274   0.421   8.361  0.3599 -0.4573 -0.3771
 5377SOL    HW227765   4.236   0.418   8.228  0.5567  0.8295 -1.0330
 5378SOL     OW27766   0.190   4.482   2.920 -0.1041  0.0116 -0.8420
 5378SOL    HW127767   0.186   4.399   2.966 -0.2231 -0.1854 -1.2139
 5378SOL    HW227768   0.108   4.471   2.873 -0.7493 -0.1109  0.2975
 5379SOL     OW27769   1.314   4.249   2.719  0.0022  0.3190 -0.5174
 5379SOL    HW127770   1.325   4.320   2.656 -1.7887  2.7683  1.9541
 5379SOL    HW227771   1.317   4.169   2.666 -1.7104  0.2679 -0.5279
 5380SOL     OW27772   2.131   0.890   6.177  0.0232 -0.2987 -0.3309
 5380SOL    HW127773   2.127   0.874   6.083  0.9324 -1.5628 -0.1567
 5380SOL    HW227774   2.119   0.801   6.212  1.0823  0.3004  1.5679
 5381SOL     OW27775   4.089   1.316   7.441  0.2742 -0.4286  0.2951
 5381SOL    HW127776   4.139   1.241   7.409 -1.1743 -0.1943 -2.5959
 5381SOL    HW227777   4.103   1.379   7.369 -1.7408 -0.0245  0.2373
 5382SOL     OW27778   1.082   4.105   7.959 -0.2600 -0.1148 -0.1196
 5382SOL    HW127779   1.024   4.176   7.987  0.8784  0.6025  0.4176
 5382SOL    HW227780   1.164   4.152   7.952 -0.6899  0.3922 -1.7356
 5383SOL     OW27781   0.314   2.741   5.208 -0.3687  0.3604  0.1633
 5383SOL    HW127782   0.329   2.796   5.130 -0.5844  0.6307  0.3134
 5383SOL    HW227783   0.254   2.802   5.250 -0.6563 -0.8693  1.5303
 5384SOL     OW27784   4.333   1.760  11.053  0.3730 -0.1938 -0.5181
 5384SOL    HW127785   4.369   1.694  11.113  1.0628  1.2921  0.6864
 5384SOL    HW227786   4.398   1.829  11.066 -1.2869  1.6361 -1.8898
 5385SOL     OW27787   0.541   2.788   3.787  0.1630 -0.0583  0.1052
 5385SOL    HW127788   0.460   2.785   3.838  0.9400  1.5547  1.4375
 5385SOL    HW227789   0.582   2.870   3.815 -2.2883  0.9210  0.8616
 5386SOL     OW27790   4.020   2.140  17.630 -0.0334  0.5468 -0.0151
 5386SOL    HW127791   3.937   2.171  17.593  0.6844 -0.0949 -2.1973
 5386SOL    HW227792   4.041   2.063  17.577 -2.0963  1.4065 -2.0920
 5387SOL     OW27793   2.742   2.536   5.848  0.3059 -0.1099  0.3826
 5387SOL    HW127794   2.796   2.614   5.852  0.8682 -0.4747  0.0453
 5387SOL    HW227795   2.671   2.556   5.908  0.8470 -0.9036  1.2871
 5388SOL     OW27796   1.235   3.793  15.560 -0.5365  0.1119 -0.1636
 5388SOL    HW127797   1.157   3.738  15.562 -0.9970  0.8646  3.5254
 5388SOL    HW227798   1.203   3.876  15.525 -0.9550 -1.2047 -2.8929
 5389SOL     OW27799   2.401   3.516   4.103 -0.2277 -0.7187  0.0217
 5389SOL    HW127800   2.439   3.429   4.093  0.5149 -0.1826 -1.7843
 5389SOL    HW227801   2.330   3.503   4.040 -0.6245 -1.1144  0.5544
 5390SOL     OW27802   0.979   3.048   3.030  0.1091  0.2931 -0.0172
 5390SOL    HW127803   0.952   3.018   3.117  0.6702  0.4475  0.2084
 5390SOL    HW227804   1.031   3.124   3.057 -0.2786  0.4470  0.2955
 5391SOL     OW27805   1.014   1.163   4.212  0.0831 -0.3196 -0.2912
 5391SOL    HW127806   0.969   1.106   4.149  0.8104 -3.0003  1.6382
 5391SOL    HW227807   0.976   1.241   4.171 -0.8724 -0.0248  1.1697
 5392SOL     OW27808   3.627   0.134  10.524 -0.6706 -0.3356  0.0599
 5392SOL    HW127809   3.678   0.108  10.601 -0.3050 -0.0698 -0.0912
 5392SOL    HW227810   3.697   0.190  10.491  0.3723 -1.3791  0.4660
 5393SOL     OW27811   2.060   1.900   9.454  0.3733 -0.2442  0.1787
 5393SOL    HW127812   2.155   1.914   9.459  0.4526  0.1378 -2.3922
 5393SOL    HW227813   2.052   1.808   9.476 -0.8026 -0.7429 -2.3372
 5394SOL     OW27814   3.933   3.559   4.072  0.6572  0.2626 -0.7178
 5394SOL    HW127815   3.923   3.567   4.167 -1.3051  3.9727 -1.2256
 5394SOL    HW227816   3.872   3.619   4.030  1.1822  0.8423 -0.6512
 5395SOL     OW27817   4.495   4.482   9.240 -0.4661  0.0363 -0.1181
 5395SOL    HW127818   4.479   4.555   9.301  0.5415  0.3258 -0.1895
 5395SOL    HW227819   4.522   4.415   9.303 -0.0454  1.2314  0.9798
 5396SOL     OW27820   1.671   0.454   7.536  0.0826 -0.3324  0.1068
 5396SOL    HW127821   1.713   0.533   7.503  0.9873  0.0279  2.1358
 5396SOL    HW227822   1.722   0.394   7.481 -1.1923 -1.2171 -0.1253
 5397SOL     OW27823   2.155   4.059   5.394  0.6528  0.2336  0.3521
 5397SOL    HW127824   2.134   3.970   5.368 -0.9301  0.7440 -0.1402
 5397SOL    HW227825   2.068   4.087   5.362  1.0897  1.3409  0.1211
 5398SOL     OW27826   3.464   1.002   8.184  0.3994 -0.1340 -0.0877
 5398SOL    HW127827   3.437   1.020   8.274 -0.0662  2.8866 -0.8180
 5398SOL    HW227828   3.431   1.080   8.138  0.8638  0.0888 -0.0379
 5399SOL     OW27829   1.933   0.492  17.554 -1.0702 -0.6841  0.4973
 5399SOL    HW127830   1.867   0.562  17.548  0.0300  0.3530  0.4812
 5399SOL    HW227831   1.986   0.520  17.629 -0.8207 -1.4858  0.6126
 5400SOL     OW27832   2.596   0.399   9.328 -0.6600 -0.2967 -0.0605
 5400SOL    HW127833   2.546   0.320   9.350 -2.0401  0.1025 -1.8019
 5400SOL    HW227834   2.672   0.380   9.383  0.5477  2.5254 -0.7920
 5401SOL     OW27835   0.008   2.593   5.491  0.4384  0.3177 -0.2991
 5401SOL    HW127836   0.021   2.499   5.478  1.4191  0.5635 -1.0936
 5401SOL    HW227837   0.028   2.604   5.584 -0.3327  1.2873 -0.2391
 5402SOL     OW27838   3.888   2.158   6.155 -0.3840 -0.2819  0.1948
 5402SOL    HW127839   3.865   2.069   6.180 -3.1068  1.3795  3.4210
 5402SOL    HW227840   3.874   2.203   6.238 -1.5740 -0.1090 -0.0935
 5403SOL     OW27841   0.045   3.607   3.843 -0.2074 -0.2726 -0.1594
 5403SOL    HW127842   0.114   3.594   3.778 -1.5067 -1.6106 -1.2840
 5403SOL    HW227843   4.711   3.570   3.791 -1.1991  0.9927  0.3234
 5404SOL     OW27844   0.530   0.792  17.498 -0.3758 -0.0848  0.2229
 5404SOL    HW127845   0.624   0.798  17.515 -0.8066  1.1452  2.1217
 5404SOL    HW227846   0.508   0.707  17.536  1.2678  0.1482  1.6924
 5405SOL     OW27847   2.513   2.176   6.849 -0.0852  0.3994  0.1551
 5405SOL    HW127848   2.533   2.213   6.934  2.0470 -0.2490 -0.0760
 5405SOL    HW227849   2.576   2.104   6.840 -1.2852 -0.4832 -1.2762
 5406SOL     OW27850   0.373   4.143  14.519 -0.0443 -0.7107  0.0507
 5406SOL    HW127851   0.375   4.108  14.607  0.9605 -0.4612  0.1267
 5406SOL    HW227852   0.422   4.079  14.468  2.7576  0.8583  0.7515
 5407SOL     OW27853   2.387   0.743   2.174  0.1199 -0.4770  0.7142
 5407SOL    HW127854   2.349   0.814   2.121 -0.5064 -1.0690  0.3699
 5407SOL    HW227855   2.408   0.785   2.258 -0.3315  0.7560  0.2096
 5408SOL     OW27856   1.414   2.287   0.014  0.8233  0.1852  0.3355
 5408SOL    HW127857   1.444   2.229   0.084  3.8099  1.7675  0.3768
 5408SOL    HW227858   1.361   2.353   0.058 -2.3762 -0.7783 -1.9915
 5409SOL     OW27859   3.845   1.898   0.297 -0.2689 -0.1275 -0.4038
 5409SOL    HW127860   3.915   1.950   0.258 -0.5900 -1.7251 -3.0501
 5409SOL    HW227861   3.822   1.833   0.232  0.5460 -0.6730 -0.1332
 5410SOL     OW27862   0.886   3.492   8.036 -0.4020  0.4065  0.1989
 5410SOL    HW127863   0.967   3.476   7.988 -0.9463 -1.4294 -0.1171
 5410SOL    HW227864   0.824   3.512   7.965 -0.8467 -0.9045  0.2124
 5411SOL     OW27865   4.653   3.981   4.195 -0.3150 -0.7105  0.2961
 5411SOL    HW127866   4.582   3.942   4.144  0.6181 -1.8698 -0.1217
 5411SOL    HW227867   4.608   3.996   4.278 -2.4757 -1.3427 -0.7767
 5412SOL     OW27868   4.349   1.061   4.594  0.3119  0.0352  0.1031
 5412SOL    HW127869   4.380   0.987   4.647  0.5021  0.9497  1.2808
 5412SOL    HW227870   4.435   1.087   4.563  0.3272  0.0482  0.1561
 5413SOL     OW27871   1.297   3.300   3.611 -0.0257  0.0571  0.3512
 5413SOL    HW127872   1.267   3.225   3.558 -0.6861  0.6923 -0.1740
 5413SOL    HW227873   1.308   3.261   3.698  0.9507 -0.0383  0.1870
 5414SOL     OW27874   1.718   3.664   8.376  0.1688  0.0508 -0.1136
 5414SOL    HW127875   1.699   3.581   8.420  1.8204  0.1225  0.7698
 5414SOL    HW227876   1.798   3.689   8.422 -0.3599  0.0483  0.8177
 5415SOL     OW27877   4.227   0.649   3.652  0.2615 -0.3629 -0.0418
 5415SOL    HW127878   4.206   0.557   3.666 -1.5399  0.0298 -0.1623
 5415SOL    HW227879   4.322   0.652   3.640  0.4384 -1.9114  0.9818
 5416SOL     OW27880   3.916   3.307   5.781 -0.0037 -0.0746  0.0372
 5416SOL    HW127881   3.880   3.219   5.769  1.0743 -0.7974  2.1920
 5416SOL    HW227882   4.010   3.296   5.793  0.2218  2.0252  0.1759
 5417SOL     OW27883   1.892   0.220   9.460  0.1130 -0.1629  0.5266
 5417SOL    HW127884   1.929   0.138   9.492 -2.7500 -1.4202  0.5831
 5417SOL    HW227885   1.973   0.255   9.421 -0.5999  1.3628  0.4294
 5418SOL     OW27886   0.954   3.202   7.713  0.0560 -0.4239  0.2834
 5418SOL    HW127887   0.960   3.129   7.651 -1.1449  0.5612 -0.9974
 5418SOL    HW227888   1.043   3.236   7.716 -0.5951  1.1968  1.1558
 5419SOL     OW27889   0.783   3.050   8.903 -0.1235  0.5465  0.6900
 5419SOL    HW127890   0.694   3.083   8.913 -0.1716  0.2688  1.1972
 5419SOL    HW227891   0.780   2.975   8.963 -0.4566  1.4659  1.8406
 5420SOL     OW27892   2.493   3.804   9.287 -1.0958  0.8410 -0.3039
 5420SOL    HW127893   2.458   3.829   9.372  0.9551 -3.5082  1.8028
 5420SOL    HW227894   2.577   3.767   9.311 -0.9287  0.0716 -2.0375
 5421SOL     OW27895   1.660   3.289   3.235 -0.0819  0.2154  0.3099
 5421SOL    HW127896   1.580   3.289   3.287 -0.6778 -1.5217 -0.6073
 5421SOL    HW227897   1.634   3.343   3.160 -0.7769 -1.9394 -0.9767
 5422SOL     OW27898   4.138   1.173   3.963  0.5761  0.1948 -0.2004
 5422SOL    HW127899   4.122   1.094   3.911  0.1358  0.2520 -0.1516
 5422SOL    HW227900   4.175   1.234   3.899  1.0176  1.7675  1.5662
 5423SOL     OW27901   3.525   3.252   6.476  0.2991 -0.3603 -1.0121
 5423SOL    HW127902   3.445   3.202   6.456  0.7670 -1.4576 -0.1863
 5423SOL    HW227903   3.504   3.302   6.555  0.2586  0.7735 -1.7394
 5424SOL     OW27904   0.581   0.926   6.246  0.3766 -0.3971 -0.0817
 5424SOL    HW127905   0.539   0.985   6.309  0.6092 -0.1896 -0.1188
 5424SOL    HW227906   0.582   0.981   6.168  2.1391 -0.3718 -0.0367
 5425SOL     OW27907   3.698   2.858   9.541  0.9566  0.1687  0.0626
 5425SOL    HW127908   3.763   2.789   9.551 -1.4441 -2.0426  0.2550
 5425SOL    HW227909   3.738   2.910   9.470  0.7955 -0.1379 -0.2534
 5426SOL     OW27910   0.294   1.656   5.856  0.2554 -0.2044 -0.0438
 5426SOL    HW127911   0.358   1.630   5.922  1.8184 -0.0495 -1.5206
 5426SOL    HW227912   0.319   1.604   5.780 -1.1835  0.1791 -0.7831
 5427SOL     OW27913   0.469   1.907   0.199  0.1092 -0.4227 -0.3945
 5427SOL    HW127914   0.449   1.829   0.147 -1.6042  0.7725 -1.5302
 5427SOL    HW227915   0.545   1.956   0.168 -1.8443  2.0633 -1.2464
 5428SOL     OW27916   3.079   1.975   5.191  0.0885 -0.6741  0.1155
 5428SOL    HW127917   3.028   2.005   5.267 -0.7968  1.8056 -1.4860
 5428SOL    HW227918   3.012   1.966   5.124 -0.0955 -1.0697  0.3488
 5429SOL     OW27919   3.184   3.622   8.360  0.7038 -0.1790 -0.3022
 5429SOL    HW127920   3.109   3.593   8.412  0.2643 -2.0062 -1.9175
 5429SOL    HW227921   3.254   3.617   8.424  0.6160 -0.2206 -0.2090
 5430SOL     OW27922   0.289   2.945  16.812 -0.3233  0.3776  0.0135
 5430SOL    HW127923   0.244   3.028  16.797  0.0579  0.5318 -0.3008
 5430SOL    HW227924   0.215   2.884  16.815  0.0016 -0.0189 -0.0455
 5431SOL     OW27925   0.388   4.082   5.188 -0.2074 -0.1015  0.3979
 5431SOL    HW127926   0.333   4.062   5.264  1.3329  1.6597  1.9654
 5431SOL    HW227927   0.444   4.006   5.203  0.8363  0.5652 -0.1518
 5432SOL     OW27928   4.274   2.315   3.308 -0.4505  0.3322  0.3664
 5432SOL    HW127929   4.269   2.406   3.335  0.4878  1.3933 -3.0745
 5432SOL    HW227930   4.279   2.311   3.212 -1.8228 -1.5169  0.3646
 5433SOL     OW27931   1.005   0.909   9.266  0.1784  0.3798  0.4753
 5433SOL    HW127932   1.045   0.955   9.339  0.2504  2.9730 -1.1986
 5433SOL    HW227933   0.910   0.924   9.274  0.1145  0.4339 -0.3553
 5434SOL     OW27934   1.616   4.287   5.456 -0.3512  0.2011  0.0516
 5434SOL    HW127935   1.631   4.209   5.404 -1.1312  0.0966 -0.0122
 5434SOL    HW227936   1.698   4.301   5.503  0.8568 -1.6451 -1.5191
 5435SOL     OW27937   0.762   1.124  15.535 -0.2859 -0.4158  0.1777
 5435SOL    HW127938   0.766   1.198  15.595 -2.7007  1.0368 -1.4424
 5435SOL    HW227939   0.702   1.169  15.475 -2.3141 -0.7748  1.9424
 5436SOL     OW27940   0.928   2.303   7.097 -0.0740 -0.1683 -0.4138
 5436SOL    HW127941   0.997   2.335   7.155  0.6364  0.9283 -1.8848
 5436SOL    HW227942   0.848   2.332   7.141 -1.2081 -2.1861 -1.1078
 5437SOL     OW27943   4.065   0.618   3.150 -0.0875 -0.4021 -0.2809
 5437SOL    HW127944   3.999   0.684   3.173  2.5021  2.2339 -0.3843
 5437SOL    HW227945   4.147   0.665   3.167 -1.1607  0.6223  2.0952
 5438SOL     OW27946   0.576   2.504   4.399  0.2096  0.6986 -0.1067
 5438SOL    HW127947   0.511   2.567   4.430  0.0375  0.3691  0.1993
 5438SOL    HW227948   0.646   2.537   4.456 -1.4743  1.6529  1.4037
 5439SOL     OW27949   3.395   0.402   4.887 -0.7392 -0.2377 -0.3798
 5439SOL    HW127950   3.340   0.438   4.817 -1.3168  0.8279  0.6084
 5439SOL    HW227951   3.478   0.391   4.841  0.1037 -0.3381  1.1642
 5440SOL     OW27952   2.726   2.203   1.236 -0.5283 -0.0533 -0.2545
 5440SOL    HW127953   2.706   2.204   1.330 -2.1931  0.9826 -0.6278
 5440SOL    HW227954   2.654   2.148   1.207 -0.4739  0.3826 -1.1981
 5441SOL     OW27955   4.034   0.648   1.760 -0.0278 -0.6746 -0.0395
 5441SOL    HW127956   4.101   0.628   1.825  0.2731  2.4605  0.6030
 5441SOL    HW227957   4.032   0.744   1.753 -1.3309 -0.6874  0.2814
 5442SOL     OW27958   4.055   0.105   6.671  0.2382 -0.1084  0.2851
 5442SOL    HW127959   4.121   0.118   6.603  0.0318  1.0840  0.3042
 5442SOL    HW227960   3.991   0.052   6.623  0.5203 -1.2508  1.1711
 5443SOL     OW27961   2.904   4.018  11.779  0.5109 -0.7643  0.8042
 5443SOL    HW127962   2.991   3.987  11.802  1.3030 -0.3800 -1.6114
 5443SOL    HW227963   2.859   4.016  11.863 -0.5533  1.2235  0.2736
 5444SOL     OW27964   2.999   4.343   6.523  0.0179 -0.3918 -0.1348
 5444SOL    HW127965   2.909   4.325   6.550  0.1703 -1.3342 -0.2477
 5444SOL    HW227966   3.059   4.286   6.571  1.7814  0.5340 -1.2496
 5445SOL     OW27967   2.709   0.579   3.896  0.3961 -0.5340 -0.4680
 5445SOL    HW127968   2.717   0.522   3.819 -0.9635 -2.6195  0.9586
 5445SOL    HW227969   2.762   0.543   3.967  0.3124  0.1688 -0.0532
 5446SOL     OW27970   3.460   4.672   6.833  0.0257 -0.1391 -0.5930
 5446SOL    HW127971   3.484   4.664   6.740  1.2024 -2.7117 -0.0506
 5446SOL    HW227972   3.540   4.710   6.869 -1.6177  0.9304  1.8862
 5447SOL     OW27973   3.145   0.578   3.329 -0.0622 -0.3901 -0.0593
 5447SOL    HW127974   3.229   0.570   3.373 -1.4160 -0.1689  2.5662
 5447SOL    HW227975   3.106   0.660   3.361 -2.1063 -0.7023 -1.7472
 5448SOL     OW27976   3.682   3.214   4.587  0.5849 -0.0352 -0.6472
 5448SOL    HW127977   3.596   3.251   4.608  0.7088  1.0228 -2.0046
 5448SOL    HW227978   3.656   3.195   4.497 -1.8866 -0.7885  0.2237
 5449SOL     OW27979   2.381   2.995  12.153  0.3472  0.1128  0.4756
 5449SOL    HW127980   2.289   2.986  12.131  0.8412 -1.1533 -1.0857
 5449SOL    HW227981   2.399   3.079  12.111 -1.8992  0.8474  0.9812
 5450SOL     OW27982   0.793   3.682   3.218 -0.1972 -0.4246  0.4466
 5450SOL    HW127983   0.745   3.761   3.241  0.9700  0.0094  1.3652
 5450SOL    HW227984   0.874   3.726   3.191  0.3887 -0.3494  2.3733
 5451SOL     OW27985   4.677   1.131  16.213  0.2011  0.0465  0.0529
 5451SOL    HW127986   4.600   1.080  16.188 -0.2462  0.4168  0.6558
 5451SOL    HW227987   4.705   1.086  16.293 -0.9491 -1.7376 -0.5294
 5452SOL     OW27988   2.422   2.048  15.748 -0.4183  0.2178 -0.0622
 5452SOL    HW127989   2.340   2.009  15.720  0.1370 -0.8226 -0.2386
 5452SOL    HW227990   2.408   2.135  15.786 -0.0446 -0.6672  2.1455
 5453SOL     OW27991   0.962   4.489   2.260  0.1192  0.6140 -0.3397
 5453SOL    HW127992   1.009   4.571   2.241 -0.5433  1.5957  2.2622
 5453SOL    HW227993   0.898   4.491   2.189  0.7905  2.5740 -0.9135
 5454SOL     OW27994   0.171   4.522   4.782 -0.2737 -0.3253  0.1315
 5454SOL    HW127995   0.178   4.428   4.799  1.1914 -0.5689 -1.8542
 5454SOL    HW227996   0.108   4.519   4.709  1.6214  0.8283 -1.5652
 5455SOL     OW27997   2.140   2.384   2.545 -0.0491  0.2713  0.1486
 5455SOL    HW127998   2.151   2.313   2.481  1.9141  0.4497  0.3162
 5455SOL    HW227999   2.231   2.401   2.569 -0.4415  1.2561  0.9259
 5456SOL     OW28000   3.074   3.830   3.367  0.3101 -0.2941  0.1442
 5456SOL    HW128001   3.111   3.912   3.400  0.1385 -0.3733  0.5368
 5456SOL    HW228002   3.078   3.839   3.272  0.9789  3.5678  0.5293
 5457SOL     OW28003   2.275   1.152   5.942  0.3129 -0.0531  0.0602
 5457SOL    HW128004   2.249   1.212   6.013  1.5361  0.5310  0.0064
 5457SOL    HW228005   2.224   1.188   5.869 -0.1018  1.6098  1.1705
 5458SOL     OW28006   2.200   3.869   7.626 -0.4098  0.1778 -0.3774
 5458SOL    HW128007   2.205   3.928   7.702  2.1782 -0.7752  0.1987
 5458SOL    HW228008   2.121   3.894   7.578 -1.9575 -1.2161  1.4576
 5459SOL     OW28009   4.272   4.635  12.181  0.4464  0.1785  0.0672
 5459SOL    HW128010   4.186   4.627  12.222  0.0711 -0.7219 -0.8879
 5459SOL    HW228011   4.293   4.728  12.186  0.7274  0.0054  1.9853
 5460SOL     OW28012   4.217   2.250  13.513 -0.1447  0.0979 -0.5600
 5460SOL    HW128013   4.244   2.200  13.436 -1.0718  0.0119 -0.8329
 5460SOL    HW228014   4.271   2.222  13.587  1.9627  0.5513 -1.9341
 5461SOL     OW28015   0.512   0.678   6.772  0.4122 -0.2746  0.1597
 5461SOL    HW128016   0.449   0.611   6.797  0.2258 -0.2009 -0.1245
 5461SOL    HW228017   0.585   0.616   6.760  1.6980  1.2709  0.0260
 5462SOL     OW28018   1.170   1.233  13.683  0.0141  0.1868  0.1770
 5462SOL    HW128019   1.190   1.215  13.591  1.0819 -0.6885  0.5812
 5462SOL    HW228020   1.171   1.328  13.680 -1.0103  0.1405 -2.2855
 5463SOL     OW28021   4.312   3.855  16.573  0.1371 -0.4020  0.1280
 5463SOL    HW128022   4.388   3.914  16.573  0.9214 -1.4208 -2.2500
 5463SOL    HW228023   4.344   3.787  16.632  1.1449  0.5292  0.6691
 5464SOL     OW28024   1.425   2.800   8.484  0.1162 -0.1784  0.4099
 5464SOL    HW128025   1.377   2.718   8.476 -2.0475  0.9083  2.1596
 5464SOL    HW228026   1.479   2.796   8.405  0.2066 -0.9308  0.5163
 5465SOL     OW28027   1.748   0.190   4.455 -0.0150 -0.3182 -0.2914
 5465SOL    HW128028   1.776   0.273   4.415 -2.7353  0.0776 -1.3614
 5465SOL    HW228029   1.818   0.173   4.518 -2.0385  1.1698  2.3843
 5466SOL     OW28030   1.820   4.428   7.869 -0.8286 -0.2527 -0.1034
 5466SOL    HW128031   1.769   4.507   7.886 -1.0167 -0.5336  0.6674
 5466SOL    HW228032   1.818   4.407   7.776  0.0487 -4.1439  0.7620
 5467SOL     OW28033   0.089   1.235   0.745  0.0204  0.0545 -0.0617
 5467SOL    HW128034   0.151   1.162   0.744 -1.9047 -1.5553 -3.0008
 5467SOL    HW228035   0.126   1.288   0.816 -2.2203  0.1748  1.0273
 5468SOL     OW28036   2.028   0.339   6.126  0.0012  0.3509  0.2083
 5468SOL    HW128037   1.971   0.381   6.061  1.1599  3.2521  1.0717
 5468SOL    HW228038   1.986   0.380   6.202  0.3562  1.5679 -0.2465
 5469SOL     OW28039   0.107   4.625   8.950 -0.0536  0.2005  0.0890
 5469SOL    HW128040   0.167   4.687   8.990  0.1039 -0.6564  1.1973
 5469SOL    HW228041   0.102   4.654   8.859 -1.7036 -2.1688 -0.5863
 5470SOL     OW28042   3.042   0.998   1.970  0.1645 -0.0051  0.6581
 5470SOL    HW128043   3.017   0.918   1.922  1.5584  0.0268 -0.1056
 5470SOL    HW228044   2.954   1.030   1.991  0.4943 -0.7348  3.0771
 5471SOL     OW28045   2.717   4.198   0.699  0.5450 -0.2497  0.7305
 5471SOL    HW128046   2.785   4.153   0.749  0.3564 -0.4964  0.7626
 5471SOL    HW228047   2.638   4.168   0.744  0.5254  0.8739  1.4692
 5472SOL     OW28048   2.980   2.911   3.063  0.3744  0.5801  0.3244
 5472SOL    HW128049   3.000   3.004   3.057 -0.7043  0.7742 -0.3179
 5472SOL    HW228050   2.888   2.910   3.035  0.4953 -0.3778 -0.0597
 5473SOL     OW28051   3.680   3.234   7.497  0.2751  0.4625 -0.1692
 5473SOL    HW128052   3.703   3.315   7.543 -1.4713 -0.1506  1.7918
 5473SOL    HW228053   3.752   3.233   7.435  0.3288  1.7309 -0.1396
 5474SOL     OW28054   3.215   3.829  12.094 -0.4954  0.4372  0.3289
 5474SOL    HW128055   3.129   3.809  12.130  0.0391 -0.5210  1.0548
 5474SOL    HW228056   3.192   3.881  12.017  0.6394  0.5236  0.0339
 5475SOL     OW28057   0.458   2.983   7.480 -0.5525 -0.0553  0.2742
 5475SOL    HW128058   0.415   3.027   7.553  0.0538 -0.6734  1.0025
 5475SOL    HW228059   0.381   2.938   7.446  0.0748  0.4042 -1.7511
 5476SOL     OW28060   3.861   4.005  15.451  0.2726  0.1743  1.0319
 5476SOL    HW128061   3.842   4.025  15.359  2.0251 -0.7023  0.4785
 5476SOL    HW228062   3.928   3.938  15.442  3.0402  2.8858  1.3091
 5477SOL     OW28063   4.611   0.789   7.725 -0.1071 -0.1336  0.0683
 5477SOL    HW128064   4.585   0.757   7.639  1.0527 -3.3269  0.9175
 5477SOL    HW228065   4.532   0.839   7.747 -0.4172 -0.9221  0.7648
 5478SOL     OW28066   3.387   3.986   8.293  0.0724  0.4494 -0.1426
 5478SOL    HW128067   3.292   3.987   8.306  0.0168 -0.0484 -0.5289
 5478SOL    HW228068   3.404   3.912   8.352  1.3311  1.4947  0.8015
 5479SOL     OW28069   3.696   1.367   7.039 -0.1910 -0.3079 -0.4279
 5479SOL    HW128070   3.717   1.321   7.120  0.0026  1.3397  0.4732
 5479SOL    HW228071   3.690   1.287   6.988 -0.6658 -0.1047 -0.6910
 5480SOL     OW28072   3.971   2.707  16.204 -0.0271 -0.0294  0.4141
 5480SOL    HW128073   3.907   2.775  16.186 -0.0581 -0.3381 -0.6357
 5480SOL    HW228074   3.978   2.717  16.299  1.8229  0.2698  0.2399
 5481SOL     OW28075   3.848   0.661   3.596  0.3878  0.0626 -0.6709
 5481SOL    HW128076   3.899   0.741   3.582 -0.2331  0.4246 -0.8562
 5481SOL    HW228077   3.784   0.659   3.525 -0.8552 -2.0230  0.5036
 5482SOL     OW28078   4.601   0.333   9.027 -0.2567  0.0300 -0.1034
 5482SOL    HW128079   4.555   0.408   8.988  0.7411  0.4498 -0.4765
 5482SOL    HW228080   4.651   0.377   9.095 -0.3364  0.6881 -0.4644
 5483SOL     OW28081   2.759   2.172   5.685  0.4626  0.4760  0.0564
 5483SOL    HW128082   2.682   2.166   5.742 -0.6626 -1.8587 -1.7226
 5483SOL    HW228083   2.818   2.110   5.727 -0.5148 -1.7914 -1.9539
 5484SOL     OW28084   4.096   1.385  11.956 -0.2453  0.2385 -0.1689
 5484SOL    HW128085   4.131   1.469  11.985 -0.8735  0.7518 -0.9191
 5484SOL    HW228086   4.164   1.351  11.898  0.7274  0.0225  1.1015
 5485SOL     OW28087   1.089   4.107   3.950  0.7625 -0.5156 -0.4322
 5485SOL    HW128088   1.026   4.178   3.952  3.1378  1.5849 -0.7540
 5485SOL    HW228089   1.163   4.148   3.905  1.7063 -0.4801  1.1834
 5486SOL     OW28090   2.157   3.647   3.687 -0.3252 -0.7252  0.0173
 5486SOL    HW128091   2.235   3.695   3.716 -2.8124  3.5829 -0.4649
 5486SOL    HW228092   2.146   3.662   3.593 -0.3048 -0.5880  0.0376
 5487SOL     OW28093   3.852   4.006  10.781 -0.0190  0.6598 -0.3984
 5487SOL    HW128094   3.836   3.949  10.856 -0.1074 -0.3890 -1.2146
 5487SOL    HW228095   3.904   4.078  10.818 -1.6479  1.9198 -0.5335
 5488SOL     OW28096   2.180   4.628   5.060 -0.0420 -0.5408  0.5412
 5488SOL    HW128097   2.275   4.620   5.069 -0.0021 -1.5231 -0.7744
 5488SOL    HW228098   2.171   4.718   5.092  0.5581  0.0008 -0.8634
 5489SOL     OW28099   3.270   0.358   9.845  0.5910  0.0551 -0.2050
 5489SOL    HW128100   3.309   0.277   9.812  0.1166 -1.0107  1.8728
 5489SOL    HW228101   3.309   0.377   9.930  0.3937 -1.1200  0.1432
 5490SOL     OW28102   1.629   0.442   5.678  0.8750 -0.5711  0.0713
 5490SOL    HW128103   1.602   0.455   5.587  0.3771  2.1745  0.6147
 5490SOL    HW228104   1.680   0.361   5.675 -1.0069 -1.7412 -0.2694
 5491SOL     OW28105   4.135   3.801   1.031  0.0041  0.6205 -0.0809
 5491SOL    HW128106   4.195   3.865   1.070  0.0109  1.0091 -0.7246
 5491SOL    HW228107   4.133   3.735   1.101  0.1733 -0.1757 -0.8298
 5492SOL     OW28108   4.146   2.266   6.818  0.7433 -0.1429 -0.2515
 5492SOL    HW128109   4.072   2.300   6.869  0.9307  0.9600 -0.6989
 5492SOL    HW228110   4.166   2.186   6.866 -0.3501 -2.5582 -3.8392
 5493SOL     OW28111   3.349   2.088  12.424 -0.4036  0.3761 -0.4869
 5493SOL    HW128112   3.402   2.054  12.496 -0.3842 -2.9532 -2.0923
 5493SOL    HW228113   3.401   2.071  12.346  1.0434 -0.7047  0.7271
 5494SOL     OW28114   2.782   0.370   8.389  0.3000  0.2033 -0.0060
 5494SOL    HW128115   2.869   0.371   8.429  0.5597 -0.0904 -0.5629
 5494SOL    HW228116   2.732   0.370   8.471 -0.3115 -1.2950 -0.3691
 5495SOL     OW28117   4.387   4.406   9.857  0.1905 -0.4853  0.2331
 5495SOL    HW128118   4.336   4.453   9.923  1.2863 -0.8951  1.3597
 5495SOL    HW228119   4.396   4.328   9.911 -2.5134 -0.4986  0.6799
 5496SOL     OW28120   3.403   0.256   1.182  0.0719 -0.0502  0.3059
 5496SOL    HW128121   3.316   0.236   1.148 -0.2802 -0.0962  1.2317
 5496SOL    HW228122   3.460   0.269   1.106  1.6100 -0.7963  1.3457
 5497SOL     OW28123   2.523   2.310   5.217  0.5157  0.6238 -0.0813
 5497SOL    HW128124   2.545   2.332   5.307  3.2159 -1.7752 -0.1387
 5497SOL    HW228125   2.601   2.261   5.190 -0.8919 -1.2209 -0.7971
 5498SOL     OW28126   1.564   1.635   1.084  0.3411 -0.1556  0.7582
 5498SOL    HW128127   1.573   1.602   1.173 -1.8097  0.2550  1.1270
 5498SOL    HW228128   1.493   1.574   1.061  0.1282 -0.6085  2.6254
 5499SOL     OW28129   3.558   4.664   6.589  0.1711  0.8897  0.4000
 5499SOL    HW128130   3.488   4.689   6.529 -0.4224  0.2031  0.8016
 5499SOL    HW228131   3.621   4.617   6.535 -1.7092  1.9657 -2.6888
 5500SOL     OW28132   1.759   2.545   3.769  0.1155  0.4052 -0.0469
 5500SOL    HW128133   1.801   2.480   3.826 -0.1926  0.1949 -0.0591
 5500SOL    HW228134   1.840   2.567   3.723 -0.1195  0.3644 -0.4885
 5501SOL     OW28135   1.868   2.486  16.788  0.5939 -0.0065 -0.5631
 5501SOL    HW128136   1.781   2.489  16.826  0.7519 -0.3578 -0.1726
 5501SOL    HW228137   1.851   2.428  16.714  2.6896  0.7973 -1.6984
 5502SOL     OW28138   3.210   0.056   8.262  0.3619 -0.3054 -0.2863
 5502SOL    HW128139   3.260   4.712   8.267  0.9686  0.1148  0.4203
 5502SOL    HW228140   3.130   0.028   8.218  0.3470 -0.3360 -0.2395
 5503SOL     OW28141   0.111   2.060   3.347  0.0241  0.4314 -0.2279
 5503SOL    HW128142   0.033   2.105   3.315 -0.4602 -0.3872 -0.1952
 5503SOL    HW228143   0.083   2.041   3.436  2.9971  0.5605  0.7218
 5504SOL     OW28144   4.674   1.114   5.353 -0.0090 -0.4440  0.4136
 5504SOL    HW128145   4.641   1.087   5.267 -2.8243  0.1903  1.2903
 5504SOL    HW228146   4.616   1.187   5.371 -0.6395 -0.6480 -0.7439
 5505SOL     OW28147   4.096   1.722  10.140 -0.1027  0.3417 -0.1928
 5505SOL    HW128148   4.110   1.814  10.161 -0.4849  1.4222 -4.6915
 5505SOL    HW228149   4.175   1.707  10.088 -0.8329  0.1638 -1.2276
 5506SOL     OW28150   3.183   0.986   4.974  0.3106 -0.5434  0.6418
 5506SOL    HW128151   3.109   1.034   5.011  1.3402  1.9388 -0.5122
 5506SOL    HW228152   3.241   1.010   5.047  1.2772 -0.1342 -0.2510
 5507SOL     OW28153   1.847   3.940   9.574 -0.2979  0.3195 -0.3338
 5507SOL    HW128154   1.754   3.950   9.592 -0.4593 -2.7079  0.6427
 5507SOL    HW228155   1.862   3.865   9.632 -0.2637  0.4689 -0.1523
 5508SOL     OW28156   0.590   0.704  13.177 -0.5173 -0.1006  0.2773
 5508SOL    HW128157   0.570   0.761  13.102 -1.5905 -0.5571  0.2180
 5508SOL    HW228158   0.682   0.727  13.189 -0.6821  0.9383 -0.3744
 5509SOL     OW28159   3.957   2.344  12.095 -0.4222 -0.0656 -0.0146
 5509SOL    HW128160   4.036   2.394  12.077  0.1015 -0.8252  0.1932
 5509SOL    HW228161   3.963   2.286  12.019 -0.9350  1.1670 -0.9990
 5510SOL     OW28162   3.021   4.321   6.250 -0.3877  0.0552  0.3757
 5510SOL    HW128163   3.106   4.364   6.242  0.8496 -2.3705  0.6480
 5510SOL    HW228164   2.994   4.357   6.335 -2.1732 -0.6680  0.1060
 5511SOL     OW28165   4.242   4.273   3.106  0.8106  0.0081 -0.0616
 5511SOL    HW128166   4.319   4.216   3.109  1.0723  0.3746  0.1588
 5511SOL    HW228167   4.228   4.303   3.016  0.0709 -1.4776 -0.4462
 5512SOL     OW28168   3.096   4.515   5.708  0.5474  0.0004  0.3669
 5512SOL    HW128169   3.016   4.527   5.759 -0.0160 -0.7713 -0.3293
 5512SOL    HW228170   3.076   4.570   5.632  0.0089 -0.3086  0.2889
 5513SOL     OW28171   0.238   2.545   7.239 -0.3282  0.2171 -0.2086
 5513SOL    HW128172   0.278   2.530   7.325  1.9657 -0.4949 -1.4237
 5513SOL    HW228173   0.301   2.499   7.184  0.3175  0.7966  0.0367
 5514SOL     OW28174   0.524   2.920   5.682  0.0548 -0.0631 -0.3358
 5514SOL    HW128175   0.542   2.895   5.591 -0.6115 -0.2777 -0.4119
 5514SOL    HW228176   0.469   2.996   5.664 -0.2365  0.2719  1.9694
 5515SOL     OW28177   0.363   3.140   5.703 -0.3099 -0.3798 -0.0866
 5515SOL    HW128178   0.276   3.144   5.662  0.3167  0.0194 -1.3588
 5515SOL    HW228179   0.405   3.219   5.671 -0.4046 -0.2815  0.0322
 5516SOL     OW28180   3.040   0.917   6.783 -0.2914  0.1381 -0.5139
 5516SOL    HW128181   3.022   0.918   6.877  4.0452  1.6267  0.2835
 5516SOL    HW228182   2.952   0.898   6.752  0.0551  0.5954 -1.7454
 5517SOL     OW28183   0.423   1.868   3.167  0.3910 -0.2006 -0.2608
 5517SOL    HW128184   0.459   1.918   3.094  1.0872 -1.2616 -0.6318
 5517SOL    HW228185   0.482   1.900   3.236  0.0633 -0.9734  0.3712
 5518SOL     OW28186   2.942   0.193  13.971  0.0009 -0.5807  0.1914
 5518SOL    HW128187   2.992   0.187  14.053  0.6644  1.2216 -0.0691
 5518SOL    HW228188   2.864   0.240  14.002  0.5380  0.1996  0.3731
 5519SOL     OW28189   1.200   4.183   8.927  0.3225  0.4260 -0.0505
 5519SOL    HW128190   1.294   4.165   8.922  0.3231  0.6261 -0.8726
 5519SOL    HW228191   1.204   4.256   8.988  3.4876  0.7704 -0.6833
 5520SOL     OW28192   0.819   2.294  17.401 -0.2652  0.4258  0.1382
 5520SOL    HW128193   0.812   2.380  17.441  0.6487  0.6341 -0.1672
 5520SOL    HW228194   0.842   2.316  17.311 -0.9561 -1.0231 -0.3940
 5521SOL     OW28195   2.279   0.464   7.602  0.2500  0.2922 -0.0079
 5521SOL    HW128196   2.299   0.498   7.515 -1.3086  0.4017 -0.3167
 5521SOL    HW228197   2.365   0.432   7.630 -0.6990  0.2097  2.8072
 5522SOL     OW28198   1.962   2.062  14.567 -0.4783  0.1530 -0.4618
 5522SOL    HW128199   1.921   2.009  14.636 -2.7026  1.8170 -0.5242
 5522SOL    HW228200   1.888   2.111  14.532 -2.0326 -1.3467  0.7348
 5523SOL     OW28201   3.760   3.561   3.526  0.2309  0.4804  0.2790
 5523SOL    HW128202   3.761   3.556   3.430 -0.0079  1.3254  0.2329
 5523SOL    HW228203   3.690   3.625   3.538 -0.4018  0.0975 -1.4042
 5524SOL     OW28204   3.347   2.689   5.030  0.0224 -0.0608 -0.8812
 5524SOL    HW128205   3.390   2.635   4.964  0.6305  0.0131 -0.5444
 5524SOL    HW228206   3.368   2.778   5.001 -0.0149 -0.0934 -1.0114
 5525SOL     OW28207   2.048   4.027   6.432  0.3502  0.2580  0.4589
 5525SOL    HW128208   2.127   4.040   6.484  0.3011 -1.1532  0.8818
 5525SOL    HW228209   2.013   4.116   6.436  1.1896  0.7372 -2.6036
 5526SOL     OW28210   0.444   1.599   8.052 -0.0092 -0.9692 -0.0044
 5526SOL    HW128211   0.471   1.670   7.994  0.3119 -1.1245 -0.0457
 5526SOL    HW228212   0.528   1.567   8.084 -1.1057 -2.8471  1.0197
 5527SOL     OW28213   3.768   2.678   8.258  0.2031  0.0071 -0.0153
 5527SOL    HW128214   3.784   2.727   8.177 -0.3440  2.6911  1.5020
 5527SOL    HW228215   3.812   2.739   8.317  0.3949 -0.2155  0.0703
 5528SOL     OW28216   4.559   4.582   5.396 -0.4308 -0.6433  0.2806
 5528SOL    HW128217   4.521   4.531   5.323 -0.5951  0.5466 -0.4668
 5528SOL    HW228218   4.642   4.609   5.358 -0.9785 -0.8410 -1.0619
 5529SOL     OW28219   0.525   0.562  16.700  0.2784 -0.5054 -0.4333
 5529SOL    HW128220   0.471   0.508  16.757  1.1955 -0.9545  0.0020
 5529SOL    HW228221   0.543   0.504  16.626  2.4471 -1.1529  0.5845
 5530SOL     OW28222   2.972   4.732   1.449 -0.1095 -0.0572 -0.1568
 5530SOL    HW128223   2.893   0.048   1.446  0.7308  1.1694 -0.0177
 5530SOL    HW228224   2.954   4.665   1.382  0.4846 -0.0804 -0.2889
 5531SOL     OW28225   3.265   0.723   9.140  0.0807  0.0151 -0.2591
 5531SOL    HW128226   3.204   0.796   9.129  2.3859  2.4355  3.0655
 5531SOL    HW228227   3.232   0.657   9.078  0.7866 -2.2784  1.8284
 5532SOL     OW28228   1.579   0.179  15.914  0.2064 -0.5860 -0.1868
 5532SOL    HW128229   1.626   0.150  15.992 -0.6546  0.2016  0.6237
 5532SOL    HW228230   1.599   0.273  15.914 -1.7594 -0.1747 -0.1167
 5533SOL     OW28231   2.103   1.052   4.956 -0.6531  0.0185 -0.2319
 5533SOL    HW128232   2.115   1.142   4.985  0.3553 -0.3492  0.5087
 5533SOL    HW228233   2.193   1.023   4.941 -0.8504  0.1915 -1.7820
 5534SOL     OW28234   3.192   2.480  11.694  0.7529  0.4244 -0.2868
 5534SOL    HW128235   3.147   2.562  11.714 -1.7610 -0.6754 -1.4687
 5534SOL    HW228236   3.130   2.429  11.746  0.6177 -1.0115 -1.8420
 5535SOL     OW28237   2.813   0.460   4.957 -0.5537  0.0326 -0.8294
 5535SOL    HW128238   2.790   0.394   5.022  2.6829 -0.4483 -0.1840
 5535SOL    HW228239   2.804   0.542   5.005  0.8369 -0.3581  0.0947
 5536SOL     OW28240   4.041   2.161   7.149  0.3252 -0.1565 -0.0335
 5536SOL    HW128241   3.947   2.164   7.130  0.1225  0.4651  1.1145
 5536SOL    HW228242   4.046   2.093   7.216  0.2789  1.8548  1.9596
 5537SOL     OW28243   4.598   2.140   0.075  0.6222  0.2432 -0.3527
 5537SOL    HW128244   4.654   2.209   0.039 -1.0126  1.0064 -1.4001
 5537SOL    HW228245   4.558   2.105  17.745 -2.5007 -1.1441  1.8300
 5538SOL     OW28246   3.221   1.123  14.413 -0.4697  0.3394 -0.7686
 5538SOL    HW128247   3.289   1.168  14.363  2.3730 -0.9023  2.0144
 5538SOL    HW228248   3.148   1.153  14.358 -1.2985 -0.9434 -0.3544
 5539SOL     OW28249   0.921   1.723   9.379 -0.8262  0.3115 -0.6322
 5539SOL    HW128250   1.007   1.758   9.403  0.3338 -2.0820 -1.2577
 5539SOL    HW228251   0.928   1.683   9.292  1.1592  0.0916 -0.3638
 5540SOL     OW28252   2.962   3.209  13.497 -0.3888 -0.1729  0.5566
 5540SOL    HW128253   2.925   3.133  13.452 -0.4004  0.0166  0.2419
 5540SOL    HW228254   2.975   3.270  13.423  0.1341 -0.9302  0.0229
 5541SOL     OW28255   3.803   2.967   6.748 -0.2243 -0.4120 -0.4495
 5541SOL    HW128256   3.873   3.026   6.720 -2.2586  1.8157 -0.8702
 5541SOL    HW228257   3.837   2.880   6.732  1.1897  0.1781 -0.6273
 5542SOL     OW28258   3.318   3.798   2.116  0.3367 -0.2255  0.2053
 5542SOL    HW128259   3.350   3.757   2.196 -0.2906 -1.2823 -0.0873
 5542SOL    HW228260   3.288   3.881   2.151  0.6427  0.4990 -1.2425
 5543SOL     OW28261   4.580   2.756   7.609  0.0151 -0.0204 -0.0021
 5543SOL    HW128262   4.565   2.668   7.575 -0.1695  0.8367 -2.1727
 5543SOL    HW228263   4.665   2.780   7.572 -0.7668  1.2637 -0.9746
 5544SOL     OW28264   1.055   1.947   6.008  0.1791  0.1893 -0.3820
 5544SOL    HW128265   1.094   2.021   5.962 -0.2973 -0.1599 -1.3431
 5544SOL    HW228266   0.992   1.998   6.060 -0.5325 -0.0422 -1.0151
 5545SOL     OW28267   3.383   2.496   6.204  0.1573  0.0524 -0.0485
 5545SOL    HW128268   3.422   2.579   6.177 -1.2616  1.0659  1.0111
 5545SOL    HW228269   3.290   2.520   6.207 -0.4728 -2.1225 -2.1824
 5546SOL     OW28270   3.474   4.650   6.216 -0.4036 -0.8326 -0.1613
 5546SOL    HW128271   3.558   4.604   6.212 -0.4668 -0.9016 -0.8215
 5546SOL    HW228272   3.490   4.727   6.161  1.7237 -0.8793  0.3934
 5547SOL     OW28273   0.907   3.172   3.773 -0.4700 -0.2769  0.0930
 5547SOL    HW128274   0.942   3.258   3.749 -3.3713  0.4076 -1.7745
 5547SOL    HW228275   0.892   3.185   3.867  0.0530 -0.1148  0.1522
 5548SOL     OW28276   3.455   3.815   0.238 -0.1265 -0.4246 -0.1382
 5548SOL    HW128277   3.402   3.774   0.171 -1.6109  0.3372  0.5671
 5548SOL    HW228278   3.484   3.736   0.284  1.1531 -1.3240 -2.5248
 5549SOL     OW28279   0.887   4.064   4.396 -0.2411  0.6353 -0.6471
 5549SOL    HW128280   0.953   4.100   4.336  1.2825 -0.3862  0.4211
 5549SOL    HW228281   0.806   4.064   4.346 -0.7287 -1.2126  0.1545
 5550SOL     OW28282   3.685   3.726  16.972  0.0485  0.0391  0.4899
 5550SOL    HW128283   3.608   3.698  16.924  0.9023  0.2327 -0.9884
 5550SOL    HW228284   3.740   3.760  16.902  2.1155 -2.4579  0.8896
 5551SOL     OW28285   2.133   1.862   3.896  0.0219  0.4921  0.4046
 5551SOL    HW128286   2.121   1.931   3.962 -0.8433  1.0875 -0.3690
 5551SOL    HW228287   2.173   1.792   3.948  1.3090  1.7278  1.1035
 5552SOL     OW28288   1.566   1.048  12.033 -0.5805 -0.0501 -0.4827
 5552SOL    HW128289   1.614   1.097  11.966 -0.8421  0.4549 -0.2953
 5552SOL    HW228290   1.573   0.957  12.004 -4.5315 -0.1311 -1.0704
 5553SOL     OW28291   4.697   4.099   7.604 -0.2727  0.5805  0.6475
 5553SOL    HW128292   4.646   4.094   7.685 -1.8802  2.2075 -0.2818
 5553SOL    HW228293   4.669   4.027   7.547 -1.4663  1.7619 -0.2561
 5554SOL     OW28294   3.583   1.624   4.681  0.3860 -0.0083  0.0104
 5554SOL    HW128295   3.676   1.616   4.658  0.2869 -1.1774  0.0297
 5554SOL    HW228296   3.585   1.632   4.777  0.8826 -1.1625  0.1003
 5555SOL     OW28297   0.586   2.377   7.605 -0.5514  0.4061 -0.1742
 5555SOL    HW128298   0.527   2.362   7.680  0.8777 -4.0298  0.0172
 5555SOL    HW228299   0.618   2.290   7.584 -1.6558  0.0708 -0.4935
 5556SOL     OW28300   3.187   4.494   9.292  0.0691  0.3908  0.5926
 5556SOL    HW128301   3.096   4.522   9.297  0.5019  1.9287 -0.4343
 5556SOL    HW228302   3.233   4.570   9.327  1.8275  0.3583 -1.6439
 5557SOL     OW28303   0.009   3.343   0.419  0.1548 -0.3326  0.2308
 5557SOL    HW128304   0.081   3.293   0.458  0.5067  0.6922  0.8839
 5557SOL    HW228305   0.002   3.418   0.479 -0.5835 -1.9400  2.1712
 5558SOL     OW28306   1.396   3.057   6.724 -0.0443 -0.4433 -1.1180
 5558SOL    HW128307   1.427   3.010   6.802  0.0105  0.9820 -0.2706
 5558SOL    HW228308   1.335   3.001   6.678 -1.2365  0.2436 -0.3784
 5559SOL     OW28309   0.986   0.755   5.767  0.1856  0.0014  0.0974
 5559SOL    HW128310   1.038   0.786   5.693  2.3980 -2.7230  0.5209
 5559SOL    HW228311   0.898   0.789   5.754  0.0284  0.3198  1.9123
 5560SOL     OW28312   3.579   3.184   9.197 -0.1414  0.0566  0.2147
 5560SOL    HW128313   3.484   3.187   9.190 -0.1872 -0.3953  0.6318
 5560SOL    HW228314   3.578   3.238   9.277 -0.8251 -0.0752  0.2969
 5561SOL     OW28315   4.447   3.074   7.850  0.0423 -0.4937  0.5966
 5561SOL    HW128316   4.539   3.100   7.853  0.9074 -3.6427  1.0761
 5561SOL    HW228317   4.413   3.164   7.857  1.4468  0.2579 -2.2051
 5562SOL     OW28318   0.565   1.638  16.039  0.3746  0.0030  0.2840
 5562SOL    HW128319   0.483   1.687  16.033  0.3700 -0.2308 -1.6881
 5562SOL    HW228320   0.552   1.564  15.979 -3.3097  0.8866  0.0028
 5563SOL     OW28321   2.482   3.759   2.731 -0.6109  0.3773 -0.1872
 5563SOL    HW128322   2.423   3.817   2.684  0.4930  0.4387 -1.5187
 5563SOL    HW228323   2.536   3.720   2.662 -1.2171 -0.6515 -0.0740
 5564SOL     OW28324   4.573   1.111   6.396 -0.0826 -0.1169 -0.4088
 5564SOL    HW128325   4.486   1.123   6.434  0.0225 -0.1366 -0.1583
 5564SOL    HW228326   4.617   1.040   6.443  1.2525  1.1160  0.2025
 5565SOL     OW28327   1.289   2.248  14.345 -0.4116 -0.5855 -0.3377
 5565SOL    HW128328   1.300   2.342  14.358 -1.0386 -0.5758  0.1571
 5565SOL    HW228329   1.379   2.219  14.333  0.2468 -0.0620  3.3852
 5566SOL     OW28330   0.275   2.783  15.101 -0.3539  0.1736 -0.0594
 5566SOL    HW128331   0.281   2.697  15.142  1.7916  0.1398 -0.4576
 5566SOL    HW228332   0.304   2.842  15.170  0.3510  0.7982 -0.8890
 5567SOL     OW28333   3.326   1.069  12.883  0.3306 -0.3379  0.2430
 5567SOL    HW128334   3.234   1.079  12.860  0.4505 -2.2993 -1.0504
 5567SOL    HW228335   3.357   1.157  12.862 -0.5136 -0.1278 -0.0965
 5568SOL     OW28336   4.152   0.511   9.202  0.2806  0.3644 -0.6174
 5568SOL    HW128337   4.146   0.555   9.117 -1.8273  0.1769 -0.5661
 5568SOL    HW228338   4.168   0.589   9.255 -2.5092  0.0582  0.6496
 5569SOL     OW28339   4.709   0.494   1.059  0.5924 -0.5334  0.0326
 5569SOL    HW128340   0.008   0.564   1.005  1.0094  0.1136  1.1468
 5569SOL    HW228341   0.045   0.469   1.115  0.4791  0.7374  0.7532
 5570SOL     OW28342   4.376   2.641   9.595  0.3647 -0.6366 -0.4726
 5570SOL    HW128343   4.398   2.681   9.679  0.8714 -0.9387 -0.4634
 5570SOL    HW228344   4.359   2.721   9.545  0.0047 -0.4184 -0.0090
 5571SOL     OW28345   4.428   3.771   4.950  0.0789  0.2477  0.0242
 5571SOL    HW128346   4.421   3.855   4.994 -2.5227  0.6275 -1.1459
 5571SOL    HW228347   4.519   3.747   4.968 -0.4472 -1.3460  0.5882
 5572SOL     OW28348   0.204   2.585   3.287 -0.2755  0.3374 -0.6142
 5572SOL    HW128349   0.292   2.607   3.316 -0.6480  0.7545  0.2193
 5572SOL    HW228350   0.205   2.497   3.249 -2.1251 -1.0829  2.5696
 5573SOL     OW28351   2.347   1.908   2.908 -0.9458  0.3200 -0.0857
 5573SOL    HW128352   2.403   1.917   2.985  0.4851  3.8617 -1.5094
 5573SOL    HW228353   2.330   1.997   2.878 -1.8174  0.8464  1.9419
 5574SOL     OW28354   2.982   3.790   4.074  0.1841 -0.5764  0.1652
 5574SOL    HW128355   2.941   3.790   4.160  1.6435  0.7407  0.8735
 5574SOL    HW228356   2.986   3.882   4.047  1.4162 -0.9159 -0.8471
 5575SOL     OW28357   4.153   1.651  11.974  0.7064  0.4740  0.2312
 5575SOL    HW128358   4.106   1.734  11.964  2.3533  1.4305  0.3286
 5575SOL    HW228359   4.233   1.672  11.925 -0.1882 -1.0998 -1.8906
 5576SOL     OW28360   0.354   0.088   3.801  0.0652 -0.8765 -0.3674
 5576SOL    HW128361   0.404   0.010   3.827  1.4609 -0.7682 -2.7550
 5576SOL    HW228362   0.375   0.154   3.867 -0.5997  0.0456 -1.0752
 5577SOL     OW28363   4.520   4.542   6.049  0.0508  0.2379 -0.1768
 5577SOL    HW128364   4.492   4.556   5.959  1.6513  1.3719 -0.4916
 5577SOL    HW228365   4.490   4.453   6.066 -5.7337  1.7082 -2.5054
 5578SOL     OW28366   3.212   2.697  16.496  0.3758 -0.4026 -0.3808
 5578SOL    HW128367   3.163   2.702  16.578  1.5058 -0.7892  0.3036
 5578SOL    HW228368   3.210   2.786  16.461  0.3388 -0.5380 -0.7214
 5579SOL     OW28369   3.383   1.636  10.894  0.2721 -0.1795 -0.0215
 5579SOL    HW128370   3.476   1.657  10.893 -0.1229  1.4466 -2.8924
 5579SOL    HW228371   3.382   1.562  10.833  2.8683  0.2290 -0.5649
 5580SOL     OW28372   1.907   2.709   5.591 -0.4022  0.0297 -0.7837
 5580SOL    HW128373   1.989   2.749   5.621  0.2134 -2.5826  1.0609
 5580SOL    HW228374   1.837   2.765   5.625 -0.3073 -0.2932 -0.0508
 5581SOL     OW28375   1.179   1.171   2.852 -0.1387 -0.2789 -0.3244
 5581SOL    HW128376   1.142   1.083   2.844  0.2774 -0.5521  0.6840
 5581SOL    HW228377   1.166   1.172   2.947 -0.1457 -0.5416 -0.3212
 5582SOL     OW28378   3.417   1.089  12.199  0.3966  0.3857  0.1620
 5582SOL    HW128379   3.463   1.042  12.269  0.2164 -2.1446 -1.4170
 5582SOL    HW228380   3.482   1.090  12.128  0.4009 -1.7373  0.1267
 5583SOL     OW28381   4.383   0.922   5.172 -0.4717 -0.2801  0.1740
 5583SOL    HW128382   4.302   0.875   5.193 -1.2364  0.7125 -0.5422
 5583SOL    HW228383   4.386   0.911   5.077 -2.2690 -1.6899  0.2877
 5584SOL     OW28384   1.439   1.434  10.330 -0.1349 -0.8365  0.1661
 5584SOL    HW128385   1.409   1.520  10.360 -2.5257 -1.2203 -1.1040
 5584SOL    HW228386   1.403   1.377  10.398  0.3989 -2.6646 -1.0667
 5585SOL     OW28387   2.028   3.658   1.468 -0.1601 -0.2659  0.1744
 5585SOL    HW128388   2.043   3.705   1.387  1.4878  1.7773  1.6663
 5585SOL    HW228389   2.025   3.731   1.530  2.4309  0.2548 -0.3427
 5586SOL     OW28390   3.491   0.873   7.920 -0.1091 -0.4421 -0.2264
 5586SOL    HW128391   3.470   0.930   7.994  0.5100 -0.2578 -0.1876
 5586SOL    HW228392   3.423   0.894   7.856 -1.9240 -1.2793  1.4607
 5587SOL     OW28393   4.035   1.128  14.336 -0.4471 -0.0910 -0.6619
 5587SOL    HW128394   3.980   1.166  14.405  0.1205  0.0055 -0.2679
 5587SOL    HW228395   3.974   1.132  14.262 -0.6632 -0.3537 -0.4989
 5588SOL     OW28396   2.951   0.053  15.661 -0.8887 -0.1987  0.3061
 5588SOL    HW128397   2.948   4.705  15.619 -1.5805 -0.0084 -0.0352
 5588SOL    HW228398   2.991   0.104  15.590  0.8147 -1.7521  0.1532
 5589SOL     OW28399   0.720   1.207   7.013  0.4939 -0.2256 -0.1175
 5589SOL    HW128400   0.677   1.257   6.944  1.9292 -0.0471 -0.8698
 5589SOL    HW228401   0.646   1.169   7.060 -1.3341  0.8063 -2.1689
 5590SOL     OW28402   0.933   4.299   4.981 -0.6156  0.2159 -0.3245
 5590SOL    HW128403   0.896   4.304   4.893 -0.6237 -0.3468 -0.3534
 5590SOL    HW228404   0.855   4.274   5.031 -1.0422 -1.2042 -1.6962
 5591SOL     OW28405   4.362   1.838   8.704 -0.1315  0.5028  0.1766
 5591SOL    HW128406   4.305   1.762   8.694 -0.6452  0.8968  0.1605
 5591SOL    HW228407   4.318   1.885   8.775 -2.4341  0.3998 -1.2029
 5592SOL     OW28408   1.284   1.506   7.026  0.5029 -0.0856  0.2277
 5592SOL    HW128409   1.360   1.555   6.994  1.4371 -0.7694  1.3990
 5592SOL    HW228410   1.269   1.438   6.961  0.5658  1.5859 -1.5182
 5593SOL     OW28411   4.306   2.797   3.973  0.0116  0.4322 -0.5447
 5593SOL    HW128412   4.242   2.869   3.981 -0.8993 -0.6205  1.6241
 5593SOL    HW228413   4.257   2.723   4.009 -0.2840  0.5951 -0.6039
 5594SOL     OW28414   1.815   3.832   7.562  0.3978 -0.2735  0.2152
 5594SOL    HW128415   1.820   3.920   7.601  2.4970 -0.1286 -0.4108
 5594SOL    HW228416   1.759   3.784   7.623  0.0470  0.3396  0.3874
 5595SOL     OW28417   2.817   4.567   8.948  0.0575 -0.5302 -0.4338
 5595SOL    HW128418   2.774   4.483   8.964  1.1714 -1.0039  0.0629
 5595SOL    HW228419   2.767   4.616   9.013  2.2653  2.3077 -0.8552
 5596SOL     OW28420   4.099   3.770   0.153  0.1059  0.7184  0.0735
 5596SOL    HW128421   4.122   3.699   0.094 -0.9106  3.4031 -3.5491
 5596SOL    HW228422   4.123   3.726   0.235 -0.7428 -1.2422 -0.7315
 5597SOL     OW28423   1.141   0.280   2.363 -0.1600  0.2595  0.2032
 5597SOL    HW128424   1.199   0.269   2.438  3.2355  0.0111 -2.4798
 5597SOL    HW228425   1.058   0.277   2.410  1.0424 -0.6679  2.2436
 5598SOL     OW28426   3.516   2.895  13.252 -0.1262 -0.1995  0.3492
 5598SOL    HW128427   3.519   2.884  13.157 -0.2581 -0.8773  0.4243
 5598SOL    HW228428   3.443   2.840  13.281 -1.3486  0.5897 -1.2735
 5599SOL     OW28429   0.488   1.657  11.296  0.4623 -0.2896 -0.9009
 5599SOL    HW128430   0.573   1.679  11.257  1.3901  1.1534  1.9404
 5599SOL    HW228431   0.439   1.663  11.214 -4.3460  1.7058  2.1282
 5600SOL     OW28432   4.146   4.315   6.493 -0.0565 -0.0715 -0.0287
 5600SOL    HW128433   4.187   4.393   6.457  0.6509 -0.1744  0.5653
 5600SOL    HW228434   4.184   4.247   6.438 -1.9436 -0.7565 -0.5192
 5601SOL     OW28435   3.390   4.464   5.922  0.1583  0.2899 -0.0774
 5601SOL    HW128436   3.336   4.542   5.928 -0.9313 -0.5456  0.9209
 5601SOL    HW228437   3.474   4.505   5.905  0.1980  0.0156 -0.5516
 5602SOL     OW28438   1.549   0.287   8.514  0.1773 -0.0164  0.0851
 5602SOL    HW128439   1.639   0.281   8.546  0.0664 -5.7988 -0.5255
 5602SOL    HW228440   1.523   0.378   8.528 -0.0001  0.3315 -2.5344
 5603SOL     OW28441   4.459   1.658  16.907 -0.5934 -0.0013  0.4337
 5603SOL    HW128442   4.486   1.749  16.922  0.5612 -0.2418 -0.1952
 5603SOL    HW228443   4.399   1.663  16.833 -0.6871  1.4129  0.6034
 5604SOL     OW28444   1.200   3.958   8.568  0.1540 -0.2245 -0.3514
 5604SOL    HW128445   1.268   3.948   8.502 -0.3013  1.5624 -1.0934
 5604SOL    HW228446   1.231   3.922   8.651 -1.7270 -0.0604  0.4375
 5605SOL     OW28447   1.461   3.052  10.190 -0.4003 -0.0777 -0.3600
 5605SOL    HW128448   1.538   3.011  10.150 -1.3723 -2.2809  0.0401
 5605SOL    HW228449   1.450   3.000  10.271  1.6973 -0.4373 -0.2923
 5606SOL     OW28450   0.338   4.678   4.639  0.0131  0.2216  0.2414
 5606SOL    HW128451   0.304   4.616   4.704  0.3892  1.2962  1.4710
 5606SOL    HW228452   0.413   4.714   4.688  1.8094 -0.1689 -2.2551
 5607SOL     OW28453   2.833   2.208  16.425  0.0151  0.2760 -0.2539
 5607SOL    HW128454   2.914   2.168  16.392  0.0055 -0.1812  0.2722
 5607SOL    HW228455   2.779   2.137  16.390 -2.4786  0.8489  2.4739
 5608SOL     OW28456   0.895   0.868  10.611 -0.2199 -0.1185 -0.8708
 5608SOL    HW128457   0.901   0.784  10.656 -2.7565 -0.6056 -1.4378
 5608SOL    HW228458   0.800   0.879  10.608 -0.1678  0.9712  1.6568
 5609SOL     OW28459   4.572   2.364   7.149  0.3448  0.4289 -0.7254
 5609SOL    HW128460   4.485   2.362   7.190  0.6745  3.7670  0.1121
 5609SOL    HW228461   4.555   2.321   7.065  1.0020  0.1525 -0.7124
 5610SOL     OW28462   0.964   2.039   3.492 -0.1701  0.1566  0.0518
 5610SOL    HW128463   0.989   1.963   3.544 -1.8651 -0.1408  0.4323
 5610SOL    HW228464   0.996   2.017   3.404  1.3783 -1.8372  1.1300
 5611SOL     OW28465   1.072   4.569   3.062  0.2667 -0.2443 -0.0638
 5611SOL    HW128466   1.058   4.492   3.006 -1.7935  0.2364 -0.1982
 5611SOL    HW228467   1.163   4.561   3.091  0.7821  0.4659 -1.4853
 5612SOL     OW28468   4.128   1.594  10.389  1.0126  0.1882 -0.5416
 5612SOL    HW128469   4.203   1.535  10.396  1.1075  0.2923 -0.6880
 5612SOL    HW228470   4.126   1.612  10.295  0.5106  1.0495 -0.3664
 5613SOL     OW28471   3.888   1.496   7.562  0.4831 -0.3731  0.6482
 5613SOL    HW128472   3.865   1.542   7.481  4.7331 -1.3187 -1.0560
 5613SOL    HW228473   3.948   1.429   7.530  1.0583  0.6123 -0.3380
 5614SOL     OW28474   4.127   4.477   3.254  0.0733  0.6748  0.3997
 5614SOL    HW128475   4.110   4.443   3.342  1.9028  0.4235  0.6535
 5614SOL    HW228476   4.202   4.422   3.233  0.4117  1.0771  0.5405
 5615SOL     OW28477   4.477   1.215   3.433  0.0750 -0.9189  0.2721
 5615SOL    HW128478   4.476   1.247   3.343 -0.1865  0.1402  0.6552
 5615SOL    HW228479   4.467   1.120   3.425  0.7370 -0.9407 -0.3068
 5616SOL     OW28480   1.066   1.792  16.340  0.5483  0.2166 -0.5425
 5616SOL    HW128481   1.132   1.860  16.325  1.9636 -0.8161  0.9309
 5616SOL    HW228482   1.022   1.839  16.411  2.4839 -1.5941  1.8674
 5617SOL     OW28483   0.084   3.913   7.053 -0.8258  0.7746  0.3143
 5617SOL    HW128484   0.149   3.848   7.079 -0.9720 -0.5721 -2.7248
 5617SOL    HW228485   0.137   3.958   6.988 -2.0813  1.9481  0.1001
 5618SOL     OW28486   1.858   1.758  13.643  0.0261 -0.0690  0.3816
 5618SOL    HW128487   1.828   1.667  13.647  0.7577 -0.4426 -2.4187
 5618SOL    HW228488   1.897   1.753  13.555  1.0887  0.1474  0.8419
 5619SOL     OW28489   0.716   1.696   0.983 -0.1430 -0.2702  0.0379
 5619SOL    HW128490   0.669   1.706   1.066  1.4015 -1.7809  1.1140
 5619SOL    HW228491   0.646   1.708   0.919  1.4183  1.1683 -1.3805
 5620SOL     OW28492   3.472   3.280  11.453 -0.0517 -0.1852  0.5558
 5620SOL    HW128493   3.439   3.369  11.470  0.2254  0.7689 -3.7614
 5620SOL    HW228494   3.399   3.227  11.481 -1.1154  0.2706 -1.3186
 5621SOL     OW28495   4.228   2.119  10.411  0.6583  0.1160  0.2099
 5621SOL    HW128496   4.147   2.084  10.447  0.3652  2.2147  1.6064
 5621SOL    HW228497   4.278   2.126  10.492  1.7660 -0.7257 -0.4048
 5622SOL     OW28498   2.950   4.119  13.201  0.3961 -0.2445  0.0767
 5622SOL    HW128499   2.991   4.147  13.283 -0.0170  0.4265  0.0510
 5622SOL    HW228500   2.948   4.204  13.157  3.3728 -0.2179 -0.0326
 5623SOL     OW28501   2.653   2.688  16.730  0.0964  0.1760 -0.0103
 5623SOL    HW128502   2.610   2.603  16.742 -1.1421  0.6494 -1.0565
 5623SOL    HW228503   2.661   2.683  16.635 -0.8887 -1.8308  0.0023
 5624SOL     OW28504   4.429   2.158  13.273 -0.0775 -0.0909  0.0415
 5624SOL    HW128505   4.504   2.179  13.328  0.5643 -1.3703 -0.3438
 5624SOL    HW228506   4.400   2.244  13.242  1.8032 -0.4702 -2.7580
 5625SOL     OW28507   2.780   4.065   3.655  0.0956 -0.1046  0.5271
 5625SOL    HW128508   2.698   4.070   3.606 -0.6920  0.9618  1.9514
 5625SOL    HW228509   2.750   4.090   3.742 -1.4079  2.5434 -0.7555
 5626SOL     OW28510   0.370   3.387   8.295  0.3490 -0.7591 -0.0444
 5626SOL    HW128511   0.415   3.403   8.378 -0.7431  1.5847  0.0864
 5626SOL    HW228512   0.280   3.392   8.327  0.7346 -1.1434  1.1039
 5627SOL     OW28513   4.555   0.708  16.247  0.0915  0.2686 -0.2318
 5627SOL    HW128514   4.471   0.662  16.246  1.1114 -1.6061 -0.3478
 5627SOL    HW228515   4.603   0.662  16.317 -1.4947  0.5013  1.0262
 5628SOL     OW28516   2.262   0.626   1.243  0.5301  0.3657 -0.5430
 5628SOL    HW128517   2.270   0.619   1.147  1.6100  0.0680 -0.4293
 5628SOL    HW228518   2.180   0.676   1.247 -0.0841 -0.6932 -0.0035
 5629SOL     OW28519   3.569   1.419   1.005 -0.0947  0.1518  0.0695
 5629SOL    HW128520   3.506   1.462   1.062  1.8247  0.9834  1.5836
 5629SOL    HW228521   3.641   1.482   1.015  0.6897 -0.7240 -0.0947
 5630SOL     OW28522   0.445   1.990   5.838  0.5425  0.1711 -0.1287
 5630SOL    HW128523   0.368   1.935   5.820  1.3843 -0.4461 -1.8529
 5630SOL    HW228524   0.445   1.998   5.933  0.6979 -1.2190 -0.0029
 5631SOL     OW28525   3.392   2.055   0.766  0.5135  0.2616  0.5507
 5631SOL    HW128526   3.362   2.139   0.730 -0.8902  0.4287  2.0784
 5631SOL    HW228527   3.344   2.049   0.849 -1.6446  0.8686 -0.6546
 5632SOL     OW28528   0.783   2.599  16.742 -1.4075  0.1896  0.6220
 5632SOL    HW128529   0.876   2.622  16.747 -1.0178 -1.0084 -1.1040
 5632SOL    HW228530   0.780   2.530  16.807 -2.3022 -0.4702 -0.1130
 5633SOL     OW28531   0.875   0.147   7.656  0.4828  0.3335  0.0786
 5633SOL    HW128532   0.955   0.141   7.709 -0.2849 -0.8070  1.1418
 5633SOL    HW228533   0.893   0.236   7.626  1.6506  0.0933  0.0386
 5634SOL     OW28534   3.933   1.952   3.292 -0.3910  0.2175  0.5325
 5634SOL    HW128535   3.880   1.929   3.215  0.6063 -2.6190  0.6760
 5634SOL    HW228536   4.017   1.973   3.253 -0.6034 -1.4539 -0.8338
 5635SOL     OW28537   0.311   4.548   5.953  0.0876 -0.4040 -0.4864
 5635SOL    HW128538   0.383   4.559   5.891 -0.5965 -0.9815 -1.3911
 5635SOL    HW228539   0.278   4.637   5.957  2.5456  0.5617 -1.5524
 5636SOL     OW28540   1.237   3.464  11.758 -0.6765 -0.0769 -0.2722
 5636SOL    HW128541   1.246   3.446  11.664 -1.5886  2.2113 -0.8082
 5636SOL    HW228542   1.150   3.501  11.769 -1.3740 -1.6074 -0.6852
 5637SOL     OW28543   0.942   1.298   3.368  0.5604  0.7357  0.0777
 5637SOL    HW128544   1.010   1.234   3.348  0.6198  0.3289  1.5773
 5637SOL    HW228545   0.893   1.293   3.286 -0.1259  0.6932  0.4927
 5638SOL     OW28546   3.636   3.040   6.104  0.6278 -0.0323  0.2613
 5638SOL    HW128547   3.624   2.951   6.071  3.4643 -0.4590  0.3353
 5638SOL    HW228548   3.669   3.023   6.193  0.6746 -0.3799  0.1776
 5639SOL     OW28549   0.736   4.326   4.761 -0.1114  0.3117 -0.0366
 5639SOL    HW128550   0.656   4.274   4.763 -0.2987  0.5193 -1.6130
 5639SOL    HW228551   0.807   4.270   4.730 -0.9274 -0.7690  0.0725
 5640SOL     OW28552   4.207   2.456  12.349 -0.2627 -0.2717 -0.2512
 5640SOL    HW128553   4.201   2.450  12.254 -1.4407 -1.7711 -0.0886
 5640SOL    HW228554   4.292   2.496  12.363  0.7136 -1.9211 -1.4569
 5641SOL     OW28555   2.413   4.374   0.190 -0.0407 -0.0036  0.4487
 5641SOL    HW128556   2.369   4.307   0.242 -2.9337  0.6391 -1.1965
 5641SOL    HW228557   2.450   4.425   0.261  0.1463 -1.5410  1.4567
 5642SOL     OW28558   1.583   3.847   9.928 -0.0279  0.1983 -0.1945
 5642SOL    HW128559   1.672   3.825   9.898  0.2816 -1.6642  2.0562
 5642SOL    HW228560   1.607   3.889  10.010 -0.7687 -1.2446  0.7624
 5643SOL     OW28561   4.294   1.706   9.153 -0.0418  0.1315 -0.2427
 5643SOL    HW128562   4.365   1.770   9.142  1.0910 -1.0813  0.0505
 5643SOL    HW228563   4.333   1.635   9.101 -0.7090  0.1587 -0.7800
 5644SOL     OW28564   2.806   2.560   4.570 -0.1483  0.3963  0.1996
 5644SOL    HW128565   2.791   2.467   4.555  0.7464  0.0122  1.7738
 5644SOL    HW228566   2.762   2.573   4.654 -0.9962  0.0358 -0.1867
 5645SOL     OW28567   2.518   0.248   1.709  0.4568 -0.1984 -0.2990
 5645SOL    HW128568   2.532   0.340   1.688  0.3819 -0.1240 -0.0188
 5645SOL    HW228569   2.459   0.252   1.784 -1.4172 -0.2439 -1.7666
 5646SOL     OW28570   2.460   1.532   2.040 -0.0177  0.4181  0.0118
 5646SOL    HW128571   2.403   1.531   2.118 -0.2758  1.6015 -0.1593
 5646SOL    HW228572   2.383   1.535   1.983 -0.1080 -0.2066  0.1054
 5647SOL     OW28573   0.748   2.128   8.796 -0.0843  0.2209  0.7875
 5647SOL    HW128574   0.657   2.113   8.821 -0.6970  0.1501 -1.4829
 5647SOL    HW228575   0.751   2.193   8.726 -0.2997  0.0428  0.6108
 5648SOL     OW28576   3.255   2.822   7.236 -0.1224  0.5773 -0.5819
 5648SOL    HW128577   3.300   2.766   7.172  0.3713  1.8022 -1.3138
 5648SOL    HW228578   3.290   2.794   7.320  0.7963  1.7872 -0.5576
 5649SOL     OW28579   1.550   1.469   2.109 -0.1725 -0.4536 -0.6898
 5649SOL    HW128580   1.498   1.541   2.147  1.6353  0.3291  0.2846
 5649SOL    HW228581   1.638   1.499   2.129 -0.5457 -0.0315  0.3250
 5650SOL     OW28582   4.558   0.016   4.219 -0.1232 -0.5262  0.0585
 5650SOL    HW128583   4.471   0.043   4.189 -0.5221 -1.6875  0.1614
 5650SOL    HW228584   4.579   0.067   4.297 -0.3409 -2.0274  1.0912
 5651SOL     OW28585   3.982   3.378   6.775 -0.2990 -0.4250  0.3715
 5651SOL    HW128586   4.058   3.383   6.833  1.0392 -0.9446 -1.3768
 5651SOL    HW228587   4.013   3.444   6.713  3.2557 -2.7716 -0.3339
 5652SOL     OW28588   2.236   3.196   9.499  0.6865  0.6077 -0.2379
 5652SOL    HW128589   2.316   3.246   9.481 -0.4840  2.2337 -0.9241
 5652SOL    HW228590   2.260   3.146   9.577 -1.8859 -0.0512  0.1310
 5653SOL     OW28591   0.444   3.264   1.809  0.2833 -0.4215 -0.3694
 5653SOL    HW128592   0.392   3.194   1.769 -1.1845 -0.0680  0.9244
 5653SOL    HW228593   0.481   3.306   1.731  1.1104 -0.3071  0.0846
 5654SOL     OW28594   1.363   1.941   9.077  0.2535  0.0438 -0.0188
 5654SOL    HW128595   1.431   2.007   9.087  0.4202  0.2631 -2.4800
 5654SOL    HW228596   1.292   1.997   9.044  3.4064  2.6249 -2.3557
 5655SOL     OW28597   1.131   2.129  16.322 -0.7095 -0.2192  0.1183
 5655SOL    HW128598   1.142   2.118  16.227  0.2724 -1.9114  0.4151
 5655SOL    HW228599   1.037   2.137  16.338 -0.4464  0.1880  1.4122
 5656SOL     OW28600   2.390   4.504   3.697  0.2811 -0.2983  0.0369
 5656SOL    HW128601   2.356   4.574   3.753 -0.1018 -0.6347  0.2211
 5656SOL    HW228602   2.354   4.428   3.743  0.4621  1.2011  2.6238
 5657SOL     OW28603   2.956   3.913   3.116  0.2149  0.3664  0.0603
 5657SOL    HW128604   3.008   3.892   3.038 -0.7520 -0.5465 -0.3480
 5657SOL    HW228605   2.937   4.005   3.103 -1.1701 -0.0589 -0.9737
 5658SOL     OW28606   3.463   1.688   3.652  0.0641 -0.4842 -0.6546
 5658SOL    HW128607   3.464   1.627   3.578 -0.8017 -0.0090 -1.0541
 5658SOL    HW228608   3.553   1.679   3.683 -0.0876 -1.3980 -0.4508
 5659SOL     OW28609   3.022   4.602  13.565 -0.2223  0.1776 -0.4641
 5659SOL    HW128610   3.085   4.670  13.540  0.6060  0.1184  1.4832
 5659SOL    HW228611   3.008   4.628  13.656  0.3337  1.7089 -0.8071
 5660SOL     OW28612   0.899   3.577   7.073  0.3004  0.2280  0.0317
 5660SOL    HW128613   0.983   3.532   7.067  1.0060  1.2924  1.5609
 5660SOL    HW228614   0.855   3.549   6.994  0.3162 -2.2054  0.8948
 5661SOL     OW28615   0.406   3.165   2.959  0.1527 -0.1336 -0.6228
 5661SOL    HW128616   0.461   3.143   2.884  1.5956  0.0052  0.3947
 5661SOL    HW228617   0.328   3.195   2.912 -1.7417  0.1153  2.6924
 5662SOL     OW28618   2.666   0.485  16.618 -0.0917  0.1957 -0.1270
 5662SOL    HW128619   2.636   0.405  16.662  1.7728 -0.6629 -0.4395
 5662SOL    HW228620   2.585   0.537  16.613 -1.0430 -1.0287  2.5413
 5663SOL     OW28621   4.396   3.749   3.830  0.2790 -0.1294  0.3583
 5663SOL    HW128622   4.444   3.673   3.797  3.9304  0.9610  3.1946
 5663SOL    HW228623   4.330   3.689   3.866  1.2060 -1.4627 -0.1600
 5664SOL     OW28624   0.738   2.104   3.130  0.0541 -0.1467  0.0052
 5664SOL    HW128625   0.651   2.095   3.168 -0.4148  2.4551 -0.4406
 5664SOL    HW228626   0.709   2.090   3.040 -0.4069 -0.6345  0.2347
 5665SOL     OW28627   1.820   3.718   2.227  0.1352  0.5093  0.1591
 5665SOL    HW128628   1.915   3.719   2.242  0.5334 -1.1091 -2.2450
 5665SOL    HW228629   1.804   3.638   2.177  1.5510  0.2245  0.1503
 5666SOL     OW28630   0.638   4.345   5.576 -0.8414 -0.7865  0.0500
 5666SOL    HW128631   0.606   4.345   5.665  0.1260 -0.0572  0.4065
 5666SOL    HW228632   0.556   4.345   5.526 -1.2588  1.3100  0.7427
 5667SOL     OW28633   4.568   2.852   3.167 -0.4101 -0.3985 -0.8502
 5667SOL    HW128634   4.647   2.799   3.157 -0.1765 -0.3784  0.8764
 5667SOL    HW228635   4.524   2.841   3.083  0.6348  0.2282 -1.4872
 5668SOL     OW28636   2.621   0.360   8.617  0.3292  0.2389  0.1869
 5668SOL    HW128637   2.625   0.265   8.621  0.8603  0.2274 -0.5085
 5668SOL    HW228638   2.630   0.383   8.709  0.5733  0.5565  0.0872
 5669SOL     OW28639   0.240   4.106   5.441  0.2979  0.2749  0.0736
 5669SOL    HW128640   0.236   4.028   5.497  2.5153 -1.7876 -2.6000
 5669SOL    HW228641   0.148   4.129   5.446 -0.2849 -1.4854 -2.2275
 5670SOL     OW28642   1.881   2.657   7.719 -0.1786 -0.3626  0.0982
 5670SOL    HW128643   1.966   2.699   7.734  1.6775 -3.2796 -2.3488
 5670SOL    HW228644   1.869   2.661   7.624 -1.7362 -0.0974  0.3104
 5671SOL     OW28645   3.621   2.297  15.424  0.1891 -0.3564 -0.1372
 5671SOL    HW128646   3.590   2.380  15.387 -1.6393 -0.8755  0.2352
 5671SOL    HW228647   3.711   2.324  15.444 -0.3000  1.7991 -0.8281
 5672SOL     OW28648   4.232   0.576   1.909 -0.3565  0.2600  0.4621
 5672SOL    HW128649   4.265   0.559   1.997  1.5228  1.7048  0.0465
 5672SOL    HW228650   4.295   0.525   1.857 -1.9061 -0.7313 -0.4544
 5673SOL     OW28651   3.415   4.051   5.377 -0.0136 -0.2424  0.5753
 5673SOL    HW128652   3.326   4.052   5.343  0.2580 -0.1121 -0.1416
 5673SOL    HW228653   3.398   3.988   5.447 -0.4776 -2.7384 -1.8031
 5674SOL     OW28654   2.941   0.351   9.136 -0.2268  0.1565  0.2347
 5674SOL    HW128655   2.944   0.411   9.210  1.1426  0.5892 -0.1796
 5674SOL    HW228656   3.005   0.288   9.167 -0.5881 -1.0595 -1.4706
 5675SOL     OW28657   2.095   2.261  17.296  0.4314 -0.6039 -0.2422
 5675SOL    HW128658   2.051   2.179  17.315  0.7202 -1.0453 -1.5076
 5675SOL    HW228659   2.113   2.302  17.381  0.4386 -0.8786 -0.1112
 5676SOL     OW28660   2.200   0.077   8.934  0.2684 -0.4437  0.3957
 5676SOL    HW128661   2.220   0.081   9.028  0.3234 -2.3487  0.4746
 5676SOL    HW228662   2.270   0.132   8.899  0.4330 -0.2459  1.0383
 5677SOL     OW28663   1.471   3.272   6.547  0.0226 -0.1267  0.2493
 5677SOL    HW128664   1.457   3.182   6.578  1.6632  0.1072  1.6551
 5677SOL    HW228665   1.550   3.300   6.593 -0.0095 -0.7705  0.7064
 5678SOL     OW28666   2.443   2.883  16.555 -0.3092 -0.8170  0.0712
 5678SOL    HW128667   2.496   2.804  16.568  1.6932  0.1866 -2.0575
 5678SOL    HW228668   2.415   2.897  16.646 -0.0057  3.0550 -0.4223
 5679SOL     OW28669   4.640   4.155   2.847 -0.1095 -0.0588 -0.1175
 5679SOL    HW128670   4.573   4.218   2.817  0.2198  1.1458  1.6514
 5679SOL    HW228671   4.682   4.129   2.765  1.7446 -1.9971  1.4817
 5680SOL     OW28672   4.489   2.061   8.079  0.6746  0.1614  0.4201
 5680SOL    HW128673   4.576   2.087   8.109 -0.3148  0.0623  3.3196
 5680SOL    HW228674   4.505   1.971   8.051  0.4697  0.2419  0.0404
 5681SOL     OW28675   3.061   1.472   3.017 -0.0726  0.3544 -0.0929
 5681SOL    HW128676   2.981   1.419   3.023  0.1788  0.0466  0.6071
 5681SOL    HW228677   3.120   1.415   3.067 -1.4449 -0.3194  0.7939
 5682SOL     OW28678   1.105   4.735   2.220 -0.1621 -0.3263 -0.0654
 5682SOL    HW128679   1.153   0.030   2.144  0.2372 -1.3030 -0.2333
 5682SOL    HW228680   1.161   0.015   2.295 -1.1288 -0.5873  0.7125
 5683SOL     OW28681   4.657   0.243   4.727 -0.3181  0.2633 -0.0103
 5683SOL    HW128682   4.711   0.250   4.805 -2.2748  1.2140  1.2462
 5683SOL    HW228683   4.715   0.298   4.673 -0.2797 -0.5382 -0.7929
 5684SOL     OW28684   2.344   2.791  12.859 -0.0154  0.1425  0.4442
 5684SOL    HW128685   2.432   2.755  12.846  0.6022  1.5363  0.7646
 5684SOL    HW228686   2.332   2.778  12.953 -2.6531 -1.5503 -0.1178
 5685SOL     OW28687   0.918   1.953  11.198 -0.1756 -0.2481  0.3071
 5685SOL    HW128688   0.918   1.867  11.157  1.8514 -0.3439  0.5165
 5685SOL    HW228689   0.972   2.008  11.142  0.0527 -1.1811 -0.3717
 5686SOL     OW28690   0.541   2.998  14.045  0.3971 -0.2967  0.1206
 5686SOL    HW128691   0.543   3.087  14.079 -0.0709  0.5441 -2.0576
 5686SOL    HW228692   0.464   2.963  14.090  0.4143 -0.8287 -0.2645
 5687SOL     OW28693   0.998   1.307   6.725 -0.8029  0.0854 -0.0317
 5687SOL    HW128694   1.062   1.303   6.655  0.2674 -0.2445  0.9677
 5687SOL    HW228695   0.977   1.216   6.743 -0.4193  0.4038  2.0192
 5688SOL     OW28696   3.513   1.383  13.513 -0.4167  0.4585  0.3476
 5688SOL    HW128697   3.605   1.358  13.510 -0.9111 -1.3148  0.0430
 5688SOL    HW228698   3.468   1.301  13.535 -1.8710  1.1892  0.0615
 5689SOL     OW28699   2.303   3.244   6.863  0.0701 -0.4921 -0.0073
 5689SOL    HW128700   2.272   3.334   6.869 -0.9531 -0.9274  1.2672
 5689SOL    HW228701   2.296   3.215   6.954 -2.6418  0.5727  0.1298
 5690SOL     OW28702   0.620   2.930  11.914 -0.2499  0.1491  0.1395
 5690SOL    HW128703   0.700   2.903  11.959  0.9282  0.2152 -1.9400
 5690SOL    HW228704   0.557   2.932  11.987  0.5693  0.6205  0.8323
 5691SOL     OW28705   3.813   1.873   2.758  0.5345  0.2576 -1.0674
 5691SOL    HW128706   3.737   1.924   2.786 -1.9413 -3.7574 -0.4860
 5691SOL    HW228707   3.818   1.831   2.844  1.5968 -0.9060 -1.7167
 5692SOL     OW28708   4.682   3.453   8.043  0.3062 -0.6882 -0.0533
 5692SOL    HW128709   0.024   3.505   8.057  0.2594 -0.1110 -1.9349
 5692SOL    HW228710   4.666   3.414   8.129 -1.1470  1.1635  0.5178
 5693SOL     OW28711   3.277   2.229   3.670  0.0727 -0.1595 -0.5202
 5693SOL    HW128712   3.357   2.177   3.677  1.2623  1.5003 -1.9788
 5693SOL    HW228713   3.312   2.318   3.675 -1.4105  0.3331  1.2018
 5694SOL     OW28714   4.080   1.795   6.550 -0.2954  0.0124 -0.4758
 5694SOL    HW128715   4.012   1.854   6.518 -1.0517  0.5664  2.1872
 5694SOL    HW228716   4.160   1.846   6.565  0.5101 -2.1123  2.5562
 5695SOL     OW28717   1.402   3.980   4.677  0.0161  0.0354 -0.3083
 5695SOL    HW128718   1.309   4.004   4.680  0.1327  0.5354 -0.6894
 5695SOL    HW228719   1.407   3.888   4.703  1.3186  0.1939 -0.0108
 5696SOL     OW28720   2.617   4.015   6.352  0.4292 -0.2276  0.2841
 5696SOL    HW128721   2.540   4.066   6.379  1.2757  0.9138  0.5928
 5696SOL    HW228722   2.572   3.941   6.313  1.2327 -0.1990 -0.7037
 5697SOL     OW28723   1.906   2.739   2.600  0.1259  0.6070  0.0683
 5697SOL    HW128724   1.962   2.773   2.669  1.8776  0.1082 -1.0998
 5697SOL    HW228725   1.864   2.660   2.633  1.1187 -0.2149 -0.6396
 5698SOL     OW28726   2.766   1.811   2.981  0.2308 -0.2412  0.2695
 5698SOL    HW128727   2.838   1.846   3.034 -0.1082  2.3269 -0.9785
 5698SOL    HW228728   2.703   1.866   3.026  1.0681  2.2645 -1.6312
 5699SOL     OW28729   2.051   3.708  10.737  0.1754 -0.5858 -0.3716
 5699SOL    HW128730   1.963   3.733  10.710  0.0396  1.4713  1.9705
 5699SOL    HW228731   2.057   3.774  10.805  1.8180 -1.6393  0.5025
 5700SOL     OW28732   0.963   1.984  10.793  0.2124 -0.2833  0.0668
 5700SOL    HW128733   1.058   1.970  10.800  0.0245 -1.1415  0.9310
 5700SOL    HW228734   0.958   2.042  10.869 -2.3869 -0.8872  0.3480
 5701SOL     OW28735   0.618   2.389   6.156 -0.4751 -0.1057  0.7089
 5701SOL    HW128736   0.708   2.411   6.132 -0.2959 -0.9299  0.6324
 5701SOL    HW228737   0.641   2.330   6.228 -0.6513 -1.4471 -0.3555
 5702SOL     OW28738   1.234   2.953   6.523  0.9421  0.6063 -0.0079
 5702SOL    HW128739   1.214   2.942   6.430  0.8765  1.0175 -0.0412
 5702SOL    HW228740   1.152   2.997   6.547 -0.9541 -3.3726  0.8445
 5703SOL     OW28741   2.727   2.089   8.307  1.0319  0.1503  0.8794
 5703SOL    HW128742   2.687   2.048   8.384 -0.4167  2.7303  1.4807
 5703SOL    HW228743   2.742   2.180   8.331 -0.3413  1.3979 -3.0474
 5704SOL     OW28744   2.940   0.584  12.668 -0.6590 -0.0190 -0.4292
 5704SOL    HW128745   2.957   0.664  12.717  1.5305 -0.5944 -0.2351
 5704SOL    HW228746   2.902   0.624  12.590  1.1656  0.7277 -0.9347
 5705SOL     OW28747   1.846   3.211   5.102 -0.2799 -0.1609 -0.0363
 5705SOL    HW128748   1.768   3.266   5.093 -0.8659 -1.2645 -1.8158
 5705SOL    HW228749   1.897   3.258   5.168  0.8395 -0.3977 -0.7339
 5706SOL     OW28750   4.312   0.286   3.492  0.1102 -0.5163  0.5464
 5706SOL    HW128751   4.323   0.367   3.441 -2.3355  2.0687  4.0547
 5706SOL    HW228752   4.402   0.280   3.525  0.9218  0.6629 -1.4355
 5707SOL     OW28753   4.311   0.184   6.535 -0.1556 -0.0601  0.2229
 5707SOL    HW128754   4.308   0.223   6.447 -0.6004 -1.3624 -0.3398
 5707SOL    HW228755   4.336   0.266   6.578  1.9752 -0.2335 -0.6895
 5708SOL     OW28756   1.141   1.508  15.024  0.0242 -0.0654 -0.3325
 5708SOL    HW128757   1.124   1.581  15.083 -0.4554  0.4967 -1.1722
 5708SOL    HW228758   1.209   1.557  14.979  1.0694 -0.4118  0.8768
 5709SOL     OW28759   3.291   2.685  13.072  0.1249 -0.5881  0.1921
 5709SOL    HW128760   3.322   2.595  13.076  0.7992 -0.3768 -0.1417
 5709SOL    HW228761   3.369   2.740  13.067 -0.5987  0.2345 -2.1275
 5710SOL     OW28762   2.654   0.966   4.347 -0.0234 -0.3232  0.3959
 5710SOL    HW128763   2.701   0.952   4.265  1.7822  0.6035  1.2754
 5710SOL    HW228764   2.598   1.042   4.329  0.2805 -0.3793 -0.7845
 5711SOL     OW28765   3.250   3.888   5.976  0.3367 -0.4373  0.2221
 5711SOL    HW128766   3.327   3.938   6.001  0.8440 -1.3830  0.5824
 5711SOL    HW228767   3.181   3.938   6.020  2.9091  1.4856  2.0464
 5712SOL     OW28768   1.713   4.017   1.888  0.1780 -0.7015  0.2541
 5712SOL    HW128769   1.710   3.922   1.890 -1.2327 -0.6299  1.9601
 5712SOL    HW228770   1.776   4.032   1.818  1.2793 -0.3087  1.3249
 5713SOL     OW28771   3.870   3.253   8.331  0.4845 -0.1704 -0.1401
 5713SOL    HW128772   3.947   3.202   8.358 -1.3365 -3.5587 -1.4174
 5713SOL    HW228773   3.863   3.319   8.400  0.4366 -1.2549  0.8860
 5714SOL     OW28774   3.994   2.414   6.531  0.1296 -0.7601 -0.0119
 5714SOL    HW128775   3.944   2.445   6.607  1.4638  0.0722  0.5400
 5714SOL    HW228776   3.953   2.468   6.465 -0.6400 -0.8274  0.4123
 5715SOL     OW28777   2.589   2.896   5.037 -0.6545  0.3113 -0.5479
 5715SOL    HW128778   2.580   2.988   5.012 -1.5816  0.0400 -1.2256
 5715SOL    HW228779   2.679   2.872   5.014  0.2109  2.0943  0.9783
 5716SOL     OW28780   0.176   0.979  15.127  0.1042  0.2469  0.0578
 5716SOL    HW128781   0.213   0.920  15.194 -0.1779  0.3942  0.3455
 5716SOL    HW228782   0.216   0.946  15.047  1.8545  1.7018  0.3389
 5717SOL     OW28783   0.448   4.448  17.465 -0.3392  0.1195 -0.3500
 5717SOL    HW128784   0.498   4.387  17.410 -0.0977 -0.8474  0.9314
 5717SOL    HW228785   0.391   4.384  17.508 -1.1080  0.2960 -1.1262
 5718SOL     OW28786   2.524   3.320   1.129 -0.0032 -0.0273 -0.0701
 5718SOL    HW128787   2.544   3.397   1.181  1.2091  1.0388 -2.1203
 5718SOL    HW228788   2.610   3.278   1.125 -1.2325 -2.5908 -0.3457
 5719SOL     OW28789   4.438   2.923  12.900  0.3787 -0.2867 -0.3272
 5719SOL    HW128790   4.520   2.963  12.929  0.3607 -1.7486  1.7358
 5719SOL    HW228791   4.390   3.003  12.880  0.7878  0.5522  2.0853
 5720SOL     OW28792   2.847   3.631   8.760 -0.0381  0.2690 -0.0628
 5720SOL    HW128793   2.761   3.608   8.793  0.6292 -2.0019  0.1111
 5720SOL    HW228794   2.901   3.581   8.821 -2.3736  2.3173  3.6929
 5721SOL     OW28795   1.462   2.757   6.228  0.2568  0.2805 -0.7276
 5721SOL    HW128796   1.462   2.824   6.296 -2.5124  1.3780 -1.8266
 5721SOL    HW228797   1.546   2.711   6.231 -0.4085 -0.7860  1.7523
 5722SOL     OW28798   2.286   4.519   0.984 -0.5472  0.0607 -0.2023
 5722SOL    HW128799   2.359   4.525   1.045 -0.5873 -1.1913 -0.0361
 5722SOL    HW228800   2.294   4.609   0.950 -3.4104  1.3859  2.6966
 5723SOL     OW28801   4.525   0.962   3.750  0.4240 -0.4101 -0.4520
 5723SOL    HW128802   4.574   1.042   3.771  0.1852 -0.6108  0.9317
 5723SOL    HW228803   4.592   0.909   3.709  0.5755  0.9426 -1.9685
 5724SOL     OW28804   0.195   2.171   8.993 -0.2917  0.1377  0.0253
 5724SOL    HW128805   0.126   2.179   9.059  1.9044  1.6340  2.1445
 5724SOL    HW228806   0.262   2.133   9.050  1.0921  2.3450 -0.1270
 5725SOL     OW28807   0.205   4.009   5.932  0.2109  0.2100 -0.5238
 5725SOL    HW128808   0.226   4.077   5.868  1.0517 -0.9108 -1.4439
 5725SOL    HW228809   0.289   3.982   5.971 -0.3753 -0.2475  0.4347
 5726SOL     OW28810   2.622   1.524   8.445 -1.0174 -0.1403 -0.2738
 5726SOL    HW128811   2.632   1.598   8.505  1.1275  0.0193 -0.8239
 5726SOL    HW228812   2.679   1.456   8.481 -1.1596  0.2295  0.6454
 5727SOL     OW28813   0.297   3.089   4.161  0.1353 -0.0603 -0.6604
 5727SOL    HW128814   0.219   3.040   4.135  1.6625 -2.4732 -0.6444
 5727SOL    HW228815   0.286   3.099   4.256  2.5361 -2.0865 -0.1879
 5728SOL     OW28816   1.093   1.825   5.736  0.2005  0.1873 -0.4817
 5728SOL    HW128817   1.146   1.904   5.725  1.6673 -0.8904 -1.1051
 5728SOL    HW228818   1.059   1.853   5.821  0.6318 -3.3653  0.8204
 5729SOL     OW28819   3.106   1.954   3.689 -0.1155 -0.4669 -0.1434
 5729SOL    HW128820   3.173   1.957   3.757 -0.9126 -2.7682  0.7080
 5729SOL    HW228821   3.140   2.018   3.626 -0.2526 -0.4798 -0.2293
 5730SOL     OW28822   3.561   2.530   8.103 -0.5892 -0.5996 -0.2583
 5730SOL    HW128823   3.608   2.585   8.166  0.2483 -1.6153 -0.0126
 5730SOL    HW228824   3.635   2.472   8.090  0.8185  1.0719  0.3238
 5731SOL     OW28825   4.053   1.866  17.554  0.1534 -0.5899  0.3801
 5731SOL    HW128826   4.069   1.795  17.492  1.1464 -0.7839  0.8615
 5731SOL    HW228827   4.135   1.870  17.602  0.6390 -3.2934 -0.2055
 5732SOL     OW28828   2.253   1.220   4.000  0.5269 -0.2072  1.0255
 5732SOL    HW128829   2.247   1.125   4.008 -3.5803 -0.0144  0.4447
 5732SOL    HW228830   2.218   1.231   3.912 -2.3500  0.8769  2.3045
 5733SOL     OW28831   2.033   4.259   8.657  0.4659 -0.0237 -0.6758
 5733SOL    HW128832   2.022   4.318   8.583 -1.1802 -1.0333 -1.2341
 5733SOL    HW228833   2.112   4.298   8.695 -1.4212  1.0846  2.1122
 5734SOL     OW28834   1.420   4.005   6.284 -0.1345  0.0122 -0.3098
 5734SOL    HW128835   1.333   3.974   6.311  0.8766 -1.1711  1.5652
 5734SOL    HW228836   1.453   4.038   6.367 -0.8599 -2.6417  1.0510
 5735SOL     OW28837   0.579   3.466  10.565  0.7200  0.1170  0.1379
 5735SOL    HW128838   0.487   3.492  10.572  0.6027 -0.1028 -0.5709
 5735SOL    HW228839   0.616   3.553  10.569  0.6209  0.2083 -1.1842
 5736SOL     OW28840   2.671   4.107   3.921  0.4693 -0.4434  0.0386
 5736SOL    HW128841   2.604   4.159   3.965  0.3860 -0.2199 -0.3494
 5736SOL    HW228842   2.756   4.143   3.946  0.2831 -0.1956  0.3086
 5737SOL     OW28843   0.645   2.727   3.549 -0.3176 -0.0266 -0.2160
 5737SOL    HW128844   0.576   2.676   3.506 -0.0129  1.0364 -1.9634
 5737SOL    HW228845   0.609   2.750   3.635  0.8342 -0.7716  0.4654
 5738SOL     OW28846   1.666   2.004  14.113  0.0685  0.1582 -0.1205
 5738SOL    HW128847   1.658   2.039  14.025  2.3860  1.9416  0.3554
 5738SOL    HW228848   1.706   1.917  14.103 -0.7634 -0.0269 -1.7157
 5739SOL     OW28849   4.290   2.250   0.931 -0.1297  0.2132  0.5824
 5739SOL    HW128850   4.254   2.189   0.866  0.4123  2.1461 -1.5670
 5739SOL    HW228851   4.211   2.300   0.953 -0.7657 -0.9922  1.0295
 5740SOL     OW28852   2.703   0.556   8.200  0.2797 -0.3692  0.4543
 5740SOL    HW128853   2.722   0.473   8.245 -0.4863  0.8970  3.0982
 5740SOL    HW228854   2.697   0.614   8.276 -3.3963 -0.7384  0.4457
 5741SOL     OW28855   0.458   2.375   0.214 -0.6887  0.3873  0.2451
 5741SOL    HW128856   0.441   2.305   0.151 -0.1041  0.5045 -0.0429
 5741SOL    HW228857   0.519   2.426   0.161 -1.2990 -1.7429 -2.5238
 5742SOL     OW28858   2.803   1.299  10.458  0.4511 -0.6728 -0.0971
 5742SOL    HW128859   2.874   1.352  10.495 -1.4147  2.3170 -0.7915
 5742SOL    HW228860   2.855   1.231  10.417  3.5380  1.4291  0.2985
 5743SOL     OW28861   4.307   0.891   6.457 -0.9023 -0.5733 -0.0486
 5743SOL    HW128862   4.267   0.811   6.492  0.8472 -0.6692  1.7176
 5743SOL    HW228863   4.397   0.863   6.440  0.7857  3.2501  2.6108
 5744SOL     OW28864   0.634   3.689   7.029 -0.4489 -0.2027  0.0063
 5744SOL    HW128865   0.706   3.676   7.091 -1.7667 -1.5310  1.2709
 5744SOL    HW228866   0.659   3.755   6.965  0.1446 -1.2005 -0.7980
 5745SOL     OW28867   2.312   2.417   0.533 -0.2413 -0.0516 -0.2450
 5745SOL    HW128868   2.330   2.503   0.571 -1.0963  1.1037 -2.5033
 5745SOL    HW228869   2.388   2.403   0.476 -1.3056  0.5701 -1.7884
 5746SOL     OW28870   2.411   0.323   6.982  0.3261 -0.0836  0.8981
 5746SOL    HW128871   2.392   0.389   6.915 -0.3945 -0.3462  0.8375
 5746SOL    HW228872   2.461   0.373   7.047  2.2478 -0.6897 -0.1415
 5747SOL     OW28873   4.687   2.606   7.216  0.1266 -0.6860 -0.0599
 5747SOL    HW128874   4.638   2.525   7.203  0.1888 -0.5789 -0.9768
 5747SOL    HW228875   0.028   2.578   7.264  1.0096 -0.2856 -1.2933
 5748SOL     OW28876   1.981   1.475   4.582 -0.6508  0.3080 -0.3295
 5748SOL    HW128877   2.058   1.527   4.561 -0.3598 -0.1455 -0.3913
 5748SOL    HW228878   1.942   1.465   4.496 -0.8915 -1.1125 -0.0623
 5749SOL     OW28879   0.282   3.791   0.266  0.0533 -0.0301 -0.2258
 5749SOL    HW128880   0.373   3.802   0.294 -0.2256 -0.6841  0.9361
 5749SOL    HW228881   0.239   3.838   0.337  2.0055  0.7687  0.4226
 5750SOL     OW28882   2.504   1.159   4.666 -0.5158 -0.1855  0.1066
 5750SOL    HW128883   2.456   1.156   4.583  1.3448  1.1545 -1.0095
 5750SOL    HW228884   2.567   1.230   4.656  1.1500 -1.2893  2.6944
 5751SOL     OW28885   1.594   0.426   0.913 -0.6385  0.0634 -0.5310
 5751SOL    HW128886   1.545   0.479   0.976  0.3602 -0.5981  0.7976
 5751SOL    HW228887   1.554   0.451   0.830 -1.7828 -0.7721 -0.2339
 5752SOL     OW28888   0.805   0.247   7.031 -0.2757  0.1984 -0.3623
 5752SOL    HW128889   0.819   0.193   6.954  1.0703  2.0831 -1.4354
 5752SOL    HW228890   0.753   0.188   7.086  2.3707 -2.2278 -0.4810
 5753SOL     OW28891   3.142   2.319  16.057  0.1106  0.2409 -0.3433
 5753SOL    HW128892   3.117   2.393  16.001  0.3353  2.5766  2.6496
 5753SOL    HW228893   3.235   2.313  16.033 -0.0805  1.2728 -1.3862
 5754SOL     OW28894   1.350   0.178  10.698 -0.4043  0.2454  0.3274
 5754SOL    HW128895   1.436   0.210  10.673  0.4913  0.3655  3.6301
 5754SOL    HW228896   1.335   0.231  10.777  0.2255  2.2651 -0.9241
 5755SOL     OW28897   2.725   4.437   7.640 -0.5918 -0.6315  0.4426
 5755SOL    HW128898   2.666   4.474   7.705 -1.8796 -1.6270 -0.1709
 5755SOL    HW228899   2.802   4.422   7.695 -0.8343 -1.5694  0.5276
 5756SOL     OW28900   2.131   3.557   3.064  0.3651 -0.1307  0.5830
 5756SOL    HW128901   2.141   3.644   3.103 -0.9382 -0.2238  1.1260
 5756SOL    HW228902   2.076   3.590   2.993 -1.3644 -0.3420  1.8289
 5757SOL     OW28903   2.208   2.828   4.882 -0.1389 -0.0988 -0.3987
 5757SOL    HW128904   2.287   2.878   4.858 -2.0348  2.2484 -1.6973
 5757SOL    HW228905   2.152   2.874   4.819  0.7994  0.3078 -0.9491
 5758SOL     OW28906   2.296   2.920   3.745  0.3596  0.2935 -0.1372
 5758SOL    HW128907   2.241   2.950   3.673 -0.4759  0.2383  0.4855
 5758SOL    HW228908   2.293   2.825   3.733  1.9854  0.2470 -0.1845
 5759SOL     OW28909   2.185   4.454   5.665 -0.3626 -0.2702  0.5225
 5759SOL    HW128910   2.120   4.390   5.692  0.8723 -0.3353  3.3123
 5759SOL    HW228911   2.258   4.426   5.720  1.2264 -0.1334 -1.4660
 5760SOL     OW28912   3.273   2.305   7.177  0.0711  0.4161 -0.5934
 5760SOL    HW128913   3.201   2.247   7.155  2.4748 -2.4591 -0.8544
 5760SOL    HW228914   3.231   2.382   7.140 -0.4078  1.0692  1.3158
 5761SOL     OW28915   1.974   2.923  16.988  0.2332  0.4653 -0.1023
 5761SOL    HW128916   1.898   2.968  17.024  0.5264 -0.2590  1.4097
 5761SOL    HW228917   1.939   2.835  16.976  1.5513 -0.0198 -0.3777
 5762SOL     OW28918   2.448   2.807  17.042  0.1216  0.2981  0.4083
 5762SOL    HW128919   2.380   2.760  17.090  0.9699 -1.2519  0.0935
 5762SOL    HW228920   2.482   2.868  17.108  0.2534 -0.3102  0.9132
 5763SOL     OW28921   4.339   1.762   2.203 -0.0677 -0.3209 -0.7300
 5763SOL    HW128922   4.340   1.791   2.294 -0.2585 -3.0942  0.1630
 5763SOL    HW228923   4.309   1.841   2.157 -0.6356  0.6102  1.2234
 5764SOL     OW28924   2.178   3.307  17.361  0.3486  0.0504  0.0177
 5764SOL    HW128925   2.250   3.347  17.410 -0.7233  0.6238  1.1038
 5764SOL    HW228926   2.175   3.216  17.390  1.6332 -0.3252 -0.9862
 5765SOL     OW28927   1.093   0.169   6.631  0.4119  0.1764  0.1341
 5765SOL    HW128928   1.133   0.177   6.717 -0.3281 -0.6617  0.5540
 5765SOL    HW228929   1.085   0.074   6.621  0.5270  0.3119 -1.2740
 5766SOL     OW28930   2.155   3.136   3.911  0.0826  0.5054 -0.0447
 5766SOL    HW128931   2.145   3.041   3.908 -2.3043  0.7107  1.3763
 5766SOL    HW228932   2.222   3.148   3.844  0.0962 -0.6746 -0.2242
 5767SOL     OW28933   4.474   0.042   7.931 -0.0227 -0.2736  0.0803
 5767SOL    HW128934   4.548   0.075   7.879  2.1220 -2.1387  1.9304
 5767SOL    HW228935   4.411   0.110   7.954  0.0878 -0.4383  0.8561
 5768SOL     OW28936   4.263   2.041   3.475  0.7551 -0.0922  0.3817
 5768SOL    HW128937   4.289   2.022   3.385  1.9960 -2.7923  1.3318
 5768SOL    HW228938   4.234   2.132   3.470  0.3728 -0.1291  2.1413
 5769SOL     OW28939   2.378   1.366  10.727  0.0666  0.5551  0.0321
 5769SOL    HW128940   2.354   1.394  10.638  2.3538 -1.4765 -1.2187
 5769SOL    HW228941   2.454   1.316  10.697  0.5052  2.0062 -1.3185
 5770SOL     OW28942   0.698   0.198   3.691 -0.3084  0.4159 -0.4495
 5770SOL    HW128943   0.606   0.226   3.686 -1.4087 -2.9787  1.3043
 5770SOL    HW228944   0.741   0.270   3.645 -1.5860  0.1660 -2.0557
 5771SOL     OW28945   0.379   3.845   2.250 -1.1486 -0.7135  0.0342
 5771SOL    HW128946   0.398   3.891   2.168  0.7915  0.5659  1.2082
 5771SOL    HW228947   0.468   3.826   2.278 -0.3497  1.0407 -1.3605
 5772SOL     OW28948   0.024   0.707   6.648 -1.0992 -0.1989  0.7582
 5772SOL    HW128949   0.111   0.740   6.627 -1.0616  0.0918  1.3700
 5772SOL    HW228950   0.041   0.653   6.726  0.9928  0.2443  0.5929
 5773SOL     OW28951   1.688   0.978  10.205  0.2005 -0.1113 -0.2356
 5773SOL    HW128952   1.604   1.018  10.229  0.4085 -0.2695  0.7342
 5773SOL    HW228953   1.746   1.054  10.210 -1.4899  1.1723 -0.0558
 5774SOL     OW28954   4.137   3.092   6.057  0.3849  0.0788  0.6279
 5774SOL    HW128955   4.203   3.104   6.126  0.5385  2.3450  0.0784
 5774SOL    HW228956   4.179   3.138   5.985 -1.3647 -0.8297 -0.9472
 5775SOL     OW28957   4.184   4.443   7.694  0.5361  0.2291  0.3982
 5775SOL    HW128958   4.268   4.488   7.690  0.8206 -0.3444 -0.0335
 5775SOL    HW228959   4.191   4.410   7.783  2.0428  2.9723  1.3100
 5776SOL     OW28960   3.786   2.370   8.076  0.1373  0.0275  0.0039
 5776SOL    HW128961   3.853   2.344   8.013 -0.8061  1.0849 -1.4476
 5776SOL    HW228962   3.845   2.390   8.148  0.1658  3.2001 -0.8948
 5777SOL     OW28963   3.236   2.038   2.227 -0.1565  1.0057  0.0903
 5777SOL    HW128964   3.168   2.058   2.292  0.0544 -0.1621  0.6716
 5777SOL    HW228965   3.222   1.948   2.199  0.5155  1.4933 -1.7998
 5778SOL     OW28966   4.459   0.070   6.874  0.3092  0.2074 -0.5057
 5778SOL    HW128967   4.384   0.129   6.870  0.3372  0.1367 -2.0383
 5778SOL    HW228968   4.425   0.024   6.950 -1.7182 -0.0869 -1.5991
 5779SOL     OW28969   1.734   1.119   1.474 -0.0982  0.6179 -0.3326
 5779SOL    HW128970   1.802   1.126   1.407  1.9499 -0.2656  1.6844
 5779SOL    HW228971   1.678   1.193   1.450  1.9150  2.3437  0.3459
 5780SOL     OW28972   3.847   0.759   2.506  0.3777 -0.5700 -0.0245
 5780SOL    HW128973   3.895   0.721   2.433  0.7572 -2.5179  1.2310
 5780SOL    HW228974   3.769   0.704   2.501 -0.8057  1.0898  0.2271
 5781SOL     OW28975   3.698   0.247  13.815  0.3830 -0.4984  0.2803
 5781SOL    HW128976   3.778   0.283  13.774 -1.2495 -0.1639 -2.6044
 5781SOL    HW228977   3.628   0.245  13.750  0.5137  0.2213  0.1098
 5782SOL     OW28978   0.955   0.167   9.638  0.1108  0.6849 -0.0296
 5782SOL    HW128979   0.898   0.098   9.672  1.7587 -0.5976  0.1965
 5782SOL    HW228980   0.996   0.124   9.563 -1.6178 -0.1342 -0.4933
 5783SOL     OW28981   2.269   1.674   8.045 -0.1045 -0.2129 -0.3631
 5783SOL    HW128982   2.346   1.630   8.081 -0.0242 -0.5002 -0.8901
 5783SOL    HW228983   2.191   1.623   8.067 -0.7082  0.6585 -0.4677
 5784SOL     OW28984   4.436   0.533   8.621 -0.2077  0.3024  0.6588
 5784SOL    HW128985   4.379   0.539   8.698 -0.0769  1.1456  0.6913
 5784SOL    HW228986   4.524   0.553   8.655  0.3199  0.3945 -0.7582
 5785SOL     OW28987   4.627   0.234   1.127  0.9848 -0.2376  0.3357
 5785SOL    HW128988   4.548   0.287   1.137 -0.0204 -1.7800  0.5572
 5785SOL    HW228989   4.681   0.297   1.080  0.4462 -1.6230 -2.1374
 5786SOL     OW28990   2.108   3.138   6.395  0.0283  0.3053 -0.5803
 5786SOL    HW128991   2.170   3.072   6.426 -0.7987 -0.1975 -0.0015
 5786SOL    HW228992   2.170   3.211   6.392  2.2309 -1.6149 -2.1291
 5787SOL     OW28993   3.092   0.235   9.387 -0.2866 -0.0994 -0.2922
 5787SOL    HW128994   3.067   0.266   9.474 -1.6956  0.4466 -0.9026
 5787SOL    HW228995   3.153   0.309   9.381  0.0392 -0.1065  3.1342
 5788SOL     OW28996   1.743   3.727   5.272  0.1045  0.3327  0.2359
 5788SOL    HW128997   1.819   3.784   5.286  0.2139  0.2282  0.0621
 5788SOL    HW228998   1.730   3.734   5.178 -1.4965 -0.3652  0.4156
 5789SOL     OW28999   0.467   1.054  15.208 -0.1128  0.2752 -0.0458
 5789SOL    HW129000   0.458   0.997  15.132  3.4610 -0.9689  0.4731
 5789SOL    HW229001   0.558   1.040  15.233 -0.1494 -0.2326 -0.2031
 5790SOL     OW29002   1.383   1.939  11.779  0.7378 -0.0037  0.2682
 5790SOL    HW129003   1.454   1.985  11.823  1.1781 -0.1026 -0.3452
 5790SOL    HW229004   1.384   1.969  11.688 -1.9288 -1.4449 -0.2290
 5791SOL     OW29005   2.108   4.468   0.214  0.1264 -0.0887  0.1142
 5791SOL    HW129006   2.040   4.437   0.154  1.7273  0.0184 -1.7684
 5791SOL    HW229007   2.106   4.397   0.278  1.5364 -0.4470 -0.2424
 5792SOL     OW29008   0.641   2.152  12.415  0.4148  0.0449 -0.2029
 5792SOL    HW129009   0.662   2.129  12.325 -0.0365  0.7577 -0.4917
 5792SOL    HW229010   0.568   2.212  12.397 -0.4074 -1.0212 -0.3797
 5793SOL     OW29011   3.483   3.451   0.475 -0.1255 -0.4330  0.0053
 5793SOL    HW129012   3.530   3.532   0.455 -1.0946  0.1402  0.0439
 5793SOL    HW229013   3.551   3.405   0.522  0.7966 -0.7225 -1.6126
 5794SOL     OW29014   0.855   4.063  15.379  0.5157  0.0419  0.5237
 5794SOL    HW129015   0.803   3.986  15.403  1.3127 -0.7062 -0.1697
 5794SOL    HW229016   0.779   4.121  15.371  1.3406  1.1790  0.9787
 5795SOL     OW29017   2.774   2.568  13.901  0.5036  0.4508  0.0376
 5795SOL    HW129018   2.829   2.617  13.962  0.6894  0.4677 -0.1426
 5795SOL    HW229019   2.813   2.597  13.819 -1.1505  2.0921 -0.1574
 5796SOL     OW29020   2.808   1.986   6.872  0.7957  0.2310 -0.1262
 5796SOL    HW129021   2.824   1.934   6.950 -2.8438 -0.0051  0.4367
 5796SOL    HW229022   2.791   2.072   6.909 -1.0479 -1.1316  2.1440
 5797SOL     OW29023   0.112   3.888   5.590  0.7334 -0.5114  0.4656
 5797SOL    HW129024   0.078   3.802   5.615 -0.2212 -0.6053 -1.1386
 5797SOL    HW229025   0.135   3.877   5.498  0.5126  1.7081  0.1468
 5798SOL     OW29026   3.690   0.550   2.505 -0.0058 -0.1856  0.2647
 5798SOL    HW129027   3.724   0.471   2.546 -1.3116 -0.5983  0.5546
 5798SOL    HW229028   3.645   0.517   2.427  2.1446 -1.4183 -0.4449
 5799SOL     OW29029   3.305   4.572   7.966 -0.5855  0.2316  0.1271
 5799SOL    HW129030   3.299   4.587   7.872 -0.8493  0.0374  0.1104
 5799SOL    HW229031   3.233   4.510   7.982 -1.7423  1.5924  0.1973
 5800SOL     OW29032   4.448   4.308   6.735 -1.3039  0.5250  0.1409
 5800SOL    HW129033   4.486   4.252   6.667 -0.7647 -0.2059  1.0502
 5800SOL    HW229034   4.438   4.382   6.675 -2.5047  1.8935  2.0422
 5801SOL     OW29035   0.868   0.775   5.325 -0.1799  0.5361  0.0923
 5801SOL    HW129036   0.901   0.808   5.409  0.0773 -0.7424  0.5001
 5801SOL    HW229037   0.881   0.857   5.279 -0.1417 -0.4085 -1.5743
 5802SOL     OW29038   0.748   2.557   8.971 -0.3002 -0.3343 -0.0747
 5802SOL    HW129039   0.724   2.530   8.882 -0.9754  0.7612 -0.2165
 5802SOL    HW229040   0.679   2.519   9.026 -0.1702  0.1056  0.3844
 5803SOL     OW29041   2.944   2.661  13.718 -0.0738 -1.0706  0.0277
 5803SOL    HW129042   2.966   2.702  13.801  0.3811 -1.5811  0.1592
 5803SOL    HW229043   3.012   2.691  13.659 -0.9887 -1.0325 -1.0147
 5804SOL     OW29044   3.109   0.115   8.525 -0.2037 -0.0961  0.1040
 5804SOL    HW129045   3.170   0.051   8.561 -0.0594 -0.2620 -0.4526
 5804SOL    HW229046   3.152   0.119   8.440 -2.2720  0.7833 -0.9120
 5805SOL     OW29047   4.439   1.552   7.119 -0.0146 -0.0989 -0.1755
 5805SOL    HW129048   4.431   1.476   7.177 -1.5987 -1.1181 -1.7415
 5805SOL    HW229049   4.348   1.581   7.116  0.3911  1.0856 -0.9847
 5806SOL     OW29050   1.717   2.962  17.045 -0.0189 -0.0397 -0.7048
 5806SOL    HW129051   1.692   2.946  16.954  0.0349 -0.1922 -0.6920
 5806SOL    HW229052   1.685   2.884  17.091 -0.8957  1.3603  1.0701
 5807SOL     OW29053   2.989   0.846  17.670 -0.1846  0.1505  0.0619
 5807SOL    HW129054   3.075   0.816  17.699  0.9231  0.5944 -2.7934
 5807SOL    HW229055   3.015   0.925  17.623 -2.8794  0.6921 -0.5140
 5808SOL     OW29056   1.828   2.001  12.686  0.5758 -0.0609 -0.0580
 5808SOL    HW129057   1.817   1.948  12.765 -0.5485  2.4907  1.5035
 5808SOL    HW229058   1.852   1.934  12.623 -1.1168 -0.7839  0.0491
 5809SOL     OW29059   4.443   0.020   8.253  0.0191 -0.2809  0.3694
 5809SOL    HW129060   4.469   4.736   8.342  0.7954  0.9495  0.4397
 5809SOL    HW229061   4.353   0.048   8.270 -0.1433 -1.3820  1.3306
 5810SOL     OW29062   4.267   3.084   0.445 -0.8670 -0.3063  0.3497
 5810SOL    HW129063   4.336   3.148   0.430 -1.1231 -0.3667 -1.1366
 5810SOL    HW229064   4.279   3.013   0.382  3.2735  0.0167  0.8360
 5811SOL     OW29065   2.132   4.190   1.208  0.5696  0.1687 -0.2961
 5811SOL    HW129066   2.201   4.239   1.252  0.7952  1.2592 -1.9076
 5811SOL    HW229067   2.181   4.110   1.188 -1.2391 -1.4078  1.4272
 5812SOL     OW29068   2.895   3.292   4.663  0.3470  0.1461  0.3916
 5812SOL    HW129069   2.961   3.350   4.701 -0.3852 -0.1105  2.0247
 5812SOL    HW229070   2.931   3.209   4.693 -0.0605  0.5159  1.8765
 5813SOL     OW29071   2.752   4.269   0.184  0.0477 -0.5694  0.4395
 5813SOL    HW129072   2.753   4.364   0.188  2.6368 -0.5612 -0.4813
 5813SOL    HW229073   2.750   4.244   0.276  1.2703  0.1592  0.6523
 5814SOL     OW29074   3.936   4.115   3.672 -0.1385 -0.0218  0.5369
 5814SOL    HW129075   3.943   4.021   3.687  0.2233  0.2837  2.3561
 5814SOL    HW229076   4.023   4.148   3.696 -0.3633  0.5577  0.5608
 5815SOL     OW29077   2.018   3.101   6.109  0.0557  0.0347 -0.1354
 5815SOL    HW129078   2.048   3.112   6.200 -2.6349  3.2371  0.3596
 5815SOL    HW229079   1.935   3.055   6.112 -0.8604  1.6718 -0.4491
 5816SOL     OW29080   1.557   1.134  14.048  0.3922  0.2728  0.1066
 5816SOL    HW129081   1.606   1.089  13.980  1.4739  2.0397 -0.3071
 5816SOL    HW229082   1.473   1.089  14.043  0.9731 -0.8537  0.5263
 5817SOL     OW29083   4.635   3.359   8.284 -0.1053 -0.4740  0.2688
 5817SOL    HW129084   4.610   3.268   8.273 -0.7085 -0.5538  2.1963
 5817SOL    HW229085   4.560   3.380   8.340 -0.6956  0.5358 -0.9007
 5818SOL     OW29086   2.905   0.471   4.095  0.3177 -0.3738  0.2285
 5818SOL    HW129087   2.910   0.403   4.161  1.1184 -0.7165 -0.1899
 5818SOL    HW229088   2.981   0.526   4.116 -0.9225  1.9891 -1.4363
 5819SOL     OW29089   3.990   2.259   7.567 -0.7777 -0.2744  0.3933
 5819SOL    HW129090   3.982   2.180   7.620 -0.1374 -0.8073 -0.3082
 5819SOL    HW229091   3.930   2.318   7.612 -1.2490 -0.6243  0.2181
 5820SOL     OW29092   1.029   1.052  13.904 -0.0565 -0.1253  0.7716
 5820SOL    HW129093   1.029   1.060  13.809  3.1775  1.3681  0.8997
 5820SOL    HW229094   1.006   0.960  13.917 -1.4646  0.2271  0.8044
 5821SOL     OW29095   4.474   3.825   2.129 -0.8096 -0.0930  0.4143
 5821SOL    HW129096   4.469   3.921   2.126 -0.4093 -0.0283  1.9064
 5821SOL    HW229097   4.500   3.804   2.039 -1.9224 -1.2622  0.3747
 5822SOL     OW29098   0.749   3.561   9.520 -0.0134 -0.0395  0.8360
 5822SOL    HW129099   0.663   3.603   9.518  1.6149  3.4044  2.8895
 5822SOL    HW229100   0.799   3.606   9.587  0.0031  0.1503  0.6969
 5823SOL     OW29101   0.918   1.258  15.884  0.9540 -0.2750  0.1865
 5823SOL    HW129102   0.994   1.283  15.937  0.3927  1.2495  0.2844
 5823SOL    HW229103   0.959   1.232  15.802  2.6699  1.3963  0.5153
 5824SOL     OW29104   1.870   3.322   3.712  0.3495 -0.3259  0.2198
 5824SOL    HW129105   1.960   3.343   3.686  0.0119  0.8008 -0.0529
 5824SOL    HW229106   1.861   3.232   3.683  1.0293 -0.6727  1.0660
 5825SOL     OW29107   2.803   1.487   4.902 -0.2108  0.2360 -0.0798
 5825SOL    HW129108   2.776   1.443   4.822  1.8460 -1.0295 -0.0696
 5825SOL    HW229109   2.741   1.560   4.910 -2.3462 -1.8196  2.1562
 5826SOL     OW29110   1.377   0.736  10.368 -0.2296 -0.5293 -0.8353
 5826SOL    HW129111   1.359   0.646  10.396 -0.6764 -0.4019 -0.7104
 5826SOL    HW229112   1.321   0.757  10.294  0.6525  2.0337 -0.7982
 5827SOL     OW29113   1.651   4.675   0.876 -0.5937  0.1262 -0.1741
 5827SOL    HW129114   1.665   4.711   0.963  1.3091 -1.3942  0.1393
 5827SOL    HW229115   1.695   4.736   0.816 -0.1614  1.9117  1.9732
 5828SOL     OW29116   1.642   4.685   2.352 -0.1594  0.0035  0.1970
 5828SOL    HW129117   1.688   4.701   2.269 -0.3413  1.7846  0.4343
 5828SOL    HW229118   1.684   4.601   2.369  1.1469  0.1814 -2.0240
 5829SOL     OW29119   1.890   1.803   4.777 -0.0311  0.5100 -0.1938
 5829SOL    HW129120   1.883   1.815   4.683 -0.2467  1.4458 -0.0561
 5829SOL    HW229121   1.894   1.891   4.813  0.1637  0.8854 -1.1510
 5830SOL     OW29122   1.821   0.638   2.813  0.2409 -0.0261 -0.0582
 5830SOL    HW129123   1.834   0.712   2.873  0.3418  0.5506 -0.7988
 5830SOL    HW229124   1.728   0.624   2.830 -0.1276  2.2627 -0.2127
 5831SOL     OW29125   3.561   0.945  15.226 -0.2775 -0.5277 -0.2817
 5831SOL    HW129126   3.518   0.915  15.307  0.3223  0.6437  0.4702
 5831SOL    HW229127   3.621   1.015  15.250 -0.5308  0.1576 -1.6548
 5832SOL     OW29128   3.912   3.272   4.337 -0.7863  0.0530  0.3961
 5832SOL    HW129129   3.903   3.312   4.423 -2.5122 -0.6807  0.5740
 5832SOL    HW229130   3.834   3.221   4.314 -0.4524 -0.0848 -0.4551
 5833SOL     OW29131   1.895   0.642   2.064  0.1234  0.4012 -0.0706
 5833SOL    HW129132   1.872   0.551   2.086  1.7919 -0.4927 -2.1094
 5833SOL    HW229133   1.925   0.622   1.975 -1.2378 -0.1421 -0.4156
 5834SOL     OW29134   3.007   2.045   2.483 -0.4440 -0.6177 -0.6825
 5834SOL    HW129135   2.970   1.992   2.554  0.9232 -0.3979  0.2060
 5834SOL    HW229136   2.951   2.023   2.409  0.9152 -0.5543 -1.7369
 5835SOL     OW29137   4.563   4.305  16.798 -0.6167 -0.1468  0.1596
 5835SOL    HW129138   4.624   4.273  16.731  0.0102 -2.3452  1.7800
 5835SOL    HW229139   4.608   4.385  16.824  1.7390 -0.7213 -2.0837
 5836SOL     OW29140   0.119   0.227   4.470  0.2416  0.2258  0.0815
 5836SOL    HW129141   0.063   0.262   4.401 -0.0795  0.4665  0.4632
 5836SOL    HW229142   0.099   0.134   4.465 -1.8345  0.6777  0.1296
 5837SOL     OW29143   2.601   4.264   6.179  0.3759  0.0249  0.1576
 5837SOL    HW129144   2.681   4.286   6.130 -0.6522 -2.5941 -2.6315
 5837SOL    HW229145   2.628   4.182   6.221  0.0898  0.7718  1.7816
 5838SOL     OW29146   0.174   4.086   5.030 -0.0879 -0.4226  0.2716
 5838SOL    HW129147   0.241   4.080   5.098  0.5218 -1.5293 -0.4236
 5838SOL    HW229148   0.199   4.014   4.973 -1.4853  0.5537 -1.5436
 5839SOL     OW29149   2.555   1.555   1.656 -0.4692  0.1944  0.3344
 5839SOL    HW129150   2.591   1.476   1.696 -2.7510  0.5926  3.1727
 5839SOL    HW229151   2.588   1.548   1.566  0.4613  0.9085  0.6191
 5840SOL     OW29152   4.520   4.642  16.542  0.1725 -0.0785 -0.0069
 5840SOL    HW129153   4.515   4.612  16.451  1.7415  0.9804 -0.4473
 5840SOL    HW229154   4.605   4.686  16.540  1.2780 -2.2562 -0.8238
 5841SOL     OW29155   3.468   2.670   9.407 -0.2636  0.2242 -0.1315
 5841SOL    HW129156   3.508   2.751   9.438  2.4237 -0.8871 -0.6198
 5841SOL    HW229157   3.379   2.703   9.399 -0.5635 -1.0271 -1.9048
 5842SOL     OW29158   0.865   3.529  16.986  0.3221  0.7629 -0.2283
 5842SOL    HW129159   0.816   3.571  16.915  0.4294  1.0065 -0.1602
 5842SOL    HW229160   0.933   3.596  16.999 -1.0441  2.2780 -0.9555
 5843SOL     OW29161   0.967   0.832   7.867  0.4178  0.2572  0.3637
 5843SOL    HW129162   1.051   0.874   7.884  1.2021 -1.8925  1.8233
 5843SOL    HW229163   0.905   0.898   7.899 -1.1908 -1.2023  0.2685
 5844SOL     OW29164   3.729   3.206   3.673  0.3198 -0.2199 -0.2352
 5844SOL    HW129165   3.763   3.197   3.584  1.4306 -0.9330  0.2563
 5844SOL    HW229166   3.751   3.298   3.690 -0.3649 -0.3095  1.1579
 5845SOL     OW29167   2.332   0.988  16.789 -0.0751  0.5243  0.3293
 5845SOL    HW129168   2.313   1.042  16.866 -1.0632  0.5105  0.0981
 5845SOL    HW229169   2.252   0.935  16.784 -0.3864  1.0387 -0.2083
 5846SOL     OW29170   2.510   3.246  12.053 -0.7424  0.1611  0.4200
 5846SOL    HW129171   2.605   3.243  12.065 -0.8137  1.0352  1.1968
 5846SOL    HW229172   2.492   3.194  11.974  1.1699 -1.1534  0.8493
 5847SOL     OW29173   3.299   3.154   6.352 -0.3495  0.0536 -0.7462
 5847SOL    HW129174   3.210   3.134   6.381 -0.0745  0.8742  0.6990
 5847SOL    HW229175   3.291   3.166   6.258  1.5160 -0.5089 -0.9696
 5848SOL     OW29176   3.260   4.062  11.899  0.2545  0.0282  0.2079
 5848SOL    HW129177   3.187   4.080  11.959 -0.9592  1.9473 -1.8166
 5848SOL    HW229178   3.337   4.095  11.946 -0.1812  1.0796  0.1971
 5849SOL     OW29179   4.137   2.471   2.163 -0.5583  1.1954  0.2084
 5849SOL    HW129180   4.105   2.406   2.226 -0.7651  0.4107 -0.7104
 5849SOL    HW229181   4.210   2.508   2.213 -0.0329  1.1261 -0.5008
 5850SOL     OW29182   1.773   2.206   0.620  0.6258  0.4767 -0.5666
 5850SOL    HW129183   1.828   2.147   0.671  1.3758  0.6991 -1.1190
 5850SOL    HW229184   1.783   2.154   0.540 -2.0599 -1.2537  0.2282
 5851SOL     OW29185   0.580   0.620   8.110 -0.3953 -0.3790 -0.3554
 5851SOL    HW129186   0.572   0.542   8.056 -1.5829  1.5436 -2.9288
 5851SOL    HW229187   0.647   0.596   8.173  0.2973 -0.9194 -1.3081
 5852SOL     OW29188   2.669   3.153   6.440  0.1059 -0.3917 -0.0211
 5852SOL    HW129189   2.609   3.151   6.514 -0.3714 -0.8712 -0.4247
 5852SOL    HW229190   2.703   3.064   6.448 -0.9971 -0.6627  1.7101
 5853SOL     OW29191   1.600   3.783  17.507  0.2151  0.5492  0.8440
 5853SOL    HW129192   1.669   3.846  17.525  0.8247 -0.1657  0.9839
 5853SOL    HW229193   1.596   3.726  17.583  0.5819 -0.0706  0.3979
 5854SOL     OW29194   2.583   0.902   2.898  0.2055 -0.2735 -0.2826
 5854SOL    HW129195   2.500   0.854   2.892  0.0567 -0.0380 -0.1066
 5854SOL    HW229196   2.633   0.839   2.949 -2.5945 -2.9209 -0.7660
 5855SOL     OW29197   2.043   1.798  16.110  0.2226  0.0898 -0.3799
 5855SOL    HW129198   1.953   1.766  16.117  0.3764 -0.3036 -0.1584
 5855SOL    HW229199   2.080   1.731  16.051  0.7968 -1.3581  1.6431
 5856SOL     OW29200   2.712   0.905  15.197 -0.6488 -0.4714  0.3458
 5856SOL    HW129201   2.780   0.899  15.130 -1.4175 -0.5368 -0.4164
 5856SOL    HW229202   2.758   0.888  15.280 -0.9266  1.1038  0.8325
 5857SOL     OW29203   1.553   1.659   6.074  0.0926  0.5641  0.2181
 5857SOL    HW129204   1.623   1.704   6.026  0.4435  1.7350  1.8522
 5857SOL    HW229205   1.480   1.716   6.052  1.2246  1.8006 -0.3641
 5858SOL     OW29206   3.439   4.650   1.104  0.1115  0.1602 -0.8497
 5858SOL    HW129207   3.391   4.570   1.123  0.5556  0.5768  1.9797
 5858SOL    HW229208   3.497   4.663   1.179 -2.2077  0.5668  0.8580
 5859SOL     OW29209   0.961   1.834  14.280  0.1187 -0.5532  0.8042
 5859SOL    HW129210   1.043   1.882  14.288  0.2826 -0.6713 -0.1744
 5859SOL    HW229211   0.951   1.836  14.185  2.9829 -1.1105  0.4973
 5860SOL     OW29212   0.724   0.885   7.250  0.6100 -0.1568 -0.4404
 5860SOL    HW129213   0.705   0.884   7.344 -0.1536 -2.3739 -0.6168
 5860SOL    HW229214   0.639   0.914   7.216  1.6074  1.5766 -1.4263
 5861SOL     OW29215   2.394   3.988   4.221  0.3444  0.0353  0.5817
 5861SOL    HW129216   2.375   3.908   4.270  0.9983 -0.3410  0.2298
 5861SOL    HW229217   2.412   3.949   4.135  0.7179 -1.7067  1.4530
 5862SOL     OW29218   1.058   2.279  11.280 -0.2063  0.4325  0.5915
 5862SOL    HW129219   1.074   2.292  11.374  0.3925 -2.0465  0.8333
 5862SOL    HW229220   1.027   2.189  11.283 -3.0200  1.3008 -2.7786
 5863SOL     OW29221   2.389   2.445   8.076  0.2644 -0.3627  0.1832
 5863SOL    HW129222   2.375   2.350   8.084 -1.6393  0.1057  2.2967
 5863SOL    HW229223   2.324   2.463   8.143 -1.6917 -0.0336 -1.8224
 5864SOL     OW29224   0.554   1.858  15.258 -0.6178 -0.3292  0.4247
 5864SOL    HW129225   0.535   1.929  15.197  3.4969  2.1768  2.0479
 5864SOL    HW229226   0.579   1.788  15.197 -1.1282  0.3979 -0.6166
 5865SOL     OW29227   0.568   3.735   4.854 -0.0061 -0.0210  0.3385
 5865SOL    HW129228   0.589   3.826   4.877 -2.0034  0.3502  0.7019
 5865SOL    HW229229   0.508   3.743   4.781 -0.2459  1.2103  0.6554
 5866SOL     OW29230   4.358   0.491   3.304 -0.1334  0.4839  0.6801
 5866SOL    HW129231   4.421   0.558   3.278 -0.0341  1.1205  2.5314
 5866SOL    HW229232   4.277   0.506   3.255  0.1112 -0.6131 -0.0601
 5867SOL     OW29233   1.902   3.306   4.510  0.0339 -0.1338 -0.1471
 5867SOL    HW129234   1.898   3.221   4.465  0.2007 -0.4297  0.4110
 5867SOL    HW229235   1.983   3.304   4.560  0.8205  0.0815 -1.4047
 5868SOL     OW29236   2.450   0.281   5.273  0.3360  0.1245  0.1928
 5868SOL    HW129237   2.406   0.203   5.240 -1.1579  0.6497  0.9859
 5868SOL    HW229238   2.540   0.250   5.269  1.4004  3.0062  1.1421
 5869SOL     OW29239   2.842   2.257   3.869  0.0560 -0.0262  0.2916
 5869SOL    HW129240   2.774   2.324   3.858  0.7454  0.7786  0.9666
 5869SOL    HW229241   2.908   2.298   3.814  0.6126  0.8451  1.6048
 5870SOL     OW29242   2.846   2.792   6.894  0.4008 -0.1986 -0.1370
 5870SOL    HW129243   2.936   2.825   6.891  0.0816  0.6296 -0.5873
 5870SOL    HW229244   2.804   2.876   6.876  0.1479 -0.9427 -2.9781
 5871SOL     OW29245   1.259   3.648   8.919 -0.1515  0.0251 -0.1628
 5871SOL    HW129246   1.316   3.571   8.911  0.3614  0.4230 -0.2854
 5871SOL    HW229247   1.187   3.629   8.859  0.1405 -2.2739  0.2184
 5872SOL     OW29248   4.226   1.537   2.077  0.1448 -0.5900  0.3975
 5872SOL    HW129249   4.264   1.611   2.124 -0.5393  0.1173 -0.1625
 5872SOL    HW229250   4.226   1.567   1.986 -0.7307 -2.3503 -0.1979
 5873SOL     OW29251   4.706   1.617  16.791 -0.0121  0.0968 -0.3289
 5873SOL    HW129252   4.631   1.658  16.832 -0.7314 -1.3480 -0.1969
 5873SOL    HW229253   0.019   1.588  16.867 -1.7597  0.2807  0.9060
 5874SOL     OW29254   0.204   2.205   3.864  0.5561 -0.3413 -0.3582
 5874SOL    HW129255   0.239   2.291   3.885  2.5897 -1.4586  0.8741
 5874SOL    HW229256   0.283   2.151   3.856 -0.1318 -1.6715  1.7448
 5875SOL     OW29257   2.718   3.963   8.917  0.2854 -0.4808 -0.0322
 5875SOL    HW129258   2.677   3.883   8.949  3.5462 -1.2153  2.2320
 5875SOL    HW229259   2.809   3.939   8.933 -0.0876 -1.3390  0.7735
 5876SOL     OW29260   3.018   4.030   3.991  0.4781 -0.0997  0.4140
 5876SOL    HW129261   2.979   4.116   4.010 -0.4602  0.1335 -2.6307
 5876SOL    HW229262   3.017   4.029   3.896  1.2340  1.6460  0.3906
 5877SOL     OW29263   0.004   0.825  13.554 -0.0641  0.0041 -0.2596
 5877SOL    HW129264   4.686   0.902  13.546  0.7319  0.5739 -0.2877
 5877SOL    HW229265   0.081   0.866  13.514 -0.7403  1.2542 -0.2595
 5878SOL     OW29266   3.278   1.290   5.262  0.1162  0.1887 -0.0351
 5878SOL    HW129267   3.222   1.365   5.239 -1.4229 -0.2079  2.4295
 5878SOL    HW229268   3.356   1.343   5.279  0.7905 -1.5047  2.1866
 5879SOL     OW29269   0.691   2.128   3.540 -0.5338 -0.7106  0.4258
 5879SOL    HW129270   0.687   2.177   3.622  2.4449 -1.9205  1.2874
 5879SOL    HW229271   0.784   2.107   3.529 -0.2600  0.0489  1.2494
 5880SOL     OW29272   3.312   3.980  11.648  0.6638  0.0181  0.6887
 5880SOL    HW129273   3.403   3.995  11.622  0.4181  0.4521  0.0839
 5880SOL    HW229274   3.306   4.007  11.739  1.8428 -0.6712  0.9650
 5881SOL     OW29275   0.008   3.423  16.282 -0.1325 -0.1561 -0.2502
 5881SOL    HW129276   4.716   3.507  16.248 -2.1905  0.3177  2.6817
 5881SOL    HW229277   4.669   3.377  16.248  0.0431  0.7449 -1.8478
 5882SOL     OW29278   1.956   0.958  13.920  0.1354 -0.1037 -0.4353
 5882SOL    HW129279   2.016   0.977  13.848 -0.0367  0.4960 -0.4238
 5882SOL    HW229280   2.015   0.895  13.960  1.3682  0.6571 -1.0572
 5883SOL     OW29281   2.422   1.656   4.163 -0.0604  0.0890  0.0726
 5883SOL    HW129282   2.339   1.616   4.139 -0.1320  0.7929 -0.8340
 5883SOL    HW229283   2.393   1.727   4.221 -1.7237 -0.0713 -0.5813
 5884SOL     OW29284   1.383   4.069   2.489 -0.0167 -0.5330  0.0524
 5884SOL    HW129285   1.373   3.984   2.445  0.9489 -1.2141  1.1481
 5884SOL    HW229286   1.369   4.130   2.417 -0.5876  0.7622  1.2703
 5885SOL     OW29287   3.716   1.162  15.307  0.5717  0.2281 -0.1425
 5885SOL    HW129288   3.773   1.166  15.230  0.5275 -1.1649 -0.2536
 5885SOL    HW229289   3.764   1.122  15.380 -2.1350  0.3324  1.6803
 5886SOL     OW29290   0.229   4.177   2.458 -0.7932  0.1952 -0.5410
 5886SOL    HW129291   0.255   4.164   2.549  1.8957 -1.9093 -1.6213
 5886SOL    HW229292   0.274   4.116   2.400 -2.2172  0.3265 -1.7796
 5887SOL     OW29293   3.745   3.848   4.712  0.6121  0.7492 -0.1367
 5887SOL    HW129294   3.692   3.884   4.782  2.6989  0.4845  1.6047
 5887SOL    HW229295   3.725   3.901   4.635 -0.5862 -0.7876 -0.8779
 5888SOL     OW29296   2.877   2.691   8.589 -0.2004 -0.0544  0.0673
 5888SOL    HW129297   2.970   2.714   8.581  0.2468 -1.5164  1.1671
 5888SOL    HW229298   2.864   2.647   8.505 -3.6396  1.9487 -0.4682
 5889SOL     OW29299   0.392   2.431   3.594  0.0484  0.4244 -0.1914
 5889SOL    HW129300   0.313   2.483   3.610 -1.0272 -1.3684  0.3335
 5889SOL    HW229301   0.410   2.394   3.680 -2.4417 -1.2199 -0.3736
 5890SOL     OW29302   3.071   2.075   9.226 -0.0494 -0.1033  0.2956
 5890SOL    HW129303   3.150   2.043   9.269 -0.3170  2.4330  2.6962
 5890SOL    HW229304   3.053   2.162   9.262  1.8108  0.4258 -0.0590
 5891SOL     OW29305   2.753   0.895   6.733  0.0010 -0.6444 -0.1277
 5891SOL    HW129306   2.681   0.945   6.696  0.7811  1.3826  1.1219
 5891SOL    HW229307   2.726   0.804   6.723 -4.0398  0.4480  0.7040
 5892SOL     OW29308   3.882   1.549   1.800  0.5609  0.0003  0.3535
 5892SOL    HW129309   3.792   1.555   1.769  0.8952  1.4456 -0.3557
 5892SOL    HW229310   3.902   1.640   1.823  0.2829 -0.0043  0.6056
 5893SOL     OW29311   2.678   2.135   3.364  0.0271  0.0737  0.0971
 5893SOL    HW129312   2.713   2.224   3.359 -0.6604  0.4706  2.1605
 5893SOL    HW229313   2.731   2.102   3.436 -2.1884 -0.7377  1.3751
 5894SOL     OW29314   2.142   2.292   8.441  0.0696 -0.1693  0.2688
 5894SOL    HW129315   2.077   2.323   8.503  0.3847 -0.0285  0.5292
 5894SOL    HW229316   2.078   2.254   8.381  0.4657 -0.0912 -0.2082
 5895SOL     OW29317   0.805   1.264   7.410  0.0882  0.1311 -0.6379
 5895SOL    HW129318   0.820   1.260   7.504 -2.2536 -0.3447 -0.2896
 5895SOL    HW229319   0.734   1.329   7.411 -0.3595 -0.3441 -1.2604
 5896SOL     OW29320   3.454   1.552   5.838  1.0268  0.4604  0.2002
 5896SOL    HW129321   3.536   1.512   5.809  1.0561  1.2450 -0.8212
 5896SOL    HW229322   3.388   1.533   5.772  0.6312  0.2980  0.6470
 5897SOL     OW29323   1.487   0.967   5.330 -0.1289  0.4282 -0.3638
 5897SOL    HW129324   1.479   0.950   5.424  3.6398  0.2769 -0.0761
 5897SOL    HW229325   1.399   0.942   5.304  0.2870 -0.5973 -0.7766
 5898SOL     OW29326   1.125   3.248   9.014 -0.1166 -0.1226  0.0703
 5898SOL    HW129327   1.032   3.253   9.035  0.1674 -0.2021  1.3832
 5898SOL    HW229328   1.127   3.189   8.938  1.7063  1.3077 -0.9937
 5899SOL     OW29329   3.625   3.920   3.378  0.1716  0.1610 -0.3199
 5899SOL    HW129330   3.622   3.903   3.472  2.7184  0.1504 -0.2403
 5899SOL    HW229331   3.586   3.836   3.355 -1.0433  0.4919  0.5749
 5900SOL     OW29332   1.903   0.194   4.691  0.1185  0.2944  0.5018
 5900SOL    HW129333   1.980   0.137   4.699  0.9734  1.4480  0.5576
 5900SOL    HW229334   1.940   0.282   4.695 -0.5328  0.6296 -0.7915
 5901SOL     OW29335   3.576   3.663  12.322 -0.0658  0.0408 -0.0363
 5901SOL    HW129336   3.616   3.585  12.282  1.9081  1.1491 -0.2148
 5901SOL    HW229337   3.574   3.643  12.416  1.5645  0.5315  0.1036
 5902SOL     OW29338   1.963   4.163   2.107 -0.0603 -0.2831  0.1856
 5902SOL    HW129339   1.977   4.070   2.125 -0.3497 -0.2648  0.5102
 5902SOL    HW229340   2.034   4.200   2.159  0.2366 -1.2201  0.4538
 5903SOL     OW29341   3.581   3.953   4.331  0.3270 -1.0337  0.1541
 5903SOL    HW129342   3.530   3.875   4.351 -1.9303  0.0999 -1.1644
 5903SOL    HW229343   3.547   4.007   4.402  0.3300 -3.4244  1.9709
 5904SOL     OW29344   0.686   3.774  11.537  0.1875  0.1508 -0.7886
 5904SOL    HW129345   0.677   3.684  11.567 -1.5283  0.4308 -0.4658
 5904SOL    HW229346   0.756   3.756  11.475  1.1090  0.1740  0.2476
 5905SOL     OW29347   2.969   2.643  16.097 -0.5973  0.4040  0.4751
 5905SOL    HW129348   2.944   2.722  16.050  1.5908  0.9699  0.2376
 5905SOL    HW229349   3.038   2.598  16.047 -1.3963 -0.5453  0.2118
 5906SOL     OW29350   0.982   0.747   3.363  0.0413  0.4145  0.1880
 5906SOL    HW129351   0.993   0.745   3.268  0.5346 -0.0344  0.2540
 5906SOL    HW229352   0.945   0.660   3.377  3.2879 -0.4234  3.3859
 5907SOL     OW29353   0.878   4.385   5.780 -0.3127 -0.1865  0.0249
 5907SOL    HW129354   0.897   4.349   5.694 -1.6385  1.9706 -1.1921
 5907SOL    HW229355   0.894   4.477   5.757 -3.3333  0.3602  0.0204
 5908SOL     OW29356   0.950   0.403   7.601  0.0276 -0.5725 -0.4037
 5908SOL    HW129357   0.966   0.495   7.623  0.0569 -1.1475  1.9624
 5908SOL    HW229358   0.927   0.423   7.510 -0.7101 -0.5677 -0.2152
 5909SOL     OW29359   2.146   3.745   5.316 -0.5860 -0.3698  0.4644
 5909SOL    HW129360   2.231   3.707   5.338  0.0926  0.1467 -1.2663
 5909SOL    HW229361   2.143   3.763   5.222  0.2276  1.5878  0.7883
 5910SOL     OW29362   3.341   1.809   8.582 -0.1821 -0.4838  0.6256
 5910SOL    HW129363   3.303   1.730   8.544 -1.2272 -0.1579  0.9963
 5910SOL    HW229364   3.413   1.833   8.523  0.4032 -0.5994  1.2897
 5911SOL     OW29365   2.719   0.030   4.479 -0.1017 -0.1936  0.2560
 5911SOL    HW129366   2.690   4.691   4.528 -0.7680  0.2744  0.6062
 5911SOL    HW229367   2.811   0.008   4.467 -0.1144  0.7424 -1.5491
 5912SOL     OW29368   3.024   3.826   7.660  0.8634 -0.1628  0.3784
 5912SOL    HW129369   3.098   3.861   7.611  1.3468 -1.5762  0.1170
 5912SOL    HW229370   2.975   3.903   7.689  1.3028  1.0714 -2.1255
 5913SOL     OW29371   3.416   0.713  10.370 -0.0658  0.7374 -0.2388
 5913SOL    HW129372   3.412   0.693  10.464  0.4324  1.8884  0.0334
 5913SOL    HW229373   3.445   0.804  10.362  0.4583  0.7108  1.2745
 5914SOL     OW29374   0.284   2.778   2.274 -0.0852 -0.0491  0.1510
 5914SOL    HW129375   0.313   2.788   2.183 -0.4237  1.0986  0.1813
 5914SOL    HW229376   0.297   2.868   2.305  1.0771 -0.5144  1.0530
 5915SOL     OW29377   1.817   2.770  13.530  0.0626 -0.8112  0.4185
 5915SOL    HW129378   1.815   2.686  13.575  0.5870 -1.5293 -0.9146
 5915SOL    HW229379   1.806   2.753  13.437  1.3866  2.0566 -0.2731
 5916SOL     OW29380   1.980   1.809   5.706  0.2848  0.1406  0.6969
 5916SOL    HW129381   2.070   1.780   5.719 -0.2433 -1.7334  0.1998
 5916SOL    HW229382   1.985   1.899   5.737 -0.6411  1.2632 -2.3778
 5917SOL     OW29383   3.178   1.412   6.105  0.0905  0.3744  0.0607
 5917SOL    HW129384   3.146   1.457   6.027 -0.5797 -1.1629 -0.5527
 5917SOL    HW229385   3.095   1.406   6.154 -0.5108  1.3751 -0.8466
 5918SOL     OW29386   4.689   4.570   6.285 -0.1736 -0.2435  0.2646
 5918SOL    HW129387   4.647   4.546   6.203 -0.3101  0.9685 -0.0086
 5918SOL    HW229388   0.007   4.642   6.257 -0.4639 -0.4966 -0.9450
 5919SOL     OW29389   0.326   2.012   5.530  0.3040  0.5315 -0.3616
 5919SOL    HW129390   0.334   2.061   5.612 -0.0578 -0.9947  0.5876
 5919SOL    HW229391   0.287   2.079   5.474 -0.6666 -0.3853 -0.7820
 5920SOL     OW29392   1.712   4.405   8.507 -0.0201  0.2928 -0.7128
 5920SOL    HW129393   1.713   4.351   8.586 -1.0079  1.5930  0.1866
 5920SOL    HW229394   1.621   4.411   8.479 -0.2344  2.8768  0.5466
 5921SOL     OW29395   1.696   1.005   5.158 -0.4713 -0.5060  0.0304
 5921SOL    HW129396   1.623   1.011   5.220 -1.2308  1.2342 -1.0357
 5921SOL    HW229397   1.706   1.089   5.114 -2.1967  1.0328  2.6203
 5922SOL     OW29398   1.408   0.385  15.140  0.2665 -0.4787  0.2787
 5922SOL    HW129399   1.368   0.421  15.061 -2.0813 -0.8286  1.2932
 5922SOL    HW229400   1.331   0.372  15.196  0.0853 -1.6207 -0.2446
 5923SOL     OW29401   3.803   1.543  17.655 -0.1478 -0.7827  0.3164
 5923SOL    HW129402   3.821   1.490  17.732  2.6683  0.5550  0.5983
 5923SOL    HW229403   3.714   1.523  17.626  1.1596 -2.6647 -2.3968
 5924SOL     OW29404   4.695   2.507   3.368  0.1520 -0.3670  0.7600
 5924SOL    HW129405   0.043   2.546   3.351 -0.2654  0.6449  0.9355
 5924SOL    HW229406   4.682   2.449   3.293 -1.3286  0.2082  0.5805
 5925SOL     OW29407   2.598   0.078   8.539  0.2016 -0.4143  0.0926
 5925SOL    HW129408   2.672   0.070   8.478  0.3303  0.3112  0.1535
 5925SOL    HW229409   2.650   0.072   8.619  0.2254  1.6490  0.2464
 5926SOL     OW29410   3.618   2.576   2.764  0.7990 -0.1348  0.1665
 5926SOL    HW129411   3.704   2.614   2.744  1.3630 -1.9613 -0.9356
 5926SOL    HW229412   3.560   2.642   2.725  0.3926 -0.1164  0.8018
 5927SOL     OW29413   4.516   2.725   3.696 -0.1981  0.8474 -0.1165
 5927SOL    HW129414   4.493   2.771   3.615 -1.1082 -0.8204 -0.7885
 5927SOL    HW229415   4.509   2.634   3.668 -1.8648  1.1652 -0.7323
 5928SOL     OW29416   3.900   0.077   8.285 -0.0351  0.0489  0.3732
 5928SOL    HW129417   3.899   0.008   8.352  2.5284  1.3038  1.7273
 5928SOL    HW229418   3.856   0.144   8.337  0.0773 -0.0261  0.5683
 5929SOL     OW29419   2.196   1.229   6.992 -0.2072 -0.4494  0.1595
 5929SOL    HW129420   2.113   1.194   7.024  0.2539 -1.8608 -0.1977
 5929SOL    HW229421   2.242   1.241   7.075 -0.1431  0.9939 -0.0849
 5930SOL     OW29422   1.831   3.440   3.966  0.3365 -0.6988 -0.0395
 5930SOL    HW129423   1.790   3.526   3.955  0.1545 -0.3341  3.3595
 5930SOL    HW229424   1.842   3.413   3.875 -1.2944 -1.9971  0.1555
 5931SOL     OW29425   3.549   2.370   7.197 -0.1159 -0.1104  0.4511
 5931SOL    HW129426   3.467   2.333   7.232 -0.3633 -0.2483 -0.2772
 5931SOL    HW229427   3.517   2.442   7.144  1.4478  0.1196 -0.1711
 5932SOL     OW29428   3.640   0.135   5.826  0.0367  0.1049 -0.0923
 5932SOL    HW129429   3.708   0.176   5.773 -0.7440  1.9033  0.3006
 5932SOL    HW229430   3.579   0.206   5.847 -0.4930  0.3277 -2.2785
 5933SOL     OW29431   2.178   1.474   7.264  0.4255 -0.4990  0.0053
 5933SOL    HW129432   2.091   1.512   7.281 -0.1422 -1.1136 -1.5904
 5933SOL    HW229433   2.227   1.555   7.249  1.2614 -1.2757 -1.4107
 5934SOL     OW29434   2.587   3.045   7.155  0.5533  0.7019  0.2077
 5934SOL    HW129435   2.664   2.988   7.144  1.2484  1.2318  2.4300
 5934SOL    HW229436   2.619   3.119   7.206  1.6467  2.7562 -3.4542
 5935SOL     OW29437   2.887   1.183   6.050 -0.1287 -0.2763  0.1584
 5935SOL    HW129438   2.864   1.259   5.996  0.9055  1.0160  1.5529
 5935SOL    HW229439   2.843   1.112   6.003 -1.4724  1.6001 -1.4783
 5936SOL     OW29440   1.171   0.336  15.678  0.0779 -0.0589  0.0544
 5936SOL    HW129441   1.152   0.408  15.617 -0.2760 -0.7371 -0.6405
 5936SOL    HW229442   1.134   0.278  15.611  0.3361 -0.7031  0.4685
 5937SOL     OW29443   4.209   0.231   6.874 -0.0760  0.7413 -0.2162
 5937SOL    HW129444   4.145   0.188   6.818  1.5725  0.6905 -2.0424
 5937SOL    HW229445   4.209   0.319   6.836 -0.2950  1.4945  1.5231
 5938SOL     OW29446   2.525   1.332   8.833 -0.1310  0.1241 -0.2798
 5938SOL    HW129447   2.606   1.343   8.882 -0.5714  1.1234  0.2151
 5938SOL    HW229448   2.500   1.242   8.854  0.9069  0.3030  1.7007
 5939SOL     OW29449   3.549   2.519   1.936 -0.0624  0.2219 -0.1453
 5939SOL    HW129450   3.463   2.561   1.940 -0.5233 -0.5721 -1.6217
 5939SOL    HW229451   3.533   2.458   2.007  1.9302 -1.0881 -0.8303
 5940SOL     OW29452   3.252   1.683   1.476  0.0411  0.3256 -0.1691
 5940SOL    HW129453   3.324   1.709   1.533  1.2885  1.3360 -2.2124
 5940SOL    HW229454   3.220   1.766   1.442 -0.3187  0.0117 -0.5943
 5941SOL     OW29455   2.677   0.326   4.766 -0.3390  0.6546  0.0251
 5941SOL    HW129456   2.713   0.394   4.824  1.0555 -0.5192  0.5498
 5941SOL    HW229457   2.608   0.284   4.817  1.1353  0.0383  1.5287
 5942SOL     OW29458   0.678   2.430   8.739 -0.1998 -0.2036 -0.0598
 5942SOL    HW129459   0.643   2.442   8.651  1.1117 -1.0366 -0.6956
 5942SOL    HW229460   0.615   2.367   8.774 -0.0757 -0.2219  0.1311
 5943SOL     OW29461   4.055   0.451   8.536 -0.3434 -0.7249  0.4162
 5943SOL    HW129462   4.023   0.360   8.537  1.7039 -1.4598  1.1130
 5943SOL    HW229463   4.115   0.446   8.462 -1.3059  0.0678 -0.4101
 5944SOL     OW29464   3.930   2.900  16.755 -0.2111 -0.1757 -0.6510
 5944SOL    HW129465   3.946   2.979  16.807  2.1831 -0.1755 -1.4228
 5944SOL    HW229466   3.974   2.839  16.814  0.9101  1.0542 -0.2170
 5945SOL     OW29467   1.074   1.705   2.886 -0.2995 -0.7255  0.0691
 5945SOL    HW129468   1.127   1.756   2.947  0.0056  0.7740 -1.4326
 5945SOL    HW229469   1.139   1.684   2.819 -0.0897 -0.3876  0.1653
 5946SOL     OW29470   0.654   2.748  17.141  0.3246  0.6097  0.5218
 5946SOL    HW129471   0.579   2.790  17.099 -0.3379  1.6966  2.7934
 5946SOL    HW229472   0.728   2.800  17.110 -0.6951  1.0329 -1.2168
 5947SOL     OW29473   0.117   4.269   8.731  0.3127  0.3079  0.4074
 5947SOL    HW129474   0.167   4.330   8.677  2.4142  0.5544  2.6412
 5947SOL    HW229475   0.173   4.192   8.720  1.3282  1.1208 -0.0458
 5948SOL     OW29476   0.848   3.618   5.708 -0.0841 -0.4268  0.2606
 5948SOL    HW129477   0.895   3.547   5.753 -0.4497 -0.9006 -0.0971
 5948SOL    HW229478   0.834   3.683   5.777 -0.7394 -0.4703  0.1738
 5949SOL     OW29479   1.616   0.233   3.995 -0.0874  0.8659  0.0168
 5949SOL    HW129480   1.599   0.264   3.906  1.4431 -1.8319 -1.2044
 5949SOL    HW229481   1.530   0.213   4.032  1.4735 -1.6289  2.3267
 5950SOL     OW29482   0.913   4.598   7.018 -0.2093 -0.3879 -0.1456
 5950SOL    HW129483   0.986   4.629   6.965 -2.1579 -0.1901 -2.7466
 5950SOL    HW229484   0.933   4.655   7.092 -1.1439  0.3701 -0.4694
 5951SOL     OW29485   3.632   3.840  15.550  0.7641  0.5803 -0.0419
 5951SOL    HW129486   3.621   3.930  15.582 -1.6771  0.4132 -0.3843
 5951SOL    HW229487   3.707   3.857  15.493 -0.6046  1.0279 -1.7353
 5952SOL     OW29488   2.166   1.806   4.733  0.3597 -0.0057 -0.1386
 5952SOL    HW129489   2.078   1.786   4.764 -0.8985 -0.0698 -3.7453
 5952SOL    HW229490   2.177   1.735   4.669 -0.4500 -0.1548 -0.1140
 5953SOL     OW29491   0.463   3.824   4.416 -0.3370  0.0631 -0.0361
 5953SOL    HW129492   0.468   3.864   4.330  1.7330  2.5548  1.2456
 5953SOL    HW229493   0.509   3.743   4.392  0.1590 -0.3506  2.2631
 5954SOL     OW29494   2.268   1.371   9.382 -0.2887  0.5294  0.0244
 5954SOL    HW129495   2.244   1.316   9.308  1.6486 -1.1603  0.6523
 5954SOL    HW229496   2.337   1.424   9.345 -1.4613  1.6413 -0.5756
 5955SOL     OW29497   3.974   0.366  10.011  0.1687 -0.4055 -0.1154
 5955SOL    HW129498   3.921   0.361   9.932  1.9101 -0.4748 -1.2718
 5955SOL    HW229499   3.938   0.437  10.064  0.3716 -0.6616  0.3676
 5956SOL     OW29500   1.143   3.658   7.650  0.1075  0.4432  0.4599
 5956SOL    HW129501   1.206   3.595   7.683 -0.6771 -1.0454 -0.8560
 5956SOL    HW229502   1.075   3.598   7.619 -0.1260  1.3222 -0.7359
 5957SOL     OW29503   2.728   2.503  16.126  0.3805  0.2289  0.1531
 5957SOL    HW129504   2.811   2.548  16.110 -1.4885  2.6324 -2.6890
 5957SOL    HW229505   2.759   2.414  16.106  0.7530  0.1357  1.1681
 5958SOL     OW29506   3.768   1.212   7.937  0.1664  0.2702 -0.2742
 5958SOL    HW129507   3.855   1.240   7.967 -0.1797 -0.7370  1.6693
 5958SOL    HW229508   3.755   1.293   7.887  2.6432 -1.3389 -3.5149
 5959SOL     OW29509   3.708   2.664   5.437 -0.5052 -0.8660  0.3443
 5959SOL    HW129510   3.651   2.605   5.387 -2.9007 -0.3675  2.4621
 5959SOL    HW229511   3.652   2.742   5.435  1.5025  0.6229  2.3430
 5960SOL     OW29512   2.233   1.171   8.481 -0.7276  0.3563  0.3039
 5960SOL    HW129513   2.288   1.227   8.535 -1.1589 -0.5836  1.7195
 5960SOL    HW229514   2.166   1.140   8.543  1.7169  0.0981  2.8275
 5961SOL     OW29515   0.817   0.558   2.502 -0.4762  0.1610  0.0520
 5961SOL    HW129516   0.755   0.489   2.524 -0.4747  0.1976  0.1747
 5961SOL    HW229517   0.892   0.499   2.509  0.8519  2.0658  2.0460
 5962SOL     OW29518   2.220   1.843  12.544 -0.2481 -0.5807 -0.2634
 5962SOL    HW129519   2.193   1.843  12.636 -0.9907  2.2665 -0.4727
 5962SOL    HW229520   2.201   1.935  12.523  1.1208 -0.0876  0.6792
 5963SOL     OW29521   0.186   2.221   7.097  0.2317  0.1887  0.1750
 5963SOL    HW129522   0.093   2.246   7.094  0.3773  0.5892 -0.7054
 5963SOL    HW229523   0.167   2.131   7.072 -0.9362  0.9519 -1.6590
 5964SOL     OW29524   1.902   2.198   5.992  0.1708  0.3875 -0.3136
 5964SOL    HW129525   1.813   2.189   6.026  1.3894 -3.2691  1.8532
 5964SOL    HW229526   1.939   2.191   6.080 -0.4486  1.4886  0.0389
 5965SOL     OW29527   0.422   4.193   8.300 -0.2882 -0.2464 -0.3944
 5965SOL    HW129528   0.444   4.271   8.250  1.3794 -1.2192 -1.1853
 5965SOL    HW229529   0.412   4.224   8.390 -0.8983 -1.1311 -0.1508
 5966SOL     OW29530   0.290   1.600   7.800  0.4126 -0.0914  0.0842
 5966SOL    HW129531   0.331   1.576   7.717  0.7924  0.1268  0.2083
 5966SOL    HW229532   0.334   1.680   7.827  2.8705 -1.0706 -1.0308
 5967SOL     OW29533   3.327   2.301  15.196  0.4087 -1.2278  0.2754
 5967SOL    HW129534   3.391   2.230  15.204  1.6513  0.0462  1.6947
 5967SOL    HW229535   3.378   2.371  15.237 -0.5629 -1.3371  1.6263
 5968SOL     OW29536   2.583   2.727  15.273  0.5145  0.6769  0.4327
 5968SOL    HW129537   2.608   2.772  15.354  0.5694 -3.8228  2.9060
 5968SOL    HW229538   2.656   2.665  15.264  0.6687  1.0141 -0.6620
 5969SOL     OW29539   1.435   0.720   8.691 -0.2870 -0.5715  0.0935
 5969SOL    HW129540   1.339   0.719   8.700 -0.3036 -1.3780 -0.2108
 5969SOL    HW229541   1.445   0.689   8.601  2.6713  0.4799  0.0637
 5970SOL     OW29542   4.603   0.433   6.342 -0.1352  0.1952  0.0928
 5970SOL    HW129543   4.599   0.490   6.265 -0.1488  0.2872  0.1612
 5970SOL    HW229544   4.695   0.404   6.341 -0.6074 -1.2245 -1.9445
 5971SOL     OW29545   2.327   3.986   7.944 -0.1086 -0.0833 -0.0088
 5971SOL    HW129546   2.376   3.914   7.986  2.2914  0.5661 -1.6741
 5971SOL    HW229547   2.381   4.064   7.953  0.3381 -0.5543  1.3304
 5972SOL     OW29548   3.676   0.610   6.522 -0.7476  0.1747  0.0797
 5972SOL    HW129549   3.730   0.682   6.489 -0.7422 -0.4838 -1.3404
 5972SOL    HW229550   3.723   0.605   6.606 -3.3475 -1.9722  1.3923
 5973SOL     OW29551   1.544   0.346   1.635 -0.0467  0.2158 -0.1402
 5973SOL    HW129552   1.555   0.437   1.606 -0.7232  0.4877  0.4485
 5973SOL    HW229553   1.461   0.318   1.596  1.2166 -0.0527 -2.5985
 5974SOL     OW29554   3.537   3.340  12.227  0.2729 -0.0483  0.2541
 5974SOL    HW129555   3.564   3.352  12.318  1.9941  2.1304 -0.5272
 5974SOL    HW229556   3.604   3.394  12.184 -2.0737  1.2663 -1.7839
 5975SOL     OW29557   4.629   4.334   8.067  0.6280  0.2287  0.6976
 5975SOL    HW129558   4.615   4.426   8.089 -2.1451  0.2728 -1.1622
 5975SOL    HW229559   4.617   4.332   7.972 -3.8582  0.1022  1.2622
 5976SOL     OW29560   0.617   3.421   5.471 -0.1960 -0.5308  0.5633
 5976SOL    HW129561   0.544   3.459   5.423  1.0676 -0.3352 -1.2309
 5976SOL    HW229562   0.610   3.474   5.551  0.2202 -0.3191  0.4628
 5977SOL     OW29563   0.917   4.691  16.723  0.4876  0.1087  0.8890
 5977SOL    HW129564   0.919   0.036  16.674 -2.8158  0.1055  0.7430
 5977SOL    HW229565   0.933   4.623  16.658  1.8044  0.0971  1.2297
 5978SOL     OW29566   1.873   1.761  17.220  0.2356  0.4433  0.2182
 5978SOL    HW129567   1.913   1.713  17.148 -1.4419 -3.0080  1.5530
 5978SOL    HW229568   1.920   1.843  17.210  1.3400 -0.0126  1.6521
 5979SOL     OW29569   1.264   0.302   9.120  0.3197 -0.8211 -0.6138
 5979SOL    HW129570   1.225   0.376   9.167 -0.1610 -0.5292 -1.4581
 5979SOL    HW229571   1.290   0.252   9.197 -0.3374  0.1764  0.2536
 5980SOL     OW29572   0.206   3.404   2.810  0.0375 -0.2841  0.1031
 5980SOL    HW129573   0.291   3.446   2.799  0.0423 -0.1341  0.7392
 5980SOL    HW229574   0.152   3.472   2.851 -0.1103  0.0519 -0.6447
 5981SOL     OW29575   1.089   4.322   6.814  0.4532  0.6518 -0.3613
 5981SOL    HW129576   1.020   4.256   6.822  1.5936 -0.4991  0.0955
 5981SOL    HW229577   1.056   4.390   6.872 -1.1571  0.5641 -1.1832
 5982SOL     OW29578   0.840   2.881   4.889  0.0575  0.0806 -0.4738
 5982SOL    HW129579   0.884   2.802   4.857 -0.3793 -1.2512  2.1822
 5982SOL    HW229580   0.879   2.955   4.843 -2.2067  0.0987 -2.3710
 5983SOL     OW29581   3.884   4.390   2.120  0.2863 -0.0932  0.1886
 5983SOL    HW129582   3.800   4.424   2.152  0.0041 -1.0600  0.4930
 5983SOL    HW229583   3.905   4.327   2.189  0.2909 -1.9863 -1.5115
 5984SOL     OW29584   3.475   4.477   7.734  0.1669 -0.4422 -0.0461
 5984SOL    HW129585   3.402   4.529   7.701  1.4740  1.9100  0.8196
 5984SOL    HW229586   3.456   4.400   7.680  2.6148 -0.4555 -0.8777
 5985SOL     OW29587   1.110   1.752   0.660  1.0558  0.4385  0.0859
 5985SOL    HW129588   1.080   1.734   0.749  1.8414  1.2398  0.4998
 5985SOL    HW229589   1.098   1.846   0.649 -0.5247  0.0921 -1.3343
 5986SOL     OW29590   4.519   1.807   7.757 -0.0934 -0.4070  0.0021
 5986SOL    HW129591   4.548   1.856   7.680 -2.0749 -0.3538 -0.7037
 5986SOL    HW229592   4.598   1.760   7.783  1.6552  2.6726  0.2462
 5987SOL     OW29593   2.142   0.058   4.827  0.2834  0.0196  0.3091
 5987SOL    HW129594   2.175   0.147   4.835  1.2006 -0.3429  0.5789
 5987SOL    HW229595   2.151   0.020   4.915  2.0005  0.1668  0.1955
 5988SOL     OW29596   1.422   4.351   4.817  0.0177  0.4853  0.4581
 5988SOL    HW129597   1.440   4.443   4.838  0.9309  0.6140 -0.9359
 5988SOL    HW229598   1.455   4.350   4.728 -3.9260  0.6942 -1.0138
 5989SOL     OW29599   1.506   3.120  17.043 -0.3777  0.3940  0.5477
 5989SOL    HW129600   1.587   3.079  17.072 -0.7900 -1.4286 -0.9271
 5989SOL    HW229601   1.492   3.198  17.097 -0.7992 -0.2873  1.4064
 5990SOL     OW29602   3.330   1.600   9.217 -0.0541 -0.4594 -0.0109
 5990SOL    HW129603   3.386   1.603   9.294  0.7692  1.2028 -0.6725
 5990SOL    HW229604   3.394   1.618   9.149  0.1144  2.6536  0.9689
 5991SOL     OW29605   2.586   1.284   0.846 -0.1382  0.3547 -0.1963
 5991SOL    HW129606   2.570   1.337   0.767  1.7790  1.2443  0.0023
 5991SOL    HW229607   2.657   1.229   0.812 -0.2454 -0.5099  0.9934
 5992SOL     OW29608   3.785   2.952   2.453  0.0750  0.2063 -0.9157
 5992SOL    HW129609   3.783   3.045   2.428  2.0020  0.7910  1.1363
 5992SOL    HW229610   3.821   2.923   2.369 -0.0755 -1.0060 -0.5611
 5993SOL     OW29611   1.050   4.038  14.847 -0.1549  0.0304  0.4004
 5993SOL    HW129612   1.061   4.119  14.796 -0.4738 -0.0156  0.2618
 5993SOL    HW229613   1.144   4.017  14.844  0.0209  0.5906  1.9814
 5994SOL     OW29614   2.401   1.258   5.652 -0.2688  0.8061 -0.2201
 5994SOL    HW129615   2.306   1.267   5.664 -0.8518 -1.1741 -3.4117
 5994SOL    HW229616   2.418   1.164   5.657  0.8690  0.9390 -1.7055
 5995SOL     OW29617   3.166   0.040   8.921 -0.4455 -0.4392  0.8818
 5995SOL    HW129618   3.119   0.022   9.002 -0.6536  2.1153  1.3163
 5995SOL    HW229619   3.124   0.119   8.887 -1.2395 -2.0108 -1.8098
 5996SOL     OW29620   0.024   4.206   2.263  0.1914 -0.4626 -0.4402
 5996SOL    HW129621   4.683   4.252   2.292 -0.2912 -0.7153 -1.3609
 5996SOL    HW229622   0.062   4.207   2.351 -0.2289  0.3129 -0.2629
 5997SOL     OW29623   0.110   0.335   6.322  0.1945  0.1794 -0.1119
 5997SOL    HW129624   0.175   0.272   6.354  0.6560  1.3302  1.2196
 5997SOL    HW229625   0.167   0.409   6.303  0.4743 -0.2741 -1.0492
 5998SOL     OW29626   1.632   0.683  15.245 -0.3521 -0.4743  0.2692
 5998SOL    HW129627   1.586   0.682  15.161  0.1654 -1.3453 -0.0012
 5998SOL    HW229628   1.643   0.591  15.267  0.3172  0.2043  2.7364
 5999SOL     OW29629   4.586   3.319  10.531 -0.1030  0.3274  0.0858
 5999SOL    HW129630   4.666   3.346  10.576  1.9752 -1.7584 -2.3458
 5999SOL    HW229631   4.610   3.244  10.476 -0.5030 -0.2418  0.6978
 6000SOL     OW29632   3.858   1.755   0.052 -0.1547  0.6544 -0.0060
 6000SOL    HW129633   3.849   1.805  17.720 -2.0233  0.5277  0.1372
 6000SOL    HW229634   3.826   1.668   0.029 -2.2343  1.4860 -0.2904
 6001SOL     OW29635   4.185   3.683   6.456  0.5126 -0.2012 -0.6102
 6001SOL    HW129636   4.198   3.768   6.413 -0.8019  0.6902  0.7404
 6001SOL    HW229637   4.167   3.627   6.381  0.8464 -0.2995 -0.6157
 6002SOL     OW29638   1.108   0.815  13.682 -0.1956  0.2628  0.2066
 6002SOL    HW129639   1.023   0.844  13.715 -1.3730 -0.4149 -2.2145
 6002SOL    HW229640   1.107   0.727  13.719  1.6037  0.2041  0.1282
 6003SOL     OW29641   2.907   1.383   6.235  0.0360 -0.1041  0.4261
 6003SOL    HW129642   2.833   1.388   6.296 -2.2336 -1.8984 -2.1660
 6003SOL    HW229643   2.882   1.306   6.185 -1.2395 -0.0969  1.0530
 6004SOL     OW29644   4.528   2.328  15.490  0.0246 -0.7252 -0.3750
 6004SOL    HW129645   4.567   2.275  15.559 -2.1164 -2.2163 -0.3122
 6004SOL    HW229646   4.443   2.348  15.530  0.1860 -1.4340  0.3312
 6005SOL     OW29647   1.306   0.003   1.480 -0.2056 -0.2870  0.2608
 6005SOL    HW129648   1.388   4.698   1.505  0.3298  1.4274  1.4721
 6005SOL    HW229649   1.241   4.671   1.485 -1.3370  0.8895  1.9174
 6006SOL     OW29650   3.778   0.574   4.889  0.1181 -0.4506  0.5793
 6006SOL    HW129651   3.849   0.586   4.825  0.6412 -2.5447  0.7325
 6006SOL    HW229652   3.771   0.655   4.938 -0.4118  0.0520 -0.3233
 6007SOL     OW29653   3.486   0.131   1.416 -0.4619 -0.0285  0.2998
 6007SOL    HW129654   3.441   0.185   1.351  0.9820 -0.4439 -1.0319
 6007SOL    HW229655   3.409   0.103   1.465  0.0278 -1.7821  0.0709
 6008SOL     OW29656   3.489   0.533   4.039  0.1947  0.5628 -0.0591
 6008SOL    HW129657   3.540   0.466   4.084  0.2310 -0.1210 -1.1121
 6008SOL    HW229658   3.559   0.599   4.044 -1.1127  2.0861 -2.0861
 6009SOL     OW29659   0.790   1.059   7.906  0.2132  0.0959 -0.4576
 6009SOL    HW129660   0.716   1.091   7.854 -0.0098 -0.1176 -0.2772
 6009SOL    HW229661   0.786   1.120   7.980 -2.0114 -0.7392  0.1299
 6010SOL     OW29662   4.333   1.817   2.975  0.0955  0.3599 -0.2303
 6010SOL    HW129663   4.372   1.872   2.908 -1.4483 -0.0353 -1.4452
 6010SOL    HW229664   4.290   1.755   2.917  2.7055 -0.7021 -1.0321
 6011SOL     OW29665   1.507   0.676   4.855 -0.0648 -0.6087  0.3923
 6011SOL    HW129666   1.569   0.738   4.894  0.8829 -1.8307  0.7882
 6011SOL    HW229667   1.510   0.694   4.761  3.4253  0.7037  0.7396
 6012SOL     OW29668   1.759   1.789   5.961  0.5274  0.2730 -0.5893
 6012SOL    HW129669   1.839   1.832   5.930  1.8679 -1.3295  0.6781
 6012SOL    HW229670   1.703   1.829   5.894  0.2304 -0.2965 -0.6753
 6013SOL     OW29671   0.959   3.791   8.484  0.0121 -0.0712 -0.1151
 6013SOL    HW129672   0.930   3.776   8.394 -1.1980 -1.0407  0.4381
 6013SOL    HW229673   1.044   3.835   8.484 -0.3227  0.5705  0.4708
 6014SOL     OW29674   3.121   3.504   3.260 -0.5992 -0.3168  0.4030
 6014SOL    HW129675   3.200   3.506   3.315  0.6250 -0.3423 -1.3836
 6014SOL    HW229676   3.156   3.549   3.183  0.7931 -2.4315 -0.1935
 6015SOL     OW29677   2.463   4.647   5.092  0.2138 -0.1068 -0.2473
 6015SOL    HW129678   2.467   4.557   5.060  0.7274 -0.6718  1.4163
 6015SOL    HW229679   2.529   4.684   5.034  1.3087 -1.7404 -0.0370
 6016SOL     OW29680   0.882   0.710   6.506 -0.0745  0.3223 -0.2244
 6016SOL    HW129681   0.957   0.751   6.464 -0.6088  0.9677 -0.5326
 6016SOL    HW229682   0.809   0.720   6.445 -0.5289 -1.0773  0.0759
 6017SOL     OW29683   3.214   2.251  15.524 -0.1119  0.2949  0.1276
 6017SOL    HW129684   3.135   2.199  15.538  0.6823 -1.3512 -1.5657
 6017SOL    HW229685   3.285   2.191  15.500  0.0512  2.2067 -4.1720
 6018SOL     OW29686   2.166   1.639  14.655  0.3268  0.4801 -0.4548
 6018SOL    HW129687   2.129   1.574  14.596  1.8941 -2.7779  2.1572
 6018SOL    HW229688   2.105   1.613  14.724  0.2683  0.9316 -0.3352
 6019SOL     OW29689   0.362   3.405   4.173 -0.9639 -0.1294  0.2529
 6019SOL    HW129690   0.386   3.486   4.128  1.1057 -0.1083  1.3580
 6019SOL    HW229691   0.341   3.436   4.261  2.4832 -0.5854  1.2530
 6020SOL     OW29692   3.706   0.411  14.162 -0.1438  0.3887 -0.1265
 6020SOL    HW129693   3.711   0.448  14.250  0.1586 -0.9168  0.4081
 6020SOL    HW229694   3.755   0.330  14.179 -3.6306 -1.2791  2.1781
 6021SOL     OW29695   1.653   3.602   4.216  0.2533 -0.2061  0.3954
 6021SOL    HW129696   1.657   3.539   4.289  0.4015 -0.2983  0.3081
 6021SOL    HW229697   1.569   3.641   4.238 -0.1211 -0.3631 -0.7329
 6022SOL     OW29698   3.327   1.550   3.184  0.7382  0.0411 -0.0695
 6022SOL    HW129699   3.323   1.456   3.168  2.6866 -0.6761  3.6128
 6022SOL    HW229700   3.369   1.576   3.103  2.0143 -2.0051 -0.0536
 6023SOL     OW29701   4.158   0.895   9.129 -0.6198 -0.3596 -0.8058
 6023SOL    HW129702   4.108   0.963   9.083  0.6784  0.4044 -1.1062
 6023SOL    HW229703   4.111   0.895   9.212  0.4438  0.0889 -0.1963
 6024SOL     OW29704   3.698   3.788   1.160 -0.6773  0.5753  0.1691
 6024SOL    HW129705   3.724   3.870   1.119 -2.1399  1.5947  1.2662
 6024SOL    HW229706   3.731   3.807   1.248 -0.7207  0.0528  0.3000
 6025SOL     OW29707   3.908   2.046   3.814  0.1018 -0.4466 -0.2305
 6025SOL    HW129708   3.906   1.952   3.831 -0.0488 -0.2977  0.6104
 6025SOL    HW229709   3.970   2.071   3.883  1.6640  2.3254 -2.6213
 6026SOL     OW29710   3.601   0.996   3.337  0.3191  0.2553  0.6775
 6026SOL    HW129711   3.599   1.053   3.259 -2.3672  0.5591  0.9619
 6026SOL    HW229712   3.506   0.981   3.339  0.0231  2.1579  1.3223
 6027SOL     OW29713   4.553   2.646   4.219  0.5840 -0.6654  0.1951
 6027SOL    HW129714   4.461   2.627   4.204  1.0727 -1.3347 -1.8783
 6027SOL    HW229715   4.580   2.590   4.147  1.9407  1.8806 -1.2702
 6028SOL     OW29716   0.383   3.340   2.398 -0.2501  0.3468  0.7390
 6028SOL    HW129717   0.375   3.290   2.316  1.6058 -0.3463  0.9945
 6028SOL    HW229718   0.298   3.382   2.413 -0.9055 -1.7366  2.7514
 6029SOL     OW29719   0.800   1.179   9.051 -0.4674  0.3243 -0.2153
 6029SOL    HW129720   0.766   1.167   9.140  0.1142  0.4864  0.0297
 6029SOL    HW229721   0.728   1.160   8.991 -1.3813  1.6638  0.4428
 6030SOL     OW29722   0.287   2.459   3.925  0.0837  0.0767 -0.1236
 6030SOL    HW129723   0.380   2.468   3.906  0.3270 -2.3468 -0.0449
 6030SOL    HW229724   0.305   2.463   4.019 -0.0006  0.9985 -0.1436
 6031SOL     OW29725   0.345   2.017  17.401  0.4207 -0.1366  0.2939
 6031SOL    HW129726   0.314   1.927  17.411 -1.3602  0.6239  1.6174
 6031SOL    HW229727   0.281   2.074  17.444  1.7155  0.8539  0.9206
 6032SOL     OW29728   1.280   1.597   5.844  0.0741  0.6598 -0.0750
 6032SOL    HW129729   1.328   1.600   5.761  1.4745  1.2935  0.7648
 6032SOL    HW229730   1.281   1.682   5.888  0.1747  0.6367 -0.0337
 6033SOL     OW29731   0.217   0.920   0.634  0.3199 -1.3296 -0.1101
 6033SOL    HW129732   0.292   0.974   0.611  1.2189 -2.5657 -0.1156
 6033SOL    HW229733   0.207   0.888   0.544  1.1318 -0.4594 -0.5013
 6034SOL     OW29734   0.429   2.068   3.853 -0.2377  0.4091 -0.0433
 6034SOL    HW129735   0.498   2.120   3.811  0.0019 -0.0650 -0.2388
 6034SOL    HW229736   0.421   1.995   3.791  1.2113  0.8595 -0.7665
 6035SOL     OW29737   0.601   2.052  17.254 -0.6387  0.2119  0.5319
 6035SOL    HW129738   0.576   1.973  17.207 -0.8396  1.0939 -0.8374
 6035SOL    HW229739   0.533   2.062  17.320 -0.7179 -1.3187  0.6797
 6036SOL     OW29740   1.999   0.264   2.551  0.3135  0.6028  0.1702
 6036SOL    HW129741   1.945   0.186   2.556  0.6651  0.4233  1.2392
 6036SOL    HW229742   1.946   0.344   2.556 -3.4596 -2.1428  4.1761
 6037SOL     OW29743   4.620   3.463   5.451  0.2645 -0.5189  0.4689
 6037SOL    HW129744   4.544   3.409   5.472  0.2021 -0.6186 -0.0133
 6037SOL    HW229745   4.594   3.469   5.359 -0.3747 -0.5898  0.6480
 6038SOL     OW29746   1.215   1.405  14.700  0.3639  0.1679 -0.0974
 6038SOL    HW129747   1.143   1.345  14.720 -0.3074  0.7341 -0.8174
 6038SOL    HW229748   1.285   1.345  14.723  1.6384  0.3808 -3.3959
 6039SOL     OW29749   1.634   1.052   8.533 -0.1273 -0.4567  0.4251
 6039SOL    HW129750   1.540   1.048   8.546 -0.2779 -1.3174 -0.9543
 6039SOL    HW229751   1.619   1.037   8.440  0.1056 -1.1121  0.4892
 6040SOL     OW29752   0.115   4.013   3.128 -0.3185  0.2618  0.5313
 6040SOL    HW129753   0.094   3.973   3.044  2.1674 -1.3775  0.6713
 6040SOL    HW229754   0.057   3.960   3.183 -0.6355  0.4556  0.3806
 6041SOL     OW29755   3.011   3.840   3.723  0.1778 -0.3219 -0.1756
 6041SOL    HW129756   2.953   3.773   3.760  0.1633  1.8996  3.7814
 6041SOL    HW229757   2.945   3.884   3.669 -0.1739  0.2773  0.7551
 6042SOL     OW29758   0.169   2.074  12.016 -0.4884 -0.0954 -0.1626
 6042SOL    HW129759   0.077   2.070  11.990 -0.7362  2.5452  0.3666
 6042SOL    HW229760   0.196   2.006  11.954 -0.7524 -1.0010  0.7011
 6043SOL     OW29761   0.459   4.326   7.565  0.5253  0.4053 -0.1162
 6043SOL    HW129762   0.425   4.332   7.655  1.5888  1.3655  0.2220
 6043SOL    HW229763   0.509   4.245   7.575 -0.6337 -0.6239 -2.6574
 6044SOL     OW29764   0.789   2.979  12.616  0.0468 -0.2902 -0.3179
 6044SOL    HW129765   0.711   2.924  12.618  1.0756 -1.7736 -0.8235
 6044SOL    HW229766   0.817   2.961  12.526 -1.2048  2.5422 -1.2805
 6045SOL     OW29767   4.664   4.129   0.152  0.3484  0.2579  0.3933
 6045SOL    HW129768   4.607   4.190   0.106  0.8404 -1.0777 -1.9825
 6045SOL    HW229769   4.628   4.045   0.122  0.9987 -0.6337  2.1200
 6046SOL     OW29770   2.886   4.164   3.042  0.2856 -0.0253 -0.1386
 6046SOL    HW129771   2.857   4.154   2.951 -2.2530  2.5357  0.3659
 6046SOL    HW229772   2.812   4.213   3.078  1.8300  1.4145  1.0675
 6047SOL     OW29773   1.136   1.744   3.844 -0.2718  0.4496 -0.1960
 6047SOL    HW129774   1.222   1.742   3.886 -1.6442 -2.0910  2.4941
 6047SOL    HW229775   1.163   1.691   3.769 -1.0240  1.0734 -0.9123
 6048SOL     OW29776   0.531   4.727   2.739 -0.6448  0.0660 -0.2511
 6048SOL    HW129777   0.604   0.017   2.684 -2.9324 -1.8347 -4.2976
 6048SOL    HW229778   0.466   0.051   2.704 -0.2202  0.7890  0.2544
 6049SOL     OW29779   3.944   1.438   6.716  0.2555  0.3754  0.4439
 6049SOL    HW129780   3.973   1.351   6.743  1.5933  0.6110 -0.2249
 6049SOL    HW229781   3.889   1.414   6.641  2.8646  0.4284 -1.4625
 6050SOL     OW29782   3.718   2.789   7.317  0.3998 -0.7204  0.5910
 6050SOL    HW129783   3.718   2.828   7.404 -1.1593 -0.0276  0.2835
 6050SOL    HW229784   3.697   2.699   7.343 -1.1678 -1.3838 -2.9182
 6051SOL     OW29785   3.153   3.391   7.777  0.2100  0.1791  0.4437
 6051SOL    HW129786   3.130   3.415   7.688  0.0175  1.1671  0.7608
 6051SOL    HW229787   3.172   3.298   7.768  3.0726  0.9547 -1.4344
 6052SOL     OW29788   3.725   3.509  12.157 -0.4780  0.2953  0.9718
 6052SOL    HW129789   3.764   3.596  12.169  1.4710 -0.4499 -0.0471
 6052SOL    HW229790   3.779   3.479  12.085 -0.7705 -1.7729  1.6220
 6053SOL     OW29791   3.113   3.521   7.472  0.5261 -0.2316  0.0409
 6053SOL    HW129792   3.202   3.499   7.498  0.3653 -1.2464 -0.2472
 6053SOL    HW229793   3.128   3.597   7.417  0.7217 -1.0593 -1.0535
 6054SOL     OW29794   1.056   1.440   7.508 -0.0064 -0.1203  0.1481
 6054SOL    HW129795   1.043   1.455   7.414 -0.7313 -2.4421 -0.1151
 6054SOL    HW229796   1.012   1.358   7.528  0.4617  0.3917  3.3063
 6055SOL     OW29797   3.640   4.378   6.788 -0.4482  0.3847  0.0955
 6055SOL    HW129798   3.594   4.460   6.770  0.4454  0.2034 -3.0437
 6055SOL    HW229799   3.730   4.408   6.774 -0.4617  0.5303  0.3370
 6056SOL     OW29800   1.432   0.350   4.511  0.3277 -0.4581  0.3277
 6056SOL    HW129801   1.480   0.407   4.451 -1.1620  0.4281 -0.0311
 6056SOL    HW229802   1.371   0.406   4.558 -0.7561 -1.2637 -0.0878
 6057SOL     OW29803   1.876   2.972   0.037 -0.0730 -0.4076  0.1494
 6057SOL    HW129804   1.891   2.905   0.104 -1.6348  0.5914  1.4721
 6057SOL    HW229805   1.933   2.920  17.729 -1.8305 -1.3678 -0.7188
 6058SOL     OW29806   3.665   1.264   7.553 -0.4655  0.5530 -0.2698
 6058SOL    HW129807   3.674   1.198   7.622 -0.7353  2.0762  1.2238
 6058SOL    HW229808   3.695   1.339   7.605  3.5522 -0.5786 -0.9797
 6059SOL     OW29809   2.377   1.351  12.830 -0.4634 -0.3286 -0.2810
 6059SOL    HW129810   2.438   1.325  12.761 -0.6978  0.0156 -0.6198
 6059SOL    HW229811   2.420   1.353  12.916 -1.1748  1.3436  0.0279
 6060SOL     OW29812   1.551   2.185   3.128 -1.0987  0.2539  0.5912
 6060SOL    HW129813   1.455   2.178   3.132 -0.9063 -0.9562  2.9380
 6060SOL    HW229814   1.556   2.228   3.213 -0.0970 -0.1493  0.7315
 6061SOL     OW29815   2.477   3.035   8.943  0.0923 -0.4189  0.7810
 6061SOL    HW129816   2.504   3.117   8.900  0.4196 -0.8223  0.2156
 6061SOL    HW229817   2.438   3.060   9.027 -1.0474 -1.0173  0.4250
 6062SOL     OW29818   2.504   3.128  11.816  0.0386 -0.7540 -0.3013
 6062SOL    HW129819   2.572   3.112  11.751  0.4663  1.4832 -0.4209
 6062SOL    HW229820   2.446   3.057  11.789 -1.3085  1.0084 -2.0639
 6063SOL     OW29821   1.830   4.040   4.457 -0.6514  0.1054 -0.1925
 6063SOL    HW129822   1.854   4.091   4.379  2.4367 -0.7171  0.2281
 6063SOL    HW229823   1.737   4.063   4.461 -0.8459 -0.7284 -0.0980
 6064SOL     OW29824   3.930   0.545  15.017  0.0983 -0.0573  0.4933
 6064SOL    HW129825   4.020   0.578  15.020  1.0346 -2.4474 -0.6600
 6064SOL    HW229826   3.949   0.456  14.986 -1.6323 -0.2617  0.0239
 6065SOL     OW29827   0.324   3.217   8.775 -0.6161  0.3934 -0.3455
 6065SOL    HW129828   0.238   3.248   8.746 -0.3638  0.2737 -1.2092
 6065SOL    HW229829   0.300   3.130   8.806 -3.4226  1.0884 -0.4848
 6066SOL     OW29830   4.184   4.500   3.838 -0.5410 -0.5225  0.1940
 6066SOL    HW129831   4.234   4.438   3.785 -1.5868  0.9529 -2.5282
 6066SOL    HW229832   4.168   4.580   3.789  0.9653 -0.0476  0.4979
 6067SOL     OW29833   2.456   4.230   8.427  0.0173  0.5430  0.7666
 6067SOL    HW129834   2.404   4.157   8.462  1.5484 -0.4740  0.9335
 6067SOL    HW229835   2.485   4.267   8.510  0.5921 -0.9266  1.2218
 6068SOL     OW29836   2.751   0.023  10.656  0.2532 -0.0626  0.0031
 6068SOL    HW129837   2.713   0.094  10.707 -1.6882 -0.1651 -1.2847
 6068SOL    HW229838   2.684   4.737  10.592 -0.9427  1.9369  0.5142
 6069SOL     OW29839   4.587   1.012   6.142 -0.5320 -0.0918  0.5209
 6069SOL    HW129840   4.676   1.045   6.131 -0.1282 -1.4305 -0.3076
 6069SOL    HW229841   4.577   1.054   6.227 -0.1179  0.4625  0.2990
 6070SOL     OW29842   1.236   3.207  13.349 -0.7033  0.4729 -0.2440
 6070SOL    HW129843   1.157   3.225  13.299 -0.6839 -0.4631 -0.6106
 6070SOL    HW229844   1.194   3.171  13.428 -0.6460  0.4418 -0.2275
 6071SOL     OW29845   2.409   0.481   4.653  0.3767 -0.3623  0.6487
 6071SOL    HW129846   2.489   0.440   4.621 -0.3992 -2.1570  1.0158
 6071SOL    HW229847   2.339   0.432   4.610  0.2995  0.5975 -0.3335
 6072SOL     OW29848   3.603   3.568  14.262 -0.7526  0.1024 -0.1031
 6072SOL    HW129849   3.592   3.554  14.356  0.4738  4.9331  0.7594
 6072SOL    HW229850   3.645   3.485  14.240 -0.8784 -0.6655  2.5514
 6073SOL     OW29851   1.672   3.355   6.733 -0.1138  0.1910 -0.5111
 6073SOL    HW129852   1.628   3.333   6.815  1.5489  1.5931  0.7328
 6073SOL    HW229853   1.756   3.378   6.771 -1.0319  3.6271 -0.5616
 6074SOL     OW29854   0.629   4.048   8.728  0.0398  0.5641  0.4988
 6074SOL    HW129855   0.680   4.097   8.664 -1.8830  2.3517  0.3400
 6074SOL    HW229856   0.662   3.959   8.718  0.0618  0.6401 -0.0877
 6075SOL     OW29857   3.738   4.174   3.485 -0.1320  0.3084 -0.4570
 6075SOL    HW129858   3.814   4.162   3.541 -2.1613 -1.6837  1.8879
 6075SOL    HW229859   3.696   4.088   3.493  2.1279 -0.8946 -1.4071
 6076SOL     OW29860   0.730   0.068   4.464  0.0092 -0.1236 -0.9815
 6076SOL    HW129861   0.770   0.132   4.523 -0.0691  0.9440 -2.0760
 6076SOL    HW229862   0.741   4.727   4.517 -0.3865  0.7238  0.3553
 6077SOL     OW29863   0.571   1.298   3.357  0.1374 -0.2362 -0.1752
 6077SOL    HW129864   0.503   1.270   3.296  0.5062  1.3320 -1.2948
 6077SOL    HW229865   0.584   1.385   3.320 -0.9373 -0.9774 -2.2746
 6078SOL     OW29866   3.795   3.502  10.335 -0.4998  0.0698  0.3732
 6078SOL    HW129867   3.752   3.588  10.338 -1.1603 -0.2624  0.4086
 6078SOL    HW229868   3.824   3.501  10.244 -2.0456 -0.7182 -0.1124
 6079SOL     OW29869   0.381   3.037   2.355  0.9058 -0.4451 -0.1231
 6079SOL    HW129870   0.304   3.079   2.317 -0.8771 -1.4850  2.3835
 6079SOL    HW229871   0.441   3.038   2.280  1.1737  0.6577  0.1042
 6080SOL     OW29872   1.683   3.361   9.370 -0.2830  0.0217  0.3203
 6080SOL    HW129873   1.703   3.425   9.439  0.6749  0.9843 -0.8603
 6080SOL    HW229874   1.755   3.300   9.386 -0.3231 -0.3128 -0.7821
 6081SOL     OW29875   4.053   4.558   6.285 -0.5413 -0.1237  0.2345
 6081SOL    HW129876   4.131   4.572   6.339  0.2707  0.6623 -1.1086
 6081SOL    HW229877   4.100   4.563   6.201 -0.6471  0.8501  0.2257
 6082SOL     OW29878   0.502   2.337   6.673 -0.1681 -0.1058 -0.1286
 6082SOL    HW129879   0.434   2.372   6.614  1.8447  1.7020 -1.3571
 6082SOL    HW229880   0.504   2.411   6.734  1.2196 -0.3539  0.1179
 6083SOL     OW29881   1.924   3.297   9.991 -0.2178  0.4216 -0.2704
 6083SOL    HW129882   1.996   3.234   9.997 -1.3455 -0.9226 -0.8597
 6083SOL    HW229883   1.969   3.381   9.997 -1.7022  1.3357 -2.1160
 6084SOL     OW29884   1.881   0.940   1.029  0.4771  0.2269  0.4960
 6084SOL    HW129885   1.905   0.921   0.939  0.7913  0.1442  0.5982
 6084SOL    HW229886   1.792   0.906   1.027  0.9525 -1.1082  2.0590
 6085SOL     OW29887   4.337   3.524   9.976  0.3654 -0.8644 -0.1142
 6085SOL    HW129888   4.301   3.603   9.935 -0.6757 -0.0270  2.4378
 6085SOL    HW229889   4.424   3.535   9.938  1.5357 -0.4633  2.6847
 6086SOL     OW29890   0.131   1.854  11.859  0.2425  0.3454 -0.3445
 6086SOL    HW129891   0.145   1.779  11.917 -2.4030  1.3774  1.6498
 6086SOL    HW229892   0.035   1.845  11.862  0.2915 -0.8138 -3.2063
 6087SOL     OW29893   4.363   1.898   2.718 -0.4819 -0.2506 -0.4169
 6087SOL    HW129894   4.271   1.870   2.716 -0.2861 -1.0296  1.6509
 6087SOL    HW229895   4.358   1.987   2.754  0.7782  0.1535 -1.2590
 6088SOL     OW29896   3.947   4.419   9.920 -0.1275  0.2736 -0.4758
 6088SOL    HW129897   4.006   4.493   9.905  2.2085 -0.6523  4.1197
 6088SOL    HW229898   3.930   4.432  10.013 -1.4860 -1.0345 -0.5334
 6089SOL     OW29899   0.804   0.477   2.934 -0.0842 -0.0687 -0.2950
 6089SOL    HW129900   0.873   0.422   2.897  1.1944  0.9209  0.6210
 6089SOL    HW229901   0.726   0.427   2.908 -1.2127 -0.5688  3.8977
 6090SOL     OW29902   1.286   2.421   8.189 -0.1728 -0.3750  0.0667
 6090SOL    HW129903   1.293   2.497   8.131 -3.0452  0.1926  0.4492
 6090SOL    HW229904   1.358   2.366   8.160  0.0368  0.2965 -0.7043
 6091SOL     OW29905   3.700   0.114   4.503  0.7148 -0.5679 -0.3251
 6091SOL    HW129906   3.754   0.137   4.579  0.1621 -0.7644  0.1279
 6091SOL    HW229907   3.612   0.111   4.541  0.7291 -2.2105 -0.4130
 6092SOL     OW29908   0.552   1.698   1.223 -0.2499 -0.8954 -0.3795
 6092SOL    HW129909   0.502   1.641   1.281 -1.4357  0.8377  0.2848
 6092SOL    HW229910   0.498   1.777   1.230  0.8375 -0.1302 -0.6113
 6093SOL     OW29911   2.209   0.458   8.679 -0.5891  0.4796 -0.2877
 6093SOL    HW129912   2.264   0.395   8.726 -0.2893 -0.3576 -1.7637
 6093SOL    HW229913   2.264   0.537   8.670  0.1734  0.1626  1.6107
 6094SOL     OW29914   3.908   3.446  11.920  0.2194  0.0498  0.1150
 6094SOL    HW129915   3.856   3.411  11.847  0.7804  1.1823 -0.8286
 6094SOL    HW229916   3.940   3.365  11.959  2.4772  0.4858 -0.8133
 6095SOL     OW29917   3.122   2.339   7.612  0.0953  0.3292 -0.0384
 6095SOL    HW129918   3.215   2.358   7.608  0.2474 -0.2727  0.6729
 6095SOL    HW229919   3.115   2.340   7.707  0.0044  0.5692 -0.0484
 6096SOL     OW29920   2.249   2.236   0.014 -0.0219 -0.3555 -0.0320
 6096SOL    HW129921   2.281   2.145   0.018  0.6811 -0.1579 -1.0216
 6096SOL    HW229922   2.213   2.237   0.103  0.4776  0.3548  0.1594
 6097SOL     OW29923   3.836   3.081  17.081  0.1800 -0.5413 -0.4358
 6097SOL    HW129924   3.759   3.028  17.060 -0.8143  1.0182 -0.6778
 6097SOL    HW229925   3.864   3.043  17.165 -0.0623  1.6990  0.6717
 6098SOL     OW29926   1.848   1.773   5.085 -0.3303 -0.8276 -0.0859
 6098SOL    HW129927   1.847   1.837   5.014  0.9566 -1.2701 -0.5015
 6098SOL    HW229928   1.874   1.827   5.160  1.1853  0.5048 -1.5925
 6099SOL     OW29929   4.021   0.196  10.685  0.5846 -0.2611 -0.9043
 6099SOL    HW129930   4.081   0.155  10.623 -0.5231 -3.7564  0.3188
 6099SOL    HW229931   4.074   0.185  10.764 -0.6098 -1.0491 -0.2083
 6100SOL     OW29932   3.374   2.929   7.023 -0.0609  0.2223 -0.1835
 6100SOL    HW129933   3.453   2.972   7.055 -1.3036  2.2261  0.1974
 6100SOL    HW229934   3.318   2.925   7.100 -0.5349 -0.8821 -0.5795
 6101SOL     OW29935   2.322   3.869  11.811  0.4944  0.2695 -0.5526
 6101SOL    HW129936   2.328   3.839  11.720 -2.8526  1.6548 -1.2361
 6101SOL    HW229937   2.234   3.907  11.813  0.0863 -0.6373 -1.0695
 6102SOL     OW29938   3.558   3.946   4.899  0.3174  0.6575  0.1513
 6102SOL    HW129939   3.466   3.950   4.872  0.6516  2.0954 -0.7544
 6102SOL    HW229940   3.548   3.905   4.985 -1.3900 -0.1612 -0.4370
 6103SOL     OW29941   1.530   3.972   5.679  0.3403  0.4879 -0.4068
 6103SOL    HW129942   1.586   4.003   5.751 -2.3566 -1.2975  2.4467
 6103SOL    HW229943   1.590   3.939   5.611 -0.8794  0.1808 -1.3248
 6104SOL     OW29944   1.832   2.076  17.726  0.2325 -0.3516  0.0167
 6104SOL    HW129945   1.885   2.139  17.677  0.7094 -0.1930  0.7419
 6104SOL    HW229946   1.865   2.080   0.066 -0.1706  0.7329  0.1114
 6105SOL     OW29947   0.640   2.841   4.585  0.1540  0.1212  0.0374
 6105SOL    HW129948   0.665   2.753   4.612  2.7852  1.0388  0.5540
 6105SOL    HW229949   0.728   2.878   4.583  0.3753 -0.2324  3.4412
 6106SOL     OW29950   0.781   1.870   3.935 -0.0299  0.2979  0.1483
 6106SOL    HW129951   0.851   1.932   3.914  2.2821 -1.3484  2.9876
 6106SOL    HW229952   0.733   1.919   4.003 -0.8806 -1.3661  0.7416
 6107SOL     OW29953   0.970   3.471   7.506 -0.1878 -0.0747 -0.1620
 6107SOL    HW129954   0.891   3.462   7.454  0.2744 -0.6118 -0.7736
 6107SOL    HW229955   1.035   3.469   7.436 -1.2872 -1.4509 -1.1337
 6108SOL     OW29956   0.674   4.073  16.199  0.1628 -0.5593 -0.5874
 6108SOL    HW129957   0.643   3.982  16.198 -1.0476 -0.1364 -2.1643
 6108SOL    HW229958   0.766   4.065  16.223 -0.3853 -3.0902  0.6529
 6109SOL     OW29959   0.382   3.335  14.383 -0.0040 -0.6087 -0.6172
 6109SOL    HW129960   0.325   3.391  14.436  0.0698 -3.1911  2.1498
 6109SOL    HW229961   0.427   3.288  14.452 -1.1122 -0.6297  0.0944
 6110SOL     OW29962   0.588   4.240  16.014  0.1044 -0.1885 -0.0926
 6110SOL    HW129963   0.603   4.325  16.056 -0.0227 -0.6711  0.9324
 6110SOL    HW229964   0.628   4.174  16.070  0.8832  0.6622  0.3634
 6111SOL     OW29965   3.048   1.848   1.168  1.3395 -0.3799 -0.4333
 6111SOL    HW129966   3.084   1.908   1.233  1.4623  0.4555 -1.2823
 6111SOL    HW229967   3.064   1.759   1.200 -0.8654 -0.7341 -0.2798
 6112SOL     OW29968   1.192   4.136   4.765 -0.2556 -0.0740  0.0336
 6112SOL    HW129969   1.178   4.208   4.703  0.5160 -0.0018 -0.0571
 6112SOL    HW229970   1.102   4.104   4.769 -0.0678 -0.9385 -2.3999
 6113SOL     OW29971   0.992   2.360   0.765 -0.1094 -0.4505 -0.1045
 6113SOL    HW129972   1.046   2.369   0.686  1.4516 -0.9625  0.9076
 6113SOL    HW229973   1.001   2.270   0.796 -0.4755  0.1720  1.8084
 6114SOL     OW29974   1.405   1.760   9.291 -0.2512  0.3298 -0.0822
 6114SOL    HW129975   1.395   1.823   9.220 -1.3976  0.4869  0.2273
 6114SOL    HW229976   1.316   1.729   9.307  0.4830 -0.9046  1.6897
 6115SOL     OW29977   2.602   3.661   4.967  0.0037 -0.2432  0.4335
 6115SOL    HW129978   2.581   3.719   5.041 -1.2606 -1.5521  1.0987
 6115SOL    HW229979   2.518   3.644   4.923 -1.1617  1.1547  2.0892
 6116SOL     OW29980   4.539   1.337   0.560  0.6019  0.5803 -0.7451
 6116SOL    HW129981   4.557   1.243   0.565  1.9974  0.9485  1.2086
 6116SOL    HW229982   4.567   1.353   0.470  1.5195  1.5599 -0.2851
 6117SOL     OW29983   2.514   2.623  16.218  0.6857  0.1769  0.5376
 6117SOL    HW129984   2.592   2.581  16.182  1.1041  1.9980 -0.7070
 6117SOL    HW229985   2.459   2.623  16.140  0.7142  2.3805  0.5175
 6118SOL     OW29986   2.425   3.297   7.752  0.7025 -0.3493 -0.0804
 6118SOL    HW129987   2.356   3.290   7.686 -0.3462 -3.9701  1.3604
 6118SOL    HW229988   2.495   3.309   7.689  0.6916 -0.4184 -0.1054
 6119SOL     OW29989   0.369   3.866   2.872 -0.3947  0.2175  0.3323
 6119SOL    HW129990   0.436   3.865   2.941  1.3002 -0.1985 -1.3268
 6119SOL    HW229991   0.423   3.844   2.797 -0.6463 -0.3211  0.3112
 6120SOL     OW29992   0.510   3.374  17.417  0.0317  0.2541 -0.0130
 6120SOL    HW129993   0.454   3.443  17.382  2.3641  0.5898 -3.1235
 6120SOL    HW229994   0.580   3.366  17.352 -0.4613  1.6989 -0.7082
 6121SOL     OW29995   4.076   0.456  14.274  0.0473  0.1225  0.2415
 6121SOL    HW129996   4.007   0.516  14.301  0.7664  0.5895  1.0400
 6121SOL    HW229997   4.025   0.410  14.207  1.0269 -0.4789 -0.1048
 6122SOL     OW29998   1.955   1.522   5.887  0.0089 -0.3849  0.1583
 6122SOL    HW129999   1.907   1.466   5.826 -1.8207  0.3707  0.9108
 6122SOL    HW230000   1.895   1.588   5.921 -1.2653 -2.3556  1.6698
 6123SOL     OW30001   3.384   2.395   8.519  0.2292 -1.1389  0.0523
 6123SOL    HW130002   3.410   2.486   8.501  2.3759 -1.8603 -0.5535
 6123SOL    HW230003   3.350   2.370   8.433 -0.2240  1.8473 -0.6473
 6124SOL     OW30004   2.072   3.004   4.640 -0.8442  0.9086  0.3811
 6124SOL    HW130005   2.142   3.067   4.655 -1.1703  1.1924  0.6964
 6124SOL    HW230006   2.019   3.049   4.575  1.7354 -0.5183 -2.7262
 6125SOL     OW30007   0.772   3.988   3.911  0.3227  0.3388 -0.5198
 6125SOL    HW130008   0.867   3.973   3.916  0.6967  1.8159 -3.2634
 6125SOL    HW230009   0.772   4.071   3.863  0.0646  1.3265  1.1765
 6126SOL     OW30010   1.711   2.232   8.646  0.6009 -0.6643 -0.6972
 6126SOL    HW130011   1.691   2.323   8.625 -2.1375 -0.9015  1.0024
 6126SOL    HW230012   1.626   2.191   8.630 -1.7277  2.5379  3.4587
 6127SOL     OW30013   3.073   3.035   7.172 -0.0137 -0.0093 -0.4086
 6127SOL    HW130014   3.058   3.044   7.266  1.1767 -0.4415 -0.1717
 6127SOL    HW230015   3.082   3.128   7.151 -0.3556  0.4511  1.5177
 6128SOL     OW30016   1.913   0.537  10.706 -0.1462  0.1974  0.8166
 6128SOL    HW130017   1.842   0.509  10.649 -0.1867  0.3320  0.7993
 6128SOL    HW230018   1.892   0.631  10.709 -1.0399 -0.0409  2.4867
 6129SOL     OW30019   3.431   3.420   1.890 -0.0298  0.3042  0.8970
 6129SOL    HW130020   3.438   3.421   1.795  0.1517 -2.7939  0.8834
 6129SOL    HW230021   3.446   3.514   1.903  2.4019 -0.1177  1.1307
 6130SOL     OW30022   4.508   1.062   0.494 -0.3429  0.8707 -0.3020
 6130SOL    HW130023   4.500   1.070   0.399  0.3740  0.6184 -0.3813
 6130SOL    HW230024   4.416   1.066   0.519 -0.4891  0.4900 -0.7679
 6131SOL     OW30025   3.831   1.434  11.639  0.8200 -0.0261 -0.1842
 6131SOL    HW130026   3.837   1.430  11.734  1.1455 -0.9130 -0.2419
 6131SOL    HW230027   3.753   1.488  11.625  0.2167 -0.4620  1.4987
 6132SOL     OW30028   3.902   1.854   8.097 -0.0335  0.4027  0.0607
 6132SOL    HW130029   3.928   1.944   8.114 -0.3021  0.4042  0.4475
 6132SOL    HW230030   3.897   1.855   8.001  0.8806 -0.1697  0.0028
 6133SOL     OW30031   4.309   1.887   8.314 -0.2045  0.0995  0.5500
 6133SOL    HW130032   4.280   1.977   8.299  0.9666  0.4878  0.6059
 6133SOL    HW230033   4.331   1.857   8.226 -0.3954  0.2831  0.4400
 6134SOL     OW30034   2.279   2.689   7.119 -0.2829  0.3798 -0.1451
 6134SOL    HW130035   2.309   2.770   7.078 -0.3821  1.2361  1.4875
 6134SOL    HW230036   2.360   2.640   7.125 -0.3895  0.0300 -1.4975
 6135SOL     OW30037   3.548   1.798   0.028 -0.5448  0.3089 -0.1478
 6135SOL    HW130038   3.478   1.774  17.717 -2.0483  1.7978  1.0218
 6135SOL    HW230039   3.620   1.796  17.714  0.1012  0.7659  0.5644
 6136SOL     OW30040   2.816   3.185   5.914 -0.0847 -0.1260  0.3432
 6136SOL    HW130041   2.908   3.179   5.936  0.2998  1.2813 -0.8458
 6136SOL    HW230042   2.789   3.096   5.891 -1.4119  0.6614 -1.1871
 6137SOL     OW30043   2.537   0.050   5.585 -0.1517 -0.0241  0.2281
 6137SOL    HW130044   2.530   0.059   5.680  3.4082 -1.9300  0.6860
 6137SOL    HW230045   2.468   4.722   5.575 -1.1899  0.8775  1.4587
 6138SOL     OW30046   0.702   3.997   4.929 -0.4963 -0.8234  0.2055
 6138SOL    HW130047   0.792   3.964   4.918  0.7789  2.6883 -0.0170
 6138SOL    HW230048   0.712   4.071   4.989  2.1259 -2.2379  1.5342
 6139SOL     OW30049   0.493   3.034   4.449 -0.2766 -0.2092  0.2014
 6139SOL    HW130050   0.543   2.958   4.481 -0.0277 -0.4028 -0.6450
 6139SOL    HW230051   0.561   3.099   4.431 -1.3480  1.1629  1.1718
 6140SOL     OW30052   4.025   4.267   7.539 -0.2657 -0.0219  0.0114
 6140SOL    HW130053   4.021   4.338   7.603 -2.8344  0.0959 -0.2724
 6140SOL    HW230054   3.934   4.236   7.543 -0.6918  1.6060  2.6810
 6141SOL     OW30055   1.938   0.413  17.087 -0.1111  0.4258  0.0055
 6141SOL    HW130056   1.981   0.429  17.170  0.2868  0.1007 -0.1371
 6141SOL    HW230057   1.869   0.477  17.099 -0.4584 -0.2107  1.3422
 6142SOL     OW30058   3.579   3.981  15.933 -0.0273  0.6862 -0.2585
 6142SOL    HW130059   3.656   3.927  15.946 -2.3994 -2.4102  0.8007
 6142SOL    HW230060   3.601   4.013  15.846  1.8422  0.7774  0.2597
 6143SOL     OW30061   4.400   1.228   4.117 -0.5166 -0.2779  0.0977
 6143SOL    HW130062   4.491   1.200   4.117 -0.9476 -1.6750  0.6871
 6143SOL    HW230063   4.363   1.169   4.052 -0.3150  0.0672 -0.3332
 6144SOL     OW30064   2.335   3.977   2.620 -0.2446 -0.2639  0.2991
 6144SOL    HW130065   2.278   4.028   2.562  0.5704  0.9063  0.5176
 6144SOL    HW230066   2.373   4.049   2.671  1.6519 -0.2768 -1.0514
 6145SOL     OW30067   2.509   2.383   1.956  0.0628 -0.0755  0.1267
 6145SOL    HW130068   2.440   2.338   2.004 -3.0067  3.0830 -1.3157
 6145SOL    HW230069   2.470   2.470   1.953  1.0448  0.2308 -4.1176
 6146SOL     OW30070   1.023   1.272   0.696  0.2751 -0.3135  0.2390
 6146SOL    HW130071   0.962   1.239   0.630 -1.1602 -2.1123  2.4812
 6146SOL    HW230072   1.039   1.187   0.737  0.3549  0.1227  1.1178
 6147SOL     OW30073   2.385   1.310   6.578  0.0073  0.0449 -0.3082
 6147SOL    HW130074   2.316   1.360   6.535 -1.2504  0.0084  1.6725
 6147SOL    HW230075   2.453   1.377   6.587  0.3632 -0.3308 -0.1925
 6148SOL     OW30076   3.840   1.861  17.263  0.0070 -0.4792 -0.2575
 6148SOL    HW130077   3.754   1.895  17.286  1.6558  1.8259  2.4535
 6148SOL    HW230078   3.823   1.768  17.276 -0.5136 -0.0320  2.1620
 6149SOL     OW30079   1.240   1.004  11.838  0.0604  0.0413  0.7030
 6149SOL    HW130080   1.270   0.989  11.928  2.5022 -2.2256 -0.5042
 6149SOL    HW230081   1.312   0.965  11.789 -0.7031 -0.9410  0.3656
 6150SOL     OW30082   1.017   4.652   6.607 -0.2401  0.7022  0.0987
 6150SOL    HW130083   0.946   4.588   6.617 -0.0275  0.7588  2.0255
 6150SOL    HW230084   1.064   4.624   6.529 -0.6047  2.3571 -0.7261
 6151SOL     OW30085   3.358   1.658   2.396  0.5370  0.2296 -0.3212
 6151SOL    HW130086   3.313   1.619   2.322  2.8494 -0.2679 -1.4669
 6151SOL    HW230087   3.429   1.595   2.408 -1.5502 -2.5506 -2.7696
 6152SOL     OW30088   0.811   1.856   7.035 -0.3901  0.7966  0.1468
 6152SOL    HW130089   0.867   1.844   6.958 -0.9906  0.6655 -0.2706
 6152SOL    HW230090   0.730   1.820   6.999  0.8069 -0.5078 -1.2623
 6153SOL     OW30091   4.448   3.648   4.709  0.1308 -0.1307  0.1273
 6153SOL    HW130092   4.427   3.692   4.791  1.2958 -0.8921  0.8459
 6153SOL    HW230093   4.472   3.561   4.742  2.3479  0.2456 -0.4771
 6154SOL     OW30094   2.025   3.082   2.626  0.0287  0.1365 -0.0030
 6154SOL    HW130095   2.005   3.045   2.540  1.1861  1.8221 -1.0024
 6154SOL    HW230096   2.000   3.012   2.686  1.0961 -0.0819  0.1729
 6155SOL     OW30097   3.645   3.166   4.293 -0.4714 -0.1971 -0.3635
 6155SOL    HW130098   3.631   3.077   4.260  0.7152 -0.4091 -0.2709
 6155SOL    HW230099   3.603   3.216   4.223  0.8899  0.0972 -0.9623
 6156SOL     OW30100   4.270   3.214   5.284  0.8663  0.3893  0.1369
 6156SOL    HW130101   4.263   3.119   5.277  2.8056  0.2382  0.4432
 6156SOL    HW230102   4.263   3.234   5.191 -0.5558 -1.3946 -0.1444
 6157SOL     OW30103   2.437   2.872   0.674  0.5731  0.5194  0.4638
 6157SOL    HW130104   2.376   2.799   0.681  0.2137  0.7037 -0.8364
 6157SOL    HW230105   2.513   2.832   0.633  0.8952 -0.4556  2.0232
 6158SOL     OW30106   0.614   3.607   4.326 -0.2041  0.0352  0.0201
 6158SOL    HW130107   0.645   3.516   4.332 -1.3286 -0.4131 -1.0568
 6158SOL    HW230108   0.682   3.648   4.272  1.2319 -0.9647  1.0414
 6159SOL     OW30109   2.805   2.988  14.175 -0.0143 -0.2229 -0.0171
 6159SOL    HW130110   2.838   3.077  14.184 -1.0463  0.0749  0.8393
 6159SOL    HW230111   2.817   2.963  14.266 -1.3742  0.3284  0.3083
 6160SOL     OW30112   4.337   0.793   2.890 -0.4291 -0.1911  0.1779
 6160SOL    HW130113   4.305   0.882   2.877  0.9006  0.1131 -0.9998
 6160SOL    HW230114   4.333   0.780   2.985  0.7695 -0.4413  0.1898
 6161SOL     OW30115   3.354   0.988   6.291 -0.3931 -0.3568  0.1657
 6161SOL    HW130116   3.324   0.903   6.322 -1.2553  0.0349  0.4156
 6161SOL    HW230117   3.275   1.028   6.254 -0.3453 -0.9125 -0.5426
 6162SOL     OW30118   4.656   1.639   0.154  0.1698 -0.3569  0.0285
 6162SOL    HW130119   4.655   1.620   0.060  1.0541 -3.5307  0.6611
 6162SOL    HW230120   0.013   1.634   0.168  0.1510  0.8499  0.6254
 6163SOL     OW30121   4.715   2.809   9.595 -0.2318 -0.1731 -0.0587
 6163SOL    HW130122   4.722   2.724   9.552  0.6719 -0.9081  1.5367
 6163SOL    HW230123   4.649   2.786   9.660  0.3055  0.1044  0.5819
 6164SOL     OW30124   1.674   0.156  16.165 -0.1575 -0.2926  0.0457
 6164SOL    HW130125   1.688   0.148  16.259 -2.2754  0.8831  0.4546
 6164SOL    HW230126   1.759   0.127  16.132  0.8706  0.7880  1.7903
 6165SOL     OW30127   3.024   0.536   9.334  0.0444 -0.2172 -0.0105
 6165SOL    HW130128   3.119   0.541   9.322  0.2186 -3.2005  0.0138
 6165SOL    HW230129   2.996   0.612   9.283 -1.3576 -0.3025  0.6613
 6166SOL     OW30130   1.330   1.963   5.357  0.4801  0.0936 -0.1645
 6166SOL    HW130131   1.320   1.973   5.263 -0.1205 -0.3820 -0.1448
 6166SOL    HW230132   1.296   2.050   5.379  0.4390  0.1496 -0.4515
 6167SOL     OW30133   3.301   3.145   9.193  0.6141  0.2707  0.3912
 6167SOL    HW130134   3.289   3.137   9.288 -0.5389  0.7054  0.2787
 6167SOL    HW230135   3.211   3.154   9.160  0.0224 -0.8887  1.6666
 6168SOL     OW30136   2.676   3.864   6.775 -0.6389 -0.1140 -0.0285
 6168SOL    HW130137   2.704   3.923   6.706  0.5033 -0.8200 -0.1669
 6168SOL    HW230138   2.711   3.923   6.842  1.6246 -0.3011 -1.0577
 6169SOL     OW30139   4.069   2.096   2.272 -0.0641  0.3812 -0.2496
 6169SOL    HW130140   4.063   2.014   2.321  1.5856  0.0906 -0.5515
 6169SOL    HW230141   4.134   2.054   2.217  0.0610 -0.1677  0.3189
 6170SOL     OW30142   3.456   1.590   3.399 -0.3255  0.5202  0.7952
 6170SOL    HW130143   3.447   1.506   3.443 -0.3605 -0.3527 -0.8877
 6170SOL    HW230144   3.402   1.573   3.322  0.7086 -4.0156  1.1115
 6171SOL     OW30145   2.304   0.720   8.012 -0.2155 -0.1467 -0.3258
 6171SOL    HW130146   2.259   0.793   8.055 -0.0021  0.7221 -1.5777
 6171SOL    HW230147   2.260   0.706   7.928 -3.1080  0.9942  0.9914
 6172SOL     OW30148   2.298   0.576   3.844 -0.3501 -0.0672  0.2356
 6172SOL    HW130149   2.248   0.535   3.915 -1.3038  0.4552 -0.1339
 6172SOL    HW230150   2.371   0.614   3.893 -0.0088 -0.0837 -0.2529
 6173SOL     OW30151   1.256   4.134   7.309  0.2226  0.1077  0.2614
 6173SOL    HW130152   1.252   4.228   7.325 -0.9894  0.0562  0.2794
 6173SOL    HW230153   1.298   4.105   7.390  2.2923 -1.1661 -1.2586
 6174SOL     OW30154   2.057   0.457   3.382  0.2818 -0.0852 -0.0699
 6174SOL    HW130155   2.042   0.366   3.406  0.0380  0.2765  1.1550
 6174SOL    HW230156   2.137   0.485   3.427  1.8577  1.7975 -3.9496
 6175SOL     OW30157   2.363   2.940   7.016  0.2520 -0.2088  0.2652
 6175SOL    HW130158   2.450   2.964   7.047  0.1312  1.0387 -0.3631
 6175SOL    HW230159   2.316   3.019   7.043  1.3586  0.8629 -0.9239
 6176SOL     OW30160   0.599   4.560  10.911  0.0154 -0.0699  0.5318
 6176SOL    HW130161   0.652   4.519  10.979 -0.3908 -0.0276  0.8716
 6176SOL    HW230162   0.563   4.482  10.870 -0.7432  1.0542 -0.9791
 6177SOL     OW30163   1.623   2.921   7.289 -0.3690 -0.4847  0.2144
 6177SOL    HW130164   1.706   2.956   7.319 -1.1997  0.8458  0.9490
 6177SOL    HW230165   1.632   2.831   7.321  2.6499 -0.1395  0.2876
 6178SOL     OW30166   2.378   1.790   8.876 -0.0902 -0.1692 -0.2537
 6178SOL    HW130167   2.422   1.794   8.961  1.1023 -0.6399 -0.8472
 6178SOL    HW230168   2.438   1.747   8.815  2.1139 -3.0994  3.9299
 6179SOL     OW30169   3.616   3.053   5.109  0.3124 -0.2283 -0.0150
 6179SOL    HW130170   3.670   3.045   5.188  0.8272 -1.0772 -0.4529
 6179SOL    HW230171   3.599   3.147   5.106 -0.1184 -0.2053  2.6925
 6180SOL     OW30172   0.975   3.313   8.245  0.1551 -0.4219  0.3610
 6180SOL    HW130173   0.984   3.384   8.308 -2.5196 -0.0669  0.3318
 6180SOL    HW230174   0.930   3.344   8.167 -1.1275 -2.7906  0.1766
 6181SOL     OW30175   0.859   0.498   3.409 -0.2087 -0.0553 -0.4494
 6181SOL    HW130176   0.788   0.456   3.360 -0.5047 -1.0707  0.8334
 6181SOL    HW230177   0.803   0.529   3.480 -0.8788 -1.7880 -0.2039
 6182SOL     OW30178   3.178   3.676  13.037  0.0641  0.3946  0.4350
 6182SOL    HW130179   3.234   3.605  13.005  0.4984  0.6334  0.6728
 6182SOL    HW230180   3.189   3.744  12.971  2.0529 -0.4904 -0.1331
 6183SOL     OW30181   0.011   2.160   6.786 -0.1063 -0.6211  0.6944
 6183SOL    HW130182   0.026   2.093   6.853 -0.5465 -2.5203 -1.1187
 6183SOL    HW230183   4.664   2.197   6.811 -0.3299 -0.0223 -0.9760
 6184SOL     OW30184   0.357   4.643   8.231 -0.2618  0.1155  0.5970
 6184SOL    HW130185   0.294   4.709   8.201  1.0519  0.8633 -0.4851
 6184SOL    HW230186   0.344   4.583   8.158 -1.4836  0.5486  0.4597
 6185SOL     OW30187   4.492   4.320   9.557  0.1480  0.5267  0.7820
 6185SOL    HW130188   4.577   4.360   9.539 -0.7150  1.4476 -1.2238
 6185SOL    HW230189   4.483   4.332   9.652 -0.3863  2.3235  0.4944
 6186SOL     OW30190   0.003   0.113   7.778 -0.8240 -0.0124 -0.3659
 6186SOL    HW130191   0.038   0.168   7.708 -0.2817 -0.7354 -0.6633
 6186SOL    HW230192   0.068   0.045   7.797 -1.5349 -0.5339  0.1981
 6187SOL     OW30193   4.137   4.508   2.003  0.0553  0.1874 -0.7006
 6187SOL    HW130194   4.072   4.573   1.976  0.7360  1.0004 -0.3867
 6187SOL    HW230195   4.078   4.459   2.061 -1.4385  0.3869 -2.0574
 6188SOL     OW30196   1.889   3.188   3.326  0.1097  0.2356 -0.0135
 6188SOL    HW130197   1.813   3.245   3.317  1.7233  2.5834  1.0825
 6188SOL    HW230198   1.927   3.202   3.239  0.9330  0.3192  0.3602
 6189SOL     OW30199   2.812   4.289   6.737 -0.1380  0.4474  0.0796
 6189SOL    HW130200   2.726   4.331   6.728 -0.1961  0.7270  2.0419
 6189SOL    HW230201   2.819   4.291   6.832 -2.0931  0.7081  0.2138
 6190SOL     OW30202   1.062   1.909   3.267 -0.0404 -0.0764  0.5658
 6190SOL    HW130203   1.120   1.833   3.271  1.1064  0.8159  0.7485
 6190SOL    HW230204   0.989   1.875   3.214  1.0791 -0.2574 -0.8563
 6191SOL     OW30205   2.011   1.031  12.539 -0.0609 -0.4625 -0.1949
 6191SOL    HW130206   2.107   1.028  12.536 -0.1307 -1.9984 -0.7911
 6191SOL    HW230207   1.979   0.970  12.472  1.2988  0.3774 -1.5999
 6192SOL     OW30208   3.464   2.909  11.247  0.2139 -0.5596  0.1740
 6192SOL    HW130209   3.488   2.880  11.159  0.9079 -2.2047  0.9039
 6192SOL    HW230210   3.479   3.004  11.242  0.5564 -0.5685  1.0782
 6193SOL     OW30211   0.747   1.541   5.693  0.1388  0.1256  0.1818
 6193SOL    HW130212   0.744   1.459   5.644 -0.8083 -0.0023  0.4468
 6193SOL    HW230213   0.814   1.519   5.757  1.9240 -1.7543 -2.3473
 6194SOL     OW30214   3.070   2.917   6.926  0.0841 -0.4197 -0.0209
 6194SOL    HW130215   3.113   2.987   6.877  1.0274 -1.5325 -0.7826
 6194SOL    HW230216   3.064   2.954   7.014 -3.7104 -0.4005 -0.2650
 6195SOL     OW30217   2.945   3.488   4.428 -0.0509  0.7934  0.6899
 6195SOL    HW130218   3.022   3.483   4.486  0.9458  0.7607 -0.6463
 6195SOL    HW230219   2.976   3.431   4.358  0.1103  1.6591  0.0668
 6196SOL     OW30220   1.401   2.624  14.095  0.2442 -0.2761 -0.3549
 6196SOL    HW130221   1.350   2.671  14.028 -0.0783 -0.7740 -0.4557
 6196SOL    HW230222   1.341   2.550  14.099 -0.0240 -0.0331  0.2260
 6197SOL     OW30223   0.540   3.186   5.931  0.1821  0.0991  0.1745
 6197SOL    HW130224   0.577   3.098   5.938 -0.2069 -0.2359 -1.9053
 6197SOL    HW230225   0.464   3.169   5.875  0.2525 -0.9929  0.4060
 6198SOL     OW30226   4.164   0.118   8.293 -1.0815 -0.1230  0.5033
 6198SOL    HW130227   4.151   0.037   8.343  0.5800  0.2613  1.5815
 6198SOL    HW230228   4.070   0.133   8.288 -0.4187  2.0308 -4.8098
 6199SOL     OW30229   0.039   3.776   2.370 -0.4407 -0.1110 -0.1072
 6199SOL    HW130230   0.029   3.803   2.279 -0.6119  0.8129  0.1910
 6199SOL    HW230231   4.703   3.816   2.417 -1.7227 -3.3822  0.7251
 6200SOL     OW30232   1.241   2.377   2.592 -0.4141 -0.1170  0.4327
 6200SOL    HW130233   1.302   2.305   2.606 -1.9496 -1.0199  2.6091
 6200SOL    HW230234   1.223   2.380   2.498  2.1112  0.6344 -0.0209
 6201SOL     OW30235   1.945   1.108   7.689  0.0843 -0.1417 -0.1370
 6201SOL    HW130236   1.930   1.119   7.595  1.5644  0.6018 -0.2885
 6201SOL    HW230237   1.967   1.016   7.680 -0.4617 -0.3546  0.7355
 6202SOL     OW30238   0.907   0.416   0.533 -0.6264 -0.4460 -0.0657
 6202SOL    HW130239   0.866   0.340   0.574 -0.3601 -0.8290 -0.5088
 6202SOL    HW230240   0.856   0.486   0.573  2.1913  1.0211  0.9842
 6203SOL     OW30241   2.958   4.649  15.900 -0.3099  0.3077  0.5339
 6203SOL    HW130242   2.866   4.622  15.906 -0.7483  1.6092 -0.6183
 6203SOL    HW230243   2.956   4.707  15.825  1.9439  0.1547  0.3560
 6204SOL     OW30244   2.754   0.237   7.198 -0.1056 -0.2225  0.4012
 6204SOL    HW130245   2.784   0.153   7.233  1.7172  0.5469  0.7152
 6204SOL    HW230246   2.806   0.305   7.242  1.2326 -0.7188 -0.3985
 6205SOL     OW30247   1.014   0.320   6.240 -0.2171 -0.2605  0.7679
 6205SOL    HW130248   0.920   0.323   6.255  0.0175  1.9328  1.7120
 6205SOL    HW230249   1.024   0.224   6.245  2.2551 -0.0179  0.3475
 6206SOL     OW30250   1.521   0.262   7.660 -0.6363 -0.2228  0.4859
 6206SOL    HW130251   1.569   0.343   7.642 -2.7468  0.5656 -1.5346
 6206SOL    HW230252   1.528   0.249   7.755 -0.6902 -2.5219  0.1659
 6207SOL     OW30253   4.533   3.889  14.283  0.0974 -0.6016 -0.1912
 6207SOL    HW130254   4.511   3.960  14.343  2.8876  0.0689  0.0378
 6207SOL    HW230255   4.453   3.888  14.231 -1.4427  1.0048  2.1987
 6208SOL     OW30256   0.248   0.537   9.377  0.5057 -0.8324  0.6712
 6208SOL    HW130257   0.263   0.624   9.341 -0.0855 -0.5326  1.1497
 6208SOL    HW230258   0.159   0.546   9.411  1.0993  1.7004  1.5314
 6209SOL     OW30259   4.190   2.999  12.037 -0.1914 -0.1148  0.0626
 6209SOL    HW130260   4.242   2.935  12.085 -1.3729 -0.2950  1.0807
 6209SOL    HW230261   4.197   2.980  11.943  0.7394  0.6789 -0.0361
 6210SOL     OW30262   2.194   0.615   6.638  0.5574 -0.1417  1.0143
 6210SOL    HW130263   2.170   0.701   6.670  0.7485  0.1176  0.4650
 6210SOL    HW230264   2.201   0.634   6.544 -4.5914  2.7132  1.2327
 6211SOL     OW30265   2.455   2.328   3.312  0.0043  0.3160 -0.4207
 6211SOL    HW130266   2.520   2.301   3.377 -1.4052 -2.3694 -0.1332
 6211SOL    HW230267   2.503   2.392   3.260 -0.5141 -0.9347 -2.4224
 6212SOL     OW30268   3.879   0.906   5.512 -0.0553 -0.2527 -0.3781
 6212SOL    HW130269   3.852   0.818   5.486  1.3854 -0.9738  0.5467
 6212SOL    HW230270   3.806   0.926   5.572  1.4460 -0.1120  1.4145
 6213SOL     OW30271   2.136   4.509   6.630 -0.2021 -0.1391  0.2215
 6213SOL    HW130272   2.092   4.564   6.695 -3.3276  0.6411 -2.5575
 6213SOL    HW230273   2.080   4.533   6.556  0.6505 -1.4318 -0.8525
 6214SOL     OW30274   0.885   2.807   7.986 -0.1550  0.1262  0.5305
 6214SOL    HW130275   0.980   2.797   7.981 -0.1984 -0.3653  0.6557
 6214SOL    HW230276   0.872   2.894   7.948 -0.1373 -0.1058 -0.0007
 6215SOL     OW30277   1.755   0.606   4.756 -0.3513  0.0686  0.6133
 6215SOL    HW130278   1.788   0.695   4.763 -0.5596  0.0922  1.3495
 6215SOL    HW230279   1.674   0.594   4.806 -0.3291  3.4735  1.4177
 6216SOL     OW30280   1.570   3.120   4.933  0.0766 -0.3803  0.4163
 6216SOL    HW130281   1.600   3.165   4.853 -0.4911 -0.2747  0.2661
 6216SOL    HW230282   1.558   3.197   4.989  1.5641  0.7438 -0.7914
 6217SOL     OW30283   1.580   1.070  10.559 -0.2885 -0.1802  0.7352
 6217SOL    HW130284   1.616   1.020  10.632  1.5991  0.6459  0.3711
 6217SOL    HW230285   1.492   1.034  10.557 -0.2117 -0.3490  0.4228
 6218SOL     OW30286   1.226   2.002  15.063 -0.3989  0.2089 -0.8754
 6218SOL    HW130287   1.277   2.022  15.141  0.5304  1.8774 -1.9202
 6218SOL    HW230288   1.305   1.977  15.016 -2.0239 -2.8850 -1.9198
 6219SOL     OW30289   1.078   2.575   3.015 -0.5115 -0.1655  0.7940
 6219SOL    HW130290   1.139   2.503   2.997  0.6438  0.4209  2.3162
 6219SOL    HW230291   1.004   2.517   3.034 -0.5169  0.4532  2.6565
 6220SOL     OW30292   1.021   1.012   9.936 -0.3643 -0.4368 -0.4348
 6220SOL    HW130293   0.940   0.961   9.944 -1.3285  1.5476  2.3983
 6220SOL    HW230294   1.025   1.046   9.847  1.6420 -0.0403 -0.1889
 6221SOL     OW30295   3.288   2.429  15.705  0.1177 -0.2460  0.2306
 6221SOL    HW130296   3.351   2.358  15.716 -0.2698 -0.8897 -1.7071
 6221SOL    HW230297   3.256   2.411  15.616 -0.1633 -0.0130  0.2827
 6222SOL     OW30298   1.417   4.063  13.563 -0.6836  0.3944 -0.1275
 6222SOL    HW130299   1.423   4.044  13.469 -1.8124  0.5779 -0.2380
 6222SOL    HW230300   1.380   4.151  13.557  1.3318  1.2662  0.3081
 6223SOL     OW30301   4.613   1.012   1.851 -0.1865 -0.3635  0.4030
 6223SOL    HW130302   4.665   0.951   1.799  1.6249 -1.5921  3.6607
 6223SOL    HW230303   4.602   1.088   1.793  2.4569  0.4148  0.9315
 6224SOL     OW30304   3.120   2.301  11.253 -0.1955  1.1019 -0.4277
 6224SOL    HW130305   3.033   2.333  11.230 -0.6392  1.3493  1.5787
 6224SOL    HW230306   3.167   2.362  11.197  1.4135  0.6812  0.4672
 6225SOL     OW30307   4.343   0.054   3.312 -0.2470  0.3921  0.4278
 6225SOL    HW130308   4.420   0.049   3.255 -0.5090  1.7704 -0.0450
 6225SOL    HW230309   4.372   0.120   3.376  4.6900 -0.0956 -1.2767
 6226SOL     OW30310   2.085   1.695   8.688 -0.4187 -0.0346 -0.0387
 6226SOL    HW130311   2.137   1.645   8.751 -1.0483 -0.6774 -0.0245
 6226SOL    HW230312   2.149   1.716   8.620 -2.3195  2.1608 -1.1315
 6227SOL     OW30313   0.384   3.718  11.488 -0.2402 -0.1122 -0.0515
 6227SOL    HW130314   0.368   3.636  11.441  1.1080 -0.5055  0.1843
 6227SOL    HW230315   0.455   3.692  11.546 -1.4633  0.4110  1.7043
 6228SOL     OW30316   2.063   3.348   0.827 -0.1587  0.8157 -0.6852
 6228SOL    HW130317   2.051   3.256   0.806 -2.8876  0.7113  1.2694
 6228SOL    HW230318   1.968   3.357   0.820 -0.2257  2.5825  2.3261
 6229SOL     OW30319   3.450   1.013   5.839 -0.1688  0.8265 -0.2811
 6229SOL    HW130320   3.427   1.085   5.781 -1.3768  0.3781 -0.3655
 6229SOL    HW230321   3.381   0.951   5.815  1.9696 -1.1740 -1.3052
 6230SOL     OW30322   3.289   3.810   6.595 -0.0183  0.0610  0.2163
 6230SOL    HW130323   3.292   3.896   6.553  0.1637  0.0833  0.2756
 6230SOL    HW230324   3.348   3.759   6.539  0.3152  2.3272 -1.5410
 6231SOL     OW30325   0.380   1.073   4.985 -0.1321  0.3283 -0.0516
 6231SOL    HW130326   0.351   1.137   4.921 -0.1365 -1.0986 -1.4576
 6231SOL    HW230327   0.320   1.003   4.960  0.3763 -0.5169  1.1018
 6232SOL     OW30328   0.302   4.667  16.637  0.2112 -0.1128  0.1192
 6232SOL    HW130329   0.338   4.624  16.560 -1.6062  1.4010 -1.5755
 6232SOL    HW230330   0.350   4.616  16.702 -1.3120 -1.4990  0.1388
 6233SOL     OW30331   0.252   4.184  16.189  0.4896 -0.1302  0.3758
 6233SOL    HW130332   0.164   4.156  16.216 -0.2717  1.0241 -0.8629
 6233SOL    HW230333   0.283   4.101  16.152  1.0364 -0.1424  0.8710
 6234SOL     OW30334   4.722   0.333   4.000  0.2365 -0.0763  0.5773
 6234SOL    HW130335   4.638   0.377   3.987  0.3311 -0.3230 -0.9171
 6234SOL    HW230336   4.714   0.238   3.985  3.0527 -0.2825  0.5332
 6235SOL     OW30337   1.968   0.019   9.620 -1.0560  0.1715  0.4222
 6235SOL    HW130338   1.935   0.076   9.689 -0.0145  2.2499 -0.8120
 6235SOL    HW230339   2.061   0.018   9.642 -0.7773  0.0594 -0.7602
 6236SOL     OW30340   3.356   1.263  14.203 -0.0001  0.4346  0.5599
 6236SOL    HW130341   3.333   1.353  14.227 -2.9863 -0.3866  0.7873
 6236SOL    HW230342   3.329   1.263  14.112  2.0998 -2.2022 -0.0539
 6237SOL     OW30343   3.639   2.034   5.209  0.6269 -0.1141 -0.0472
 6237SOL    HW130344   3.631   1.964   5.145  0.6303 -0.2938  0.1472
 6237SOL    HW230345   3.591   1.992   5.280  1.0379  0.2690  0.4632
 6238SOL     OW30346   3.971   3.689  12.220  0.0416 -0.0885 -0.0043
 6238SOL    HW130347   4.039   3.623  12.222  1.2256  1.1297 -0.3261
 6238SOL    HW230348   3.967   3.716  12.312  1.2221 -0.5260  0.1724
 6239SOL     OW30349   1.719   3.273   6.117  0.1760 -0.0258 -0.4379
 6239SOL    HW130350   1.805   3.296   6.154  0.2318 -0.8211 -0.0724
 6239SOL    HW230351   1.695   3.355   6.073 -0.0533  0.0203 -0.2302
 6240SOL     OW30352   3.445   1.854   1.525 -0.5478  0.1528 -0.0961
 6240SOL    HW130353   3.514   1.875   1.463  0.4023  0.6049  1.0992
 6240SOL    HW230354   3.468   1.920   1.592 -0.6136  1.1379 -1.0425
 6241SOL     OW30355   4.421   0.278   3.800 -0.7581 -0.5227  0.2278
 6241SOL    HW130356   4.388   0.189   3.813 -1.2095 -0.5594 -1.1977
 6241SOL    HW230357   4.412   0.306   3.891 -3.0570  0.2685 -0.2253
 6242SOL     OW30358   4.386   2.513   2.815 -0.2332 -0.3238 -0.3597
 6242SOL    HW130359   4.327   2.489   2.743  0.3129 -1.9568 -0.2631
 6242SOL    HW230360   4.451   2.550   2.755 -2.0579  3.4542  0.0034
 6243SOL     OW30361   1.682   3.180   2.485  0.0068 -0.1803  0.4043
 6243SOL    HW130362   1.618   3.112   2.509 -0.7189 -0.3468 -1.9406
 6243SOL    HW230363   1.679   3.228   2.567 -0.4307 -1.3939  1.1022
 6244SOL     OW30364   0.816   1.351  15.311  0.4240  0.9191 -0.3942
 6244SOL    HW130365   0.784   1.341  15.222  1.0949 -1.6454 -0.3592
 6244SOL    HW230366   0.737   1.348  15.366 -0.0271 -0.3584 -1.1072
 6245SOL     OW30367   3.585   4.527   8.713 -0.1586  0.4604  0.2304
 6245SOL    HW130368   3.550   4.557   8.629  0.3405  2.0571  0.5836
 6245SOL    HW230369   3.510   4.560   8.763 -0.5114  1.2630 -0.8347
 6246SOL     OW30370   3.247   0.611  10.177  0.0054 -0.5014  0.3676
 6246SOL    HW130371   3.313   0.657  10.228 -1.0506 -0.0553  1.3246
 6246SOL    HW230372   3.168   0.656  10.208 -0.4270 -0.9079 -0.1408
 6247SOL     OW30373   3.409   4.119  16.106 -0.1227  0.1808 -0.9311
 6247SOL    HW130374   3.335   4.116  16.046 -0.4096 -2.4571 -0.4723
 6247SOL    HW230375   3.479   4.075  16.056 -1.5689 -1.9494 -1.0721
 6248SOL     OW30376   2.335   0.512   3.470  0.7968 -0.2038 -0.1011
 6248SOL    HW130377   2.324   0.563   3.551 -0.2827  0.6171 -0.7738
 6248SOL    HW230378   2.400   0.566   3.425  0.2678  1.1223  0.7212
 6249SOL     OW30379   4.143   3.865   9.636 -0.1292  0.0756 -0.0768
 6249SOL    HW130380   4.060   3.904   9.665 -0.8405  0.2186 -2.2780
 6249SOL    HW230381   4.191   3.941   9.604 -1.0303 -0.2266 -2.1399
 6250SOL     OW30382   1.197   2.193   5.386 -0.1680 -0.4775  0.3045
 6250SOL    HW130383   1.125   2.145   5.344  1.9042 -2.9896 -0.3380
 6250SOL    HW230384   1.217   2.269   5.330 -0.2199 -2.0154 -1.7938
 6251SOL     OW30385   1.811   1.173   6.456 -0.0351  0.0140  0.3339
 6251SOL    HW130386   1.869   1.150   6.384  0.9361  0.8469  0.8495
 6251SOL    HW230387   1.738   1.211   6.407 -0.4108 -1.8645 -0.5457
 6252SOL     OW30388   3.993   1.353   1.107 -0.2813  0.5697 -0.7444
 6252SOL    HW130389   4.026   1.431   1.063  2.8892 -1.1889 -1.5072
 6252SOL    HW230390   3.932   1.325   1.039 -0.7219  1.1167 -0.5743
 6253SOL     OW30391   3.564   1.876   3.464 -0.1273  0.1058  0.0458
 6253SOL    HW130392   3.648   1.869   3.510 -0.5634  1.1317  0.9706
 6253SOL    HW230393   3.535   1.785   3.456  0.4438  0.0525 -1.5334
 6254SOL     OW30394   2.020   1.829   8.192  0.3097 -0.4979 -0.7440
 6254SOL    HW130395   2.010   1.779   8.273  0.3673 -0.2333 -0.5725
 6254SOL    HW230396   1.955   1.891   8.223 -0.0139 -0.9637 -0.4963
 6255SOL     OW30397   1.678   4.011   2.493 -0.1020  0.1714 -0.0152
 6255SOL    HW130398   1.773   4.001   2.498 -0.0152  1.1750  0.3920
 6255SOL    HW230399   1.675   4.083   2.429 -1.1525  1.3140  1.3081
 6256SOL     OW30400   0.820   1.101  10.784  0.1218  0.1232  0.2644
 6256SOL    HW130401   0.858   1.017  10.758  1.6966  1.0532 -0.4438
 6256SOL    HW230402   0.741   1.060  10.819 -1.1834  1.4538 -1.1323
 6257SOL     OW30403   0.993   0.184   9.098 -0.2236  0.3260  0.0417
 6257SOL    HW130404   0.951   0.190   9.184 -2.8394  3.5286 -1.4358
 6257SOL    HW230405   1.072   0.237   9.101 -0.1445  0.4274 -3.9850
 6258SOL     OW30406   4.707   1.335  12.505  0.0049 -0.1327 -0.1911
 6258SOL    HW130407   4.680   1.317  12.595  0.2936  2.9831  0.5152
 6258SOL    HW230408   4.663   1.265  12.456 -0.1986 -0.0470 -0.1302
 6259SOL     OW30409   0.355   1.023  17.081  0.1888  0.3374 -0.0204
 6259SOL    HW130410   0.301   0.949  17.109  1.5591 -0.8178 -0.4259
 6259SOL    HW230411   0.441   0.998  17.114  0.6844  1.9014 -0.1209
 6260SOL     OW30412   2.128   3.822   9.679  0.2307 -0.4595 -0.3384
 6260SOL    HW130413   2.092   3.842   9.592  0.3667 -2.0882 -0.7628
 6260SOL    HW230414   2.060   3.763   9.713 -1.9445  0.7411 -2.5530
 6261SOL     OW30415   0.630   2.068  14.575 -0.0286 -0.5073 -0.2027
 6261SOL    HW130416   0.666   1.998  14.630 -0.1354 -0.9072 -0.6360
 6261SOL    HW230417   0.697   2.054  14.508  0.9502 -2.2320  1.1330
 6262SOL     OW30418   1.098   4.521   8.664 -0.0733  0.1790 -0.4954
 6262SOL    HW130419   1.192   4.523   8.650 -0.0265  1.2069 -0.0596
 6262SOL    HW230420   1.097   4.558   8.752  0.0627 -1.6061  0.2647
 6263SOL     OW30421   0.698   0.013   5.240  0.6234 -0.2757 -0.4052
 6263SOL    HW130422   0.686   0.052   5.327  2.2210  0.8012 -0.6648
 6263SOL    HW230423   0.667   4.661   5.249 -1.1371  0.4184  0.5842
 6264SOL     OW30424   2.823   0.916   2.736  0.3882  0.1941 -0.3875
 6264SOL    HW130425   2.825   0.866   2.655  0.4111 -1.7192  0.7988
 6264SOL    HW230426   2.731   0.927   2.761 -0.0887 -1.1088 -1.5963
 6265SOL     OW30427   1.673   2.461   9.879  0.6832  0.8365  0.3122
 6265SOL    HW130428   1.761   2.466   9.842  0.8174  0.3046  0.5682
 6265SOL    HW230429   1.678   2.370   9.907  1.7015  0.3988 -1.2804
 6266SOL     OW30430   1.136   1.851   4.203  0.2352 -0.2589 -0.4752
 6266SOL    HW130431   1.079   1.785   4.163  2.4557 -1.3238 -1.8928
 6266SOL    HW230432   1.121   1.829   4.295  0.4513 -1.9515 -0.8306
 6267SOL     OW30433   1.218   1.057   2.566  0.5756 -0.9040  0.6172
 6267SOL    HW130434   1.145   1.075   2.507  1.6968 -0.3452 -0.6075
 6267SOL    HW230435   1.179   1.073   2.652 -0.8680  1.6826 -0.5349
 6268SOL     OW30436   4.725   3.682   6.751  0.4435 -0.2970  0.4710
 6268SOL    HW130437   4.728   3.656   6.843  1.2850 -0.2971  0.4365
 6268SOL    HW230438   4.630   3.686   6.737  0.4133  0.2345  0.8233
 6269SOL     OW30439   0.741   4.239   0.599 -0.2835 -0.1264 -0.3125
 6269SOL    HW130440   0.820   4.200   0.635 -0.1981  0.8016  0.4936
 6269SOL    HW230441   0.780   4.285   0.524 -0.5674  1.6569  0.6333
 6270SOL     OW30442   1.638   3.744  10.530 -0.4152  0.0305 -0.7051
 6270SOL    HW130443   1.634   3.711  10.620  2.1270  0.0877 -0.5696
 6270SOL    HW230444   1.547   3.723  10.508 -1.3646  1.3484  1.8540
 6271SOL     OW30445   1.018   4.334   8.357 -0.1193 -0.0752  0.1530
 6271SOL    HW130446   1.023   4.288   8.441 -2.3332 -0.5234  0.0312
 6271SOL    HW230447   1.107   4.315   8.329 -0.3250 -0.0682 -0.4950
 6272SOL     OW30448   1.965   1.095   7.072 -0.1841 -0.5471 -0.4792
 6272SOL    HW130449   1.876   1.125   7.090 -0.1050 -1.5823  1.5826
 6272SOL    HW230450   1.959   1.000   7.078  1.0425 -0.6627 -1.1139
 6273SOL     OW30451   0.364   1.076   2.603  0.1172  0.1223 -0.1900
 6273SOL    HW130452   0.386   1.084   2.510 -0.7379  1.9591 -0.2360
 6273SOL    HW230453   0.283   1.024   2.601 -0.0151  0.2635  1.6994
 6274SOL     OW30454   1.887   0.095   6.529  0.2241 -0.2154 -0.2730
 6274SOL    HW130455   1.797   0.062   6.526 -0.2533  0.9311  1.0216
 6274SOL    HW230456   1.927   0.023   6.481  0.2148 -0.7637  0.5534
 6275SOL     OW30457   3.194   2.816  11.334  0.1474  0.1435  0.0622
 6275SOL    HW130458   3.269   2.873  11.317 -1.3961  2.4647  1.1135
 6275SOL    HW230459   3.237   2.730  11.332  1.1705  0.6545  0.4206
 6276SOL     OW30460   4.557   0.929   8.704 -0.2939 -0.0042 -0.3122
 6276SOL    HW130461   4.597   0.900   8.622  1.4375  0.6317  0.3106
 6276SOL    HW230462   4.475   0.880   8.714  0.0913 -0.5631  0.1147
 6277SOL     OW30463   0.724   1.193   2.677  0.3859  0.1337 -0.2340
 6277SOL    HW130464   0.754   1.118   2.626  0.6615  0.0701  0.0181
 6277SOL    HW230465   0.705   1.254   2.606 -1.2187  0.3070  0.3396
 6278SOL     OW30466   3.343   2.318   1.072 -1.0883 -0.1255 -0.0529
 6278SOL    HW130467   3.285   2.248   1.042 -2.4204  1.6972 -1.6525
 6278SOL    HW230468   3.318   2.392   1.017  0.5279 -0.9866 -1.9783
 6279SOL     OW30469   3.739   0.693   4.134  0.4311  0.3674  0.5466
 6279SOL    HW130470   3.773   0.766   4.083 -0.7499 -0.9332 -2.0939
 6279SOL    HW230471   3.650   0.728   4.140  0.6580  0.6958  2.0286
 6280SOL     OW30472   1.667   2.847   4.919  0.0275  0.7113 -0.0549
 6280SOL    HW130473   1.751   2.875   4.956  0.2112 -0.7100  0.6254
 6280SOL    HW230474   1.640   2.939   4.915 -1.6263  0.1609 -1.4249
 6281SOL     OW30475   3.990   0.531   5.665 -0.1111  0.1680  0.0783
 6281SOL    HW130476   4.084   0.523   5.679  0.0889  0.6178 -1.0386
 6281SOL    HW230477   3.969   0.593   5.734  1.0906 -0.5196  1.0632
 6282SOL     OW30478   0.804   0.303   4.639  0.2597  0.1483  0.2821
 6282SOL    HW130479   0.733   0.358   4.606 -0.8785  0.4733  3.2864
 6282SOL    HW230480   0.836   0.359   4.710  1.0826 -0.4331  0.3772
 6283SOL     OW30481   3.343   1.274  10.931  0.0113 -0.4097  0.8295
 6283SOL    HW130482   3.270   1.263  10.992 -0.4475 -1.0529  0.1568
 6283SOL    HW230483   3.296   1.276  10.848 -0.0630 -1.0537  0.8562
 6284SOL     OW30484   1.179   0.917   4.719  0.0693 -0.5157 -0.2797
 6284SOL    HW130485   1.170   0.827   4.687 -0.8732 -0.6012  0.2295
 6284SOL    HW230486   1.171   0.971   4.641  1.3001  2.1751  1.4455
 6285SOL     OW30487   4.163   0.606   4.975 -0.0255 -0.3938 -0.0654
 6285SOL    HW130488   4.130   0.546   5.041 -0.2394  0.8348  0.9490
 6285SOL    HW230489   4.130   0.686   5.016 -0.9056  0.5520 -2.6090
 6286SOL     OW30490   3.008   1.930   6.083  0.4007  0.0294  0.1239
 6286SOL    HW130491   2.995   1.855   6.026  0.5324  0.9979 -1.1830
 6286SOL    HW230492   2.937   1.910   6.144 -0.1747  2.2238  0.1968
 6287SOL     OW30493   4.130   3.403   3.455 -0.4001  0.2327 -0.3552
 6287SOL    HW130494   4.171   3.324   3.419 -2.7275 -1.5851  0.9334
 6287SOL    HW230495   4.068   3.429   3.387  0.0783 -4.4568 -2.6079
 6288SOL     OW30496   2.885   3.549   5.328  0.4130  0.4945  0.6681
 6288SOL    HW130497   2.942   3.539   5.404  0.8739  2.4196  0.5731
 6288SOL    HW230498   2.828   3.618   5.361 -0.9769  0.0965 -0.9028
 6289SOL     OW30499   1.713   4.722  17.378 -0.1774  0.1221  0.0509
 6289SOL    HW130500   1.760   0.055  17.421  0.8929 -0.4997 -0.0957
 6289SOL    HW230501   1.778   4.701  17.311  1.7063 -0.6341  2.0954
 6290SOL     OW30502   0.352   1.757  17.748 -0.0246 -0.6321  0.2078
 6290SOL    HW130503   0.280   1.817  17.731  0.2318 -0.5299 -0.5358
 6290SOL    HW230504   0.346   1.702  17.669  0.8744 -1.3236  0.6158
 6291SOL     OW30505   2.327   1.230   1.559  0.1569  0.0646 -0.2725
 6291SOL    HW130506   2.339   1.218   1.465 -0.2882  1.7825 -0.5454
 6291SOL    HW230507   2.410   1.192   1.588 -0.5851 -0.7534  0.7877
 6292SOL     OW30508   2.723   1.312   9.142 -1.3097 -1.0848  0.1277
 6292SOL    HW130509   2.745   1.390   9.193 -0.2862 -0.5563 -1.1254
 6292SOL    HW230510   2.814   1.300   9.117 -2.1361  1.2142 -4.1202
 6293SOL     OW30511   1.115   4.684   6.859 -0.1453 -0.7542  0.2435
 6293SOL    HW130512   1.086   4.674   6.769 -0.1708 -0.7026  0.2463
 6293SOL    HW230513   1.207   4.705   6.850  0.0297 -1.5842  0.0866
 6294SOL     OW30514   4.322   2.169   4.551  0.3342 -0.0706  0.1827
 6294SOL    HW130515   4.401   2.117   4.537  2.6724  2.9923  1.9426
 6294SOL    HW230516   4.313   2.225   4.474  0.0802  0.6226  0.7173
 6295SOL     OW30517   2.572   0.277   8.084 -0.4450 -0.6781 -0.2931
 6295SOL    HW130518   2.522   0.354   8.057  1.0076  0.9289  1.5975
 6295SOL    HW230519   2.562   0.264   8.179 -0.0749 -1.8266 -0.4085
 6296SOL     OW30520   2.214   3.433   3.929  0.1802 -0.3463  0.1388
 6296SOL    HW130521   2.206   3.338   3.942 -0.2931 -0.3166  0.0553
 6296SOL    HW230522   2.135   3.457   3.881  1.7480  0.5673 -1.9820
 6297SOL     OW30523   0.250   2.757   2.842 -0.0651  0.1696 -0.3057
 6297SOL    HW130524   0.218   2.816   2.911 -0.3532 -0.5938  0.2150
 6297SOL    HW230525   0.171   2.732   2.794 -0.2476  0.0924  0.0350
 6298SOL     OW30526   1.926   1.364   3.115 -0.0479 -0.1309 -0.2919
 6298SOL    HW130527   1.942   1.458   3.117 -0.5922 -0.0086 -1.8659
 6298SOL    HW230528   1.899   1.336   3.203 -2.2173 -0.4375 -1.0426
 6299SOL     OW30529   0.976   3.835   9.730 -0.0965  0.5062 -0.2646
 6299SOL    HW130530   0.907   3.848   9.665  0.7796  2.4449 -0.8123
 6299SOL    HW230531   1.012   3.752   9.699  1.6038  0.7233  1.0908
 6300SOL     OW30532   3.012   2.361   9.842 -0.1890 -0.1333  0.3173
 6300SOL    HW130533   3.090   2.304   9.845 -0.3363 -0.3875 -0.4905
 6300SOL    HW230534   3.033   2.424   9.773 -2.1572 -1.2557 -1.3106
 6301SOL     OW30535   1.634   0.188   5.363  0.1553  0.3070  0.0082
 6301SOL    HW130536   1.726   0.175   5.342 -0.0717  0.0830 -0.8698
 6301SOL    HW230537   1.633   0.284   5.361 -2.3937  0.3061  0.6244
 6302SOL     OW30538   0.599   2.534   4.996  0.0843  0.0158  0.4074
 6302SOL    HW130539   0.558   2.514   5.080 -2.1276 -1.3142 -0.9830
 6302SOL    HW230540   0.628   2.624   5.012 -0.7272  0.1865  0.8806
 6303SOL     OW30541   1.826   3.494   2.083  0.0800  0.4041 -0.3001
 6303SOL    HW130542   1.916   3.463   2.096  0.6773  1.6226 -1.5599
 6303SOL    HW230543   1.783   3.411   2.105  0.6156 -0.0792 -1.0867
 6304SOL     OW30544   3.835   3.982   3.227  0.2176  0.3163 -0.5528
 6304SOL    HW130545   3.759   3.966   3.281  0.9787 -0.6812  0.2132
 6304SOL    HW230546   3.894   4.040   3.276 -0.7756  1.7404 -1.0214
 6305SOL     OW30547   2.921   4.548   5.161 -0.0651 -0.2058 -0.1025
 6305SOL    HW130548   2.867   4.587   5.092  0.0828 -1.3577 -0.8774
 6305SOL    HW230549   3.012   4.567   5.136  0.6873 -1.3729  1.7603
 6306SOL     OW30550   1.870   1.625   3.091 -0.2931 -0.3669 -0.2530
 6306SOL    HW130551   1.883   1.703   3.037 -3.9154  0.2125 -0.3249
 6306SOL    HW230552   1.802   1.650   3.154 -2.0111  0.3909 -2.4125
 6307SOL     OW30553   0.438   3.247   3.701 -0.0918 -0.8233  0.2926
 6307SOL    HW130554   0.436   3.241   3.797  1.2778  2.5627  0.5301
 6307SOL    HW230555   0.517   3.193   3.690  1.3510  1.3260  0.2097
 6308SOL     OW30556   3.560   3.797  13.035  0.1488 -0.5671 -0.2509
 6308SOL    HW130557   3.551   3.763  13.124 -2.5378  0.7249 -0.0437
 6308SOL    HW230558   3.465   3.793  13.019  0.1185 -2.1181  0.2550
 6309SOL     OW30559   0.370   2.191   0.039  0.2979  0.1476 -0.2616
 6309SOL    HW130560   0.312   2.266   0.028 -0.0281 -0.1510 -0.5957
 6309SOL    HW230561   0.331   2.121  17.736  1.8854 -0.7843 -0.2174
 6310SOL     OW30562   0.931   4.343   2.685  0.4536 -0.2930 -0.0561
 6310SOL    HW130563   0.876   4.264   2.682 -1.5887  1.0533  2.8333
 6310SOL    HW230564   0.982   4.335   2.604  1.9889 -0.1781  0.8986
 6311SOL     OW30565   2.445   3.640   4.347  0.0402  0.1486  0.5520
 6311SOL    HW130566   2.451   3.616   4.255  0.2932  1.2921  0.2721
 6311SOL    HW230567   2.537   3.619   4.364 -0.2284 -1.1996  0.3250
 6312SOL     OW30568   2.839   1.036   3.053 -0.2170 -0.2184  0.2031
 6312SOL    HW130569   2.814   1.082   2.974 -0.1369 -0.0216  0.2921
 6312SOL    HW230570   2.829   0.944   3.027  0.8251  0.5103 -2.7541
 6313SOL     OW30571   0.928   2.418   6.341  0.4409  0.4349 -0.3725
 6313SOL    HW130572   0.928   2.463   6.256  1.4820 -0.3573 -0.8035
 6313SOL    HW230573   0.861   2.354   6.319 -0.5105  1.0787  0.6882
 6314SOL     OW30574   4.347   1.956   4.033 -0.1235  0.4216  0.0879
 6314SOL    HW130575   4.411   1.954   4.103  2.5903  2.3219 -2.3663
 6314SOL    HW230576   4.355   2.042   3.993  0.6266  1.3376  2.2203
 6315SOL     OW30577   2.640   1.976   8.610 -0.5708 -0.2929 -0.5662
 6315SOL    HW130578   2.734   1.977   8.630 -1.1230  1.5403  1.9407
 6315SOL    HW230579   2.606   2.051   8.658 -0.8495 -0.4993 -0.4415
 6316SOL     OW30580   0.071   1.468  15.668 -0.4272  0.1448  0.1449
 6316SOL    HW130581   0.054   1.438  15.578  1.2963 -1.9151  0.5124
 6316SOL    HW230582   0.017   1.410  15.721 -0.9467 -2.0395 -2.7267
 6317SOL     OW30583   1.707   1.542   2.361  0.3333 -0.2648  0.1068
 6317SOL    HW130584   1.662   1.622   2.335  1.2913  0.0671 -0.5381
 6317SOL    HW230585   1.634   1.497   2.404  1.6947 -3.6130 -1.0524
 6318SOL     OW30586   3.454   4.137   4.498 -0.5219 -0.3371 -0.0144
 6318SOL    HW130587   3.360   4.120   4.490 -0.9513  1.7456  0.5634
 6318SOL    HW230588   3.464   4.173   4.586 -1.1700  2.1353 -0.9521
 6319SOL     OW30589   3.371   4.074   2.599 -0.2476 -0.1620  0.8854
 6319SOL    HW130590   3.396   4.122   2.678 -3.4757  1.1256  1.1208
 6319SOL    HW230591   3.440   4.009   2.588 -0.2994 -0.4370  2.2732
 6320SOL     OW30592   4.407   0.518   7.272  0.6214  0.7200 -0.1768
 6320SOL    HW130593   4.458   0.437   7.265  0.0407  0.4359 -1.0343
 6320SOL    HW230594   4.319   0.488   7.247  0.6073  1.4623 -1.0126
 6321SOL     OW30595   1.322   0.066   0.863  0.6145 -0.2569  0.0463
 6321SOL    HW130596   1.259   0.060   0.935  0.2655  0.0829 -0.2298
 6321SOL    HW230597   1.402   0.035   0.904  0.4568  0.6930  1.0603
 6322SOL     OW30598   0.283   0.674  11.396  0.1333 -0.2297 -0.4650
 6322SOL    HW130599   0.358   0.663  11.454  0.4064  2.5469 -0.3058
 6322SOL    HW230600   0.302   0.616  11.321  0.8898  1.3510 -1.5002
 6323SOL     OW30601   3.539   4.619   8.459 -0.3574  0.0210  0.8197
 6323SOL    HW130602   3.498   4.567   8.390  1.9306  0.4823 -0.8879
 6323SOL    HW230603   3.568   4.693   8.405  1.9214 -1.1289  0.4766
 6324SOL     OW30604   0.988   0.555   3.741  0.1803 -0.2841  0.8696
 6324SOL    HW130605   0.937   0.498   3.799  0.1242 -0.8930  0.2175
 6324SOL    HW230606   1.062   0.498   3.720  0.4863 -0.5444  2.6091
 6325SOL     OW30607   2.643   2.614   3.301 -0.0269 -0.0819 -0.0686
 6325SOL    HW130608   2.727   2.573   3.319 -0.0345  0.2385  0.6827
 6325SOL    HW230609   2.664   2.706   3.321 -1.4209  0.2496 -0.1391
 6326SOL     OW30610   1.093   0.297   4.580  0.1247 -0.2987 -0.0163
 6326SOL    HW130611   0.998   0.287   4.590  0.5837 -3.4859  1.2993
 6326SOL    HW230612   1.101   0.371   4.520  0.9433 -0.5759 -0.2553
 6327SOL     OW30613   0.740   1.811  16.963 -0.1555  0.2517  0.5158
 6327SOL    HW130614   0.817   1.844  17.009 -1.1567  1.4380  1.3306
 6327SOL    HW230615   0.778   1.799  16.877 -2.6985  0.6229 -0.6685
 6328SOL     OW30616   0.449   0.782   2.906  0.6104 -0.3611 -0.0749
 6328SOL    HW130617   0.502   0.807   2.831 -0.3296  0.9859 -0.2844
 6328SOL    HW230618   0.382   0.727   2.865 -0.7736  0.7477  0.6860
 6329SOL     OW30619   3.220   1.429   9.608  0.3036  0.8286  0.2340
 6329SOL    HW130620   3.251   1.339   9.617 -0.2623  0.6924  0.8313
 6329SOL    HW230621   3.302   1.476   9.593 -0.4163  1.5386 -1.5317
 6330SOL     OW30622   3.740   1.408  14.840  0.2812 -0.4921  0.2334
 6330SOL    HW130623   3.794   1.412  14.919  0.7730  0.9077 -0.1802
 6330SOL    HW230624   3.800   1.439  14.773 -0.1013 -0.4966 -0.1152
 6331SOL     OW30625   3.234   0.011   1.505  0.2143  0.0550  0.1965
 6331SOL    HW130626   3.139   0.021   1.506  0.1963 -0.1093  0.2092
 6331SOL    HW230627   3.236   4.654   1.494  1.2232 -0.0713  1.4669
 6332SOL     OW30628   3.143   4.215   7.867  0.0828 -0.3178 -0.3833
 6332SOL    HW130629   3.132   4.121   7.880  2.0963 -0.4114  0.6785
 6332SOL    HW230630   3.217   4.229   7.927  0.2267 -0.4981 -0.5220
 6333SOL     OW30631   0.081   1.965   6.974 -0.0848  0.5507  0.4346
 6333SOL    HW130632   0.152   1.901   6.971  0.6861  1.3529  1.2472
 6333SOL    HW230633   0.008   1.914   7.008  1.2553 -2.3477 -1.0491
 6334SOL     OW30634   3.080   1.183  16.728  0.2881 -0.5961  0.8676
 6334SOL    HW130635   3.086   1.269  16.687  2.8943 -1.9064 -1.5154
 6334SOL    HW230636   2.992   1.147  16.719  0.3430 -0.2233 -1.0710
 6335SOL     OW30637   1.351   0.081   8.445 -0.2472  0.0115 -0.3858
 6335SOL    HW130638   1.267   0.127   8.450 -0.9037 -1.0090 -1.6030
 6335SOL    HW230639   1.412   0.148   8.474 -0.8806  0.0227  0.9127
 6336SOL     OW30640   4.323   2.884   9.460  0.2419  0.3365  0.2576
 6336SOL    HW130641   4.414   2.904   9.437  0.2376 -0.7477 -0.6999
 6336SOL    HW230642   4.291   2.974   9.467  0.9524  0.5924  0.2148
 6337SOL     OW30643   2.747   2.943  16.032 -0.4070  0.2906  0.5386
 6337SOL    HW130644   2.659   2.945  16.070 -0.5216 -0.2216  0.3069
 6337SOL    HW230645   2.794   2.954  16.115 -0.7000 -4.1816  1.3291
 6338SOL     OW30646   0.654   4.044   4.264 -0.0823  0.3428  0.2756
 6338SOL    HW130647   0.574   4.093   4.283  0.4003  0.9618  0.7083
 6338SOL    HW230648   0.615   3.992   4.194 -1.0363 -1.6938  2.2952
 6339SOL     OW30649   1.634   4.635  10.752 -0.2028 -0.0089  0.1575
 6339SOL    HW130650   1.702   4.690  10.791  1.1699  0.5804 -3.0708
 6339SOL    HW230651   1.609   4.687  10.676 -3.8189 -1.5410  0.3260
 6340SOL     OW30652   3.919   2.396   6.981  1.2909 -0.6458 -0.5606
 6340SOL    HW130653   3.923   2.441   7.066  0.0632  0.2472 -0.9799
 6340SOL    HW230654   3.891   2.305   6.995  1.5871 -0.4165  1.5195
 6341SOL     OW30655   3.075   2.095   0.549 -0.6969 -0.1189 -0.7838
 6341SOL    HW130656   2.989   2.118   0.515 -1.2635  0.8942  1.3555
 6341SOL    HW230657   3.132   2.113   0.474 -1.5600 -0.7800 -1.6009
 6342SOL     OW30658   4.724   0.823   1.705 -0.2442 -0.2583  0.4003
 6342SOL    HW130659   4.662   0.766   1.659 -0.9155 -0.4253  1.5213
 6342SOL    HW230660   0.068   0.775   1.702 -0.0674  0.1350 -1.4133
 6343SOL     OW30661   2.614   0.509   7.881 -0.1548 -0.2317 -0.2203
 6343SOL    HW130662   2.685   0.563   7.847  1.4588 -1.6356  0.9660
 6343SOL    HW230663   2.540   0.551   7.837 -0.2448 -0.5772 -0.3935
 6344SOL     OW30664   2.410   2.571   8.551  0.1378  0.3686  0.5050
 6344SOL    HW130665   2.383   2.482   8.573  0.8997  0.4871  1.8817
 6344SOL    HW230666   2.442   2.599   8.637 -0.1060  1.1984  0.3305
 6345SOL     OW30667   2.128   4.681   7.672  0.0852  0.5342  0.0057
 6345SOL    HW130668   2.187   0.017   7.681 -0.8758  1.3337 -0.2225
 6345SOL    HW230669   2.111   4.653   7.762 -0.7630 -3.8679 -1.4901
 6346SOL     OW30670   0.306   1.573  15.722  0.0259 -0.6130  0.3832
 6346SOL    HW130671   0.302   1.635  15.650 -0.7407 -2.8769 -1.5333
 6346SOL    HW230672   0.224   1.525  15.710  0.4620 -0.9249 -1.3796
 6347SOL     OW30673   3.963   2.062  16.689  0.2675 -0.4020 -0.4049
 6347SOL    HW130674   4.014   2.023  16.759  0.2698  0.6390  0.1777
 6347SOL    HW230675   4.017   2.045  16.612  0.0705 -0.3769 -0.5505
 6348SOL     OW30676   2.270   0.564   9.599  0.2414  0.0967 -0.4375
 6348SOL    HW130677   2.208   0.621   9.555 -0.3911 -0.3166 -0.0854
 6348SOL    HW230678   2.234   0.479   9.573 -0.8094  0.7782 -1.1912
 6349SOL     OW30679   3.928   3.323  10.497  0.0333 -0.9009 -0.3077
 6349SOL    HW130680   4.002   3.379  10.520 -0.0339  0.3701 -3.1751
 6349SOL    HW230681   3.884   3.386  10.440  2.9686  1.4571  0.0410
 6350SOL     OW30682   1.910   1.084  11.657 -0.0467 -0.2569  0.0995
 6350SOL    HW130683   1.990   1.138  11.651 -0.1174  0.0586  2.0688
 6350SOL    HW230684   1.911   1.048  11.746  0.2396  0.6260  0.4544
 6351SOL     OW30685   2.389   4.388   2.570 -0.2343 -0.5400  0.2321
 6351SOL    HW130686   2.319   4.450   2.550 -1.0666 -0.8468  2.1925
 6351SOL    HW230687   2.397   4.341   2.486  0.0746  1.0213 -0.6066
 6352SOL     OW30688   0.357   2.374   4.225  0.1370 -0.2475  0.0134
 6352SOL    HW130689   0.439   2.389   4.272 -1.1279  1.8370  1.5586
 6352SOL    HW230690   0.312   2.458   4.239  0.0994 -0.5463  1.6753
 6353SOL     OW30691   3.520   2.069   0.048  0.3898  0.2467 -0.5028
 6353SOL    HW130692   3.448   2.074   0.110  0.6812  0.4916 -0.1825
 6353SOL    HW230693   3.556   1.981   0.061  0.7058  0.0030 -2.9540
 6354SOL     OW30694   0.648   4.221   8.928  0.2194  0.3506  0.1823
 6354SOL    HW130695   0.624   4.163   8.855  1.8412 -0.2653  0.1418
 6354SOL    HW230696   0.743   4.226   8.918 -0.2042  3.2509 -2.3827
 6355SOL     OW30697   0.439   2.385  10.751 -0.1771  0.1318 -0.3285
 6355SOL    HW130698   0.353   2.411  10.785 -0.9304  0.3155 -2.3508
 6355SOL    HW230699   0.488   2.394  10.832 -2.2656  1.2539  0.8023
 6356SOL     OW30700   0.868   4.398   7.670  0.6679 -0.0518 -0.0002
 6356SOL    HW130701   0.962   4.417   7.665  0.3714  1.3049 -0.3278
 6356SOL    HW230702   0.863   4.337   7.596  0.0807 -0.8161  0.6682
 6357SOL     OW30703   0.065   0.123   2.448 -0.5445  0.0968  0.1527
 6357SOL    HW130704   4.709   0.110   2.438 -0.1915 -0.6968 -2.0220
 6357SOL    HW230705   0.092   0.048   2.396 -2.3970 -1.4088  1.3798
 6358SOL     OW30706   2.056   3.883  16.877 -0.4756  0.4587  0.4906
 6358SOL    HW130707   2.119   3.814  16.897 -1.1500 -0.5612 -0.9170
 6358SOL    HW230708   1.981   3.829  16.898 -0.8011  0.8432  0.3273
 6359SOL     OW30709   2.783   3.727   5.510  0.0986  0.0567  0.5738
 6359SOL    HW130710   2.736   3.652   5.546  1.9869 -0.7610  1.3381
 6359SOL    HW230711   2.730   3.803   5.533  2.3880  1.6643  0.4876
 6360SOL     OW30712   1.407   1.337  13.810 -0.9419  0.3185  0.4993
 6360SOL    HW130713   1.333   1.284  13.781 -0.6606 -0.1511  0.6597
 6360SOL    HW230714   1.459   1.276  13.861  2.0750  2.0053 -0.5374
 6361SOL     OW30715   1.386   2.210   5.003  0.9685  0.1276 -0.4730
 6361SOL    HW130716   1.355   2.119   5.000 -0.3638  0.6889 -3.4836
 6361SOL    HW230717   1.356   2.252   5.084 -0.8034 -1.2757 -0.3994
 6362SOL     OW30718   3.904   0.108   7.108  0.6836 -0.0616 -0.2074
 6362SOL    HW130719   3.997   0.087   7.102  0.8684  0.8708 -0.5151
 6362SOL    HW230720   3.897   0.183   7.049 -1.4130  0.0522  0.2071
 6363SOL     OW30721   3.831   4.562   5.666 -0.0917 -0.0806  0.0187
 6363SOL    HW130722   3.821   4.647   5.624  0.4766 -0.3830 -0.7267
 6363SOL    HW230723   3.741   4.531   5.674 -0.3483 -0.0251 -2.6502
 6364SOL     OW30724   4.475   2.646  17.723 -0.1617 -0.5358  0.3341
 6364SOL    HW130725   4.552   2.663  17.669  1.0991 -2.2989  1.5723
 6364SOL    HW230726   4.476   2.724   0.030  0.4404 -0.0063 -0.4072
 6365SOL     OW30727   1.506   2.403   6.156 -0.3068  0.5995 -0.3310
 6365SOL    HW130728   1.435   2.467   6.147 -0.9336 -0.0870 -0.3026
 6365SOL    HW230729   1.522   2.401   6.251 -0.3897 -0.3533 -0.3326
 6366SOL     OW30730   3.297   3.361   2.703 -0.3964  0.0668  0.1912
 6366SOL    HW130731   3.393   3.360   2.703 -0.4499 -2.3729  1.8930
 6366SOL    HW230732   3.284   3.443   2.654  0.9359  0.2773  0.1997
 6367SOL     OW30733   0.082   2.349   3.168 -0.2728  0.0727 -0.3490
 6367SOL    HW130734   4.736   2.335   3.124 -0.0059 -1.0668 -0.4936
 6367SOL    HW230735   0.097   2.255   3.178  1.0771  0.2667 -0.4802
 6368SOL     OW30736   4.573   3.391   2.921 -0.0359 -0.1596  0.0069
 6368SOL    HW130737   4.654   3.439   2.901  1.8436 -2.4518  2.1280
 6368SOL    HW230738   4.589   3.298   2.904  0.6471 -0.2744  1.2670
 6369SOL     OW30739   2.065   3.373   6.696  0.1876 -0.4526 -0.1684
 6369SOL    HW130740   2.095   3.463   6.710  0.1180 -0.7985  2.2663
 6369SOL    HW230741   2.142   3.322   6.672  0.6038  0.7421 -1.3400
 6370SOL     OW30742   0.984   1.528   5.858 -0.1097  0.1605 -0.6419
 6370SOL    HW130743   1.037   1.606   5.846  0.7841 -0.0113  2.0554
 6370SOL    HW230744   0.980   1.525   5.954  0.2967 -3.0396 -0.7207
 6371SOL     OW30745   1.066   1.338   7.834  0.2131 -0.5381 -0.1755
 6371SOL    HW130746   1.053   1.416   7.887 -1.2030 -0.5810 -0.4562
 6371SOL    HW230747   1.149   1.309   7.871 -1.0873 -2.2036  1.4529
 6372SOL     OW30748   3.816   0.056   5.527 -0.0979 -0.4332 -0.2218
 6372SOL    HW130749   3.882   0.125   5.517 -0.1466 -0.2100  1.0280
 6372SOL    HW230750   3.800   0.038   5.434 -0.7254 -0.5092 -0.0970
 6373SOL     OW30751   0.713   0.764  16.892 -0.4141  0.0460 -0.3344
 6373SOL    HW130752   0.704   0.680  16.936 -0.3195  0.6560  0.8692
 6373SOL    HW230753   0.756   0.735  16.811 -1.3475  0.1994 -0.8837
 6374SOL     OW30754   3.165   3.696   1.168 -0.0994 -0.0087  0.1465
 6374SOL    HW130755   3.216   3.753   1.111  1.1646  0.7977  2.0844
 6374SOL    HW230756   3.154   3.625   1.105  0.4084  1.9690 -2.1632
 6375SOL     OW30757   0.732   4.650   0.250 -0.3434 -0.2184 -0.1779
 6375SOL    HW130758   0.703   4.652   0.159  1.3180  0.5902 -0.7041
 6375SOL    HW230759   0.721   4.560   0.281  1.0694 -0.0229  0.9175
 6376SOL     OW30760   2.873   4.265   8.156  0.1353  0.2166  0.3042
 6376SOL    HW130761   2.785   4.250   8.191 -0.2972 -2.2860 -1.8659
 6376SOL    HW230762   2.911   4.314   8.229  4.0595 -0.0254 -1.5809
 6377SOL     OW30763   4.530   4.693   1.759 -0.0528  0.8043  0.2237
 6377SOL    HW130764   4.572   4.674   1.675 -1.0246  0.5405 -0.1983
 6377SOL    HW230765   4.493   4.606   1.775  2.9334 -0.2657  1.3603
 6378SOL     OW30766   3.425   4.610  10.484  0.1650  0.2948 -0.9184
 6378SOL    HW130767   3.520   4.618  10.494 -0.0375  0.8230  0.6562
 6378SOL    HW230768   3.428   4.570  10.397 -0.6123 -0.9806 -0.3527
 6379SOL     OW30769   4.586   3.496   7.175  0.5680 -0.9104  0.7833
 6379SOL    HW130770   4.621   3.540   7.252  1.5643 -0.7174  0.2214
 6379SOL    HW230771   4.637   3.539   7.107 -1.9994 -0.3210 -0.7700
 6380SOL     OW30772   2.859   1.904   6.323  0.1712  0.0109 -0.0996
 6380SOL    HW130773   2.892   1.815   6.308  1.4243  0.4796 -0.0338
 6380SOL    HW230774   2.931   1.934   6.378  0.7087 -2.6184  0.6445
 6381SOL     OW30775   1.003   1.020   3.225  0.0228  0.2828 -0.8236
 6381SOL    HW130776   0.957   0.961   3.285  1.4078  1.0211  0.9771
 6381SOL    HW230777   0.943   1.084   3.188  2.0322  2.9587  0.5358
 6382SOL     OW30778   2.623   0.144  11.491 -0.6485 -0.0943 -0.4209
 6382SOL    HW130779   2.701   0.127  11.438  0.4293  0.4025  1.0327
 6382SOL    HW230780   2.645   0.151  11.584  0.2861 -4.3341 -0.3210
 6383SOL     OW30781   2.537   3.445   5.511 -0.4543 -0.0249  0.1834
 6383SOL    HW130782   2.463   3.431   5.570 -2.8638  0.4446 -2.7554
 6383SOL    HW230783   2.602   3.384   5.547 -1.5763 -0.1473  2.0278
 6384SOL     OW30784   1.054   3.713  17.031  0.2550 -0.1112 -0.2820
 6384SOL    HW130785   1.109   3.688  17.104 -0.3266 -1.7809 -0.4031
 6384SOL    HW230786   1.096   3.787  16.989 -1.4020  1.4108  0.7520
 6385SOL     OW30787   3.643   2.088   8.994 -0.1177  0.4249 -0.1230
 6385SOL    HW130788   3.563   2.093   9.046 -0.8985  1.7979 -1.4695
 6385SOL    HW230789   3.634   1.998   8.963  2.2716  0.3779 -0.7187
 6386SOL     OW30790   4.638   3.384   4.552 -0.1348  0.2968  0.0348
 6386SOL    HW130791   4.707   3.359   4.491 -0.9270 -0.1663 -0.6719
 6386SOL    HW230792   4.565   3.381   4.490 -0.5652 -0.7265  0.6047
 6387SOL     OW30793   0.251   1.081   3.089 -0.1533 -0.0266 -0.2941
 6387SOL    HW130794   0.162   1.098   3.120  0.6347  2.2329  0.7474
 6387SOL    HW230795   0.259   0.993   3.124 -0.1129  0.6574  1.4098
 6388SOL     OW30796   0.374   4.182  17.564 -0.3766  0.9057  0.2025
 6388SOL    HW130797   0.346   4.167  17.654 -1.2600 -2.1491 -0.5921
 6388SOL    HW230798   0.288   4.183  17.521  0.7021  1.5057 -1.9391
 6389SOL     OW30799   2.067   0.145  15.333 -0.2889 -0.1063 -0.4160
 6389SOL    HW130800   2.086   0.053  15.348  0.6600 -0.1059 -1.5911
 6389SOL    HW230801   2.026   0.126  15.248  0.8460  0.7989 -1.1691
 6390SOL     OW30802   2.212   0.605   8.393  0.0410  1.0877 -0.6410
 6390SOL    HW130803   2.235   0.620   8.301  0.5605 -0.6432 -0.7773
 6390SOL    HW230804   2.283   0.550   8.425 -0.7199  0.7261  0.3985
 6391SOL     OW30805   2.169   2.179   2.353 -0.0916  0.4311 -0.4220
 6391SOL    HW130806   2.192   2.091   2.383  2.3762  0.9712 -0.7378
 6391SOL    HW230807   2.085   2.176   2.307 -0.3998  0.9227  0.1074
 6392SOL     OW30808   4.671   1.643   7.218 -0.0414  0.0111  0.0275
 6392SOL    HW130809   4.586   1.624   7.178 -0.0339  0.0439 -0.0042
 6392SOL    HW230810   4.684   1.734   7.191 -0.6854  0.6475  1.8735
 6393SOL     OW30811   3.855   0.788   8.029 -0.0395 -0.3322 -0.2970
 6393SOL    HW130812   3.804   0.858   8.070  1.8063  2.2228 -2.3158
 6393SOL    HW230813   3.866   0.822   7.940 -1.2683  0.2276 -0.2356
 6394SOL     OW30814   0.248   3.901   4.846 -0.0031 -0.1877 -0.2276
 6394SOL    HW130815   0.173   3.869   4.796  2.4307  1.4618 -4.9581
 6394SOL    HW230816   0.319   3.888   4.783 -1.0931 -0.7742 -1.3625
 6395SOL     OW30817   0.404   2.752   5.863  0.5046  0.1611 -0.2698
 6395SOL    HW130818   0.350   2.716   5.793  1.1243  0.4479 -0.8892
 6395SOL    HW230819   0.458   2.812   5.812  2.2008 -2.4594 -1.5982
 6396SOL     OW30820   1.544   2.645   5.551 -0.0273 -0.1365  0.0047
 6396SOL    HW130821   1.621   2.696   5.529 -1.9104  2.2164 -1.2120
 6396SOL    HW230822   1.501   2.700   5.617 -1.1718  1.2014 -1.8626
 6397SOL     OW30823   2.983   4.214   9.253 -0.3140  0.6547 -0.0661
 6397SOL    HW130824   3.076   4.199   9.232 -0.3938  1.4113 -0.9642
 6397SOL    HW230825   2.979   4.208   9.348  2.1303  1.7728  0.1162
 6398SOL     OW30826   3.890   1.355  15.076  0.0854 -0.6112  0.0095
 6398SOL    HW130827   3.877   1.260  15.075  1.6026 -0.8449  1.9022
 6398SOL    HW230828   3.984   1.371  15.070 -0.7047  1.9417 -5.4920
 6399SOL     OW30829   4.209   3.275   5.831  0.1810  0.2317 -0.1688
 6399SOL    HW130830   4.230   3.344   5.768  2.2603 -0.0221  0.2424
 6399SOL    HW230831   4.241   3.312   5.913 -0.2230  0.0364  0.0788
 6400SOL     OW30832   1.786   2.124   0.336  0.0326  0.3096  0.1807
 6400SOL    HW130833   1.792   2.182   0.259 -1.8628  2.4143  1.6034
 6400SOL    HW230834   1.871   2.081   0.336 -0.3567 -0.4428 -0.5285
 6401SOL     OW30835   1.639   2.378   9.104 -0.3789 -0.1096 -0.0211
 6401SOL    HW130836   1.700   2.305   9.094 -1.0302 -0.7619  0.7094
 6401SOL    HW230837   1.621   2.395   9.012 -2.0990  0.7358  0.4722
 6402SOL     OW30838   1.045   3.649   8.733 -0.6505 -0.1775  0.4202
 6402SOL    HW130839   1.087   3.678   8.653 -0.5639  0.9494  0.8750
 6402SOL    HW230840   1.037   3.553   8.728 -3.1579  0.2373 -3.0781
 6403SOL     OW30841   0.384   4.534   8.762 -0.3154 -0.7788  0.0723
 6403SOL    HW130842   0.353   4.458   8.812 -0.8622 -1.7341 -1.6920
 6403SOL    HW230843   0.394   4.601   8.829 -0.3513 -0.7460  0.0447
 6404SOL     OW30844   4.720   4.093   0.412 -0.0829 -0.3277 -0.6401
 6404SOL    HW130845   4.734   4.118   0.321 -0.0439 -1.4226 -0.9355
 6404SOL    HW230846   4.634   4.051   0.409 -0.2783 -0.0409  0.9987
 6405SOL     OW30847   2.873   2.962   8.315 -0.0084  0.4630  0.0172
 6405SOL    HW130848   2.915   2.898   8.257  0.0873  0.5509 -0.0100
 6405SOL    HW230849   2.950   2.996   8.360 -0.1690  1.7707 -0.6955
 6406SOL     OW30850   4.337   4.188   4.601  0.3885  0.3212  0.3216
 6406SOL    HW130851   4.417   4.194   4.652  0.7813 -1.5356 -0.0597
 6406SOL    HW230852   4.283   4.253   4.646  0.4272  1.1929 -0.8929
 6407SOL     OW30853   1.730   0.720   5.648  0.0827 -0.5356 -0.3979
 6407SOL    HW130854   1.783   0.642   5.635  0.3914 -0.1601 -1.4533
 6407SOL    HW230855   1.676   0.693   5.722 -0.2816  1.8361  0.2286
 6408SOL     OW30856   2.771   0.689   5.688  0.0213  0.2554  0.8280
 6408SOL    HW130857   2.857   0.705   5.650  0.1048 -1.2798  0.3592
 6408SOL    HW230858   2.795   0.714   5.778 -0.5167  1.4822  0.6234
 6409SOL     OW30859   0.379   3.604  17.244 -0.0346 -0.4377  0.0951
 6409SOL    HW130860   0.286   3.597  17.264  0.5806 -0.5146  2.9788
 6409SOL    HW230861   0.387   3.696  17.216  0.0177 -0.6578 -0.5981
 6410SOL     OW30862   2.209   3.116   2.979  0.2016 -0.6553 -0.3297
 6410SOL    HW130863   2.193   3.024   2.995 -1.0358 -0.0894  1.6920
 6410SOL    HW230864   2.235   3.114   2.887 -1.2676  1.7461 -0.8149
 6411SOL     OW30865   0.103   1.070   3.934  0.1002  0.1581 -0.0278
 6411SOL    HW130866   0.165   1.119   3.987  0.2906 -1.7577  1.5097
 6411SOL    HW230867   0.140   1.100   3.851 -3.1835 -2.1608 -2.3576
 6412SOL     OW30868   3.422   0.992   7.448 -0.3366 -0.6083 -0.5576
 6412SOL    HW130869   3.429   0.897   7.444 -0.0283 -0.6697  1.6286
 6412SOL    HW230870   3.394   1.002   7.539  0.1423 -0.4225 -0.4271
 6413SOL     OW30871   0.937   3.016  14.596 -0.2882 -0.6244 -0.2708
 6413SOL    HW130872   0.945   3.010  14.501  1.1538  1.0189 -0.2542
 6413SOL    HW230873   0.932   2.923  14.616 -0.1298 -0.7034 -0.6106
 6414SOL     OW30874   0.746   2.245   6.612  0.2250  0.1252 -0.3117
 6414SOL    HW130875   0.782   2.227   6.699  0.3297  0.2792 -0.3222
 6414SOL    HW230876   0.676   2.306   6.636  0.3603  0.0681  0.2157
 6415SOL     OW30877   0.865   0.499   4.815 -0.5068 -0.6478 -0.1721
 6415SOL    HW130878   0.935   0.548   4.773 -1.8845  1.1954 -0.3494
 6415SOL    HW230879   0.822   0.564   4.871  0.9802 -0.1393  0.3683
 6416SOL     OW30880   3.183   1.348  15.219 -0.5642 -0.8040  0.6573
 6416SOL    HW130881   3.257   1.308  15.264 -1.7104 -2.6607  0.8810
 6416SOL    HW230882   3.144   1.401  15.289  1.4998  0.7918  0.5960
 6417SOL     OW30883   0.062   3.932   9.436 -0.3882 -0.2388 -0.0273
 6417SOL    HW130884   0.078   3.975   9.519 -0.7057 -1.3269  0.5952
 6417SOL    HW230885   0.101   3.988   9.369 -1.4817  0.8866  0.2888
 6418SOL     OW30886   3.598   4.317  10.571 -0.2568  0.4111 -0.3376
 6418SOL    HW130887   3.648   4.245  10.532  1.6088  0.7457  1.4302
 6418SOL    HW230888   3.622   4.304  10.663  0.8248  0.9465 -0.5383
 6419SOL     OW30889   2.058   0.426   4.030 -0.0205 -0.2046 -0.2661
 6419SOL    HW130890   1.991   0.362   4.055  2.3451 -2.3550  0.4754
 6419SOL    HW230891   2.020   0.457   3.947 -0.1337  0.3626 -0.0028
 6420SOL     OW30892   1.522   4.666   5.665  0.7706  0.0344  0.4933
 6420SOL    HW130893   1.516   4.679   5.760 -0.1943 -1.8614  0.6996
 6420SOL    HW230894   1.515   4.571   5.651  0.6907 -0.2368  2.4236
 6421SOL     OW30895   3.448   0.415   2.379  0.2646 -0.2470  0.2504
 6421SOL    HW130896   3.404   0.498   2.396 -1.3398 -1.3888  1.6804
 6421SOL    HW230897   3.445   0.380   2.467  0.3771 -0.4063  0.1910
 6422SOL     OW30898   1.471   0.187   6.325 -0.8300  0.7865  0.2779
 6422SOL    HW130899   1.439   0.103   6.359  1.3484 -1.4390 -3.2156
 6422SOL    HW230900   1.414   0.240   6.381 -0.4787 -0.6299  1.9965
 6423SOL     OW30901   1.421   2.479   7.817  0.1632  0.1862  0.3875
 6423SOL    HW130902   1.433   2.474   7.722  2.2959 -2.9278  0.8247
 6423SOL    HW230903   1.365   2.556   7.816 -0.1493 -0.0729 -3.1910
 6424SOL     OW30904   4.282   1.433  10.155  0.1811 -0.2337 -0.1170
 6424SOL    HW130905   4.221   1.396  10.219  0.2674  0.4406  0.3583
 6424SOL    HW230906   4.338   1.478  10.220  0.5037 -0.4804 -0.2227
 6425SOL     OW30907   3.217   0.612   6.695 -0.0251 -0.1043 -0.1577
 6425SOL    HW130908   3.253   0.692   6.732  2.7348 -0.3928 -2.2907
 6425SOL    HW230909   3.159   0.586   6.767 -0.6392 -0.0235 -0.6267
 6426SOL     OW30910   1.554   4.076   4.480  0.5103 -0.1307  0.1822
 6426SOL    HW130911   1.508   4.023   4.546  2.8661 -0.9985  1.1257
 6426SOL    HW230912   1.519   4.165   4.486  3.6897  1.1669 -1.0773
 6427SOL     OW30913   2.514   4.621   3.219 -0.9394  0.0719 -0.1411
 6427SOL    HW130914   2.579   4.557   3.248 -0.0338  1.6164  1.2291
 6427SOL    HW230915   2.552   4.660   3.141 -0.5659 -0.1742 -0.0815
 6428SOL     OW30916   0.041   4.444   5.685 -0.9659  0.5134 -0.7027
 6428SOL    HW130917   4.708   4.406   5.633  0.5989 -0.9449 -1.7820
 6428SOL    HW230918   0.091   4.366   5.708  2.0772  2.6470 -0.0516
 6429SOL     OW30919   3.315   2.072   7.300 -0.0955  0.1451  0.2946
 6429SOL    HW130920   3.223   2.048   7.305  0.5462 -1.7116  2.7859
 6429SOL    HW230921   3.316   2.150   7.244 -0.1544 -0.1537 -0.1255
 6430SOL     OW30922   1.400   3.518  12.776  0.1370 -0.0801 -0.5374
 6430SOL    HW130923   1.366   3.446  12.828  0.6819 -1.0065 -1.4731
 6430SOL    HW230924   1.487   3.482  12.759 -0.0260 -0.9677  0.5296
 6431SOL     OW30925   3.831   0.268   5.132  0.5175 -0.2891  0.2026
 6431SOL    HW130926   3.760   0.249   5.071 -0.9750  0.5753  1.6628
 6431SOL    HW230927   3.857   0.182   5.165  1.3309 -0.5764 -1.1901
 6432SOL     OW30928   1.814   2.191   7.541  0.2365  0.0316 -0.3840
 6432SOL    HW130929   1.901   2.227   7.561  1.0493 -2.0342 -0.2695
 6432SOL    HW230930   1.834   2.098   7.541 -1.8605 -0.4147  3.0237
 6433SOL     OW30931   2.228   1.276   4.386 -0.2517  0.6634  0.1188
 6433SOL    HW130932   2.247   1.184   4.403  0.8896  0.8346 -0.1805
 6433SOL    HW230933   2.211   1.279   4.292 -0.0530  1.6798  0.1049
 6434SOL     OW30934   2.936   2.937  11.372  0.7104 -0.3814  0.6593
 6434SOL    HW130935   2.942   2.982  11.457 -0.5911  0.0408  0.5262
 6434SOL    HW230936   3.019   2.889  11.369  0.8120 -0.1382 -0.5973
 6435SOL     OW30937   4.136   1.666   8.125  0.0343 -0.0755  0.3025
 6435SOL    HW130938   4.151   1.637   8.035 -1.7726  1.6767 -0.5812
 6435SOL    HW230939   4.061   1.726   8.120  1.7165  2.0864  1.1340
 6436SOL     OW30940   0.803   3.332   8.805 -0.2047 -0.0761 -0.5899
 6436SOL    HW130941   0.842   3.363   8.887  0.3194  0.3032 -0.9805
 6436SOL    HW230942   0.777   3.245   8.837 -0.3804 -0.0039 -0.5372
 6437SOL     OW30943   1.284   3.042   3.222 -0.2008 -0.1243  0.6473
 6437SOL    HW130944   1.233   3.121   3.240  0.0636  0.1337  0.2530
 6437SOL    HW230945   1.211   2.979   3.221 -0.4722  0.1718  1.7555
 6438SOL     OW30946   4.236   0.581   8.030 -0.6576 -0.3414  0.0698
 6438SOL    HW130947   4.193   0.498   8.007 -1.5132  0.9769 -3.1657
 6438SOL    HW230948   4.308   0.550   8.083  1.3400  0.7526 -1.9998
 6439SOL     OW30949   1.359   3.125  15.161 -0.2245  0.0980  0.0289
 6439SOL    HW130950   1.305   3.063  15.210 -0.6185  1.4841  1.3581
 6439SOL    HW230951   1.316   3.118  15.076 -1.6973 -0.0295  0.7901
 6440SOL     OW30952   2.432   0.643   6.790 -0.2287  0.0591  0.1816
 6440SOL    HW130953   2.397   0.657   6.878 -1.2213  1.2570 -0.4189
 6440SOL    HW230954   2.358   0.646   6.730  0.4114 -0.5917 -0.6537
 6441SOL     OW30955   1.619   2.784   7.700 -0.0601  0.6903  0.1329
 6441SOL    HW130956   1.709   2.772   7.731 -0.2881 -0.1282  0.5014
 6441SOL    HW230957   1.573   2.824   7.774 -1.5541  0.8345 -0.8854
 6442SOL     OW30958   1.965   0.587   3.788 -0.0855 -0.8777 -0.5614
 6442SOL    HW130959   2.037   0.575   3.726 -0.0062  0.9364 -0.8339
 6442SOL    HW230960   1.891   0.623   3.740 -0.0305  1.1728  0.9047
 6443SOL     OW30961   2.823   3.513   9.626  0.4241 -0.2073  0.3649
 6443SOL    HW130962   2.760   3.542   9.692  0.1019  2.4084 -1.0759
 6443SOL    HW230963   2.906   3.550   9.655  1.1494 -0.7613 -0.9694
 6444SOL     OW30964   3.330   3.041   2.488 -0.0995  0.1444  0.2165
 6444SOL    HW130965   3.303   3.034   2.580 -0.5391  0.5998  0.1260
 6444SOL    HW230966   3.327   3.136   2.472 -4.0788 -0.1761 -0.9152
 6445SOL     OW30967   3.829   3.870   4.379 -0.0074 -0.0427 -0.1110
 6445SOL    HW130968   3.873   3.952   4.401 -0.7725  0.5793 -0.9011
 6445SOL    HW230969   3.736   3.891   4.373 -0.2235 -1.5320 -2.2094
 6446SOL     OW30970   2.032   3.861   6.217 -0.2675 -0.1984 -0.3586
 6446SOL    HW130971   2.111   3.911   6.196  0.9500 -1.1747  1.8505
 6446SOL    HW230972   2.020   3.912   6.297 -0.5574 -1.3895  0.3564
 6447SOL     OW30973   0.668   2.383   7.183  0.1785 -0.8549  0.0657
 6447SOL    HW130974   0.629   2.296   7.194  0.5486 -0.9663  0.4765
 6447SOL    HW230975   0.590   2.423   7.144 -0.3340 -1.7556  0.1563
 6448SOL     OW30976   4.428   4.714   9.421  0.0245  0.2162  0.2865
 6448SOL    HW130977   4.510   0.020   9.442 -0.4670  1.9062 -1.2718
 6448SOL    HW230978   4.385   0.010   9.499 -2.6270  0.3452 -1.2076
 6449SOL     OW30979   1.948   2.468   2.731 -0.2246 -0.1697 -0.4661
 6449SOL    HW130980   1.963   2.463   2.825  1.5886 -1.3106 -0.8189
 6449SOL    HW230981   2.035   2.463   2.691  0.2194  1.6494  0.2727
 6450SOL     OW30982   3.809   3.417  17.640  0.1330 -0.1114 -0.3174
 6450SOL    HW130983   3.873   3.405  17.710  1.3836  1.2453 -1.2230
 6450SOL    HW230984   3.760   3.495  17.666  1.2372 -0.0004  1.4119
 6451SOL     OW30985   1.304   3.441   4.280  0.4959 -0.0010  0.0932
 6451SOL    HW130986   1.340   3.355   4.259  0.7564  0.0866  0.1789
 6451SOL    HW230987   1.312   3.443   4.376  0.4507  0.8412  0.0854
 6452SOL     OW30988   4.705   0.775   9.519  0.2400 -0.5008 -0.0856
 6452SOL    HW130989   4.695   0.697   9.575 -0.2673 -1.7059 -1.8462
 6452SOL    HW230990   4.621   0.821   9.528  0.7815  0.3173  0.7449
 6453SOL     OW30991   1.679   1.701   3.261  0.0103 -0.4779 -0.1501
 6453SOL    HW130992   1.682   1.797   3.256  0.4569 -0.4247  0.9352
 6453SOL    HW230993   1.731   1.693   3.341  3.2674  1.5011 -2.0870
 6454SOL     OW30994   0.057   3.670   4.375 -0.1034  0.0992  0.1418
 6454SOL    HW130995   4.708   3.702   4.401 -0.8682 -2.3611  0.6544
 6454SOL    HW230996   0.057   3.683   4.280  2.3763  0.1189  0.1583
 6455SOL     OW30997   2.485   3.061   0.458 -0.4450  0.0998 -0.4047
 6455SOL    HW130998   2.476   3.003   0.533  0.7047 -0.8808 -1.0169
 6455SOL    HW230999   2.471   3.149   0.495 -1.9887 -0.1864 -0.3284
 6456SOL     OW31000   4.533   3.795   2.703 -0.6633  0.2221  0.2524
 6456SOL    HW131001   4.579   3.715   2.677 -1.1189  0.2702 -0.7118
 6456SOL    HW231002   4.481   3.811   2.624  1.9397  0.2943 -1.4493
 6457SOL     OW31003   2.973   3.564   2.902  0.1268 -0.7941 -0.0509
 6457SOL    HW131004   2.887   3.566   2.860  0.4726  2.5122 -0.5898
 6457SOL    HW231005   2.945   3.596   2.987  2.0596  1.7299 -0.3323
 6458SOL     OW31006   0.559   0.733   3.309  0.1252  0.1572  0.2632
 6458SOL    HW131007   0.584   0.724   3.401  0.3945  1.4543  0.3089
 6458SOL    HW231008   0.613   0.661   3.275 -0.3671 -0.8162  1.5090
 6459SOL     OW31009   0.299   2.866  14.131  0.1844 -0.1516 -0.5159
 6459SOL    HW131010   0.274   2.932  14.197  1.0212 -1.1048  0.7691
 6459SOL    HW231011   0.218   2.837  14.090 -0.2302 -0.7434  0.7179
 6460SOL     OW31012   3.784   2.389  11.027  0.2058  0.1310 -0.0693
 6460SOL    HW131013   3.798   2.413  11.119  0.6916  1.3523 -0.4683
 6460SOL    HW231014   3.708   2.445  11.011 -0.3428 -0.7475 -0.5053
 6461SOL     OW31015   3.901   1.660   6.876 -0.3219  0.4565  0.4282
 6461SOL    HW131016   3.867   1.686   6.790  1.2788  0.3262 -0.2382
 6461SOL    HW231017   3.938   1.576   6.849 -0.9067  0.5506 -0.6833
 6462SOL     OW31018   4.120   3.478   4.677 -0.2353 -0.5516  0.0783
 6462SOL    HW131019   4.142   3.385   4.678 -2.2445 -1.0189  1.4246
 6462SOL    HW231020   4.024   3.470   4.685 -0.0849 -0.1707  2.1289
 6463SOL     OW31021   3.166   2.723   5.945 -0.5320  0.4458  0.5426
 6463SOL    HW131022   3.153   2.670   6.024  1.0211 -0.8458 -0.0747
 6463SOL    HW231023   3.242   2.697   5.894 -1.9550 -1.0348 -0.8149
 6464SOL     OW31024   4.697   2.400  17.749  0.1337 -0.0065 -0.1265
 6464SOL    HW131025   4.721   2.465  17.684  1.2050 -0.5034 -0.2233
 6464SOL    HW231026   0.019   2.411   0.073 -1.4118  0.2075  1.1116
 6465SOL     OW31027   1.960   0.253  13.337 -0.5386  0.1813 -0.1984
 6465SOL    HW131028   1.967   0.347  13.321  2.8222  0.0286  0.3113
 6465SOL    HW231029   1.985   0.222  13.251  0.6318  0.4070  0.0586
 6466SOL     OW31030   1.259   1.441   8.753 -0.6380 -0.0149  0.1003
 6466SOL    HW131031   1.268   1.418   8.661 -0.5207  0.1540  0.0686
 6466SOL    HW231032   1.166   1.421   8.763  0.0512 -1.7644  3.0328
 6467SOL     OW31033   0.324   1.197   9.297  0.4946 -0.5466 -0.0456
 6467SOL    HW131034   0.288   1.113   9.268  0.3049 -1.0740  1.7329
 6467SOL    HW231035   0.251   1.252   9.268  0.5874  0.1324  1.0552
 6468SOL     OW31036   4.651   1.560   1.553 -0.2773 -0.9741 -0.4034
 6468SOL    HW131037   4.642   1.650   1.586  0.9371 -0.0623 -2.5914
 6468SOL    HW231038   4.559   1.532   1.550 -0.5747 -0.1420  1.0309
 6469SOL     OW31039   1.947   4.247   2.379 -0.4202 -0.5571  0.2981
 6469SOL    HW131040   2.027   4.195   2.375 -0.0830 -0.0084 -0.1272
 6469SOL    HW231041   1.923   4.271   2.468  2.4123 -2.4442  1.5386
 6470SOL     OW31042   0.873   1.851  15.069 -0.1965 -0.3839 -0.3788
 6470SOL    HW131043   0.841   1.813  15.151 -0.7034 -0.8020 -0.7753
 6470SOL    HW231044   0.860   1.775  15.012 -0.7855  1.1882 -2.3110
 6471SOL     OW31045   2.490   1.002  12.967 -0.6696  0.7409 -0.3429
 6471SOL    HW131046   2.542   0.922  12.981 -0.1938  1.5005  2.2877
 6471SOL    HW231047   2.414   0.982  13.023  0.6797 -1.2229  0.8208
 6472SOL     OW31048   4.223   1.987   8.903 -0.0476  0.2119 -0.3546
 6472SOL    HW131049   4.164   2.055   8.871 -0.7168  0.2654  0.9835
 6472SOL    HW231050   4.169   1.909   8.916 -0.0075 -0.2652 -3.1589
 6473SOL     OW31051   0.035   0.706  15.816  0.3424  0.4090  0.3033
 6473SOL    HW131052   4.708   0.656  15.866 -1.4336  1.3153 -1.0958
 6473SOL    HW231053   0.053   0.777  15.879 -0.7445  0.6504  0.3473
 6474SOL     OW31054   2.856   2.639   6.667  0.3197 -0.0144 -0.3298
 6474SOL    HW131055   2.834   2.678   6.752 -0.4268 -1.5900  0.1947
 6474SOL    HW231056   2.943   2.679   6.662 -0.1451  1.2785  1.6749
 6475SOL     OW31057   1.812   0.876  12.209 -0.3388 -0.1758  0.4824
 6475SOL    HW131058   1.744   0.898  12.273  1.0647  1.1350  1.5019
 6475SOL    HW231059   1.847   0.796  12.247 -0.0920 -0.6122 -0.6448
 6476SOL     OW31060   2.518   4.532  11.398  0.0227 -0.1071  0.9469
 6476SOL    HW131061   2.499   4.507  11.307 -0.2687  1.3375  0.6033
 6476SOL    HW231062   2.558   4.619  11.391  0.3891 -0.4931 -1.8424
 6477SOL     OW31063   4.149   2.696  17.435 -0.1507  0.1066  0.1728
 6477SOL    HW131064   4.210   2.762  17.470  2.0351 -1.5108 -0.5818
 6477SOL    HW231065   4.083   2.753  17.397  1.0678 -0.7571 -3.2213
 6478SOL     OW31066   4.018   0.898   3.322 -0.0300 -0.7867 -0.1495
 6478SOL    HW131067   4.083   0.907   3.252 -0.7316  1.6670 -0.4738
 6478SOL    HW231068   3.955   0.849   3.269 -1.5398  1.5837 -0.5354
 6479SOL     OW31069   4.192   0.009   9.233 -0.0615  0.1316  0.3028
 6479SOL    HW131070   4.258   4.706   9.289 -1.4821  0.0837  1.9424
 6479SOL    HW231071   4.146   0.066   9.295 -1.3503 -0.0834 -0.4495
 6480SOL     OW31072   4.718   0.498   8.345 -0.2026 -0.0035 -0.4394
 6480SOL    HW131073   4.692   0.411   8.314 -0.6085 -0.4605  1.2029
 6480SOL    HW231074   0.032   0.480   8.423 -0.0323  0.0943 -0.5318
 6481SOL     OW31075   4.477   0.017   1.028 -0.1602  0.4049  0.0055
 6481SOL    HW131076   4.525   0.097   1.047 -1.0117  0.8364  0.3069
 6481SOL    HW231077   4.404   0.053   0.977  0.1456  2.8482  1.3058
 6482SOL     OW31078   1.214   1.924   7.148 -0.0535  0.4877  0.3705
 6482SOL    HW131079   1.303   1.897   7.170 -0.3480  0.4549  1.5389
 6482SOL    HW231080   1.173   1.837   7.145 -1.4705  1.1796 -0.0791
 6483SOL     OW31081   4.249   2.807   0.656  0.0577  0.0143 -0.0401
 6483SOL    HW131082   4.159   2.838   0.652  0.8407  1.9245 -2.4234
 6483SOL    HW231083   4.240   2.727   0.603  0.1730  0.5216 -0.8183
 6484SOL     OW31084   0.625   4.124   9.169  0.6572  0.6091  0.7792
 6484SOL    HW131085   0.581   4.043   9.142  1.0022  0.0982  1.7131
 6484SOL    HW231086   0.641   4.169   9.087  0.7212 -1.0591 -0.1155
 6485SOL     OW31087   4.139   3.728   4.824 -0.1143 -0.7092  0.1668
 6485SOL    HW131088   4.128   3.644   4.779  0.0075 -0.3658 -0.5031
 6485SOL    HW231089   4.219   3.773   4.795  0.6724 -0.9161  1.9995
 6486SOL     OW31090   1.449   3.571   9.496 -0.7269  0.1976 -0.0670
 6486SOL    HW131091   1.376   3.622   9.460 -2.9141 -2.0891  1.1090
 6486SOL    HW231092   1.500   3.579   9.416  0.7042 -1.4514  0.6820
 6487SOL     OW31093   3.960   3.972   6.217 -0.6687  0.4576 -0.2517
 6487SOL    HW131094   3.954   3.917   6.295 -0.6640  1.6643  0.5902
 6487SOL    HW231095   3.939   4.058   6.253 -2.1189 -0.1925  0.4519
 6488SOL     OW31096   3.059   4.395  12.032 -0.1010  0.2425  0.1673
 6488SOL    HW131097   3.098   4.422  11.949 -2.3479 -2.8454 -1.9280
 6488SOL    HW231098   3.070   4.468  12.093 -2.3132  0.9280 -0.2560
 6489SOL     OW31099   2.273   4.235   0.882 -0.5980 -0.0527  0.6528
 6489SOL    HW131100   2.269   4.330   0.892 -2.1450  0.1444 -1.8491
 6489SOL    HW231101   2.184   4.209   0.904 -0.3460 -0.6818  0.9288
 6490SOL     OW31102   2.188   3.042   5.910 -0.5950  0.0963  0.0257
 6490SOL    HW131103   2.232   3.125   5.927 -1.4577  0.9558 -1.9660
 6490SOL    HW231104   2.127   3.033   5.984 -1.6998  2.9233 -0.5636
 6491SOL     OW31105   3.591   3.766   3.063 -0.4940  0.1226 -0.0250
 6491SOL    HW131106   3.505   3.793   3.095 -1.1930 -1.4366 -0.5753
 6491SOL    HW231107   3.563   3.689   3.012  1.1854  0.8469 -2.0504
 6492SOL     OW31108   4.328   4.039   1.764  0.5005  0.0040 -0.3767
 6492SOL    HW131109   4.247   4.053   1.812  0.4519  1.4912 -0.9086
 6492SOL    HW231110   4.375   4.122   1.765 -1.1040  0.8932 -0.4669
 6493SOL     OW31111   0.995   0.724  15.449  0.3894 -0.0865  0.6001
 6493SOL    HW131112   0.931   0.770  15.504  0.8162 -1.9663  2.6848
 6493SOL    HW231113   0.965   0.742  15.360  1.2314 -2.0213 -0.0776
 6494SOL     OW31114   0.937   1.374   3.631 -0.2233  0.1276 -0.4842
 6494SOL    HW131115   0.857   1.408   3.671 -0.2322 -0.1867 -0.2276
 6494SOL    HW231116   0.913   1.378   3.539  1.0916 -0.7297 -0.8757
 6495SOL     OW31117   3.798   2.914   4.955  0.1314 -0.0341 -0.7661
 6495SOL    HW131118   3.747   2.972   5.010  1.7559  0.0446  0.6570
 6495SOL    HW231119   3.868   2.894   5.018  0.5875 -0.3648 -1.3672
 6496SOL     OW31120   3.127   2.541  15.889 -0.2132 -0.0779  0.1075
 6496SOL    HW131121   3.195   2.511  15.830 -0.7133 -1.1877  0.1025
 6496SOL    HW231122   3.050   2.545  15.832  0.6738 -4.1687 -1.3367
 6497SOL     OW31123   0.995   4.105   7.261  0.0100 -0.4907 -0.3709
 6497SOL    HW131124   1.089   4.094   7.274  0.1828  0.1266 -1.1057
 6497SOL    HW231125   0.976   4.193   7.229  1.9002  0.1797  0.3628
 6498SOL     OW31126   0.659   3.097   3.629  0.5408  0.1506  0.3271
 6498SOL    HW131127   0.660   3.065   3.539  3.1439  1.1107 -0.0160
 6498SOL    HW231128   0.753   3.116   3.636  0.5615  0.9053 -1.8540
 6499SOL     OW31129   2.043   2.283  14.310  0.3789 -0.0964 -0.1520
 6499SOL    HW131130   2.053   2.193  14.280  0.5958 -0.4404  0.9458
 6499SOL    HW231131   1.952   2.280  14.340  0.0435  0.4254 -1.1215
 6500SOL     OW31132   4.653   0.261   2.856 -0.1043 -0.6281 -0.1348
 6500SOL    HW131133   4.716   0.271   2.784 -2.0297  1.5997 -1.4730
 6500SOL    HW231134   4.568   0.270   2.814  0.2406 -0.4601 -0.8005
 6501SOL     OW31135   3.293   0.126   6.971  0.0836 -0.9507 -0.2510
 6501SOL    HW131136   3.250   0.174   6.901 -0.5766 -1.6849 -0.3493
 6501SOL    HW231137   3.322   0.040   6.941  1.8832 -0.8877  1.2593
 6502SOL     OW31138   1.683   3.721   4.657 -0.2244  0.3013  0.4430
 6502SOL    HW131139   1.772   3.708   4.691 -0.0740 -0.5718 -0.3112
 6502SOL    HW231140   1.700   3.684   4.571  1.2013  1.7312  0.1008
 6503SOL     OW31141   1.474   4.532   2.877 -0.3522  0.1152 -0.3630
 6503SOL    HW131142   1.558   4.577   2.885 -0.6574  0.8944 -1.6238
 6503SOL    HW231143   1.506   4.448   2.844 -0.4287  0.7347 -1.9853
 6504SOL     OW31144   4.585   0.757   6.412 -0.1633 -0.2379  0.7046
 6504SOL    HW131145   4.633   0.789   6.336 -0.8222  1.6806  1.1025
 6504SOL    HW231146   4.647   0.764   6.484 -0.1134 -1.2598  0.7604
 6505SOL     OW31147   2.670   2.550   5.379 -0.3605  0.0955  0.1508
 6505SOL    HW131148   2.658   2.600   5.459  1.2856 -0.1470  0.5567
 6505SOL    HW231149   2.637   2.465   5.407 -0.5253 -0.2797 -1.2070
 6506SOL     OW31150   4.162   2.180   1.775  0.0022 -0.1470 -0.3596
 6506SOL    HW131151   4.172   2.085   1.764  1.6400 -0.1427  0.9946
 6506SOL    HW231152   4.217   2.211   1.703  1.6732 -0.1672  0.8947
 6507SOL     OW31153   3.274   3.002  12.985  0.3669 -0.3721  0.7946
 6507SOL    HW131154   3.223   3.060  12.927 -0.0937 -1.0138  0.5556
 6507SOL    HW231155   3.237   3.034  13.068  0.9853 -0.0921  0.9629
 6508SOL     OW31156   2.370   2.138   1.638 -0.3467 -0.2020 -0.3413
 6508SOL    HW131157   2.364   2.067   1.703 -1.4395  0.9239  0.7854
 6508SOL    HW231158   2.334   2.212   1.686 -1.0455 -1.3993  1.0169
 6509SOL     OW31159   1.304   4.472  12.511  0.3396 -0.2344 -0.0831
 6509SOL    HW131160   1.253   4.458  12.591 -1.4304  0.0273 -1.1596
 6509SOL    HW231161   1.360   4.546  12.533 -1.9070  1.5120 -0.1876
 6510SOL     OW31162   3.305   0.606   9.474  0.1685  0.0737 -0.2797
 6510SOL    HW131163   3.354   0.686   9.457 -0.5539  0.3144 -1.2151
 6510SOL    HW231164   3.305   0.600   9.569 -1.4916  0.7053 -0.2329
 6511SOL     OW31165   1.018   4.343  12.904 -0.4549 -0.0285  0.0255
 6511SOL    HW131166   0.958   4.414  12.882  1.0501  1.0789 -0.4959
 6511SOL    HW231167   1.098   4.371  12.860  0.4083 -0.2375  1.4527
 6512SOL     OW31168   3.643   3.903   1.685  0.2013  0.0134 -0.1518
 6512SOL    HW131169   3.633   3.808   1.679  4.1503 -0.5888  2.3120
 6512SOL    HW231170   3.608   3.922   1.598 -2.5245  0.4153  1.0319
 6513SOL     OW31171   2.372   0.188   2.204  0.1603 -0.2030 -0.0277
 6513SOL    HW131172   2.333   0.122   2.261 -1.4358 -0.1806 -1.0967
 6513SOL    HW231173   2.315   0.262   2.222 -0.0209 -0.1865 -0.6599
 6514SOL     OW31174   1.242   2.593   4.912 -0.0852 -0.2686 -0.2905
 6514SOL    HW131175   1.243   2.519   4.851  0.9122  0.7264 -1.4641
 6514SOL    HW231176   1.335   2.605   4.931 -0.4110  0.2624  0.9583
 6515SOL     OW31177   0.451   3.425   7.244  0.1589 -0.0781  0.1848
 6515SOL    HW131178   0.512   3.352   7.253  0.5008 -0.1746 -2.7000
 6515SOL    HW231179   0.451   3.447   7.150  3.6601  1.4433  0.5535
 6516SOL     OW31180   0.181   2.891   4.543 -0.5120 -0.2006 -0.2656
 6516SOL    HW131181   0.095   2.923   4.572 -0.3550  0.2658 -0.3296
 6516SOL    HW231182   0.236   2.936   4.607 -2.0801 -1.6054  2.1183
 6517SOL     OW31183   2.303   0.062  17.336 -0.5265 -0.1253 -0.5124
 6517SOL    HW131184   2.258   4.735  17.390 -2.4252  1.1489 -0.5815
 6517SOL    HW231185   2.279   0.136  17.391 -1.7825  0.2692 -1.5960
 6518SOL     OW31186   3.093   4.419  11.772 -0.4019  0.3402  0.0267
 6518SOL    HW131187   3.013   4.470  11.770 -1.4115 -1.1365  2.5204
 6518SOL    HW231188   3.055   4.331  11.761  2.6568 -0.8997 -0.8103
 6519SOL     OW31189   2.034   2.765   0.012 -0.4436  0.1368 -0.2035
 6519SOL    HW131190   2.094   2.795  17.693  0.7967  0.4320  1.0094
 6519SOL    HW231191   2.052   2.672   0.026 -2.0446 -0.0529  0.6324
 6520SOL     OW31192   2.932   4.614   9.355  0.2483 -0.4899  0.2457
 6520SOL    HW131193   2.842   4.602   9.325  0.0377 -1.3462  1.2246
 6520SOL    HW231194   2.914   4.632   9.447  1.0989  2.2973 -0.1331
 6521SOL     OW31195   4.371   1.147   6.564 -0.3501  0.3948  0.1321
 6521SOL    HW131196   4.306   1.089   6.525 -0.7563  0.7759  0.2420
 6521SOL    HW231197   4.332   1.162   6.649  1.5341 -1.8395  1.4025
 6522SOL     OW31198   0.881   2.545   6.648  0.1665 -0.3047 -0.0966
 6522SOL    HW131199   0.872   2.513   6.558 -2.0537 -0.2496  0.1112
 6522SOL    HW231200   0.922   2.473   6.697 -2.4685 -0.8946  1.2050
 6523SOL     OW31201   2.661   2.498   3.843 -0.2117  0.0075 -0.9532
 6523SOL    HW131202   2.631   2.528   3.929  0.0487 -2.1750 -0.0972
 6523SOL    HW231203   2.647   2.573   3.786  2.9840  1.4825  0.1837
 6524SOL     OW31204   2.080   3.591   8.235 -0.5289  0.1039 -0.2550
 6524SOL    HW131205   2.037   3.551   8.310  1.9238  0.0385  1.1172
 6524SOL    HW231206   2.091   3.512   8.181  2.5387 -1.9837  3.3969
 6525SOL     OW31207   4.045   0.338  13.645 -0.7359  0.2824 -0.8538
 6525SOL    HW131208   4.113   0.306  13.585  1.7526  1.8748  1.1285
 6525SOL    HW231209   4.093   0.334  13.728 -2.8994 -2.1753  0.2858
 6526SOL     OW31210   4.320   2.330   9.700  0.4765 -0.0829 -0.1689
 6526SOL    HW131211   4.341   2.421   9.678 -0.7949  0.1785 -0.2790
 6526SOL    HW231212   4.302   2.301   9.610 -1.1226  1.7874 -0.4443
 6527SOL     OW31213   2.181   2.108   7.113  0.4540 -0.3424 -0.3341
 6527SOL    HW131214   2.206   2.099   7.205 -1.4039 -0.4607  0.1464
 6527SOL    HW231215   2.250   2.170   7.088  1.2801  0.0359  2.9191
 6528SOL     OW31216   4.567   3.092  15.920  0.1074 -0.1008  0.1738
 6528SOL    HW131217   4.603   3.072  15.833 -1.7526 -2.3386 -0.0877
 6528SOL    HW231218   4.547   3.185  15.913 -0.5973 -0.4043 -1.8886
 6529SOL     OW31219   3.669   1.245   5.421  0.1454 -0.6335  0.4520
 6529SOL    HW131220   3.684   1.340   5.428 -1.6453 -0.4711  2.1046
 6529SOL    HW231221   3.686   1.236   5.328 -0.2934  0.4484  0.2637
 6530SOL     OW31222   2.499   2.580   7.262  0.1635 -0.3017  0.1890
 6530SOL    HW131223   2.548   2.531   7.328 -0.2811  0.3252  0.9734
 6530SOL    HW231224   2.556   2.657   7.256 -0.4747  0.3099  1.8450
 6531SOL     OW31225   2.112   4.211   4.906 -0.2588  0.5873  0.0170
 6531SOL    HW131226   2.162   4.265   4.968 -0.4476 -0.5226  1.1346
 6531SOL    HW231227   2.029   4.259   4.914 -1.0673 -0.3035 -3.1438
 6532SOL     OW31228   3.636   4.592   5.869 -0.8513  0.2155  0.3585
 6532SOL    HW131229   3.721   4.603   5.912  0.4644  0.3534 -2.2951
 6532SOL    HW231230   3.619   4.686   5.864  1.3111  0.5458 -0.6600
 6533SOL     OW31231   2.631   1.199  13.094 -0.4588 -0.5150 -0.6405
 6533SOL    HW131232   2.601   1.122  13.046 -1.5863 -0.2682 -0.3278
 6533SOL    HW231233   2.563   1.264  13.078 -1.4918 -0.8877  2.2607
 6534SOL     OW31234   3.288   2.535   3.129  0.0146  0.0264 -0.7005
 6534SOL    HW131235   3.346   2.609   3.147 -0.3332 -0.4020  2.1818
 6534SOL    HW231236   3.203   2.577   3.142  0.2313  0.1275  0.4007
 6535SOL     OW31237   2.013   4.666   5.415  0.7213 -0.3882  0.3789
 6535SOL    HW131238   1.973   4.588   5.453 -1.1897 -0.0751 -0.9785
 6535SOL    HW231239   1.963   4.670   5.333 -1.3381 -1.9941  1.5347
 6536SOL     OW31240   0.162   1.855   7.462 -0.1167 -0.2795 -0.1036
 6536SOL    HW131241   0.238   1.821   7.414 -0.2678 -0.0150 -0.5277
 6536SOL    HW231242   0.210   1.924   7.508 -1.2485  1.2830 -1.2862
 6537SOL     OW31243   4.375   0.946   3.996  0.0974  0.4504 -0.6212
 6537SOL    HW131244   4.294   0.911   3.960 -1.1518  1.8935  0.7355
 6537SOL    HW231245   4.433   0.945   3.920  1.0016 -0.6906  0.0853
 6538SOL     OW31246   0.708   2.913  16.329  0.1328  0.4601 -0.2476
 6538SOL    HW131247   0.711   2.836  16.387 -0.6970  0.7404  0.1741
 6538SOL    HW231248   0.616   2.920  16.306  0.3368 -0.2784 -1.2466
 6539SOL     OW31249   3.446   3.142   7.375 -0.0036 -0.1689  0.5840
 6539SOL    HW131250   3.456   3.184   7.290 -0.3283  1.0665  1.1485
 6539SOL    HW231251   3.536   3.137   7.407  1.1504  0.9268 -2.5046
 6540SOL     OW31252   1.859   2.205   4.698  0.1486 -0.4834 -0.8206
 6540SOL    HW131253   1.894   2.294   4.705 -0.3199 -0.1611 -2.5452
 6540SOL    HW231254   1.812   2.203   4.781  0.5855 -0.2350 -0.5649
 6541SOL     OW31255   0.089   3.739   2.085  0.7086 -0.1884  0.1371
 6541SOL    HW131256   0.092   3.709   1.994  0.4640  1.2804 -0.3507
 6541SOL    HW231257   0.174   3.781   2.099  0.5859 -0.4647  1.7000
 6542SOL     OW31258   0.689   0.690   6.317 -0.3461 -0.5259 -1.1113
 6542SOL    HW131259   0.638   0.764   6.286  0.8288  0.3235 -1.0044
 6542SOL    HW231260   0.624   0.654   6.378  1.0496 -2.0823 -0.5568
 6543SOL     OW31261   1.212   1.924  14.597 -0.2146 -0.2242  0.6259
 6543SOL    HW131262   1.189   1.949  14.507 -1.9668  0.1307  1.1781
 6543SOL    HW231263   1.305   1.940  14.610 -0.4838  1.7739  0.1025
 6544SOL     OW31264   4.542   3.341   8.628 -0.2270  0.4998  0.0909
 6544SOL    HW131265   4.561   3.270   8.566 -0.7644  0.4014  0.0383
 6544SOL    HW231266   4.449   3.360   8.615  0.0575  1.9656  0.1660
 6545SOL     OW31267   2.831   3.999   4.956 -0.2733  0.1037  0.0110
 6545SOL    HW131268   2.866   3.941   5.023  1.4058  0.6104 -0.4288
 6545SOL    HW231269   2.736   3.986   4.968  0.0538 -0.1903  2.1588
 6546SOL     OW31270   1.062   2.950   3.696 -0.2789  0.3550  0.6653
 6546SOL    HW131271   0.994   3.005   3.736 -0.4375 -0.3075  1.3031
 6546SOL    HW231272   1.020   2.864   3.692 -0.6149  0.5343  0.3653
 6547SOL     OW31273   1.420   1.019  10.242 -0.2708  0.5529  0.3363
 6547SOL    HW131274   1.360   0.987  10.309 -1.3968  0.5809 -0.6585
 6547SOL    HW231275   1.362   1.046  10.171 -1.3326 -0.9052  0.6323
 6548SOL     OW31276   1.713   0.619   1.616 -0.2595 -0.5175 -0.3905
 6548SOL    HW131277   1.762   0.556   1.563  0.6101  3.0498 -3.8449
 6548SOL    HW231278   1.782   0.684   1.627 -1.1080  0.0691  1.5776
 6549SOL     OW31279   3.202   2.091   3.415  0.7695 -0.0155 -0.1878
 6549SOL    HW131280   3.206   2.181   3.382 -1.3396  0.3021  0.4391
 6549SOL    HW231281   3.294   2.069   3.400  0.3562 -0.2652 -2.3562
 6550SOL     OW31282   4.427   0.513   2.099 -0.7021  0.4795 -0.3906
 6550SOL    HW131283   4.484   0.540   2.171 -2.0675  1.0989  0.4675
 6550SOL    HW231284   4.498   0.519   2.036  0.5585  0.5330  1.0267
 6551SOL     OW31285   0.809   1.939   9.097  0.0215  0.0375  0.0159
 6551SOL    HW131286   0.846   1.860   9.137  3.0909  0.1969 -2.4622
 6551SOL    HW231287   0.728   1.913   9.053 -0.3987  1.1173  0.1554
 6552SOL     OW31288   0.290   4.554   4.396 -0.3873  0.2514  0.0457
 6552SOL    HW131289   0.256   4.471   4.431 -3.2404  1.1867 -0.5304
 6552SOL    HW231290   0.337   4.586   4.473  0.5861  0.6138 -0.7065
 6553SOL     OW31291   0.495   0.835   8.734 -0.3149  0.5210  0.0094
 6553SOL    HW131292   0.520   0.869   8.649  3.6932  0.5883  1.2070
 6553SOL    HW231293   0.581   0.816   8.774  0.3174  2.3434 -0.5106
 6554SOL     OW31294   1.371   0.179   9.324 -0.2912  0.0385  0.2408
 6554SOL    HW131295   1.464   0.159   9.332 -0.4857 -0.5868  0.9897
 6554SOL    HW231296   1.362   0.238   9.400  1.8772  1.5467 -0.6815
 6555SOL     OW31297   0.611   2.871  14.575  0.1689  0.2219 -0.3876
 6555SOL    HW131298   0.632   2.877  14.482  0.0638 -1.2584 -0.5013
 6555SOL    HW231299   0.698   2.868  14.616 -0.5498 -0.6370  1.0702
 6556SOL     OW31300   4.243   2.417   5.887 -0.8486 -0.3059  0.1030
 6556SOL    HW131301   4.336   2.417   5.866 -1.0183  0.4547 -0.6174
 6556SOL    HW231302   4.229   2.349   5.953 -0.7172  0.5181  0.9867
 6557SOL     OW31303   1.333   0.036   4.058  0.1381 -0.4672  0.5682
 6557SOL    HW131304   1.239   0.025   4.041  0.4111 -0.3708 -0.9679
 6557SOL    HW231305   1.327   0.088   4.139  0.5629  0.9694 -0.3301
 6558SOL     OW31306   2.034   4.304   9.677 -0.4540 -0.2290 -0.0864
 6558SOL    HW131307   2.060   4.235   9.616  1.6147 -0.2014  0.7711
 6558SOL    HW231308   2.002   4.375   9.622 -1.3663  1.9901  3.2749
 6559SOL     OW31309   2.934   0.543   8.690  0.3575 -0.0739 -0.8726
 6559SOL    HW131310   2.967   0.617   8.640  0.9593 -0.3804 -0.9196
 6559SOL    HW231311   2.995   0.490   8.639  0.9435  0.4995 -0.7680
 6560SOL     OW31312   1.210   0.590  17.300  0.0685  0.2780  0.5234
 6560SOL    HW131313   1.134   0.549  17.341 -0.3795 -1.3894 -1.9474
 6560SOL    HW231314   1.248   0.638  17.373  1.0485  0.4712 -0.1045
 6561SOL     OW31315   1.524   1.683   9.604 -0.0026  0.3663  0.2641
 6561SOL    HW131316   1.558   1.760   9.651 -0.0216 -0.2326  1.2386
 6561SOL    HW231317   1.544   1.711   9.515  1.4030 -1.5116 -0.0084
 6562SOL     OW31318   2.917   2.633  15.739 -0.7033  0.1361 -0.2487
 6562SOL    HW131319   2.829   2.659  15.714 -0.7937 -1.6399 -1.7664
 6562SOL    HW231320   2.959   2.644  15.654  1.0986  0.8898  0.7375
 6563SOL     OW31321   1.878   4.511   9.545  0.3014 -0.2934  0.0452
 6563SOL    HW131322   1.925   4.590   9.572  1.0325 -1.2832  1.7123
 6563SOL    HW231323   1.841   4.543   9.463  2.0871 -1.5926 -1.2823
 6564SOL     OW31324   2.619   2.239   7.574 -0.3343  0.4175  0.2632
 6564SOL    HW131325   2.539   2.188   7.583 -0.6560  0.7289 -0.7871
 6564SOL    HW231326   2.688   2.175   7.593 -0.9035  0.0420  1.0522
 6565SOL     OW31327   0.240   3.651   8.498  0.3154  0.5066 -0.2077
 6565SOL    HW131328   0.270   3.662   8.588 -1.3729  0.6259  0.3362
 6565SOL    HW231329   0.322   3.676   8.456 -0.9450  1.9086 -1.8395
 6566SOL     OW31330   2.562   0.656   5.295 -0.2113 -0.2632 -0.2624
 6566SOL    HW131331   2.499   0.656   5.367 -1.4851  1.1515 -1.3678
 6566SOL    HW231332   2.647   0.682   5.332 -0.4726 -3.2564  2.4353
 6567SOL     OW31333   3.459   2.676   4.124 -0.2715 -0.4725  0.3659
 6567SOL    HW131334   3.503   2.635   4.050 -0.5730 -3.0862  1.6298
 6567SOL    HW231335   3.399   2.729   4.071  2.5602  1.3341 -1.0233
 6568SOL     OW31336   1.179   4.155  17.500 -0.2752  0.0327 -0.1583
 6568SOL    HW131337   1.154   4.242  17.529 -0.2788  1.0947 -3.3678
 6568SOL    HW231338   1.105   4.103  17.530 -1.1822  0.0646 -2.3142
 6569SOL     OW31339   1.506   0.029   4.427  0.0889 -0.2629 -0.3264
 6569SOL    HW131340   1.473   0.092   4.363  1.6378 -3.2455 -4.1220
 6569SOL    HW231341   1.586   0.076   4.449  0.2525  0.0338 -1.5172
 6570SOL     OW31342   4.225   3.982   8.865 -0.0018  0.1254 -0.0990
 6570SOL    HW131343   4.279   4.045   8.912 -0.2599  0.4639 -0.2607
 6570SOL    HW231344   4.259   3.996   8.776 -0.3584 -0.2516 -0.2942
 6571SOL     OW31345   4.267   0.785   4.450 -0.1619  0.2949  0.0042
 6571SOL    HW131346   4.288   0.704   4.498 -0.4327  0.5235  0.5062
 6571SOL    HW231347   4.327   0.793   4.376 -0.4089 -1.5845 -0.4114
 6572SOL     OW31348   1.889   1.424   7.234  0.3102  0.1044  0.0336
 6572SOL    HW131349   1.900   1.435   7.140  0.8996  0.7864  0.1823
 6572SOL    HW231350   1.856   1.509   7.263  1.4201 -0.1399  2.0083
 6573SOL     OW31351   4.579   0.582   4.734 -0.0402  0.3731  0.0299
 6573SOL    HW131352   4.644   0.598   4.803  0.0097 -0.4593  0.1694
 6573SOL    HW231353   4.624   0.523   4.674  2.7389  1.3297  1.1629
 6574SOL     OW31354   2.105   1.851   6.022 -0.2580 -0.0978  0.0139
 6574SOL    HW131355   2.161   1.828   6.097 -0.2643 -0.9490 -0.2440
 6574SOL    HW231356   2.137   1.791   5.954 -0.0080  1.3309 -1.1270
 6575SOL     OW31357   4.300   1.355   9.652 -0.3421  0.2081  0.1987
 6575SOL    HW131358   4.311   1.263   9.675  0.1461  0.0440 -0.6885
 6575SOL    HW231359   4.272   1.389   9.737 -0.5299 -1.7464  0.9128
 6576SOL     OW31360   0.589   0.436   6.177 -0.1126 -0.1488  0.0500
 6576SOL    HW131361   0.581   0.495   6.102  0.2081  0.7606  0.7367
 6576SOL    HW231362   0.671   0.464   6.216  0.6444 -1.0197 -0.9047
 6577SOL     OW31363   3.251   3.133   2.003 -0.8344  0.5911  0.3179
 6577SOL    HW131364   3.199   3.053   2.008 -1.6850  1.0354 -1.2590
 6577SOL    HW231365   3.183   3.198   1.988 -0.4824  0.7571 -0.5730
 6578SOL     OW31366   2.533   1.863   0.389  0.0988 -0.5476 -0.2048
 6578SOL    HW131367   2.537   1.833   0.479 -3.0881 -1.4936 -0.3837
 6578SOL    HW231368   2.456   1.818   0.356 -0.9595  2.2850 -1.6175
 6579SOL     OW31369   1.350   1.628   0.621 -0.7107 -0.1699  0.2282
 6579SOL    HW131370   1.266   1.672   0.628 -1.7096 -1.3070 -4.0770
 6579SOL    HW231371   1.326   1.537   0.640 -0.0107 -0.3343  0.3218
 6580SOL     OW31372   4.587   1.995   3.174  0.3127  0.2760 -0.1027
 6580SOL    HW131373   4.496   2.000   3.203  0.6957 -0.9277  1.3064
 6580SOL    HW231374   4.589   2.039   3.089 -1.3745 -0.5761 -0.5807
 6581SOL     OW31375   1.407   4.050   7.514 -0.4107  0.0068 -0.2924
 6581SOL    HW131376   1.455   3.967   7.515  2.8538  1.9140  2.9152
 6581SOL    HW231377   1.336   4.022   7.571 -1.4352  0.1520 -1.5123
 6582SOL     OW31378   1.443   0.005  12.789  0.1047  0.6964 -0.1330
 6582SOL    HW131379   1.490   0.012  12.706  0.1028 -1.9540 -0.3542
 6582SOL    HW231380   1.367   0.060  12.767  1.0981  2.3179  0.5184
 6583SOL     OW31381   2.638   3.744   7.146  0.3269  0.6899 -0.8124
 6583SOL    HW131382   2.695   3.725   7.071 -0.4317 -0.4358 -1.0960
 6583SOL    HW231383   2.698   3.783   7.210 -0.0784 -1.0894  0.6306
 6584SOL     OW31384   4.663   2.289   7.783  0.3582  0.1063 -0.5611
 6584SOL    HW131385   4.722   2.359   7.811  0.6947  0.3733 -1.9265
 6584SOL    HW231386   4.575   2.309   7.816 -0.0135 -1.4850 -0.5684
 6585SOL     OW31387   2.259   2.109  12.567 -0.6066 -0.3476  0.2643
 6585SOL    HW131388   2.194   2.157  12.619  0.6999 -1.2891  2.7480
 6585SOL    HW231389   2.335   2.107  12.625 -0.8857 -0.9578  0.6144
 6586SOL     OW31390   4.285   3.143   9.296 -0.1642 -0.3038 -0.0852
 6586SOL    HW131391   4.217   3.181   9.352 -0.6801  0.1999 -1.0602
 6586SOL    HW231392   4.243   3.059   9.277 -2.2911  0.6953  0.2299
 6587SOL     OW31393   1.080   2.737   9.693 -0.2703  0.4302 -0.2429
 6587SOL    HW131394   0.999   2.687   9.690 -0.5163  0.8117  0.0090
 6587SOL    HW231395   1.142   2.668   9.715  0.2674  0.9250 -0.2127
 6588SOL     OW31396   2.278   0.942   8.855  0.0792 -0.5741 -0.7252
 6588SOL    HW131397   2.282   1.035   8.878 -0.3621 -0.8141  0.2921
 6588SOL    HW231398   2.244   0.912   8.939  0.6200  0.4737 -0.1341
 6589SOL     OW31399   0.519   1.901   2.683  0.6442 -0.2692 -0.0959
 6589SOL    HW131400   0.514   1.995   2.667  0.2445 -0.0608  1.2421
 6589SOL    HW231401   0.580   1.871   2.615 -0.4646  0.9074 -1.6037
 6590SOL     OW31402   4.254   3.077  14.238 -0.2508 -0.2060 -0.0862
 6590SOL    HW131403   4.303   3.059  14.318  0.6390  0.7825 -0.4185
 6590SOL    HW231404   4.330   3.112  14.192  0.9520  0.3349  2.3000
 6591SOL     OW31405   3.989   0.644   6.218 -0.4444 -0.0873 -0.2997
 6591SOL    HW131406   4.022   0.725   6.180  0.2612 -0.5503 -0.6767
 6591SOL    HW231407   4.070   0.592   6.219 -0.3523  0.0731  1.1805
 6592SOL     OW31408   3.028   2.111   2.873  0.5888 -0.2102 -0.1748
 6592SOL    HW131409   2.982   2.194   2.862 -1.2870 -1.2552 -0.1107
 6592SOL    HW231410   3.087   2.105   2.798  0.4213  0.0154 -0.3239
 6593SOL     OW31411   3.277   0.436   3.840 -0.1081  0.4114 -0.4944
 6593SOL    HW131412   3.274   0.459   3.933  1.1381  0.1696 -0.3963
 6593SOL    HW231413   3.184   0.426   3.822 -0.2986  0.7534  0.2760
 6594SOL     OW31414   3.526   1.710  17.171  0.0560  0.5434 -0.2557
 6594SOL    HW131415   3.587   1.637  17.161 -0.4713 -0.2760  2.7031
 6594SOL    HW231416   3.558   1.780  17.114 -1.7863 -0.5148 -2.5989
 6595SOL     OW31417   1.288   2.892   3.869 -0.3336  0.2217  0.9122
 6595SOL    HW131418   1.365   2.865   3.820 -0.0163  0.2856  1.3681
 6595SOL    HW231419   1.220   2.900   3.802 -0.1434 -0.9758  0.5716
 6596SOL     OW31420   0.183   1.234   8.954 -0.0788 -0.1330 -0.3850
 6596SOL    HW131421   0.152   1.186   9.031 -1.3897 -0.1135 -0.9016
 6596SOL    HW231422   0.245   1.171   8.917  0.3568 -0.6867  1.2534
 6597SOL     OW31423   4.533   0.946  15.297  0.7309  0.4437 -0.7965
 6597SOL    HW131424   4.561   1.015  15.238  0.1648 -1.3213 -3.1352
 6597SOL    HW231425   4.482   0.988  15.367 -1.5640 -1.2509 -1.4344
 6598SOL     OW31426   0.393   0.083   9.949  0.2996 -0.7884  0.0548
 6598SOL    HW131427   0.369   0.008   9.895  2.0127  0.9188 -3.0461
 6598SOL    HW231428   0.485   0.101   9.932  0.5718 -2.7974 -0.6295
 6599SOL     OW31429   3.485   0.839   2.590  0.0317 -0.5040 -0.3867
 6599SOL    HW131430   3.437   0.910   2.547  2.4759  0.4588 -1.5284
 6599SOL    HW231431   3.503   0.788   2.511 -1.2599 -0.6157 -0.6172
 6600SOL     OW31432   0.395   4.082   3.450  0.1476  0.4278 -0.1539
 6600SOL    HW131433   0.428   4.154   3.398 -1.2236  1.1782  0.0174
 6600SOL    HW231434   0.369   4.131   3.528  1.1373 -0.3183  0.6588
 6601SOL     OW31435   4.044   2.009   8.496  0.1936  0.3729  0.0552
 6601SOL    HW131436   4.090   2.035   8.416 -0.3275  1.0510 -0.0279
 6601SOL    HW231437   3.959   2.043   8.467 -1.4159 -2.3707  1.5530
 6602SOL     OW31438   1.307   3.738   6.586 -0.0752 -0.8564 -0.0587
 6602SOL    HW131439   1.368   3.811   6.573 -1.0173  0.0748  0.7930
 6602SOL    HW231440   1.318   3.685   6.507 -0.2554 -0.4127 -0.3842
 6603SOL     OW31441   2.729   3.378  15.446 -0.1429  0.1172 -0.6311
 6603SOL    HW131442   2.722   3.384  15.541  0.9882  2.4694 -0.6992
 6603SOL    HW231443   2.812   3.336  15.424  0.4197  0.7238  0.3442
 6604SOL     OW31444   3.704   0.706  16.417 -0.0486  0.4511 -0.2367
 6604SOL    HW131445   3.644   0.636  16.441  0.2628  0.1470 -0.3500
 6604SOL    HW231446   3.745   0.731  16.499 -1.1407 -1.1510  0.7908
 6605SOL     OW31447   2.536   1.010   7.410 -0.3693  0.1405 -0.8857
 6605SOL    HW131448   2.518   0.916   7.412 -0.7096  0.1883 -1.4597
 6605SOL    HW231449   2.462   1.049   7.456 -0.5884  2.3943 -3.0910
 6606SOL     OW31450   1.109   0.989   5.315 -0.0577  0.0179 -0.0968
 6606SOL    HW131451   1.088   1.054   5.248  0.2704  1.1264  0.8754
 6606SOL    HW231452   1.157   0.932   5.255 -0.0542 -1.1058  0.9694
 6607SOL     OW31453   2.864   2.228   4.928 -0.2146  0.2040 -0.1005
 6607SOL    HW131454   2.924   2.288   4.883 -0.6334  0.3403 -0.4718
 6607SOL    HW231455   2.791   2.209   4.869 -0.0370  2.1394 -0.9553
 6608SOL     OW31456   2.845   4.528   3.500 -0.3874  0.0141  0.1272
 6608SOL    HW131457   2.785   4.486   3.439  0.4734  0.6835 -1.1909
 6608SOL    HW231458   2.797   4.610   3.506  0.7662  0.5740  1.9568
 6609SOL     OW31459   1.396   3.802   6.063  0.4624  0.1763 -0.5055
 6609SOL    HW131460   1.370   3.716   6.096  0.9172 -0.6489 -2.3189
 6609SOL    HW231461   1.415   3.847   6.145  1.1689 -0.6320 -0.2251
 6610SOL     OW31462   2.063   4.529  13.497 -0.1842 -0.1694 -0.4742
 6610SOL    HW131463   2.150   4.566  13.485 -0.4520  0.5217 -0.2428
 6610SOL    HW231464   2.068   4.462  13.428 -1.4513  0.0835 -0.7999
 6611SOL     OW31465   2.318   1.027   4.478 -0.8305 -0.2074 -0.3541
 6611SOL    HW131466   2.287   0.986   4.558  2.1268  0.9101  1.3707
 6611SOL    HW231467   2.324   0.946   4.428  0.6597 -0.3614  0.0518
 6612SOL     OW31468   0.488   1.567   4.492  0.1527 -0.1395 -0.4339
 6612SOL    HW131469   0.422   1.636   4.502  2.0854  1.4784  1.2461
 6612SOL    HW231470   0.551   1.620   4.443  1.0817  0.2183  1.1370
 6613SOL     OW31471   1.434   4.466   8.309  0.0100  0.7628  0.3728
 6613SOL    HW131472   1.497   4.423   8.252 -0.0705 -0.4726  1.2074
 6613SOL    HW231473   1.385   4.513   8.241  0.7138  0.4388 -0.3492
 6614SOL     OW31474   0.133   1.475   8.853 -0.2674  1.2349  0.5276
 6614SOL    HW131475   0.224   1.482   8.822 -0.5753  1.5241 -0.3095
 6614SOL    HW231476   0.132   1.384   8.883  2.4415  0.0989 -2.8231
 6615SOL     OW31477   4.107   1.980  16.454 -0.2035  0.1525  0.3201
 6615SOL    HW131478   4.018   1.947  16.439 -1.0490  2.4891  0.1501
 6615SOL    HW231479   4.131   1.991  16.362  1.5887 -1.6254  0.5788
 6616SOL     OW31480   4.691   1.317   8.275 -0.1330  0.2019  0.0074
 6616SOL    HW131481   4.729   1.298   8.361  0.8479 -4.6233 -1.4913
 6616SOL    HW231482   4.602   1.331   8.306 -0.0589  1.1537 -0.2061
 6617SOL     OW31483   2.087   2.041  17.518  0.0840 -0.0709  0.1075
 6617SOL    HW131484   2.008   2.009  17.475  0.5929 -0.2478 -0.7014
 6617SOL    HW231485   2.084   1.993  17.601  1.4196 -0.6918 -0.2046
 6618SOL     OW31486   2.325   0.295  12.337 -0.3127 -0.4222  0.0812
 6618SOL    HW131487   2.401   0.242  12.364  0.4085  0.2649 -0.6143
 6618SOL    HW231488   2.283   0.248  12.265 -2.1716 -1.1163  1.6386
 6619SOL     OW31489   1.172   0.371   0.818 -0.4021 -0.4580  0.6655
 6619SOL    HW131490   1.151   0.408   0.904 -1.2887  0.1539  0.1906
 6619SOL    HW231491   1.230   0.299   0.842  2.3576  1.7310  0.5155
 6620SOL     OW31492   1.672   4.380   1.318  0.7772 -0.4397 -0.1555
 6620SOL    HW131493   1.759   4.372   1.279 -0.1152 -1.1450 -2.0025
 6620SOL    HW231494   1.616   4.381   1.240  0.6715  0.7610 -0.0643
 6621SOL     OW31495   4.712   2.682   1.794 -0.0180  0.4133 -0.6636
 6621SOL    HW131496   4.663   2.745   1.741  0.6718 -0.3282 -2.2008
 6621SOL    HW231497   0.060   2.695   1.754  0.6306 -0.0362  0.5799
 6622SOL     OW31498   3.795   2.633   3.248  0.4664  0.1116 -0.5012
 6622SOL    HW131499   3.886   2.604   3.253 -1.1347 -4.6132  1.3633
 6622SOL    HW231500   3.796   2.681   3.166  1.0079 -0.6245 -0.9275
 6623SOL     OW31501   2.607   1.693   4.858  0.1393 -0.0409 -0.5115
 6623SOL    HW131502   2.548   1.638   4.806 -0.6140 -1.1160  1.5013
 6623SOL    HW231503   2.613   1.771   4.803  0.7342 -0.3326 -0.8619
 6624SOL     OW31504   1.802   4.662  17.640 -0.1029  0.1501  0.3531
 6624SOL    HW131505   1.826   4.584  17.589 -1.1797  0.2607 -0.3245
 6624SOL    HW231506   1.709   4.652  17.622 -0.0038 -1.8770  1.0209
 6625SOL     OW31507   0.685   1.186   9.647  0.0574 -0.6831 -0.3278
 6625SOL    HW131508   0.670   1.276   9.677  0.4204 -1.1154  1.1801
 6625SOL    HW231509   0.598   1.169   9.612 -0.0388 -2.7427  0.9218
 6626SOL     OW31510   4.015   1.835   2.366 -0.4163  0.2985  0.0976
 6626SOL    HW131511   4.026   1.749   2.327  1.9094  0.7329 -0.1833
 6626SOL    HW231512   3.937   1.814   2.417  0.2984 -1.1397  0.5794
 6627SOL     OW31513   2.613   3.302   7.340  0.6795 -0.2092  0.4159
 6627SOL    HW131514   2.599   3.332   7.430  1.6913  1.1888  0.1080
 6627SOL    HW231515   2.590   3.385   7.299  1.5741  0.9716  2.2920
 6628SOL     OW31516   2.620   0.741   8.386  0.0121  0.3115 -0.9630
 6628SOL    HW131517   2.547   0.797   8.411 -0.1943 -0.3497 -0.0938
 6628SOL    HW231518   2.694   0.797   8.410  1.7856 -3.3968  2.2497
 6629SOL     OW31519   3.706   4.213   7.514  0.8637  0.2384  0.0749
 6629SOL    HW131520   3.716   4.151   7.587  2.1642  2.2625  1.5990
 6629SOL    HW231521   3.611   4.209   7.499  0.6345  1.0120  1.3835
 6630SOL     OW31522   4.709   4.027  12.933 -0.4120 -0.4968 -0.1321
 6630SOL    HW131523   0.034   4.017  12.862  0.2461 -0.0635  0.3826
 6630SOL    HW231524   4.718   4.117  12.964 -0.0534 -0.4363 -0.4228
 6631SOL     OW31525   2.489   0.095  11.916 -0.1577 -0.2500  0.1668
 6631SOL    HW131526   2.440   0.027  11.962 -0.5366 -0.2867 -0.2882
 6631SOL    HW231527   2.423   0.163  11.905 -0.3314 -0.5463 -0.5726
 6632SOL     OW31528   2.136   1.651  16.392 -0.7539 -0.7671 -0.2471
 6632SOL    HW131529   2.126   1.558  16.413 -1.6350 -0.3592  1.1200
 6632SOL    HW231530   2.114   1.649  16.299 -0.2069  0.1805 -0.3919
 6633SOL     OW31531   1.853   1.008   9.946  0.2444 -0.0885  0.3045
 6633SOL    HW131532   1.841   0.976  10.036  0.1155 -1.6113 -0.2572
 6633SOL    HW231533   1.844   1.103   9.958  1.5049 -0.1712  1.9158
 6634SOL     OW31534   4.610   4.227   4.718 -0.3847  0.9632 -0.2502
 6634SOL    HW131535   4.662   4.147   4.710 -2.9070 -0.7592  0.5414
 6634SOL    HW231536   4.635   4.252   4.806 -1.1189  2.2466 -0.4104
 6635SOL     OW31537   3.599   1.253   9.147  0.2069  0.1620 -0.1392
 6635SOL    HW131538   3.527   1.194   9.125 -0.0544  0.6839 -0.6804
 6635SOL    HW231539   3.566   1.311   9.215 -1.0406 -0.6345 -0.0683
 6636SOL     OW31540   3.320   0.653   7.738 -0.1871  0.6487  0.5155
 6636SOL    HW131541   3.346   0.633   7.828  0.0085  0.6059  0.4501
 6636SOL    HW231542   3.244   0.597   7.726 -0.1171  1.0984 -1.9943
 6637SOL     OW31543   0.685   3.950   0.876 -0.8232 -0.0909 -0.5156
 6637SOL    HW131544   0.649   3.983   0.793 -2.2801  1.0703  0.5800
 6637SOL    HW231545   0.716   4.026   0.925  0.8287 -0.5597 -0.8258
 6638SOL     OW31546   3.516   4.080  17.219  0.1636 -0.0522 -0.2218
 6638SOL    HW131547   3.568   4.039  17.150  0.5292  0.7526 -0.4240
 6638SOL    HW231548   3.430   4.063  17.180  0.8350  1.1722 -2.2618
 6639SOL     OW31549   0.178   3.581   8.096  0.7702 -0.4651 -0.1590
 6639SOL    HW131550   0.251   3.594   8.157 -1.0128  2.4329  1.3770
 6639SOL    HW231551   0.227   3.588   8.014 -0.0393 -0.2242 -0.6215
 6640SOL     OW31552   4.644   1.288  12.763  0.2508 -0.3594 -0.1419
 6640SOL    HW131553   4.647   1.344  12.841  1.0287  0.1615 -0.5421
 6640SOL    HW231554   4.658   1.204  12.807 -0.0030  0.0291  0.6795
 6641SOL     OW31555   1.129   1.555  16.196  0.4782 -0.0974  0.0215
 6641SOL    HW131556   1.097   1.600  16.274 -1.2829  0.1022 -0.8008
 6641SOL    HW231557   1.222   1.572  16.206  0.2484  1.1119  0.0440
 6642SOL     OW31558   4.199   0.754   3.933 -0.3615  0.2640 -0.6861
 6642SOL    HW131559   4.214   0.690   4.003 -1.4841  1.2466  0.4412
 6642SOL    HW231560   4.204   0.704   3.851  0.4662 -1.0033  0.1442
 6643SOL     OW31561   1.266   2.031   5.714  0.2310 -0.0242 -0.1077
 6643SOL    HW131562   1.341   2.066   5.666 -0.0862 -0.8713 -1.2077
 6643SOL    HW231563   1.258   2.090   5.789  1.4739 -1.6712  1.3282
 6644SOL     OW31564   0.700   2.845   7.462 -0.2236  0.4611  0.5876
 6644SOL    HW131565   0.618   2.893   7.469 -0.6286 -0.1698  0.0528
 6644SOL    HW231566   0.689   2.771   7.522  2.4951 -2.2786 -2.3093
 6645SOL     OW31567   3.376   0.081   5.296  0.0020 -0.4040  0.3647
 6645SOL    HW131568   3.316   0.156   5.287  1.5536  0.9564  1.2948
 6645SOL    HW231569   3.374   0.068   5.390  1.6888 -0.4193  0.4015
 6646SOL     OW31570   3.962   1.768   0.765 -0.0490  0.2816 -0.4619
 6646SOL    HW131571   3.913   1.810   0.694  1.4339  0.3575 -1.4549
 6646SOL    HW231572   4.024   1.721   0.709 -0.3763 -0.3754 -0.2696
 6647SOL     OW31573   2.378   3.679   8.648  0.3357 -0.8674  0.3578
 6647SOL    HW131574   2.308   3.715   8.593 -0.0625  0.8702  1.9904
 6647SOL    HW231575   2.454   3.706   8.595 -0.7228  1.7956  0.1761
 6648SOL     OW31576   1.299   2.719   4.367  0.0430  0.0752  0.1062
 6648SOL    HW131577   1.247   2.642   4.342  0.4935 -1.0999  2.7770
 6648SOL    HW231578   1.367   2.680   4.422 -2.0439  1.6080  3.7334
 6649SOL     OW31579   0.244   2.461  10.926 -0.6677  0.6433  0.4065
 6649SOL    HW131580   0.170   2.478  10.985  0.6266  0.9917  1.9220
 6649SOL    HW231581   0.325   2.470  10.975 -0.1146  0.5812 -0.5065
 6650SOL     OW31582   1.865   2.452  10.680 -0.1655 -0.7135  0.2302
 6650SOL    HW131583   1.771   2.438  10.685 -0.2162 -0.5169 -0.1668
 6650SOL    HW231584   1.878   2.541  10.712  0.0362 -0.3466 -0.8430
 6651SOL     OW31585   4.239   4.627  11.740  0.7160 -0.4756 -0.1211
 6651SOL    HW131586   4.270   4.546  11.780  1.2590  0.4726  1.3901
 6651SOL    HW231587   4.144   4.619  11.744  0.7103  1.1937  3.4224
 6652SOL     OW31588   3.752   0.321   6.915  0.1444  0.0293 -0.0802
 6652SOL    HW131589   3.725   0.298   6.826  0.5596 -0.0866 -0.1781
 6652SOL    HW231590   3.671   0.346   6.960  1.1625  0.8993  1.2747
 6653SOL     OW31591   1.459   3.972   8.364  0.1827  1.0948  0.5251
 6653SOL    HW131592   1.553   3.980   8.353  0.0546 -0.3503 -1.8253
 6653SOL    HW231593   1.436   3.957   8.272  2.2724 -2.1674  0.5342
 6654SOL     OW31594   3.853   0.302   5.752  0.0937 -0.0384 -0.5664
 6654SOL    HW131595   3.831   0.360   5.825 -1.1961 -0.5724 -0.5198
 6654SOL    HW231596   3.886   0.363   5.687 -2.4999 -0.0637 -1.9150
 6655SOL     OW31597   1.830   1.259   1.729  0.4547  0.1969 -0.3212
 6655SOL    HW131598   1.818   1.204   1.652  0.2514 -1.0703  0.6192
 6655SOL    HW231599   1.745   1.245   1.770  0.1533  0.5296 -0.8284
 6656SOL     OW31600   1.772   0.882   9.438 -0.1041 -0.7706  0.2570
 6656SOL    HW131601   1.738   0.795   9.460 -0.4338 -1.0008 -1.0988
 6656SOL    HW231602   1.756   0.926   9.521 -0.5533  0.2394 -0.3625
 6657SOL     OW31603   2.607   0.505   5.636  0.0452 -0.1195 -0.4097
 6657SOL    HW131604   2.677   0.567   5.660 -1.1382  0.7542  0.7971
 6657SOL    HW231605   2.662   0.437   5.599  0.5636  1.8690 -3.2690
 6658SOL     OW31606   3.730   0.240   0.788  0.3403  0.7454 -0.1831
 6658SOL    HW131607   3.793   0.226   0.858 -0.9351 -0.1540  0.8020
 6658SOL    HW231608   3.770   0.199   0.711  1.5411  1.8585 -0.1559
 6659SOL     OW31609   1.961   1.276   2.707  0.3801 -0.0403 -0.2671
 6659SOL    HW131610   1.938   1.369   2.705 -1.9799 -0.5723  2.1480
 6659SOL    HW231611   1.982   1.265   2.800  0.1560 -1.1336 -0.3551
 6660SOL     OW31612   2.807   2.244   3.120 -0.2171  0.0579 -0.3702
 6660SOL    HW131613   2.725   2.235   3.072  0.5322 -2.7687 -1.1090
 6660SOL    HW231614   2.838   2.154   3.118  0.3786  0.2722 -0.6782
 6661SOL     OW31615   3.404   3.425   6.304  0.0599 -0.6553  0.5383
 6661SOL    HW131616   3.435   3.366   6.373 -0.3647 -0.1839  1.1378
 6661SOL    HW231617   3.368   3.361   6.244 -0.7360 -0.7953  1.1648
 6662SOL     OW31618   4.270   1.943   1.626 -0.2363 -0.1335 -0.0469
 6662SOL    HW131619   4.259   1.869   1.567  0.0095 -0.2450  0.0454
 6662SOL    HW231620   4.273   2.019   1.567 -0.1518  0.8191  1.1953
 6663SOL     OW31621   2.273   3.177   7.129 -0.1519  0.1031  0.3354
 6663SOL    HW131622   2.186   3.204   7.158 -0.4808  1.3946 -1.8621
 6663SOL    HW231623   2.320   3.151   7.208 -1.1671  0.3880  1.0276
 6664SOL     OW31624   1.928   1.303   3.400  0.0757  0.4236 -0.5603
 6664SOL    HW131625   2.012   1.347   3.411 -1.2369  2.2816  2.0226
 6664SOL    HW231626   1.952   1.222   3.444  1.0400  0.6882 -0.6039
 6665SOL     OW31627   2.236   1.980  16.043 -0.1257 -0.5374 -0.2352
 6665SOL    HW131628   2.241   1.935  15.959  3.0486 -0.4833 -0.0609
 6665SOL    HW231629   2.156   1.940  16.076 -0.1592 -0.4406 -0.1991
 6666SOL     OW31630   4.381   3.467   0.522 -0.2073  0.2627  0.9152
 6666SOL    HW131631   4.399   3.553   0.560 -1.5043  0.4813  1.0326
 6666SOL    HW231632   4.428   3.413   0.586  1.7331 -0.6302 -1.2387
 6667SOL     OW31633   1.897   1.917   2.159 -0.0945 -0.3520 -0.3721
 6667SOL    HW131634   1.964   1.892   2.095 -0.3332 -0.2860 -0.6463
 6667SOL    HW231635   1.933   1.892   2.245 -2.0497 -2.1683 -0.0961
 6668SOL     OW31636   2.428   4.293   3.927 -0.4571 -0.2062  0.1704
 6668SOL    HW131637   2.398   4.349   3.998  1.2351  0.8653  0.0449
 6668SOL    HW231638   2.343   4.251   3.913 -0.8450  0.6042  0.0890
 6669SOL     OW31639   2.864   2.980  14.449 -0.3044  0.2388 -0.4192
 6669SOL    HW131640   2.819   2.978  14.534  0.9019  0.4118  0.2311
 6669SOL    HW231641   2.930   3.047  14.466 -0.3005  0.5237 -1.6188
 6670SOL     OW31642   1.805   1.613   7.440 -1.0077 -0.1480  0.3514
 6670SOL    HW131643   1.857   1.668   7.499 -0.8560  0.5822 -0.4587
 6670SOL    HW231644   1.834   1.529   7.474  1.6379 -0.1538 -1.9524
 6671SOL     OW31645   4.524   2.458   9.116  0.0548 -0.0616 -0.6098
 6671SOL    HW131646   4.510   2.472   9.210 -0.7893  3.7768 -1.3087
 6671SOL    HW231647   4.551   2.546   9.090  1.8304 -0.6329 -0.6762
 6672SOL     OW31648   4.484   2.277   5.477 -0.4855 -0.3477  0.3314
 6672SOL    HW131649   4.520   2.332   5.547 -0.8387 -0.2393  0.4283
 6672SOL    HW231650   4.434   2.349   5.439 -0.3832  0.0833  1.0000
 6673SOL     OW31651   2.644   0.413   5.902  0.5562 -0.2167  0.3393
 6673SOL    HW131652   2.709   0.439   5.968  1.5445  1.2924 -1.2217
 6673SOL    HW231653   2.655   0.479   5.833  2.5418  0.0112  0.8571
 6674SOL     OW31654   2.725   0.111   1.840  0.5431  0.6683 -0.0246
 6674SOL    HW131655   2.656   0.139   1.780 -1.1335 -0.6150  1.2952
 6674SOL    HW231656   2.686   0.145   1.920  0.8144  1.6793 -0.3254
 6675SOL     OW31657   4.198   0.201   2.502 -0.2035 -0.1653 -0.1867
 6675SOL    HW131658   4.151   0.172   2.581 -1.5630  0.8049 -0.6454
 6675SOL    HW231659   4.140   0.270   2.473 -1.4599 -1.3523 -0.4845
 6676SOL     OW31660   2.579   1.159   8.012 -0.0736  0.3303 -0.3235
 6676SOL    HW131661   2.586   1.066   7.990 -1.3899  0.0711  0.3301
 6676SOL    HW231662   2.483   1.162   8.017 -0.1728  1.8042 -3.0290
 6677SOL     OW31663   1.829   1.425   1.267 -0.7715 -0.0761 -0.3890
 6677SOL    HW131664   1.739   1.421   1.300  0.3853 -1.7123  2.5754
 6677SOL    HW231665   1.843   1.331   1.272 -2.6215 -0.3627 -0.4727
 6678SOL     OW31666   3.991   4.226   2.338 -0.0292 -0.2379 -0.3930
 6678SOL    HW131667   3.935   4.149   2.340  0.6819 -0.7122  1.5195
 6678SOL    HW231668   4.055   4.199   2.404  1.5729  0.8010 -1.5146
 6679SOL     OW31669   1.282   0.357   8.344 -0.2009  0.2573  0.1249
 6679SOL    HW131670   1.356   0.401   8.302 -1.2103  0.6017 -1.3133
 6679SOL    HW231671   1.268   0.397   8.429 -1.7332  1.3305 -0.6225
 6680SOL     OW31672   1.869   4.400   1.977  0.0033 -0.8732  0.4473
 6680SOL    HW131673   1.919   4.327   2.012  0.4123 -1.3613 -1.1635
 6680SOL    HW231674   1.800   4.397   2.044  0.2476  2.4551  0.8561
 6681SOL     OW31675   3.173   3.668  10.066 -1.0255 -0.3776 -0.2225
 6681SOL    HW131676   3.261   3.694  10.039 -2.3554  2.4018 -1.8207
 6681SOL    HW231677   3.154   3.737  10.129 -2.9076 -1.0188 -0.0972
 6682SOL     OW31678   3.394   2.665  12.536  0.2367  0.0515  0.2339
 6682SOL    HW131679   3.446   2.625  12.467  1.2128 -1.4792  1.8309
 6682SOL    HW231680   3.321   2.691  12.480  2.0069  1.7270 -1.2636
 6683SOL     OW31681   4.173   1.721  15.299  0.0554 -0.5820  0.4451
 6683SOL    HW131682   4.101   1.660  15.281  1.6420 -2.2768 -0.1265
 6683SOL    HW231683   4.250   1.665  15.292  0.1212 -0.3498 -0.8036
 6684SOL     OW31684   3.865   4.214   4.312 -0.5152  0.2148 -0.0094
 6684SOL    HW131685   3.859   4.305   4.281 -3.0968 -0.6884 -2.2126
 6684SOL    HW231686   3.842   4.220   4.405  0.8867  2.1886  0.2143
 6685SOL     OW31687   4.256   1.271  11.770  0.4404 -0.8008 -0.4525
 6685SOL    HW131688   4.342   1.306  11.744  0.8272 -0.9022  0.6999
 6685SOL    HW231689   4.224   1.240  11.685 -1.3620  0.9555 -0.4047
 6686SOL     OW31690   0.737   3.103   8.346  0.1251 -0.0074  0.7318
 6686SOL    HW131691   0.805   3.144   8.293 -1.4900 -0.6371 -1.8604
 6686SOL    HW231692   0.729   3.170   8.414 -0.4230  0.6533  0.0239
 6687SOL     OW31693   4.421   4.572   4.548 -0.1733  0.1484  0.0603
 6687SOL    HW131694   4.411   4.616   4.463  0.5327 -3.4002 -1.8909
 6687SOL    HW231695   4.470   4.496   4.516  2.0739  0.2429  3.3353
 6688SOL     OW31696   4.274   4.308   4.273  0.0979  0.0701 -0.0720
 6688SOL    HW131697   4.355   4.323   4.224 -0.4819 -0.4061 -1.1732
 6688SOL    HW231698   4.213   4.300   4.199  0.1333  0.8154 -0.1861
 6689SOL     OW31699   3.034   2.620   2.988  0.0216  0.6742  0.7672
 6689SOL    HW131700   2.999   2.707   2.966 -1.3867 -0.2075 -0.4239
 6689SOL    HW231701   2.973   2.569   2.935  1.9869  0.2041 -1.0354
 6690SOL     OW31702   4.298   0.565  16.301  0.1323 -0.0283 -0.3288
 6690SOL    HW131703   4.268   0.548  16.391 -0.3605  0.3394 -0.4220
 6690SOL    HW231704   4.305   0.483  16.253 -0.7986 -0.7384  0.7429
 6691SOL     OW31705   0.808   3.740   2.849  0.0120  0.1052 -0.6909
 6691SOL    HW131706   0.805   3.672   2.916  0.0193 -0.7445 -1.5523
 6691SOL    HW231707   0.897   3.774   2.859  0.0190  0.6155 -2.3640
 6692SOL     OW31708   0.041   0.003  16.584  0.2944  0.0377  0.2978
 6692SOL    HW131709   0.038   0.014  16.489  3.0952 -0.3174  0.1433
 6692SOL    HW231710   0.130   4.705  16.584  0.0159 -0.6669  0.6806
 6693SOL     OW31711   4.129   0.801   5.227 -0.3662 -0.4714  0.1827
 6693SOL    HW131712   4.091   0.720   5.263 -1.7377 -0.8481 -2.1663
 6693SOL    HW231713   4.055   0.830   5.174 -0.0780 -1.7967 -0.9282
 6694SOL     OW31714   3.062   0.473   5.694  0.2131  0.1671  0.5946
 6694SOL    HW131715   3.126   0.544   5.691 -0.8226  1.0511 -0.7544
 6694SOL    HW231716   3.086   0.415   5.767  1.3962  0.4430  0.4185
 6695SOL     OW31717   4.285   2.264   9.449  0.0372  0.4884  0.3061
 6695SOL    HW131718   4.199   2.275   9.408  0.2609 -0.6930 -0.4898
 6695SOL    HW231719   4.319   2.221   9.370 -0.7682  0.6505 -0.1332
 6696SOL     OW31720   3.094   1.487   5.856 -0.2093 -0.4799 -0.1837
 6696SOL    HW131721   3.063   1.403   5.822 -2.5505  0.2276  0.2013
 6696SOL    HW231722   3.184   1.501   5.828 -0.1674 -1.6765 -0.6560
 6697SOL     OW31723   1.509   0.878   0.150  0.4611 -0.7119  0.7572
 6697SOL    HW131724   1.482   0.969   0.158 -1.6940 -1.1068 -2.2363
 6697SOL    HW231725   1.601   0.884   0.177  0.8896  0.0127 -0.8590
 6698SOL     OW31726   2.436   1.519   4.699 -0.0881 -0.5625 -0.2588
 6698SOL    HW131727   2.413   1.476   4.781 -1.5517 -1.5783 -1.2186
 6698SOL    HW231728   2.519   1.479   4.674 -0.8771  0.6576 -4.8015
 6699SOL     OW31729   0.300   2.801   6.898  0.3957 -0.3103 -0.0506
 6699SOL    HW131730   0.231   2.739   6.921  1.1441 -1.4384 -0.8639
 6699SOL    HW231731   0.360   2.747   6.847 -0.8893  0.1826 -2.1016
 6700SOL     OW31732   3.525   1.499   5.275  0.0643 -0.0700  0.2390
 6700SOL    HW131733   3.548   1.493   5.182  0.1668 -0.7003  0.3059
 6700SOL    HW231734   3.454   1.562   5.266 -0.0151 -0.0212  1.1793
 6701SOL     OW31735   0.584   0.151   0.045 -0.0879  0.1197  0.4054
 6701SOL    HW131736   0.678   0.171   0.038 -0.2184  0.2898 -0.8355
 6701SOL    HW231737   0.585   0.060   0.073 -0.2499  0.4955  1.6439
 6702SOL     OW31738   4.381   1.414   1.031  0.6229  0.6394 -0.6483
 6702SOL    HW131739   4.455   1.405   0.970 -0.4805 -2.5254 -1.5410
 6702SOL    HW231740   4.308   1.419   0.969 -0.0706  2.5741  0.3389
 6703SOL     OW31741   2.098   0.123   1.998 -0.1284  0.0824  0.2700
 6703SOL    HW131742   2.081   0.122   2.092 -0.8302 -1.1942  0.1244
 6703SOL    HW231743   2.010   0.094   1.974  0.3274 -0.8978 -0.2318
 6704SOL     OW31744   0.834   2.035   8.462  0.1829 -0.0160 -0.2568
 6704SOL    HW131745   0.747   1.995   8.455 -0.2337  0.9607 -0.6852
 6704SOL    HW231746   0.899   1.965   8.463  1.1608  0.9244  0.3257
 6705SOL     OW31747   3.175   0.884   3.115 -0.0941 -0.8294 -0.7986
 6705SOL    HW131748   3.160   0.902   3.022  3.4673  0.4921 -1.1317
 6705SOL    HW231749   3.108   0.819   3.131 -1.1297  0.3255 -0.4572
 6706SOL     OW31750   4.252   3.121   8.963  0.2397  0.0060 -0.4099
 6706SOL    HW131751   4.245   3.187   9.032 -0.6005  0.6419 -1.1070
 6706SOL    HW231752   4.209   3.049   9.010 -0.1648 -0.0678 -0.9013
 6707SOL     OW31753   4.181   3.981   6.594  0.5101 -0.3694  0.3505
 6707SOL    HW131754   4.155   4.001   6.684 -1.3026  3.0481 -0.9483
 6707SOL    HW231755   4.267   3.944   6.612 -0.9653 -2.8897  2.3849
 6708SOL     OW31756   2.680   2.852   8.632 -0.3411 -0.1238 -0.3621
 6708SOL    HW131757   2.723   2.919   8.685  0.9590 -0.2496 -1.2450
 6708SOL    HW231758   2.754   2.791   8.623  1.0145  1.5027 -0.2617
 6709SOL     OW31759   1.057   1.087   7.396 -0.3194 -0.5875 -0.0225
 6709SOL    HW131760   1.057   1.124   7.484 -2.2648  0.7639 -0.6055
 6709SOL    HW231761   0.987   1.139   7.359 -1.3144 -2.5512 -0.8874
 6710SOL     OW31762   1.814   4.638  17.138 -0.3523  0.1348 -0.1613
 6710SOL    HW131763   1.767   4.700  17.083 -1.6880  1.0990  2.0482
 6710SOL    HW231764   1.766   4.558  17.117 -0.4017  0.8064 -2.4894
 6711SOL     OW31765   3.655   2.803   3.425  0.2104  0.0149  0.7586
 6711SOL    HW131766   3.695   2.736   3.371 -0.1099  0.8693 -0.5308
 6711SOL    HW231767   3.736   2.830   3.469 -0.0174  1.0192  0.5571
 6712SOL     OW31768   1.881   2.138   8.840  0.4373 -0.1368 -0.1390
 6712SOL    HW131769   1.918   2.056   8.809  2.1810  1.3261 -1.9354
 6712SOL    HW231770   1.827   2.170   8.767  0.2129 -0.1074  0.0417
 6713SOL     OW31771   0.151   2.417   2.768 -0.4585 -0.5368 -0.3694
 6713SOL    HW131772   0.098   2.339   2.757  0.9989 -1.7058  0.8970
 6713SOL    HW231773   0.086   2.472   2.811  1.5210  1.6485 -0.1817
 6714SOL     OW31774   2.659   2.460   2.416 -0.5179 -1.2169 -0.2169
 6714SOL    HW131775   2.734   2.490   2.364  1.1654 -1.7999  1.8720
 6714SOL    HW231776   2.591   2.524   2.397  0.8576  0.0104 -1.0144
 6715SOL     OW31777   3.837   1.114   3.424 -0.0567  0.1743  0.3262
 6715SOL    HW131778   3.750   1.083   3.400 -0.6031  2.5310 -0.7859
 6715SOL    HW231779   3.881   1.036   3.389 -0.0572 -0.3973  1.6173
 6716SOL     OW31780   1.320   2.290  12.208  0.1745 -0.4182  0.4790
 6716SOL    HW131781   1.230   2.259  12.218 -0.1256  1.1364  2.6026
 6716SOL    HW231782   1.340   2.303  12.301  2.1343  0.7381 -0.0916
 6717SOL     OW31783   0.487   0.304   7.453  0.3295  0.1188  0.5635
 6717SOL    HW131784   0.500   0.314   7.547  0.9737  2.9072  0.1752
 6717SOL    HW231785   0.571   0.334   7.420 -0.0736 -0.4531 -0.9926
 6718SOL     OW31786   0.909   2.048   9.579 -0.3383 -1.0512  0.6187
 6718SOL    HW131787   0.892   2.108   9.506  0.9950 -0.3083  0.9262
 6718SOL    HW231788   0.995   2.080   9.605  0.2391 -1.3280 -0.9282
 6719SOL     OW31789   0.188   2.327   6.329 -0.2450 -0.2727 -0.0358
 6719SOL    HW131790   0.158   2.263   6.394 -2.3661  0.3146 -0.4324
 6719SOL    HW231791   0.224   2.401   6.378  0.0114 -1.1932  1.1757
 6720SOL     OW31792   3.372   2.521   3.472  0.5666 -0.6274 -0.6127
 6720SOL    HW131793   3.391   2.613   3.454  4.5189 -0.8887  2.4643
 6720SOL    HW231794   3.406   2.498   3.558  1.0423  1.2279 -0.3068
 6721SOL     OW31795   4.427   3.400   0.098  0.0387 -0.1762 -0.5909
 6721SOL    HW131796   4.376   3.341   0.153  0.7365 -0.3747 -0.1565
 6721SOL    HW231797   4.508   3.410   0.147 -0.3357 -1.9919  0.3903
 6722SOL     OW31798   1.511   4.616   3.926 -0.0881  0.1049  0.0623
 6722SOL    HW131799   1.447   4.673   3.967 -0.0262  0.7616 -0.7476
 6722SOL    HW231800   1.444   4.568   3.877  2.3170 -3.1060 -0.0999
 6723SOL     OW31801   3.650   2.256   8.770  0.0529  0.4834 -0.7650
 6723SOL    HW131802   3.652   2.217   8.858  2.1368  0.9580 -0.5855
 6723SOL    HW231803   3.557   2.242   8.754  0.3930  0.8017 -2.9235
 6724SOL     OW31804   0.518   2.190  11.984  0.2955 -0.5937  0.1594
 6724SOL    HW131805   0.490   2.182  11.893 -0.1052 -2.1423  0.4297
 6724SOL    HW231806   0.436   2.191  12.034 -0.7740  0.4717 -1.6046
 6725SOL     OW31807   1.341   1.580  12.463  0.0131  0.0782  0.1175
 6725SOL    HW131808   1.355   1.588  12.369  2.3981  0.6410  0.5088
 6725SOL    HW231809   1.246   1.568  12.472 -0.1540  0.9818 -0.4108
 6726SOL     OW31810   0.813   1.986   0.951 -0.0819 -0.3149  0.2356
 6726SOL    HW131811   0.792   2.010   1.041  1.7874 -1.6628  1.0181
 6726SOL    HW231812   0.768   1.902   0.941  0.4686 -0.6821  0.8600
 6727SOL     OW31813   0.782   1.841  14.677 -0.2227  0.2521 -0.6150
 6727SOL    HW131814   0.774   1.788  14.598 -0.4077 -1.4705  0.5665
 6727SOL    HW231815   0.877   1.847  14.684 -0.3480  0.7441  0.5884
 6728SOL     OW31816   2.234   2.015   7.371 -0.3517 -0.3063  0.0711
 6728SOL    HW131817   2.272   2.077   7.433  0.7468 -0.9249  0.0092
 6728SOL    HW231818   2.276   1.939   7.412 -0.1325 -1.1604 -1.7421
 6729SOL     OW31819   2.097   0.702  15.728  0.1073  0.9062  0.1778
 6729SOL    HW131820   2.015   0.743  15.700 -1.0791  0.4151  2.9837
 6729SOL    HW231821   2.138   0.673  15.646  0.2117  0.0148  0.5506
 6730SOL     OW31822   4.439   0.951   3.461  0.6618 -0.1013  0.2405
 6730SOL    HW131823   4.471   0.862   3.450  1.0122 -0.2138  2.1775
 6730SOL    HW231824   4.406   0.954   3.550  1.2493  1.6886  0.4064
 6731SOL     OW31825   1.692   2.934   9.793 -0.1282 -0.0466 -0.1877
 6731SOL    HW131826   1.734   2.849   9.780  1.6510  0.6671  0.8240
 6731SOL    HW231827   1.606   2.914   9.831 -0.1029 -0.5276 -0.3798
 6732SOL     OW31828   1.430   4.245   1.813 -0.3451 -0.0104  0.6893
 6732SOL    HW131829   1.339   4.216   1.813  0.6424 -3.0748  0.4562
 6732SOL    HW231830   1.455   4.232   1.721 -0.6434  2.8188  0.2120
 6733SOL     OW31831   0.751   3.923   3.487  0.0709 -0.0127 -0.0235
 6733SOL    HW131832   0.784   4.007   3.455 -0.1208 -0.6361 -1.8347
 6733SOL    HW231833   0.817   3.901   3.553  0.5071  2.2399  0.2981
 6734SOL     OW31834   4.367   3.971   5.100  0.1650 -0.4648  0.4902
 6734SOL    HW131835   4.300   3.932   5.155 -0.2594 -1.6692 -0.8621
 6734SOL    HW231836   4.320   4.048   5.069 -0.7156 -0.6458  1.3882
 6735SOL     OW31837   4.482   0.646   9.136  0.1542  0.1538  0.3118
 6735SOL    HW131838   4.461   0.565   9.182 -1.5588  0.4591  0.0587
 6735SOL    HW231839   4.471   0.711   9.205  0.7945  0.4506  0.1389
 6736SOL     OW31840   0.459   3.974   9.344 -0.1588 -0.6133 -0.1638
 6736SOL    HW131841   0.507   4.045   9.302 -2.3493  3.0464  3.4577
 6736SOL    HW231842   0.378   3.964   9.295 -0.8600 -1.8799  1.2565
 6737SOL     OW31843   3.762   3.365   5.981 -0.5837  0.0318 -0.5146
 6737SOL    HW131844   3.706   3.295   5.946 -1.4437  0.2675  0.3747
 6737SOL    HW231845   3.826   3.358   5.911  2.7316  1.0301  2.3932
 6738SOL     OW31846   1.852   2.471   8.330  0.1923 -1.0945 -0.2203
 6738SOL    HW131847   1.786   2.481   8.398  1.3077  1.4140  0.5062
 6738SOL    HW231848   1.895   2.555   8.345 -1.8563 -0.2886  1.0563
 6739SOL     OW31849   2.367   0.684   8.688 -0.1521  0.3814  0.1667
 6739SOL    HW131850   2.357   0.760   8.631  3.7353 -0.2018 -1.3176
 6739SOL    HW231851   2.424   0.722   8.755  0.2544 -0.6736  0.4109
 6740SOL     OW31852   4.589   1.386   5.976  0.2411  0.0837 -0.0098
 6740SOL    HW131853   4.630   1.299   5.983 -0.4064 -0.4248 -2.7320
 6740SOL    HW231854   4.555   1.394   6.065 -1.1375 -0.8807 -0.4565
 6741SOL     OW31855   3.545   1.282   0.765  0.1872  0.9059  0.9455
 6741SOL    HW131856   3.586   1.320   0.842  0.2111 -1.2489  1.9899
 6741SOL    HW231857   3.496   1.207   0.800  2.2069 -2.0318 -2.5579
 6742SOL     OW31858   0.536   3.155   8.913 -0.2209  0.2483 -0.0629
 6742SOL    HW131859   0.470   3.096   8.878  0.5517  0.3330 -1.6444
 6742SOL    HW231860   0.513   3.239   8.874  1.7202  0.2916 -1.1302
 6743SOL     OW31861   1.208   1.589   4.771  0.3235 -0.2711  0.1998
 6743SOL    HW131862   1.260   1.582   4.690 -1.5172  0.7215 -1.0673
 6743SOL    HW231863   1.122   1.552   4.751 -1.4400  1.4935  4.5066
 6744SOL     OW31864   4.329   3.895   8.241  0.3262  0.5095 -0.1561
 6744SOL    HW131865   4.419   3.887   8.271  0.1731 -0.3241  0.0933
 6744SOL    HW231866   4.285   3.888   8.326  3.6147  0.9202  1.5755
 6745SOL     OW31867   3.639   4.008   8.148 -0.8906 -0.1104 -0.0475
 6745SOL    HW131868   3.566   4.027   8.208  0.2164 -0.7275  1.5071
 6745SOL    HW231869   3.590   3.965   8.078  0.1714  0.4379 -1.1339
 6746SOL     OW31870   4.510   2.103  12.489 -0.3899 -0.4633 -0.4067
 6746SOL    HW131871   4.543   2.061  12.569  1.3825  0.2485 -0.7541
 6746SOL    HW231872   4.571   2.067  12.424  0.3487 -0.1958  0.1394
 6747SOL     OW31873   0.038   1.044   3.276 -0.1225  0.0107 -0.4668
 6747SOL    HW131874   0.050   1.111   3.343 -0.3107  1.8548 -2.2835
 6747SOL    HW231875   4.695   1.070   3.232 -0.4743  0.4761  0.4629
 6748SOL     OW31876   2.744   2.712   6.416 -0.1789 -0.5697 -0.9072
 6748SOL    HW131877   2.782   2.687   6.501 -0.0326 -1.5367 -1.2481
 6748SOL    HW231878   2.651   2.705   6.437 -0.5663 -0.2799 -2.5646
 6749SOL     OW31879   1.484   3.023   7.066  0.1333  0.3076  1.2666
 6749SOL    HW131880   1.545   3.061   7.002 -0.8811 -0.4669 -0.1642
 6749SOL    HW231881   1.535   2.995   7.141  2.7463  1.7362  0.0463
 6750SOL     OW31882   3.966   2.957   0.376 -0.1036 -0.0407  0.2460
 6750SOL    HW131883   3.911   2.924   0.447  0.3236  1.7654  1.4003
 6750SOL    HW231884   4.053   2.959   0.415 -0.1204 -1.0450  0.3336
 6751SOL     OW31885   3.275   0.268   5.093  0.2348 -0.2137 -0.3628
 6751SOL    HW131886   3.298   0.333   5.027 -1.7144 -0.0369 -0.8739
 6751SOL    HW231887   3.326   0.193   5.061  1.8038  0.7872 -0.2201
 6752SOL     OW31888   1.949   3.734   7.350 -0.3442 -0.1964  0.2237
 6752SOL    HW131889   1.970   3.825   7.328  1.7721 -0.8379 -0.3895
 6752SOL    HW231890   1.910   3.746   7.436  0.3679  0.6139  0.4323
 6753SOL     OW31891   3.097   4.431  10.026 -0.7220  0.4103 -0.3190
 6753SOL    HW131892   3.063   4.506  10.074  0.2133  1.5080 -1.3756
 6753SOL    HW231893   3.063   4.445   9.938  1.7901  0.2270 -1.3261
 6754SOL     OW31894   0.859   2.805  11.353 -0.0964  0.2655 -0.8983
 6754SOL    HW131895   0.937   2.858  11.336  1.2494 -0.3625  3.3062
 6754SOL    HW231896   0.811   2.868  11.407  1.7324  3.2030 -2.6865
 6755SOL     OW31897   1.033   1.169   1.832  0.1190  0.0734  0.3425
 6755SOL    HW131898   0.970   1.123   1.777  0.5848  0.4523 -0.5135
 6755SOL    HW231899   1.104   1.107   1.816  0.4045  0.4092  0.3006
 6756SOL     OW31900   2.954   3.953   2.491  0.6515  0.1880  0.4943
 6756SOL    HW131901   3.016   4.020   2.463  0.6209  0.6924  1.6396
 6756SOL    HW231902   2.982   3.940   2.581 -0.0427  1.5137  0.8986
 6757SOL     OW31903   3.655   3.325   5.106 -0.4344  0.0453  0.1462
 6757SOL    HW131904   3.662   3.365   5.019 -0.7244  1.3150  0.7006
 6757SOL    HW231905   3.674   3.402   5.160 -2.5656 -0.2629  1.3578
 6758SOL     OW31906   1.310   1.111   0.688  0.1536 -0.3147 -0.0105
 6758SOL    HW131907   1.221   1.077   0.678  0.2834 -0.5006 -0.5141
 6758SOL    HW231908   1.341   1.117   0.598  1.1434 -1.0406  0.2781
 6759SOL     OW31909   0.933   2.730   3.630  0.4217  0.8397 -0.3317
 6759SOL    HW131910   0.947   2.696   3.541  2.3435 -2.5707  1.2483
 6759SOL    HW231911   0.911   2.654   3.684  2.5716  0.0430 -0.5445
 6760SOL     OW31912   3.050   1.692   7.647  0.1148 -0.0957  0.3498
 6760SOL    HW131913   3.046   1.751   7.722 -1.9604  2.8231 -2.0446
 6760SOL    HW231914   2.984   1.625   7.667 -1.1651  1.2270  0.5731
 6761SOL     OW31915   3.614   2.708  12.335 -0.2790 -0.6379 -0.0136
 6761SOL    HW131916   3.682   2.764  12.372  2.3038 -2.3592 -2.1407
 6761SOL    HW231917   3.564   2.753  12.267 -1.1016  0.0760  1.0699
 6762SOL     OW31918   1.801   4.314   4.985 -0.2103 -0.1888  0.3082
 6762SOL    HW131919   1.770   4.397   4.950  0.4926 -0.7641 -1.6979
 6762SOL    HW231920   1.842   4.339   5.068 -2.7242 -1.2805  1.8584
 6763SOL     OW31921   2.048   2.114   7.697 -0.1274  0.5836  0.3503
 6763SOL    HW131922   2.092   2.091   7.779  1.6396  0.3811 -0.6552
 6763SOL    HW231923   2.097   2.193   7.673 -0.6577  0.7116 -0.3077
 6764SOL     OW31924   1.293   2.623   7.031  0.2776  0.4853 -0.2945
 6764SOL    HW131925   1.327   2.574   6.956 -3.2911 -0.8321 -1.0465
 6764SOL    HW231926   1.261   2.561   7.096 -0.4928  0.4348 -0.7151
 6765SOL     OW31927   3.607   2.933  17.110 -0.5489  0.3996  0.3074
 6765SOL    HW131928   3.557   2.984  17.174 -0.6658  1.8424 -0.9177
 6765SOL    HW231929   3.551   2.954  17.035 -1.3558 -0.3765  0.6946
 6766SOL     OW31930   0.191   0.253  11.806  0.6670  0.0757 -0.3390
 6766SOL    HW131931   0.239   0.267  11.724 -0.9458 -1.1624 -1.5092
 6766SOL    HW231932   0.106   0.238  11.765 -0.1715  0.4210  1.2754
 6767SOL     OW31933   3.512   2.293   6.363  0.1187  0.0486 -0.0213
 6767SOL    HW131934   3.458   2.346   6.304 -0.8556 -2.0089 -0.9595
 6767SOL    HW231935   3.475   2.318   6.448  0.9327 -1.2689  0.7105
 6768SOL     OW31936   2.127   3.616   6.772 -0.0162 -0.2025 -0.3581
 6768SOL    HW131937   2.046   3.667   6.773 -0.8593 -1.5284 -1.1175
 6768SOL    HW231938   2.169   3.664   6.843 -3.3393 -0.8613  1.9979
 6769SOL     OW31939   4.700   1.720   8.324  0.1415 -0.4349 -0.6782
 6769SOL    HW131940   4.728   1.808   8.350 -2.1463 -0.1451  0.8410
 6769SOL    HW231941   4.679   1.673   8.404 -0.4798  2.8774  1.0990
 6770SOL     OW31942   3.802   1.385  14.253 -0.2567  0.2563 -0.1294
 6770SOL    HW131943   3.795   1.429  14.338 -1.2001  0.7830 -0.4713
 6770SOL    HW231944   3.730   1.322  14.261  0.0024 -0.0854 -0.5262
 6771SOL     OW31945   1.198   3.874   2.674 -0.5615  0.1707  0.1695
 6771SOL    HW131946   1.131   3.940   2.659  0.1408  1.1179  1.1547
 6771SOL    HW231947   1.226   3.853   2.585  0.2497 -2.1778  0.9737
 6772SOL     OW31948   2.058   0.863   7.633  0.4663 -0.5911  0.1702
 6772SOL    HW131949   2.096   0.777   7.653  1.1779 -0.7803 -1.9811
 6772SOL    HW231950   2.075   0.883   7.541 -2.5889 -0.4873 -0.3842
 6773SOL     OW31951   1.171   2.476   7.200 -0.0378 -0.5157  0.6726
 6773SOL    HW131952   1.197   2.384   7.196 -0.5625 -0.7132  1.8397
 6773SOL    HW231953   1.123   2.494   7.281  1.5955  0.2186  1.4726
 6774SOL     OW31954   1.285   2.021  10.168  0.5886 -0.2665  0.0925
 6774SOL    HW131955   1.232   1.976  10.234 -0.0382 -1.0816 -0.9758
 6774SOL    HW231956   1.253   1.990  10.083 -2.9388  2.3577  0.4613
 6775SOL     OW31957   2.484   2.055   6.460  0.0963 -0.0917 -0.0747
 6775SOL    HW131958   2.576   2.062   6.487 -0.3600  0.2192  1.3841
 6775SOL    HW231959   2.497   2.059   6.365 -0.5519 -1.8497 -0.2482
 6776SOL     OW31960   0.841   3.439  16.267  0.3188 -0.1033 -0.3367
 6776SOL    HW131961   0.758   3.409  16.232  1.0840  0.5041 -2.6763
 6776SOL    HW231962   0.876   3.360  16.308 -1.4356 -0.3841  0.5833
 6777SOL     OW31963   1.870   0.075   9.130  0.0374 -0.3446  0.2849
 6777SOL    HW131964   1.906   0.163   9.120  1.5763 -1.0182 -0.0244
 6777SOL    HW231965   1.842   0.052   9.041  0.1706  3.2217 -0.6723
 6778SOL     OW31966   4.061   0.856   3.598  0.0792 -0.1841  0.9632
 6778SOL    HW131967   4.124   0.784   3.602 -1.0960 -1.2594  0.0833
 6778SOL    HW231968   4.067   0.890   3.508 -0.1357 -0.2057  0.9418
 6779SOL     OW31969   3.424   4.695   3.914 -0.4135  0.3145  0.4209
 6779SOL    HW131970   3.437   0.006   3.996  0.7670 -0.0807  0.4681
 6779SOL    HW231971   3.513   4.691   3.879 -0.7560  0.8716 -0.5149
 6780SOL     OW31972   2.340   0.536   2.752  0.1861 -1.0226  0.0521
 6780SOL    HW131973   2.275   0.467   2.761 -0.0383 -0.4704  2.6324
 6780SOL    HW231974   2.328   0.558   2.660 -0.3331 -0.8201  0.1678
 6781SOL     OW31975   3.848   3.040   1.691 -0.3262  0.1531 -0.2470
 6781SOL    HW131976   3.935   3.076   1.680  0.2953 -1.7264 -1.5208
 6781SOL    HW231977   3.864   2.972   1.757 -2.3652 -0.9719 -0.8880
 6782SOL     OW31978   3.960   4.137   7.036  0.5433 -0.3353 -0.1919
 6782SOL    HW131979   3.977   4.066   7.098  0.8897 -0.6131 -0.6107
 6782SOL    HW231980   3.984   4.091   6.956  0.3353 -0.8863  0.0611
 6783SOL     OW31981   0.028   0.981   4.567 -0.3306 -0.2466 -0.3138
 6783SOL    HW131982   4.702   1.050   4.550  0.3293  1.0158  2.4642
 6783SOL    HW231983   0.102   1.015   4.516  0.2935 -2.0648 -0.5953
 6784SOL     OW31984   1.063   4.693   3.552 -0.1716 -0.4078  0.0963
 6784SOL    HW131985   1.148   4.666   3.516 -0.4305  0.7185 -1.3740
 6784SOL    HW231986   1.000   4.663   3.486  2.2718 -2.4447 -1.2908
 6785SOL     OW31987   4.619   0.459  16.055  0.3277 -0.3033 -0.5660
 6785SOL    HW131988   4.663   0.425  15.978 -0.1586  1.8214 -1.7604
 6785SOL    HW231989   4.564   0.526  16.015  1.1942  1.2834  0.8689
 6786SOL     OW31990   1.181   1.028   7.899 -0.2206 -0.1624 -0.1623
 6786SOL    HW131991   1.221   0.988   7.822 -0.7257 -2.0701  0.5906
 6786SOL    HW231992   1.201   1.119   7.877  3.3119 -1.4046 -2.1537
 6787SOL     OW31993   2.579   3.319   8.713 -0.3515 -0.2437  0.3310
 6787SOL    HW131994   2.657   3.266   8.696 -1.1417 -0.5228 -2.3304
 6787SOL    HW231995   2.529   3.319   8.632 -0.7639 -0.0256  0.5843
 6788SOL     OW31996   2.180   1.364   6.338 -0.6055  0.1539 -0.1892
 6788SOL    HW131997   2.112   1.391   6.400 -0.8606  1.0293 -0.8494
 6788SOL    HW231998   2.136   1.294   6.290 -0.6898  0.7446 -0.9742
 6789SOL     OW31999   4.555   3.092   5.470  0.5150 -0.1428  0.4731
 6789SOL    HW132000   4.571   3.078   5.377  0.6625 -1.2759  0.6732
 6789SOL    HW232001   4.519   3.180   5.462  1.9030  0.5627  2.1393
 6790SOL     OW32002   3.451   0.787   6.514 -0.0641  0.8955  0.1624
 6790SOL    HW132003   3.502   0.718   6.556 -0.9481 -0.6930 -1.3853
 6790SOL    HW232004   3.517   0.854   6.493 -1.4190  2.6831  1.6219
 6791SOL     OW32005   3.939   2.684  16.954  0.4631 -0.4308  0.2059
 6791SOL    HW132006   3.894   2.688  17.038  0.8652  1.6376  0.3080
 6791SOL    HW232007   3.873   2.634  16.906 -0.2794 -2.2515  3.0986
 6792SOL     OW32008   3.113   0.323   8.214  0.2284  0.6726  0.3203
 6792SOL    HW132009   3.037   0.333   8.157  1.9139 -0.4248 -2.1253
 6792SOL    HW232010   3.123   0.228   8.213 -1.9729  0.4603 -1.6322
 6793SOL     OW32011   2.267   0.558   7.308 -0.0363  0.1244 -0.3627
 6793SOL    HW132012   2.195   0.556   7.371 -0.1121  0.7027 -0.4313
 6793SOL    HW232013   2.217   0.542   7.227 -0.1178  0.3849 -0.3646
 6794SOL     OW32014   1.835   2.335   1.349 -0.5205 -1.0757  0.1303
 6794SOL    HW132015   1.765   2.353   1.412 -0.3336 -1.3639  0.4166
 6794SOL    HW232016   1.783   2.302   1.276 -1.0144  0.3735 -0.1830
 6795SOL     OW32017   0.185   4.730  13.154 -0.0524 -0.0373  0.5529
 6795SOL    HW132018   0.221   4.661  13.099  1.2833  0.6963  0.5257
 6795SOL    HW232019   0.091   4.729  13.135  0.2364 -0.2871 -0.8888
 6796SOL     OW32020   3.886   2.465  10.798  0.8067  0.3845  0.0136
 6796SOL    HW132021   3.859   2.411  10.872  2.3259 -0.1504  0.1747
 6796SOL    HW232022   3.886   2.405  10.724 -0.1212  0.5247 -0.0999
 6797SOL     OW32023   0.543   1.302  15.464 -0.2237  0.2985 -0.0071
 6797SOL    HW132024   0.480   1.369  15.437 -1.9223 -1.1297  0.4627
 6797SOL    HW232025   0.491   1.225  15.485  1.5941 -0.7346  0.6798
 6798SOL     OW32026   3.557   1.490   2.416 -0.3368  0.5972  0.3590
 6798SOL    HW132027   3.604   1.528   2.343 -0.0832  1.0941  0.7829
 6798SOL    HW232028   3.595   1.402   2.420  0.3180  0.9362  1.5590
 6799SOL     OW32029   1.784   2.267  12.623 -0.5062 -0.1105 -0.2922
 6799SOL    HW132030   1.804   2.175  12.639  2.7885  0.8860  1.2779
 6799SOL    HW232031   1.735   2.251  12.542 -1.1876 -1.1874  0.3265
 6800SOL     OW32032   0.249   3.702   5.028  0.1088  0.5502  0.1666
 6800SOL    HW132033   0.340   3.677   5.013 -1.0184 -2.9579 -0.7418
 6800SOL    HW232034   0.242   3.774   4.965 -1.2100  1.7409  1.6548
 6801SOL     OW32035   0.564   2.310  17.480  0.5506 -0.5394  0.4272
 6801SOL    HW132036   0.592   2.291  17.570 -0.8315 -0.5212  0.8546
 6801SOL    HW232037   0.641   2.290  17.426  1.4002  3.8333 -0.0147
 6802SOL     OW32038   0.128   0.634  13.721 -0.5590  0.0010 -0.0423
 6802SOL    HW132039   0.136   0.619  13.815  1.5711 -0.2396 -0.2678
 6802SOL    HW232040   0.078   0.713  13.699 -1.0137 -0.0268  0.8882
 6803SOL     OW32041   1.434   0.438  11.265 -0.2734 -0.3271  0.4981
 6803SOL    HW132042   1.488   0.464  11.190 -0.4353  1.3630  0.9544
 6803SOL    HW232043   1.471   0.493  11.334 -0.2218  0.8698 -0.4820
 6804SOL     OW32044   4.247   0.565   6.229  0.4137 -0.2794 -0.0752
 6804SOL    HW132045   4.264   0.625   6.301 -0.4075  1.7093 -1.5574
 6804SOL    HW232046   4.286   0.484   6.262  3.2363  1.1701  0.1190
 6805SOL     OW32047   4.542   3.252   4.279 -0.2284  0.2707 -0.0914
 6805SOL    HW132048   4.492   3.333   4.293 -0.4093  0.4130 -1.5579
 6805SOL    HW232049   4.635   3.269   4.292 -0.4902  0.6516  1.3202
 6806SOL     OW32050   1.478   1.076   7.591 -0.5976 -0.1989  0.0838
 6806SOL    HW132051   1.446   1.122   7.513 -0.7837 -1.3765 -0.5290
 6806SOL    HW232052   1.550   1.131   7.620 -0.0490 -0.4775 -0.7414
 6807SOL     OW32053   3.555   4.503  14.254  0.0754 -0.7606  0.6998
 6807SOL    HW132054   3.541   4.486  14.161  0.0163 -1.3501  0.8193
 6807SOL    HW232055   3.573   4.596  14.240  1.5169 -1.7211 -3.8011
 6808SOL     OW32056   0.973   4.624   6.179  0.0470 -0.0427  0.2860
 6808SOL    HW132057   0.904   4.598   6.239 -0.4570 -2.9581 -1.5270
 6808SOL    HW232058   0.936   4.584   6.100  2.7973 -0.6734 -0.6950
 6809SOL     OW32059   2.207   0.886   8.191 -0.2494  0.0279  0.2494
 6809SOL    HW132060   2.151   0.920   8.261  0.4361  0.1636  0.7311
 6809SOL    HW232061   2.281   0.942   8.214  0.9535 -1.9359  1.2094
 6810SOL     OW32062   1.758   0.608   4.485 -0.0896  0.4624 -0.1266
 6810SOL    HW132063   1.812   0.686   4.473 -2.6317  2.4679  1.3527
 6810SOL    HW232064   1.760   0.604   4.581  0.0496  2.5804 -0.0480
 6811SOL     OW32065   3.314   4.403   8.629 -0.3276 -0.8318 -0.5099
 6811SOL    HW132066   3.234   4.392   8.579 -0.2056 -0.4742 -0.7840
 6811SOL    HW232067   3.370   4.337   8.588 -0.0075 -0.3132 -0.9240
 6812SOL     OW32068   4.366   1.465   9.038 -0.5193  0.3757  0.2968
 6812SOL    HW132069   4.421   1.476   8.960 -2.5821  0.8276 -1.0772
 6812SOL    HW232070   4.371   1.370   9.045  0.1438  0.5983  2.6635
 6813SOL     OW32071   2.906   2.943  10.919  0.2816 -0.9680 -0.4418
 6813SOL    HW132072   2.937   2.949  10.828 -0.1188  0.7321 -0.4657
 6813SOL    HW232073   2.986   2.927  10.969  0.1659  1.0617  0.3698
 6814SOL     OW32074   3.602   0.455   4.701  0.3842  0.4966 -0.3577
 6814SOL    HW132075   3.665   0.449   4.773  0.6790  1.5273 -0.5172
 6814SOL    HW232076   3.604   0.551   4.691 -0.7924  0.5096 -0.5163
 6815SOL     OW32077   4.539   2.492   6.385 -0.5327 -0.6423 -0.3549
 6815SOL    HW132078   4.582   2.543   6.317 -0.7422 -0.1986 -0.1502
 6815SOL    HW232079   4.446   2.514   6.380 -0.6761 -0.7538  1.4979
 6816SOL     OW32080   1.684   2.157  13.887 -0.6083  0.5601  0.7384
 6816SOL    HW132081   1.748   2.211  13.841  0.8886 -0.0208  2.1301
 6816SOL    HW232082   1.655   2.105  13.812  1.1053 -0.3870  0.7309
 6817SOL     OW32083   3.308   1.859   4.832 -0.5728  0.4129  0.1858
 6817SOL    HW132084   3.322   1.940   4.783 -1.2960  0.5517  0.2058
 6817SOL    HW232085   3.330   1.894   4.918  0.3466  0.1677  0.0558
 6818SOL     OW32086   0.136   1.435  10.975 -0.0130  0.1852 -0.3376
 6818SOL    HW132087   0.173   1.377  11.042 -1.2313  0.6385  0.7407
 6818SOL    HW232088   0.215   1.479  10.945 -0.5130  1.6699  0.4918
 6819SOL     OW32089   3.257   0.538   7.993 -0.0800  0.0522  0.3254
 6819SOL    HW132090   3.226   0.581   8.074 -0.0764  0.6154  0.0310
 6819SOL    HW232091   3.178   0.522   7.942  0.1493  1.6046 -0.5318
 6820SOL     OW32092   4.026   1.551   9.490  0.4103  0.0672  0.0761
 6820SOL    HW132093   4.100   1.595   9.448  0.5391 -1.4313 -1.2997
 6820SOL    HW232094   3.991   1.615   9.551  0.9022 -0.4183  0.8761
 6821SOL     OW32095   2.966   3.924   8.975 -0.3681 -0.0476  0.4200
 6821SOL    HW132096   3.029   3.961   8.912 -0.9299  1.1159  0.5500
 6821SOL    HW232097   3.028   3.901   9.044  0.9727 -0.9813 -1.0736
 6822SOL     OW32098   3.721   3.524   1.584 -0.2842 -0.8592 -0.4287
 6822SOL    HW132099   3.634   3.564   1.590 -0.0228 -0.4843  0.6748
 6822SOL    HW232100   3.714   3.450   1.644 -1.3634  0.4800  1.0895
 6823SOL     OW32101   4.489   0.030   9.094  0.0808  0.4459 -0.1287
 6823SOL    HW132102   4.487   0.116   9.137  1.6037  1.1718 -1.5088
 6823SOL    HW232103   4.520   4.705   9.159 -0.3158  1.8301  1.3942
 6824SOL     OW32104   3.214   3.950   7.474  0.1473  0.4073 -0.3991
 6824SOL    HW132105   3.181   3.960   7.385 -0.2955  1.0200 -0.1611
 6824SOL    HW232106   3.275   3.881   7.447 -0.9820 -1.3127  1.4642
 6825SOL     OW32107   3.473   0.367   6.995  0.1857  0.6056  0.2048
 6825SOL    HW132108   3.451   0.278   7.024  1.9365 -0.4377 -1.6241
 6825SOL    HW232109   3.414   0.363   6.920  2.7179  1.6324 -1.8501
 6826SOL     OW32110   1.682   3.536   6.047  0.6893 -0.6966 -0.5096
 6826SOL    HW132111   1.641   3.592   5.981 -0.3716  0.2749  0.9744
 6826SOL    HW232112   1.684   3.584   6.130  0.4828  0.8939 -1.4262
 6827SOL     OW32113   3.042   3.493  15.162 -0.2637  0.1705  0.0297
 6827SOL    HW132114   3.015   3.454  15.245  0.6293  0.3419  0.4026
 6827SOL    HW232115   3.021   3.585  15.177 -0.1568  0.1693  0.1833
 6828SOL     OW32116   1.930   4.570   8.699  0.0004 -0.2811  0.0995
 6828SOL    HW132117   1.886   4.551   8.616 -0.6729 -1.0946  0.6444
 6828SOL    HW232118   1.978   4.642   8.658  1.9612 -0.4468  2.0689
 6829SOL     OW32119   1.249   3.355   6.411  0.3525  0.0062 -0.1148
 6829SOL    HW132120   1.264   3.286   6.347 -0.6308  0.0278 -0.3592
 6829SOL    HW232121   1.323   3.344   6.471 -0.5635  0.3114  1.0636
 6830SOL     OW32122   3.170   3.733   6.257  0.2744  0.0868 -0.2497
 6830SOL    HW132123   3.123   3.732   6.174  1.5705 -0.3500 -0.9781
 6830SOL    HW232124   3.109   3.784   6.309 -0.2637  1.5151 -2.2683
 6831SOL     OW32125   0.994   4.604   2.717 -0.4473  0.0768 -0.1576
 6831SOL    HW132126   0.983   4.509   2.716 -0.1832  0.0492 -0.2264
 6831SOL    HW232127   1.089   4.609   2.723 -0.4396 -1.2233  0.6930
 6832SOL     OW32128   1.923   2.987   6.920 -0.3608 -0.4741 -0.0144
 6832SOL    HW132129   2.012   2.969   6.891 -0.0674 -0.0801  0.6475
 6832SOL    HW232130   1.917   2.918   6.986 -1.1169  0.3313  0.7523
 6833SOL     OW32131   3.561   0.620   6.094 -0.4856  0.6329 -0.4519
 6833SOL    HW132132   3.500   0.603   6.022 -0.9536  1.7424 -0.3216
 6833SOL    HW232133   3.520   0.593   6.176  2.9718 -2.9673  0.0617
 6834SOL     OW32134   1.109   2.897   5.064  0.0316 -0.6517  0.7512
 6834SOL    HW132135   1.034   2.856   5.020 -1.1541  2.3418 -0.0367
 6834SOL    HW232136   1.134   2.963   5.000  0.8435 -1.0374  0.6672
 6835SOL     OW32137   2.596   4.105   8.203 -0.3394  0.3741  0.1354
 6835SOL    HW132138   2.570   4.015   8.183  0.2557  0.4800 -1.0863
 6835SOL    HW232139   2.539   4.129   8.276 -1.4967 -1.4549 -0.1703
 6836SOL     OW32140   0.830   0.050   4.747  0.4790  0.4414 -0.1094
 6836SOL    HW132141   0.851   0.026   4.837  1.5801 -2.5904 -1.1553
 6836SOL    HW232142   0.829   0.145   4.748  0.3121  0.4111  2.5337
 6837SOL     OW32143   3.515   3.396   7.226 -0.3200  0.0683  0.3650
 6837SOL    HW132144   3.517   3.490   7.208 -1.6116  0.0827  0.3125
 6837SOL    HW232145   3.604   3.369   7.203 -0.2965 -0.8293  1.5008
 6838SOL     OW32146   2.827   3.209   7.739  0.0810 -0.0585  0.6321
 6838SOL    HW132147   2.846   3.185   7.829  1.1897  2.7269  1.1387
 6838SOL    HW232148   2.848   3.126   7.697 -0.1617 -0.3157  1.0267
 6839SOL     OW32149   4.727   4.447   4.577  0.1098  0.2316 -0.2717
 6839SOL    HW132150   4.671   4.386   4.624 -0.4462  0.5389 -0.5351
 6839SOL    HW232151   4.688   4.426   4.492  1.3807 -0.0307 -0.7853
 6840SOL     OW32152   1.996   4.383   7.021 -0.0621  0.7327 -0.1276
 6840SOL    HW132153   2.088   4.370   7.048  0.6074  2.1520 -1.7746
 6840SOL    HW232154   1.947   4.397   7.102 -1.3236 -0.0583 -0.7512
 6841SOL     OW32155   3.996   2.936   0.672 -0.2728 -0.4128  0.2871
 6841SOL    HW132156   3.933   3.004   0.650 -0.7655 -0.4588  1.5487
 6841SOL    HW232157   3.962   2.883   0.744 -2.4068 -0.4954 -0.7815
 6842SOL     OW32158   3.266   2.245   5.742  0.4706 -0.1133 -0.1453
 6842SOL    HW132159   3.360   2.262   5.733  0.1271  1.2422 -1.0630
 6842SOL    HW232160   3.261   2.261   5.836  2.3275 -1.2792  0.1596
 6843SOL     OW32161   0.246   2.158   2.646  0.2240 -0.3481  0.5170
 6843SOL    HW132162   0.243   2.107   2.565 -1.0566 -1.6436  1.3809
 6843SOL    HW232163   0.331   2.198   2.630  0.2720 -0.4825  0.4297
 6844SOL     OW32164   1.904   4.360   0.103 -0.8516  0.6461  0.2400
 6844SOL    HW132165   1.818   4.373   0.063 -1.3763  0.4599  1.3235
 6844SOL    HW232166   1.914   4.265   0.093  1.6794  1.0385 -0.8814
 6845SOL     OW32167   1.476   2.371  14.695 -0.4361 -0.4671 -0.1522
 6845SOL    HW132168   1.515   2.364  14.607 -1.5042 -1.6806 -0.5391
 6845SOL    HW232169   1.389   2.339  14.670  1.0257 -2.0853 -3.2586
 6846SOL     OW32170   0.540   2.937   1.908  0.0691  0.0129 -0.5939
 6846SOL    HW132171   0.563   2.863   1.853 -1.3477 -1.4971  0.8225
 6846SOL    HW232172   0.620   2.988   1.900 -0.3379  0.9531  1.2216
 6847SOL     OW32173   0.667   0.498  10.970  0.6017  0.4272 -0.1314
 6847SOL    HW132174   0.578   0.469  10.992  0.1367  2.1311  0.1898
 6847SOL    HW232175   0.728   0.441  11.016 -1.8335 -0.0264  2.5675
 6848SOL     OW32176   0.730   2.166   4.336  0.3717 -0.0814 -0.2378
 6848SOL    HW132177   0.662   2.182   4.401  1.0344  0.4470  0.3316
 6848SOL    HW232178   0.713   2.073   4.320 -0.0220 -0.1633  0.6902
 6849SOL     OW32179   3.533   3.431   6.670  0.1676  0.3177  0.0740
 6849SOL    HW132180   3.457   3.481   6.701 -0.3504  0.3540 -1.2899
 6849SOL    HW232181   3.592   3.458   6.741 -0.9867  0.8563  0.8384
 6850SOL     OW32182   1.957   3.360   8.709  0.4706  0.1008  0.2439
 6850SOL    HW132183   1.982   3.267   8.706  0.9005  0.2525 -1.4119
 6850SOL    HW232184   2.016   3.380   8.781  2.0753 -1.2184 -0.6900
 6851SOL     OW32185   0.583   1.650  15.094  0.1419  0.3424 -0.9306
 6851SOL    HW132186   0.586   1.625  15.001  3.2346  0.2524 -0.8212
 6851SOL    HW232187   0.549   1.577  15.145 -1.4141  0.2599 -2.0978
 6852SOL     OW32188   0.030   1.552   7.481 -0.1713 -0.0432 -0.0829
 6852SOL    HW132189   0.005   1.598   7.401 -1.0653 -0.1918  0.1069
 6852SOL    HW232190   0.106   1.509   7.442 -0.6938 -0.0953 -1.0468
 6853SOL     OW32191   2.185   0.528   4.234  0.1466 -1.0450  0.2709
 6853SOL    HW132192   2.162   0.436   4.242  0.4894 -1.0794  0.8806
 6853SOL    HW232193   2.120   0.549   4.167 -0.8843 -0.2823  1.5163
 6854SOL     OW32194   1.281   2.718   3.152  0.4820  0.3543 -0.0557
 6854SOL    HW132195   1.314   2.752   3.069 -1.1960 -0.0645 -0.8851
 6854SOL    HW232196   1.196   2.676   3.138  0.0210  2.0448 -2.4063
 6855SOL     OW32197   1.643   2.311   7.377 -0.1381  1.0021 -0.2639
 6855SOL    HW132198   1.713   2.285   7.437  0.2813  0.0648 -1.1461
 6855SOL    HW232199   1.611   2.226   7.347 -0.2491  1.2441 -0.8288
 6856SOL     OW32200   2.924   4.504   8.706 -0.9083 -0.0438 -0.1285
 6856SOL    HW132201   2.993   4.570   8.698 -1.0035 -0.2378 -2.6756
 6856SOL    HW232202   2.864   4.535   8.773 -0.0277  0.7316  0.2991
 6857SOL     OW32203   2.929   0.314   4.308  0.1840 -0.1754 -0.0550
 6857SOL    HW132204   3.000   0.350   4.362  0.8077  1.3948 -1.8851
 6857SOL    HW232205   2.871   0.280   4.376 -1.1719  0.4929 -0.8682
 6858SOL     OW32206   2.878   1.442  11.967  0.1032 -0.0111  0.1360
 6858SOL    HW132207   2.973   1.452  11.962  0.2770  0.7623  5.1731
 6858SOL    HW232208   2.864   1.452  11.873 -0.4445  1.4734  0.3828
 6859SOL     OW32209   3.227   3.240  17.295 -0.1775  0.3480  0.1830
 6859SOL    HW132210   3.208   3.163  17.348 -3.2274 -0.0305 -1.4872
 6859SOL    HW232211   3.164   3.306  17.325  0.1174  0.0459  1.4396
 6860SOL     OW32212   2.947   1.136   6.603 -0.0849  0.2477 -0.0891
 6860SOL    HW132213   2.923   1.087   6.524  1.0075 -0.5993  0.1217
 6860SOL    HW232214   2.858   1.167   6.623  0.9278  2.4208  1.0996
 6861SOL     OW32215   2.996   2.717   7.296  0.0602  0.2603 -0.5041
 6861SOL    HW132216   3.076   2.768   7.311  0.9655 -1.5477  0.6774
 6861SOL    HW232217   3.019   2.633   7.258 -1.2311 -1.8696  3.4084
 6862SOL     OW32218   4.447   0.491  15.033  0.6305  0.3263 -0.2544
 6862SOL    HW132219   4.399   0.493  15.116 -0.4924  0.9476 -0.9136
 6862SOL    HW232220   4.521   0.541  15.065 -1.0386  1.8751  1.1635
 6863SOL     OW32221   0.297   4.689   1.426 -0.2518  0.3527 -0.0262
 6863SOL    HW132222   0.229   4.639   1.381 -0.5096 -0.2931  1.0706
 6863SOL    HW232223   0.262   0.030   1.467 -1.6363 -0.4425  0.3442
 6864SOL     OW32224   3.761   1.995   6.613  0.3046 -0.3598 -0.2697
 6864SOL    HW132225   3.835   2.055   6.607  1.6337 -1.9806  0.0557
 6864SOL    HW232226   3.748   1.980   6.519 -0.3423 -0.6334 -0.1318
 6865SOL     OW32227   0.461   4.518   2.245 -0.6191  0.0325  0.0975
 6865SOL    HW132228   0.490   4.437   2.203  0.1450  2.0708 -3.3906
 6865SOL    HW232229   0.395   4.476   2.300  0.1248 -2.5510 -0.9532
 6866SOL     OW32230   1.604   0.830  11.866  0.0803  0.3646 -0.4022
 6866SOL    HW132231   1.526   0.795  11.908  0.0092 -0.6063 -1.3309
 6866SOL    HW232232   1.571   0.824  11.776  1.4289  0.3851 -0.9085
 6867SOL     OW32233   2.211   3.001   8.794 -0.2520  0.1218  0.0782
 6867SOL    HW132234   2.227   3.025   8.702  0.1831 -0.2414  0.0620
 6867SOL    HW232235   2.278   3.046   8.845  1.1501 -0.4387 -1.2487
 6868SOL     OW32236   0.967   2.002  17.719 -0.2738 -0.0529  0.0508
 6868SOL    HW132237   1.057   1.993   0.003  0.6097  0.5543 -2.1476
 6868SOL    HW232238   0.926   2.054   0.039 -0.7798 -0.2745 -0.0838
 6869SOL     OW32239   1.926   1.890   8.737  0.5911 -0.0332  0.3706
 6869SOL    HW132240   1.980   1.818   8.703  1.0599 -0.5438  2.2258
 6869SOL    HW232241   1.864   1.851   8.798 -0.5260  0.2455 -0.5783
 6870SOL     OW32242   0.420   2.629  16.089  0.1386 -0.4585 -0.0500
 6870SOL    HW132243   0.420   2.661  16.179  0.3956 -0.5616 -0.0131
 6870SOL    HW232244   0.326   2.621  16.073 -0.3866  1.9301  1.8562
 6871SOL     OW32245   1.014   0.323   8.333  0.1117  0.0392  0.3363
 6871SOL    HW132246   1.100   0.356   8.358  1.4675 -1.6174 -2.2291
 6871SOL    HW232247   1.033   0.229   8.339  0.1280 -0.1845 -3.0144
 6872SOL     OW32248   1.937   3.857   8.828  0.3547  0.5580 -0.0386
 6872SOL    HW132249   1.949   3.947   8.858 -0.4274  0.1764  1.3942
 6872SOL    HW232250   1.901   3.893   8.747 -1.9516  1.1628  1.2586
 6873SOL     OW32251   1.528   2.479   8.077  0.0203  0.1700  0.4509
 6873SOL    HW132252   1.501   2.498   7.987  2.2489  1.5871  0.0757
 6873SOL    HW232253   1.579   2.400   8.064  1.0170  0.9459 -0.3707
 6874SOL     OW32254   2.076   4.431   9.925 -0.1447 -0.2616 -0.8345
 6874SOL    HW132255   2.077   4.389   9.839 -1.5593 -0.3965 -0.7811
 6874SOL    HW232256   1.990   4.472   9.930 -0.8288 -1.7100 -0.7666
 6875SOL     OW32257   0.601   3.580   7.463 -0.2804 -0.2715 -0.2804
 6875SOL    HW132258   0.546   3.510   7.498  0.5888 -0.7926  0.0336
 6875SOL    HW232259   0.653   3.539   7.394  2.4648  0.7604  1.1939
 6876SOL     OW32260   4.696   3.539   8.783  0.4266 -0.9002 -0.3254
 6876SOL    HW132261   4.620   3.497   8.743  0.9083 -1.9860 -0.0892
 6876SOL    HW232262   4.715   3.617   8.731 -0.6106 -1.2388 -1.2071
 6877SOL     OW32263   1.125   1.226  12.426  0.3104  0.2822 -0.3583
 6877SOL    HW132264   1.084   1.250  12.343 -1.9227 -1.3569  0.2346
 6877SOL    HW232265   1.106   1.132  12.417 -2.7111  0.7551  0.8910
 6878SOL     OW32266   0.783   0.473   0.289  0.8619  0.2706  0.5263
 6878SOL    HW132267   0.804   0.444   0.377  1.2574 -0.8353  0.0638
 6878SOL    HW232268   0.828   0.557   0.282 -1.0123  1.3738  1.7320
 6879SOL     OW32269   1.385   3.628   3.700 -0.5429  0.1666 -0.2062
 6879SOL    HW132270   1.356   3.540   3.674 -0.7139  0.3636 -0.6727
 6879SOL    HW232271   1.300   3.671   3.713  0.9247  2.5057  1.5961
 6880SOL     OW32272   4.042   1.534   6.357  0.0372  0.3051 -0.0092
 6880SOL    HW132273   4.029   1.490   6.441 -2.1572 -2.9071 -2.0163
 6880SOL    HW232274   4.126   1.578   6.364  0.7876 -0.8380 -1.9873
 6881SOL     OW32275   2.622   3.600  15.334  0.0534 -0.1745 -0.0262
 6881SOL    HW132276   2.660   3.518  15.367  0.1363 -0.8322 -1.7868
 6881SOL    HW232277   2.670   3.667  15.384 -0.9716 -1.5343  2.8154
 6882SOL     OW32278   3.492   0.691   8.596  0.0546  0.0484 -0.4129
 6882SOL    HW132279   3.401   0.664   8.586 -0.3536  1.3457 -0.2165
 6882SOL    HW232280   3.487   0.770   8.650  0.1123 -1.5258  1.9296
 6883SOL     OW32281   2.337   3.972   7.372  0.3041 -0.0068  0.3280
 6883SOL    HW132282   2.373   3.903   7.429 -1.1823 -0.9984  0.0433
 6883SOL    HW232283   2.365   3.941   7.286  1.0656  0.6547  0.3399
 6884SOL     OW32284   2.436   3.802   6.679 -0.0613  0.1521  0.0339
 6884SOL    HW132285   2.453   3.709   6.662  0.8981  0.1445  0.9905
 6884SOL    HW232286   2.517   3.821   6.727  1.5257 -1.4529 -2.0339
 6885SOL     OW32287   0.101   0.196   3.529 -0.2906  0.2577 -0.1463
 6885SOL    HW132288   0.035   0.141   3.487  0.0224  1.1124 -1.7841
 6885SOL    HW232289   0.167   0.213   3.461  2.3193 -2.7614  1.6430
 6886SOL     OW32290   1.016   0.675   3.997 -0.2266 -0.4391 -0.2258
 6886SOL    HW132291   0.983   0.588   3.973 -0.2910 -0.4138 -0.2285
 6886SOL    HW232292   1.028   0.723   3.915 -0.2364 -1.0230 -0.5713
 6887SOL     OW32293   0.927   3.136   6.381 -0.1571  0.2939  0.2401
 6887SOL    HW132294   0.971   3.116   6.463 -0.0702  1.4695  0.4921
 6887SOL    HW232295   0.839   3.105   6.400  1.5602 -3.1814  2.4186
 6888SOL     OW32296   4.426   3.829   4.097  0.4834  0.0476  0.2507
 6888SOL    HW132297   4.352   3.814   4.157  0.6293  3.7672  1.3649
 6888SOL    HW232298   4.378   3.812   4.016  2.3596 -1.5198 -0.5357
 6889SOL     OW32299   4.447   2.686  12.729  0.0624 -0.3504 -0.0644
 6889SOL    HW132300   4.467   2.619  12.795 -0.6272  0.1776  0.6926
 6889SOL    HW232301   4.440   2.765  12.783  0.9185 -0.7944  0.7084
 6890SOL     OW32302   1.596   0.187   2.811 -0.1442  0.1786  0.0445
 6890SOL    HW132303   1.525   0.217   2.867 -0.4928  1.8240 -1.2966
 6890SOL    HW232304   1.657   0.260   2.820  0.9344 -0.4477 -2.0926
 6891SOL     OW32305   4.649   1.418   0.330 -0.0816  0.3088 -0.2479
 6891SOL    HW132306   4.603   1.422   0.246  0.8592  1.2784 -0.7171
 6891SOL    HW232307   4.660   1.513   0.342 -0.2049  0.5699 -2.1215
 6892SOL     OW32308   0.260   1.369   4.534 -0.0793 -0.0922  0.4875
 6892SOL    HW132309   0.254   1.340   4.625  2.7741 -1.5666  0.1948
 6892SOL    HW232310   0.328   1.435   4.542 -0.3467  0.4630 -1.9461
 6893SOL     OW32311   1.439   2.933   5.566 -0.1858  0.0809 -0.1060
 6893SOL    HW132312   1.450   3.003   5.501 -0.1121  0.4135  0.2612
 6893SOL    HW232313   1.346   2.931   5.589 -0.4311 -1.8502 -1.2720
 6894SOL     OW32314   2.946   4.093   5.368  0.3771  0.2390  0.1198
 6894SOL    HW132315   2.958   4.140   5.451  0.3850 -2.1733  1.4715
 6894SOL    HW232316   2.851   4.101   5.358  0.4202 -0.9266 -1.2454
 6895SOL     OW32317   2.090   0.901   5.192  0.2536 -0.0660  1.0049
 6895SOL    HW132318   2.163   0.928   5.247  0.2639  2.3856 -0.2123
 6895SOL    HW232319   2.092   0.960   5.116 -0.0127 -0.6862  0.5152
 6896SOL     OW32320   1.861   3.145   9.381  0.4809  0.3154 -0.3757
 6896SOL    HW132321   1.908   3.129   9.300  0.8785  0.3055 -0.1396
 6896SOL    HW232322   1.926   3.155   9.450 -1.3507 -2.8534  1.8155
 6897SOL     OW32323   0.600   1.546   3.240 -0.4706 -0.4083  0.6978
 6897SOL    HW132324   0.629   1.522   3.152 -2.7499 -0.0169 -0.1700
 6897SOL    HW232325   0.672   1.594   3.281 -0.6771 -0.2925  0.9281
 6898SOL     OW32326   2.290   2.854   2.943 -0.5378  0.0949 -0.2751
 6898SOL    HW132327   2.366   2.868   2.887 -0.9958  0.4665 -0.8038
 6898SOL    HW232328   2.318   2.801   3.018 -0.7417  1.3956  0.7338
 6899SOL     OW32329   2.826   3.684  16.096 -0.2884 -0.0825  0.2414
 6899SOL    HW132330   2.845   3.775  16.120  0.9027  0.2703 -2.0651
 6899SOL    HW232331   2.909   3.637  16.102  0.8986  1.7421 -1.9043
 6900SOL     OW32332   0.382   3.029  13.793  0.2377  0.4721 -0.3080
 6900SOL    HW132333   0.426   2.946  13.811  0.5699  0.5749 -0.6282
 6900SOL    HW232334   0.349   3.062  13.876  1.5600  0.0193  0.3998
 6901SOL     OW32335   4.115   2.953  17.000  0.4112 -0.0204  0.4613
 6901SOL    HW132336   4.053   2.914  17.061  0.4859 -0.5285  0.2145
 6901SOL    HW232337   4.140   3.038  17.034  0.4983 -0.0951  0.5854
 6902SOL     OW32338   3.547   3.596   9.567  0.1908 -0.6685 -0.0441
 6902SOL    HW132339   3.521   3.610   9.658  0.1124  0.7445 -0.2752
 6902SOL    HW232340   3.465   3.585   9.520  1.3162 -1.8366 -1.7102
 6903SOL     OW32341   1.602   2.885   0.152  0.2300  0.3564  0.4420
 6903SOL    HW132342   1.623   2.844   0.236  1.6523  0.3807  0.1005
 6903SOL    HW232343   1.659   2.961   0.162 -2.6562  2.4907  0.6945
 6904SOL     OW32344   1.909   0.737   9.706 -0.6884  0.5943 -0.0477
 6904SOL    HW132345   1.944   0.825   9.723  3.2641 -1.2835  1.4692
 6904SOL    HW232346   1.820   0.747   9.672 -1.4440 -0.7775  1.5285
 6905SOL     OW32347   3.865   3.261   7.310 -0.1218  0.1876 -1.0741
 6905SOL    HW132348   3.905   3.349   7.307 -0.0504  0.1571 -1.0129
 6905SOL    HW232349   3.939   3.218   7.353 -0.5631  0.5129  0.0203
 6906SOL     OW32350   1.766   3.145  12.896  0.3725  0.3068  1.0287
 6906SOL    HW132351   1.803   3.074  12.844  1.5338  1.0766  0.8098
 6906SOL    HW232352   1.765   3.109  12.984  0.3242  0.7981  1.2281
 6907SOL     OW32353   1.876   1.128  10.510  0.1429 -0.0337  0.0638
 6907SOL    HW132354   1.833   1.177  10.440  0.3727 -0.0781 -0.1089
 6907SOL    HW232355   1.811   1.065  10.542  0.9384 -0.8685  0.0352
 6908SOL     OW32356   1.301   4.258   3.140  0.0604 -0.3474  0.2981
 6908SOL    HW132357   1.292   4.344   3.099 -1.4331 -1.0956 -0.9346
 6908SOL    HW232358   1.313   4.272   3.234 -1.4652  2.1345  0.1522
 6909SOL     OW32359   2.997   2.387   6.302 -0.5930  0.1694 -0.0995
 6909SOL    HW132360   2.988   2.314   6.241 -1.9750 -0.1332  0.4692
 6909SOL    HW232361   2.993   2.339   6.385  0.7603  0.2366  0.0096
 6910SOL     OW32362   0.785   4.020   5.845 -0.3965 -0.1695  0.1587
 6910SOL    HW132363   0.870   4.014   5.888  0.2624  3.4260 -0.5741
 6910SOL    HW232364   0.816   3.999   5.757 -0.8020  0.7602 -0.2147
 6911SOL     OW32365   2.416   0.181   9.401 -0.7227  0.3361  0.1235
 6911SOL    HW132366   2.335   0.229   9.420 -0.4089  1.3161 -0.9997
 6911SOL    HW232367   2.393   0.148   9.314 -0.6296 -1.1809  0.6752
 6912SOL     OW32368   4.474   3.708   6.123 -0.0024  0.2643  0.1382
 6912SOL    HW132369   4.548   3.705   6.062 -0.8687 -1.5310 -0.8155
 6912SOL    HW232370   4.523   3.680   6.201 -1.3381 -0.2152  0.7967
 6913SOL     OW32371   2.897   0.860   3.815  0.3172 -0.0964 -0.0629
 6913SOL    HW132372   2.947   0.930   3.857  0.7164 -1.8482  2.3361
 6913SOL    HW232373   2.866   0.813   3.892  1.7712 -1.5759 -0.3915
 6914SOL     OW32374   3.154   1.227   3.802 -0.1177  0.1666  0.2570
 6914SOL    HW132375   3.193   1.219   3.715  0.0173  3.1798  0.0363
 6914SOL    HW232376   3.219   1.275   3.854  0.7448 -1.7653  0.9364
 6915SOL     OW32377   0.503   2.494  17.177 -0.5583 -0.1743 -0.5802
 6915SOL    HW132378   0.558   2.465  17.250  0.1909  1.1997 -0.5965
 6915SOL    HW232379   0.540   2.582  17.165  0.2819 -0.1641  2.0811
 6916SOL     OW32380   3.199   3.700   3.561 -0.6973  0.3971 -0.1237
 6916SOL    HW132381   3.145   3.742   3.627  0.0305  1.2502 -0.0807
 6916SOL    HW232382   3.156   3.731   3.481  2.2064 -0.5380 -2.0433
 6917SOL     OW32383   0.177   0.947  16.027 -0.2637  0.7337 -0.5011
 6917SOL    HW132384   0.087   0.924  16.049 -0.6222  1.2126 -1.4529
 6917SOL    HW232385   0.182   1.026  16.081  0.3246  0.5834 -0.3275
 6918SOL     OW32386   2.053   4.070   8.004 -0.3336  0.2173 -0.0842
 6918SOL    HW132387   2.002   3.992   7.983  0.6811  0.1023 -2.1231
 6918SOL    HW232388   2.134   4.052   7.956  0.2151  2.1374  0.0950
 6919SOL     OW32389   0.309   2.524   8.377  0.2672 -0.1331 -0.3789
 6919SOL    HW132390   0.328   2.509   8.285  3.0360  1.1911 -0.0006
 6919SOL    HW232391   0.322   2.618   8.381  0.6484 -0.2025 -0.0814
 6920SOL     OW32392   1.911   0.782   1.641 -0.0324  0.4530 -0.6094
 6920SOL    HW132393   1.955   0.842   1.581  0.3089 -0.4267 -1.2239
 6920SOL    HW232394   1.930   0.827   1.723  0.8890 -0.0269 -0.5578
 6921SOL     OW32395   2.754   1.487   3.852  0.5282 -0.1815 -0.0543
 6921SOL    HW132396   2.737   1.524   3.938  2.9986 -1.0703  0.8247
 6921SOL    HW232397   2.671   1.446   3.829 -0.7162  1.9401  0.6942
 6922SOL     OW32398   4.415   3.536   1.862 -0.0478  0.2432  0.4792
 6922SOL    HW132399   4.386   3.499   1.945  0.2059  1.8807  1.2885
 6922SOL    HW232400   4.489   3.481   1.834 -1.2117 -1.4654  0.7564
 6923SOL     OW32401   3.536   3.074   6.717 -0.1380  0.0017  0.0619
 6923SOL    HW132402   3.563   3.164   6.736 -0.1163 -0.3455  1.6304
 6923SOL    HW232403   3.619   3.031   6.734  1.1751  2.2915 -0.5266
 6924SOL     OW32404   4.648   1.774  13.168  0.1640 -0.4445 -0.0244
 6924SOL    HW132405   4.706   1.829  13.221  0.3995 -1.8964  1.2297
 6924SOL    HW232406   4.562   1.809  13.190 -0.4744 -1.2231 -1.3207
 6925SOL     OW32407   3.764   0.330   9.785 -0.0953  0.0990 -0.5954
 6925SOL    HW132408   3.720   0.368   9.709 -1.0772  0.9315  0.3944
 6925SOL    HW232409   3.717   0.247   9.796 -0.6386  0.2129 -2.0749
 6926SOL     OW32410   2.953   1.414   6.846  0.2427  0.2675 -0.0946
 6926SOL    HW132411   2.996   1.332   6.822 -0.5287 -0.0990 -0.2200
 6926SOL    HW232412   3.024   1.467   6.884  0.6488  0.1800 -0.7270
 6927SOL     OW32413   3.743   0.879  13.656 -0.3715 -0.8163  0.1046
 6927SOL    HW132414   3.812   0.853  13.717  0.9676  1.1719 -0.5484
 6927SOL    HW232415   3.772   0.968  13.639  0.3480 -1.4056 -1.7167
 6928SOL     OW32416   2.918   4.091   7.255 -0.3199  0.1094  0.1261
 6928SOL    HW132417   2.890   4.154   7.321  1.0807  0.9611 -0.0965
 6928SOL    HW232418   2.842   4.035   7.267 -1.5960  1.4766 -1.6239
 6929SOL     OW32419   0.411   4.582   3.134 -0.1486 -0.1305 -0.3553
 6929SOL    HW132420   0.504   4.575   3.116  0.2621  1.0751  1.2850
 6929SOL    HW232421   0.387   4.511   3.075 -0.0647 -0.4729  0.0227
 6930SOL     OW32422   3.481   1.530   1.262  0.0075 -0.5475 -0.4203
 6930SOL    HW132423   3.460   1.520   1.354 -0.6437  0.8949 -0.4192
 6930SOL    HW232424   3.576   1.537   1.271 -0.0530 -0.2580 -0.0313
 6931SOL     OW32425   3.465   0.573   5.387 -0.0828 -0.0813  0.1702
 6931SOL    HW132426   3.483   0.627   5.464  2.2591 -2.9267  1.5744
 6931SOL    HW232427   3.497   0.486   5.409  2.4226  1.2186  1.6287
 6932SOL     OW32428   4.245   3.138   9.728 -0.3810 -0.1663 -0.0453
 6932SOL    HW132429   4.177   3.085   9.687 -0.4183 -0.8245  0.8725
 6932SOL    HW232430   4.250   3.207   9.662 -4.1456 -0.9006 -1.1014
 6933SOL     OW32431   1.356   1.268   9.370 -0.1535  0.3219 -0.1364
 6933SOL    HW132432   1.367   1.325   9.447 -0.5944 -1.8092  1.4955
 6933SOL    HW232433   1.271   1.232   9.395 -0.2752  0.9107  0.2964
 6934SOL     OW32434   2.379   1.864   7.595  0.0419  0.0013 -0.3144
 6934SOL    HW132435   2.389   1.959   7.589  2.1280 -0.0591  2.1203
 6934SOL    HW232436   2.456   1.839   7.646  1.2104  3.7636 -0.2945
 6935SOL     OW32437   4.187   1.749   9.426 -0.0287  0.0591  0.1077
 6935SOL    HW132438   4.228   1.833   9.447  0.9549 -0.6008  0.8455
 6935SOL    HW232439   4.199   1.752   9.331  0.9937  1.3824  0.2811
 6936SOL     OW32440   3.301   2.209  11.696 -0.2797  0.9297 -0.1074
 6936SOL    HW132441   3.258   2.294  11.693 -3.1853 -0.5537  0.2208
 6936SOL    HW232442   3.364   2.206  11.623 -0.5688  1.4493 -0.3737
 6937SOL     OW32443   1.209   4.366  13.436  0.2164  0.2929  0.4840
 6937SOL    HW132444   1.114   4.372  13.424  0.3205  1.5222  0.2295
 6937SOL    HW232445   1.228   4.458  13.457 -3.3175  0.5004  2.8360
 6938SOL     OW32446   4.547   2.376   3.112 -0.5157  0.5995  0.5572
 6938SOL    HW132447   4.474   2.411   3.163 -1.9533  0.6869 -1.5819
 6938SOL    HW232448   4.502   2.300   3.074  2.6676 -1.2074  0.3388
 6939SOL     OW32449   2.632   2.871  10.114 -0.1448  0.4101  0.4908
 6939SOL    HW132450   2.619   2.785  10.152  0.8478  0.2365  0.4370
 6939SOL    HW232451   2.598   2.866  10.025 -1.1404 -0.5946  0.9359
 6940SOL     OW32452   2.952   1.512   9.565 -0.0231  0.5720 -0.3433
 6940SOL    HW132453   2.969   1.606   9.575  0.5889  0.2308  1.7668
 6940SOL    HW232454   3.038   1.478   9.587 -0.0986  0.2790 -0.5008
 6941SOL     OW32455   0.823   3.067   7.917 -0.4660  0.4975  0.2635
 6941SOL    HW132456   0.874   3.119   7.855  2.5921 -0.6516  1.7942
 6941SOL    HW232457   0.747   3.124   7.924  0.6845  2.0803 -0.2953
 6942SOL     OW32458   4.569   0.863   2.725 -0.2722  0.0003  0.0378
 6942SOL    HW132459   4.487   0.850   2.773 -1.1778 -0.6019 -1.6914
 6942SOL    HW232460   4.564   0.936   2.663  1.6350  1.3776  1.4888
 6943SOL     OW32461   1.172   0.554  11.918  0.5439  0.1472 -0.0155
 6943SOL    HW132462   1.087   0.600  11.915  0.8395  0.6404 -1.1135
 6943SOL    HW232463   1.170   0.505  11.835  0.1970 -2.1566  1.3653
 6944SOL     OW32464   3.964   3.636   1.522 -0.1501  0.0948 -0.0319
 6944SOL    HW132465   3.884   3.599   1.560  0.9593 -0.8307  1.4167
 6944SOL    HW232466   4.035   3.613   1.583  2.1095  1.5867 -2.1104
 6945SOL     OW32467   0.119   0.617   5.382 -0.1667  0.5726  0.1406
 6945SOL    HW132468   0.119   0.603   5.476  0.3814 -1.3085 -0.1395
 6945SOL    HW232469   0.028   0.645   5.369  0.5585  1.9238 -1.9259
 6946SOL     OW32470   0.940   0.451   6.604 -0.7944 -0.3366  0.0914
 6946SOL    HW132471   0.916   0.536   6.568 -2.3069 -0.6120  0.4531
 6946SOL    HW232472   0.921   0.415   6.517  2.9151  0.2370 -0.9975
 6947SOL     OW32473   3.705   3.557   7.965 -0.7615 -0.4607 -0.0789
 6947SOL    HW132474   3.763   3.588   8.034  1.3036  0.2754 -2.1137
 6947SOL    HW232475   3.640   3.507   8.014 -0.1816 -0.2139  0.9255
 6948SOL     OW32476   4.714   2.702   1.203 -0.4376  0.1166  0.0486
 6948SOL    HW132477   4.631   2.747   1.187 -0.2162  0.2927 -0.5991
 6948SOL    HW232478   0.040   2.770   1.184 -1.7805  0.8478 -1.7968
 6949SOL     OW32479   4.259   3.433   6.645 -0.2152 -0.0646 -0.1710
 6949SOL    HW132480   4.228   3.357   6.596  1.4102 -0.3594 -0.7393
 6949SOL    HW232481   4.306   3.385   6.712  1.1416 -0.3143 -1.3080
 6950SOL     OW32482   1.377   4.731   6.743  0.0741 -0.6420 -0.0671
 6950SOL    HW132483   1.428   0.053   6.799 -2.1174  1.4546 -0.3189
 6950SOL    HW232484   1.413   4.650   6.777 -0.2980 -0.8442 -0.1559
 6951SOL     OW32485   1.610   0.377   9.003 -0.1475  1.0968 -0.1623
 6951SOL    HW132486   1.632   0.453   8.949 -1.2710 -0.6691 -3.1405
 6951SOL    HW232487   1.666   0.381   9.080 -0.5288 -0.5367  0.1998
 6952SOL     OW32488   3.054   2.024   6.753 -0.8932 -0.3111 -0.9838
 6952SOL    HW132489   2.966   2.039   6.790 -0.3974  2.1597 -0.8048
 6952SOL    HW232490   3.053   1.930   6.767  2.9237 -0.1055  0.5044
 6953SOL     OW32491   0.860   3.195  10.442  1.0296 -0.1952 -1.1422
 6953SOL    HW132492   0.810   3.177  10.521  1.2717  0.0290 -0.9373
 6953SOL    HW232493   0.928   3.127  10.443  0.6679 -0.5192  0.9253
 6954SOL     OW32494   4.317   2.465   4.133  0.4127 -0.0094  0.5607
 6954SOL    HW132495   4.272   2.483   4.050 -0.3605  0.2124  1.0294
 6954SOL    HW232496   4.255   2.479   4.204 -0.4538  0.6592 -0.3164
 6955SOL     OW32497   2.601   3.559   3.303  0.1474  0.5147  0.5549
 6955SOL    HW132498   2.567   3.642   3.334 -0.3347  1.6720 -3.1362
 6955SOL    HW232499   2.682   3.560   3.355  0.5289  1.2330 -0.0596
 6956SOL     OW32500   4.023   2.130   6.577  0.2293 -0.5127 -0.3697
 6956SOL    HW132501   4.075   2.114   6.498  0.4184  1.3218 -0.6100
 6956SOL    HW232502   4.015   2.225   6.576 -0.1694 -0.5654 -1.5273
 6957SOL     OW32503   3.537   1.430   8.158  0.2359 -0.2427 -0.7844
 6957SOL    HW132504   3.629   1.403   8.167  0.6998  2.0972  1.4455
 6957SOL    HW232505   3.549   1.524   8.146  0.4338 -0.5393 -2.9370
 6958SOL     OW32506   3.118   1.151  17.029  0.3557  0.3874  0.4354
 6958SOL    HW132507   3.200   1.201  17.033 -0.6132  2.0758 -0.9100
 6958SOL    HW232508   3.103   1.132  16.937  0.8685 -1.0337  0.6407
 6959SOL     OW32509   4.188   3.778   9.249  0.0026  0.8391  0.0833
 6959SOL    HW132510   4.104   3.821   9.261 -0.4903 -0.2316  0.4670
 6959SOL    HW232511   4.205   3.742   9.336  0.1381 -0.7628 -0.6060
 6960SOL     OW32512   4.524   0.863   8.015  0.0950 -0.1724 -0.8289
 6960SOL    HW132513   4.455   0.838   7.953  1.1825 -1.2060 -1.6272
 6960SOL    HW232514   4.505   0.795   8.080 -0.6885 -0.3949 -1.2798
 6961SOL     OW32515   1.167   1.873   6.448  0.0586 -0.1510  0.2020
 6961SOL    HW132516   1.075   1.866   6.473 -0.1043  0.1627 -0.3102
 6961SOL    HW232517   1.163   1.905   6.358 -2.2245 -0.9269  0.0297
 6962SOL     OW32518   3.266   4.237   9.254 -0.2315  0.1068 -0.0247
 6962SOL    HW132519   3.246   4.325   9.285  0.7347  0.9216 -1.7149
 6962SOL    HW232520   3.359   4.244   9.232 -0.3208 -2.0124 -1.0661
 6963SOL     OW32521   2.773   1.672   7.482  0.7815 -0.2195 -0.2031
 6963SOL    HW132522   2.845   1.729   7.456  0.5113  0.3857  0.3927
 6963SOL    HW232523   2.764   1.639   7.393  0.3674  1.5485 -0.8173
 6964SOL     OW32524   3.455   1.488   7.135 -0.4354 -0.2130 -0.3926
 6964SOL    HW132525   3.545   1.463   7.113 -1.3409 -1.1610 -2.9695
 6964SOL    HW232526   3.438   1.452   7.222 -1.6888 -0.0437 -0.5607
 6965SOL     OW32527   1.506   2.601   3.222  0.1220  0.3472  0.0567
 6965SOL    HW132528   1.511   2.546   3.144 -1.5227  1.4613 -0.8249
 6965SOL    HW232529   1.415   2.627   3.238 -0.1891 -0.9285  0.3783
 6966SOL     OW32530   0.330   3.909  16.469  0.0565  0.9213  0.4981
 6966SOL    HW132531   0.324   3.864  16.384  1.1405  0.7589  0.5114
 6966SOL    HW232532   0.411   3.960  16.468  0.0315  0.9573  0.3292
 6967SOL     OW32533   2.686   3.041   3.498  0.3587  0.0879  0.4912
 6967SOL    HW132534   2.646   3.069   3.580 -0.7813 -0.4960  0.1210
 6967SOL    HW232535   2.691   3.132   3.467  2.0403 -0.4740 -0.8894
 6968SOL     OW32536   3.129   2.187   0.790 -0.0899 -0.4738 -0.8516
 6968SOL    HW132537   3.141   2.141   0.707  1.5207  1.6900 -1.8416
 6968SOL    HW232538   3.062   2.250   0.763 -0.0390 -0.2346 -0.4078
 6969SOL     OW32539   0.445   3.027   6.319 -0.0742 -0.1991 -0.7791
 6969SOL    HW132540   0.527   3.009   6.366 -1.6059 -1.1565  1.5218
 6969SOL    HW232541   0.395   3.068   6.390  0.6120 -0.5385 -0.0929
 6970SOL     OW32542   0.039   0.432   0.219 -0.2192  0.5141  0.2310
 6970SOL    HW132543   0.075   0.345   0.238 -2.1568 -0.1486  0.9698
 6970SOL    HW232544   0.119   0.479   0.239  0.8772 -0.7939 -1.0431
 6971SOL     OW32545   4.515   2.825   7.253 -0.4408  0.1020 -0.0644
 6971SOL    HW132546   4.543   2.740   7.219  2.0832  1.1770 -0.6572
 6971SOL    HW232547   4.596   2.873   7.268 -0.3972  0.7778 -2.4151
 6972SOL     OW32548   1.900   0.960   5.429 -0.2336  0.1638 -0.0682
 6972SOL    HW132549   1.831   0.911   5.385  0.0584 -0.7323  0.4715
 6972SOL    HW232550   1.972   0.953   5.366 -0.0803 -1.3873  0.2745
 6973SOL     OW32551   1.594   1.237   9.634  0.4536 -0.0155 -0.6950
 6973SOL    HW132552   1.525   1.303   9.628  0.0192 -0.4666 -0.5956
 6973SOL    HW232553   1.599   1.212   9.541 -0.0489  0.0820 -0.7489
 6974SOL     OW32554   2.433   2.164  14.965  0.0718 -0.2827 -0.0403
 6974SOL    HW132555   2.525   2.138  14.970 -0.1780 -1.3038 -0.5287
 6974SOL    HW232556   2.404   2.139  14.877  0.6263  0.0427 -0.3131
 6975SOL     OW32557   2.042   4.282   4.044  0.1838  0.1785 -0.0476
 6975SOL    HW132558   2.053   4.240   4.129 -0.5518  1.4947  0.7027
 6975SOL    HW232559   2.050   4.376   4.062 -2.3788  0.2779  0.5027
 6976SOL     OW32560   1.631   2.867   9.035  0.2230  0.4519 -0.1224
 6976SOL    HW132561   1.602   2.945   9.082 -1.6046  0.0424 -0.5616
 6976SOL    HW232562   1.549   2.820   9.018 -0.0225  1.0362 -0.5286
 6977SOL     OW32563   0.123   2.034   7.843 -0.2358 -0.3130  0.5765
 6977SOL    HW132564   0.114   2.043   7.748  0.1496  1.3904  0.7061
 6977SOL    HW232565   0.037   2.065   7.868  0.3688  0.7066  1.3822
 6978SOL     OW32566   2.572   1.889   4.649 -0.5086  0.5882  0.3600
 6978SOL    HW132567   2.579   1.836   4.569  0.7984  0.6966  0.4029
 6978SOL    HW232568   2.480   1.905   4.632 -0.7828  0.4175  1.7637
 6979SOL     OW32569   4.735   3.718  17.573  0.0876 -0.6350  0.0965
 6979SOL    HW132570   4.731   3.714  17.477 -0.7409  1.7055  0.0188
 6979SOL    HW232571   0.016   3.811  17.589 -1.0054  0.0324 -2.4786
 6980SOL     OW32572   3.765   4.512  10.445  0.0935  0.1086 -0.2998
 6980SOL    HW132573   3.713   4.458  10.504  0.4565  2.8119  2.4896
 6980SOL    HW232574   3.736   4.495  10.355 -0.8175  0.2221 -0.0243
 6981SOL     OW32575   1.238   3.210   4.954  0.1064  0.1270  0.0953
 6981SOL    HW132576   1.272   3.206   5.043 -2.1964 -2.9582  0.8238
 6981SOL    HW232577   1.155   3.256   4.963  0.1000  0.2422 -0.5322
 6982SOL     OW32578   0.774   2.557   7.580  0.3288 -0.0489  0.1539
 6982SOL    HW132579   0.825   2.481   7.554  2.0478  1.1652 -0.0172
 6982SOL    HW232580   0.699   2.501   7.601  1.6841 -2.6237 -1.7814
 6983SOL     OW32581   0.755   0.949   8.254 -0.2656 -0.4590 -0.0479
 6983SOL    HW132582   0.826   0.885   8.257 -0.6364 -0.9262 -1.4776
 6983SOL    HW232583   0.696   0.915   8.187 -0.4396 -2.6302  1.2036
 6984SOL     OW32584   0.876   4.619   3.362 -0.2312 -0.8422 -0.2941
 6984SOL    HW132585   0.822   4.567   3.421  0.7863  1.5630  2.7425
 6984SOL    HW232586   0.894   4.555   3.293  0.3179  0.0530 -0.9866
 6985SOL     OW32587   2.874   2.783   5.950 -0.2578  0.2552 -0.1431
 6985SOL    HW132588   2.947   2.786   6.011  1.5623 -1.4385 -2.2263
 6985SOL    HW232589   2.818   2.853   5.984 -0.0915  0.4571 -0.2823
 6986SOL     OW32590   1.240   1.166   3.117  0.0501 -0.8379 -0.2327
 6986SOL    HW132591   1.278   1.228   3.180  1.6002 -2.6490  0.6315
 6986SOL    HW232592   1.171   1.123   3.167  0.4418 -2.5062 -1.1140
 6987SOL     OW32593   1.470   0.004   2.625 -0.1651 -0.2575  0.3515
 6987SOL    HW132594   1.527   0.015   2.549  0.3156  0.0497  0.7580
 6987SOL    HW232595   1.524   0.045   2.692 -0.3674 -0.9238  0.9142
 6988SOL     OW32596   1.200   2.502   1.524  0.5908  0.6670 -0.1765
 6988SOL    HW132597   1.177   2.509   1.616 -1.5774 -1.0836 -0.5801
 6988SOL    HW232598   1.295   2.500   1.537  0.3122  1.5167  1.9084
 6989SOL     OW32599   4.101   0.144   3.419  0.4325  0.3674 -0.0269
 6989SOL    HW132600   4.165   0.100   3.363  1.5092  1.9811 -0.0686
 6989SOL    HW232601   4.166   0.209   3.448 -1.0379  1.6408  0.4242
 6990SOL     OW32602   2.590   0.234   1.188 -0.2305 -0.4123  0.1906
 6990SOL    HW132603   2.643   0.266   1.115 -1.6669  0.8505 -0.3034
 6990SOL    HW232604   2.559   0.318   1.221 -0.1903 -0.1624 -0.3965
 6991SOL     OW32605   0.308   2.682   7.718  0.1734  0.3667  0.6428
 6991SOL    HW132606   0.270   2.760   7.759 -0.1191  0.8536 -0.5581
 6991SOL    HW232607   0.388   2.659   7.764  0.2437  1.8049  1.2501
 6992SOL     OW32608   1.390   1.669   3.897 -0.2164  0.2241  0.1317
 6992SOL    HW132609   1.402   1.586   3.850 -1.3922  0.9322 -1.4043
 6992SOL    HW232610   1.463   1.722   3.864  0.0907  0.1116  0.6198
 6993SOL     OW32611   0.016   1.416   3.637  0.3720  0.5346 -0.7298
 6993SOL    HW132612   0.108   1.434   3.618  0.2714  0.5424 -1.2121
 6993SOL    HW232613   4.709   1.493   3.600  1.4551  1.0176 -1.0230
 6994SOL     OW32614   2.720   1.105   4.104 -0.1652 -0.0672  0.3305
 6994SOL    HW132615   2.784   1.034   4.106 -1.0661 -0.8568  1.2139
 6994SOL    HW232616   2.731   1.143   4.017 -1.2961 -2.5692 -0.8852
 6995SOL     OW32617   4.705   2.024  17.245 -0.3482 -0.0161  0.2094
 6995SOL    HW132618   4.695   2.099  17.304 -0.8805 -0.2678  0.4395
 6995SOL    HW232619   0.047   2.049  17.197 -0.4341 -2.1034 -1.0238
 6996SOL     OW32620   1.242   2.867  10.432  0.3587  0.0330  0.8209
 6996SOL    HW132621   1.301   2.876  10.507  1.5841  2.5756 -0.4733
 6996SOL    HW232622   1.200   2.952  10.440  0.6316  0.2511 -0.0782
 6997SOL     OW32623   1.996   2.333   9.953 -0.0269 -0.2458  0.4332
 6997SOL    HW132624   1.912   2.293   9.935 -0.4877  1.0348 -0.2883
 6997SOL    HW232625   1.983   2.411   9.900  1.0940 -1.1563 -1.1806
 6998SOL     OW32626   1.198   4.175  17.223  0.6809 -0.4391 -0.2763
 6998SOL    HW132627   1.268   4.116  17.198  0.4286 -1.3557  1.1700
 6998SOL    HW232628   1.199   4.162  17.318 -1.2995  2.9988  0.2185
 6999SOL     OW32629   3.390   0.390  10.305 -0.3428  0.2699 -0.5708
 6999SOL    HW132630   3.425   0.425  10.387  3.0089 -2.1489 -0.9784
 6999SOL    HW232631   3.330   0.463  10.285  0.7258  1.4279  0.4492
 7000SOL     OW32632   3.967   0.339   4.846  0.3434  0.3448  0.7240
 7000SOL    HW132633   4.014   0.269   4.890 -1.3140 -1.6206 -0.6457
 7000SOL    HW232634   3.884   0.355   4.892  0.3661  1.1425  0.4962
 7001SOL     OW32635   4.383   0.786  13.210 -0.4110  0.2562  0.1598
 7001SOL    HW132636   4.416   0.705  13.248 -1.6545 -0.4097 -0.1632
 7001SOL    HW232637   4.290   0.766  13.199  0.0053 -1.3999 -0.3225
 7002SOL     OW32638   3.478   3.654   8.193 -0.0365  0.4104  0.3193
 7002SOL    HW132639   3.398   3.659   8.141  1.7054 -0.3466 -2.4088
 7002SOL    HW232640   3.447   3.587   8.254  0.7392  0.3131  0.5977
 7003SOL     OW32641   2.594   1.101   9.004  0.3994  0.4571 -0.0899
 7003SOL    HW132642   2.506   1.095   9.041  0.1869 -0.5950 -0.7601
 7003SOL    HW232643   2.640   1.126   9.084 -0.1640  1.9505 -0.2394
 7004SOL     OW32644   1.746   1.735  13.288 -0.2575  0.4996  0.5698
 7004SOL    HW132645   1.675   1.798  13.298 -0.2617  0.5899 -0.0036
 7004SOL    HW232646   1.725   1.686  13.367 -0.7759  3.6371  2.3518
 7005SOL     OW32647   1.786   0.896   8.679  0.2029 -0.1796 -0.1374
 7005SOL    HW132648   1.722   0.952   8.636 -0.2240  0.4811  1.3635
 7005SOL    HW232649   1.775   0.819   8.622 -1.0902  0.3881 -0.6406
 7006SOL     OW32650   3.595   0.370   3.401  0.2329  0.1159  0.4916
 7006SOL    HW132651   3.554   0.320   3.330  1.0439  0.8700 -0.5246
 7006SOL    HW232652   3.689   0.358   3.383 -0.0152  2.7813 -2.6424
 7007SOL     OW32653   2.339   1.940   1.850 -0.0155 -0.3256 -0.1581
 7007SOL    HW132654   2.337   1.856   1.804  0.3842 -0.4371  0.0272
 7007SOL    HW232655   2.392   1.923   1.928  0.5785  1.0254 -0.2742
 7008SOL     OW32656   1.603   0.295   3.715  0.0393  0.0511  0.0100
 7008SOL    HW132657   1.550   0.249   3.649  0.9545 -1.0725  0.0588
 7008SOL    HW232658   1.675   0.303   3.653  2.0395  0.4707  2.3958
 7009SOL     OW32659   3.536   0.937  16.524  0.5787 -0.0036  0.2723
 7009SOL    HW132660   3.454   0.976  16.494 -0.8313 -0.7882  3.1179
 7009SOL    HW232661   3.539   0.851  16.483 -1.9456 -0.2801  0.7091
 7010SOL     OW32662   4.173   4.304   6.785  0.8867 -0.3706 -0.4183
 7010SOL    HW132663   4.266   4.323   6.776  1.3269 -0.9939  3.0668
 7010SOL    HW232664   4.135   4.313   6.697  1.4707  2.3401 -0.4141
 7011SOL     OW32665   3.950   2.735   8.722  0.0729  0.0320  0.3966
 7011SOL    HW132666   3.895   2.661   8.698 -0.5494  0.8239 -0.5958
 7011SOL    HW232667   4.036   2.694   8.731  1.0399  1.7860 -0.7625
 7012SOL     OW32668   3.185   2.748   7.551  0.5326  0.0233  0.2672
 7012SOL    HW132669   3.256   2.813   7.546  0.8096 -0.3517 -0.7302
 7012SOL    HW232670   3.227   2.685   7.491  1.1142 -0.6392  1.3788
 7013SOL     OW32671   1.182   2.193   9.314 -0.3315  0.0111 -0.0837
 7013SOL    HW132672   1.246   2.264   9.318  1.1809 -1.3626  0.1640
 7013SOL    HW232673   1.199   2.176   9.221 -3.3907 -2.6105 -0.1257
 7014SOL     OW32674   4.280   3.774   5.587 -0.2324 -0.2986  0.1132
 7014SOL    HW132675   4.190   3.805   5.578 -0.5018 -0.3646  2.6105
 7014SOL    HW232676   4.323   3.843   5.537 -3.7008  1.3528 -0.5856
 7015SOL     OW32677   4.729   2.115   4.929  0.0272  0.7654  0.3464
 7015SOL    HW132678   0.065   2.163   4.967 -0.6450  1.9709  0.1277
 7015SOL    HW232679   0.021   2.098   4.839 -3.5155  2.1816 -1.1038
 7016SOL     OW32680   3.142   4.275   3.166 -0.2305  0.6504 -0.8946
 7016SOL    HW132681   3.114   4.351   3.216 -1.2089  1.0716 -2.1007
 7016SOL    HW232682   3.064   4.224   3.146 -0.8164  0.7105  1.2442
 7017SOL     OW32683   2.246   3.753   8.394 -0.7288 -0.0330  0.0188
 7017SOL    HW132684   2.322   3.715   8.350 -0.7153  0.0760 -0.0492
 7017SOL    HW232685   2.185   3.695   8.348 -2.2664 -0.0408  2.0492
 7018SOL     OW32686   0.552   0.005   4.780  0.1230 -0.3410  0.0971
 7018SOL    HW132687   0.573   4.669   4.837  1.1707 -0.9349 -1.0586
 7018SOL    HW232688   0.637   0.044   4.761 -0.4823  0.1360 -1.6411
 7019SOL     OW32689   0.076   0.660  11.566  0.4399  0.2047  0.3992
 7019SOL    HW132690   0.145   0.659  11.499 -0.3667  1.7213 -0.4354
 7019SOL    HW232691   0.065   0.754  11.579  0.0547  0.0578  1.0964
 7020SOL     OW32692   4.374   1.072   5.985 -0.2821 -0.1538  0.3530
 7020SOL    HW132693   4.452   1.056   6.039 -0.9344  0.3830  1.4538
 7020SOL    HW232694   4.416   1.044   5.904  1.8982 -0.9148  1.7555
 7021SOL     OW32695   4.349   3.600   9.093  0.0780 -0.0844  0.1490
 7021SOL    HW132696   4.439   3.626   9.115  0.6950 -0.5778 -1.8253
 7021SOL    HW232697   4.300   3.665   9.144  2.1188  0.7055  1.1123
 7022SOL     OW32698   0.715   2.056   5.873 -0.3592  0.5680  0.1041
 7022SOL    HW132699   0.622   2.042   5.851 -0.5564  1.2632  0.5092
 7022SOL    HW232700   0.751   1.973   5.842  0.4379  1.7175 -2.0318
 7023SOL     OW32701   3.761   4.546   4.752  0.3465 -0.0249 -0.7987
 7023SOL    HW132702   3.839   4.532   4.697  0.7748  0.0263 -0.2037
 7023SOL    HW232703   3.690   4.561   4.690 -0.1274  0.3783 -0.1559
 7024SOL     OW32704   3.178   1.247  12.124  0.2670  0.2274 -0.1700
 7024SOL    HW132705   3.241   1.319  12.122  1.9106 -1.1757  1.0590
 7024SOL    HW232706   3.229   1.176  12.162 -0.2414 -0.9831 -1.7616
 7025SOL     OW32707   4.055   1.974   3.024  0.1602 -0.3496 -0.2739
 7025SOL    HW132708   3.969   1.936   3.005 -0.1789  0.1298  0.3135
 7025SOL    HW232709   4.038   2.064   2.995  1.9362  0.6402  1.7907
 7026SOL     OW32710   4.517   2.881   0.115 -0.2702  0.4878  0.3209
 7026SOL    HW132711   4.611   2.875   0.128 -0.1790  0.8860 -0.1661
 7026SOL    HW232712   4.507   2.962   0.065 -0.6362  1.0793  1.3477
 7027SOL     OW32713   0.384   1.446   2.141 -0.2992 -0.0266  0.2487
 7027SOL    HW132714   0.395   1.380   2.210 -0.3065  0.0298  0.3030
 7027SOL    HW232715   0.319   1.499   2.187  0.1036 -0.6077  1.4860
 7028SOL     OW32716   4.156   0.892   8.446 -0.3339 -0.4882 -0.0549
 7028SOL    HW132717   4.087   0.908   8.381  1.0294  1.7680 -0.9405
 7028SOL    HW232718   4.209   0.824   8.406 -0.1696  0.8409 -2.1048
 7029SOL     OW32719   3.746   0.380  15.325 -0.0307 -0.9769 -0.1596
 7029SOL    HW132720   3.714   0.443  15.261  1.3206  0.5813  0.6742
 7029SOL    HW232721   3.758   0.429  15.407  1.5347 -2.5597  0.5688
 7030SOL     OW32722   2.626   0.492   4.325  1.0687  0.2340  0.2944
 7030SOL    HW132723   2.657   0.436   4.396 -0.4289  0.7626  1.3414
 7030SOL    HW232724   2.701   0.489   4.264  0.6142 -1.1407 -0.1967
 7031SOL     OW32725   2.814   1.578   9.281  0.5555  0.2163  0.1733
 7031SOL    HW132726   2.865   1.523   9.340  0.1841  0.3729  0.6421
 7031SOL    HW232727   2.884   1.632   9.244 -1.0138  1.7490 -0.5595
 7032SOL     OW32728   2.561   3.740   7.457 -0.3371  0.1591  0.0102
 7032SOL    HW132729   2.652   3.723   7.432 -0.2673 -0.0332  0.4037
 7032SOL    HW232730   2.563   3.748   7.552 -0.0871 -0.5160  0.0617
 7033SOL     OW32731   1.297   1.948   5.088  0.0831 -0.3494 -0.0129
 7033SOL    HW132732   1.360   1.882   5.060  3.3424  1.6595  2.6839
 7033SOL    HW232733   1.241   1.946   5.009 -0.5542 -2.6502  0.4899
 7034SOL     OW32734   3.922   2.203  14.868 -0.8069 -0.3512  0.1503
 7034SOL    HW132735   3.896   2.261  14.797 -0.6991 -0.5655 -0.0658
 7034SOL    HW232736   3.953   2.123  14.825  0.8915  2.0007 -3.0119
 7035SOL     OW32737   4.222   0.090   0.441  0.3262  0.2318 -0.3218
 7035SOL    HW132738   4.177   0.156   0.494  2.1816  0.7141  0.6801
 7035SOL    HW232739   4.299   0.065   0.494 -0.2848  0.7702  0.8265
 7036SOL     OW32740   1.274   2.956   8.004 -1.3503  0.2228  0.5277
 7036SOL    HW132741   1.282   2.950   7.908 -1.8793 -1.8138  0.5986
 7036SOL    HW232742   1.203   3.021   8.003  0.7718  2.5187  1.2889
 7037SOL     OW32743   4.413   4.513   3.371  0.0632 -0.4025  0.4597
 7037SOL    HW132744   4.390   4.600   3.338 -0.5515 -1.1928 -1.1746
 7037SOL    HW232745   4.507   4.512   3.354  0.1701  1.0165  0.9537
 7038SOL     OW32746   2.593   1.898   4.258  0.2861  0.1482 -0.4744
 7038SOL    HW132747   2.512   1.944   4.282  0.5074 -0.5249  1.5339
 7038SOL    HW232748   2.642   1.974   4.227  0.9325 -0.1292 -0.1204
 7039SOL     OW32749   3.807   2.784  11.651 -0.1801 -0.3044 -0.3332
 7039SOL    HW132750   3.717   2.756  11.666 -0.3798 -0.3672 -1.6216
 7039SOL    HW232751   3.799   2.879  11.658  0.6298 -0.3589  1.2203
 7040SOL     OW32752   2.381   2.818  12.387 -0.0596  0.2792  0.3124
 7040SOL    HW132753   2.401   2.890  12.446 -1.6622 -1.1116  2.5456
 7040SOL    HW232754   2.369   2.871  12.308 -0.4969  2.2204  1.6818
 7041SOL     OW32755   2.840   1.717  15.004 -0.4489 -0.7797  0.1563
 7041SOL    HW132756   2.766   1.739  14.947  0.8746 -1.0141 -1.6417
 7041SOL    HW232757   2.908   1.773  14.967 -1.6382  0.2577 -0.4718
 7042SOL     OW32758   0.702   0.348   5.359 -0.1597 -0.0217  0.4303
 7042SOL    HW132759   0.685   0.441   5.342  1.8188  0.4435  1.0508
 7042SOL    HW232760   0.742   0.323   5.276  0.9811 -0.0659  0.9994
 7043SOL     OW32761   3.713   3.395   6.879  0.3005 -0.0695 -0.4116
 7043SOL    HW132762   3.800   3.389   6.840  0.8830 -0.8530  1.0380
 7043SOL    HW232763   3.715   3.323   6.942  1.0943  0.3433  0.0266
 7044SOL     OW32764   0.244   0.336   5.308 -0.4927  0.2328  0.1297
 7044SOL    HW132765   0.175   0.270   5.299  2.2086 -2.6724  0.7089
 7044SOL    HW232766   0.201   0.413   5.346  1.7793  1.2762  0.5822
 7045SOL     OW32767   3.450   2.065   4.461  0.2490 -0.3978 -0.2681
 7045SOL    HW132768   3.437   1.971   4.470 -0.0911 -0.3414 -0.1975
 7045SOL    HW232769   3.503   2.080   4.540  0.8854  2.0776 -1.1591
 7046SOL     OW32770   0.217   3.403   6.326 -0.1892  0.1205 -0.0892
 7046SOL    HW132771   0.186   3.449   6.404 -0.8477 -0.1890 -0.1717
 7046SOL    HW232772   0.312   3.387   6.331 -0.0312  1.4334  1.0221
 7047SOL     OW32773   2.718   2.720   2.095  0.0448  0.0278  0.0303
 7047SOL    HW132774   2.767   2.692   2.018  0.9429 -1.0904  1.0117
 7047SOL    HW232775   2.756   2.656   2.155 -0.5296 -0.2220  0.1324
 7048SOL     OW32776   0.020   0.882   0.109  0.1124  0.5377 -0.0790
 7048SOL    HW132777   0.061   0.830   0.040 -2.5454  0.8234 -1.8627
 7048SOL    HW232778   0.042   0.837   0.191 -1.7907 -1.0577 -0.4570
 7049SOL     OW32779   1.586   0.483   4.334  0.1085 -0.9829  0.0687
 7049SOL    HW132780   1.637   0.547   4.383 -0.9600  0.2858 -0.4648
 7049SOL    HW232781   1.554   0.544   4.267  0.7057 -0.8813 -0.1249
 7050SOL     OW32782   0.967   2.115  15.063 -0.2016  0.5375 -0.0798
 7050SOL    HW132783   0.941   2.024  15.077 -2.5628  1.1074 -0.8024
 7050SOL    HW232784   1.060   2.094  15.071 -0.4308 -0.8713 -1.0920
 7051SOL     OW32785   0.267   3.636   3.184 -0.4822  0.0629 -0.0519
 7051SOL    HW132786   0.249   3.714   3.236  1.0468  1.1471 -1.1590
 7051SOL    HW232787   0.356   3.639   3.150 -0.3775 -2.2722  0.0019
 7052SOL     OW32788   0.389   3.169  10.627 -0.1503 -0.5255 -0.1300
 7052SOL    HW132789   0.363   3.258  10.650  0.1246 -0.7746  1.1320
 7052SOL    HW232790   0.313   3.115  10.647 -0.2972  0.4919  2.1090
 7053SOL     OW32791   1.242   2.349   5.602 -0.5687 -0.0752  0.2524
 7053SOL    HW132792   1.233   2.269   5.551 -1.1634 -0.9829  1.7959
 7053SOL    HW232793   1.284   2.408   5.539  0.9728  0.0463  1.3760
 7054SOL     OW32794   2.345   1.674   5.199  0.1537 -0.2932 -0.1011
 7054SOL    HW132795   2.292   1.723   5.136 -1.7819 -2.0890  0.1270
 7054SOL    HW232796   2.294   1.698   5.277  0.4537  1.6089 -0.4769
 7055SOL     OW32797   3.823   2.912   3.592  0.1300  0.1513 -0.1662
 7055SOL    HW132798   3.918   2.921   3.585  0.2097 -0.3345  0.2864
 7055SOL    HW232799   3.794   2.993   3.635  0.5793  0.4816 -0.4909
 7056SOL     OW32800   3.913   0.657  14.332  0.7196  0.2739  0.0721
 7056SOL    HW132801   3.835   0.618  14.372  1.5910 -0.0222  1.4732
 7056SOL    HW232802   3.937   0.729  14.390  2.3124 -0.5515  0.4379
 7057SOL     OW32803   0.484   2.569   6.840 -0.1869 -0.1291 -0.3861
 7057SOL    HW132804   0.442   2.526   6.915 -0.3582 -0.7505 -0.8374
 7057SOL    HW232805   0.576   2.561   6.865 -0.0191  0.2347 -0.8872
 7058SOL     OW32806   4.020   2.400   9.258  0.2929  0.0673 -0.6041
 7058SOL    HW132807   3.967   2.357   9.191 -0.3975 -0.6967  0.4170
 7058SOL    HW232808   3.976   2.359   9.333  0.0790 -0.0982 -0.8209
 7059SOL     OW32809   0.330   3.881  17.162 -0.4197 -0.3300 -0.4710
 7059SOL    HW132810   0.250   3.868  17.110  0.6786 -0.7511 -2.0381
 7059SOL    HW232811   0.373   3.944  17.105  0.4106  0.9869  1.6289
 7060SOL     OW32812   0.608   0.582   0.102  0.2754  0.0087 -0.3061
 7060SOL    HW132813   0.661   0.517   0.147  1.1638  0.4218 -0.7486
 7060SOL    HW232814   0.559   0.611   0.179 -0.6999  1.1187 -1.3394
 7061SOL     OW32815   1.275   0.659   4.447 -0.3320 -0.2026 -0.0299
 7061SOL    HW132816   1.300   0.750   4.430  0.6909 -0.5526 -0.3766
 7061SOL    HW232817   1.275   0.618   4.361 -1.7285 -1.3530  0.5186
 7062SOL     OW32818   1.499   0.970   2.617 -0.0036  0.7376 -0.1967
 7062SOL    HW132819   1.488   0.966   2.712 -2.7633  1.5799 -0.4837
 7062SOL    HW232820   1.413   0.998   2.587 -0.2930  0.1392  0.0806
 7063SOL     OW32821   2.505   2.075  16.526 -0.3422  0.3733  0.2913
 7063SOL    HW132822   2.462   2.050  16.607 -0.3733  0.7778  0.3985
 7063SOL    HW232823   2.527   2.167  16.539 -0.0540  0.5643 -1.4956
 7064SOL     OW32824   1.355   1.618  12.172 -0.3661  0.0269 -0.1409
 7064SOL    HW132825   1.354   1.679  12.099 -0.7690  0.0583 -0.1130
 7064SOL    HW232826   1.261   1.604  12.160 -0.4274  1.6952 -1.5851
 7065SOL     OW32827   1.934   3.181   7.998 -0.0598 -0.6243 -0.2126
 7065SOL    HW132828   2.029   3.172   8.001  0.2091  2.2131  0.2145
 7065SOL    HW232829   1.902   3.228   8.075  2.6015  1.6952 -0.5326
 7066SOL     OW32830   2.799   2.709   7.792 -0.1483  0.1844 -0.0080
 7066SOL    HW132831   2.818   2.695   7.699  2.6026  1.7375  0.3130
 7066SOL    HW232832   2.706   2.691   7.783 -0.0611  0.4411 -1.5116
 7067SOL     OW32833   3.112   2.808   6.367 -0.1452 -0.7136  0.2539
 7067SOL    HW132834   3.034   2.859   6.344 -0.3755 -0.4536  1.5973
 7067SOL    HW232835   3.107   2.810   6.462 -2.2432  1.9193  0.1044
 7068SOL     OW32836   3.215   2.081   1.677  0.1941 -0.1565 -0.3507
 7068SOL    HW132837   3.198   2.069   1.770 -0.3825  3.2419 -0.0133
 7068SOL    HW232838   3.301   2.124   1.677 -0.1450  0.5261  0.3281
 7069SOL     OW32839   3.577   2.841  11.480 -0.0509 -0.0602 -0.4137
 7069SOL    HW132840   3.533   2.858  11.396 -3.5503 -0.1329  1.3977
 7069SOL    HW232841   3.614   2.926  11.501 -2.8666  0.9440  0.4388
 7070SOL     OW32842   1.559   3.059   6.158 -0.4076 -0.5745  0.5038
 7070SOL    HW132843   1.634   3.001   6.150 -1.1865 -1.6052  0.6203
 7070SOL    HW232844   1.610   3.139   6.164  2.8806 -2.7347  1.2584
 7071SOL     OW32845   3.756   1.139  16.448  0.4803 -1.1625  0.6250
 7071SOL    HW132846   3.685   1.086  16.484 -0.1889 -1.2651 -0.8372
 7071SOL    HW232847   3.716   1.215  16.406 -0.6723  0.0601  3.9299
 7072SOL     OW32848   2.342   1.610  12.755  0.2785  0.3785 -0.0685
 7072SOL    HW132849   2.354   1.517  12.778  0.5220  0.1857 -0.9754
 7072SOL    HW232850   2.292   1.597  12.674  1.0880  2.4480 -0.8930
 7073SOL     OW32851   4.413   1.504   4.140 -0.2431  0.3796 -0.5177
 7073SOL    HW132852   4.416   1.408   4.137 -0.9358  0.3636 -0.6583
 7073SOL    HW232853   4.339   1.529   4.085 -1.6379 -0.7303  0.8664
 7074SOL     OW32854   3.639   2.164  15.179  0.3919  0.0831  0.2224
 7074SOL    HW132855   3.636   2.112  15.260  0.8041 -1.4086 -0.7131
 7074SOL    HW232856   3.586   2.111  15.120 -1.0793  1.7336  0.0913
 7075SOL     OW32857   3.659   2.806  16.710  0.3457  0.0695 -0.4486
 7075SOL    HW132858   3.746   2.845  16.720 -0.0612  1.0536 -0.7879
 7075SOL    HW232859   3.645   2.797  16.616  0.9189  1.8490 -0.7062
 7076SOL     OW32860   1.914   2.603   7.449  0.2148 -0.3342 -0.0506
 7076SOL    HW132861   1.858   2.606   7.372 -1.0533  0.0692  0.8815
 7076SOL    HW232862   1.983   2.664   7.423 -0.3088  0.5223  0.5506
 7077SOL     OW32863   0.358   3.762  16.855 -0.0099 -0.2488 -0.2950
 7077SOL    HW132864   0.371   3.727  16.767 -0.8528  0.8635 -0.8632
 7077SOL    HW232865   0.369   3.684  16.910 -0.4325 -0.3964 -0.4171
 7078SOL     OW32866   3.606   4.332   8.270  0.5419 -0.4688  0.4532
 7078SOL    HW132867   3.637   4.423   8.271 -0.7177 -0.0390 -0.5735
 7078SOL    HW232868   3.578   4.322   8.179  0.2860  0.4128  0.4419
 7079SOL     OW32869   2.256   3.628  13.131 -0.4529  0.1365  0.0534
 7079SOL    HW132870   2.334   3.577  13.108 -1.0763 -0.3144 -1.0598
 7079SOL    HW232871   2.285   3.659  13.217 -0.0994  0.8513 -0.3112
 7080SOL     OW32872   2.193   0.453  10.743 -0.1133  0.2281 -0.2956
 7080SOL    HW132873   2.253   0.476  10.672 -3.5162  0.6689 -3.0539
 7080SOL    HW232874   2.112   0.503  10.733  0.6618  0.9803 -2.7574
 7081SOL     OW32875   4.663   1.492   9.052 -0.0600 -0.7359  0.4164
 7081SOL    HW132876   4.618   1.575   9.035  0.9825 -0.4425 -0.8951
 7081SOL    HW232877   4.714   1.476   8.973  0.3922  0.6134  0.4355
 7082SOL     OW32878   0.252   0.418   4.935 -0.2234  0.6604 -0.2376
 7082SOL    HW132879   0.331   0.436   4.985  0.3002 -0.2668 -0.7489
 7082SOL    HW232880   0.288   0.358   4.870 -0.0343  0.1023  0.3794
 7083SOL     OW32881   3.697   3.184  17.502  0.3121 -0.2240 -0.2599
 7083SOL    HW132882   3.706   3.091  17.525 -1.9960 -0.5698 -0.7253
 7083SOL    HW232883   3.769   3.224  17.551 -0.5156  0.8784  0.0278
 7084SOL     OW32884   1.123   3.873  10.740  0.0520  0.3838 -0.1620
 7084SOL    HW132885   1.166   3.798  10.700  0.5804  0.6873 -0.1696
 7084SOL    HW232886   1.190   3.894  10.806 -2.2454 -1.1503  2.6710
 7085SOL     OW32887   0.743   2.204   6.340  0.3663  0.4098  0.3105
 7085SOL    HW132888   0.694   2.122   6.346  3.1360 -1.2041  0.4479
 7085SOL    HW232889   0.729   2.239   6.428  1.1571 -0.2188  0.6799
 7086SOL     OW32890   2.039   0.210  13.068 -0.4495 -0.5132  0.4988
 7086SOL    HW132891   2.071   0.296  13.042  2.0028 -1.5669  0.0065
 7086SOL    HW232892   1.957   0.196  13.021 -0.6605  0.5244  0.5633
 7087SOL     OW32893   0.115   0.211   5.649  0.7037  0.1359  0.3466
 7087SOL    HW132894   0.151   0.234   5.735 -2.3976  1.5743  1.2417
 7087SOL    HW232895   0.143   0.120   5.635 -3.1287 -0.6826 -1.8213
 7088SOL     OW32896   4.449   0.053   5.044 -0.1178 -0.0295  0.8999
 7088SOL    HW132897   4.403   0.084   4.966 -0.3300 -1.3322  0.4995
 7088SOL    HW232898   4.541   0.053   5.019 -0.0285 -0.4507  1.2223
 7089SOL     OW32899   1.023   3.290   6.877 -0.5068  0.9095 -0.3590
 7089SOL    HW132900   1.091   3.235   6.917 -1.3122  0.9911  1.1202
 7089SOL    HW232901   0.948   3.235   6.899 -0.3148  0.9114  0.2989
 7090SOL     OW32902   3.630   2.561   7.430  0.4178  0.8066  0.1570
 7090SOL    HW132903   3.624   2.465   7.430 -1.7381  0.9604  0.1298
 7090SOL    HW232904   3.602   2.575   7.521  0.3746 -1.3650  0.5003
 7091SOL     OW32905   2.363   4.260   5.155 -0.5881  0.0702 -0.0455
 7091SOL    HW132906   2.336   4.180   5.109  1.4417 -0.0550 -1.0452
 7091SOL    HW232907   2.276   4.294   5.176  0.5744  1.5191  2.3773
 7092SOL     OW32908   1.617   2.495  16.872  0.1276 -0.1526 -0.1419
 7092SOL    HW132909   1.564   2.555  16.821 -1.8378  0.4996  2.6894
 7092SOL    HW232910   1.561   2.484  16.948  1.8730 -0.8190  1.0533
 7093SOL     OW32911   4.733   4.215  16.596  0.5773  0.1763  0.0996
 7093SOL    HW132912   0.051   4.279  16.551 -2.4548  2.2638 -0.7053
 7093SOL    HW232913   0.058   4.145  16.614 -1.0805 -0.7771  2.2912
 7094SOL     OW32914   3.199   2.282   4.134 -0.1620  0.2473 -0.1579
 7094SOL    HW132915   3.281   2.233   4.131 -0.7808 -0.7854 -0.4280
 7094SOL    HW232916   3.144   2.223   4.081 -1.7230 -0.1077  1.8526
 7095SOL     OW32917   0.587   3.392   0.188 -0.3540 -0.1469  0.0131
 7095SOL    HW132918   0.510   3.419   0.237  0.5416  0.5524  1.0560
 7095SOL    HW232919   0.565   3.424   0.101  0.7884 -0.2501 -0.3210
 7096SOL     OW32920   2.054   0.229   5.362 -0.2566 -0.5331 -0.0905
 7096SOL    HW132921   1.984   0.275   5.316  0.6363 -1.0991 -2.0556
 7096SOL    HW232922   2.009   0.147   5.383 -0.8859 -0.2041 -0.1375
 7097SOL     OW32923   4.046   0.359   9.657  0.0373 -0.0056 -0.3829
 7097SOL    HW132924   4.015   0.418   9.589 -0.1256  1.4894  1.0131
 7097SOL    HW232925   3.967   0.360   9.711 -0.7163 -0.8521 -1.4738
 7098SOL     OW32926   0.989   3.770  15.261 -0.0278  0.1468  0.5607
 7098SOL    HW132927   0.972   3.843  15.321 -1.0523 -0.9921  1.6621
 7098SOL    HW232928   1.071   3.807  15.229  0.3559 -1.6355 -0.5201
 7099SOL     OW32929   4.621   1.753   2.704 -0.0625  0.0509 -0.3290
 7099SOL    HW132930   4.645   1.778   2.615 -0.4016 -0.3028 -0.5177
 7099SOL    HW232931   4.556   1.819   2.728  2.0188  3.0333 -3.0093
 7100SOL     OW32932   3.392   1.944   1.198  0.5933 -0.2386 -0.5990
 7100SOL    HW132933   3.338   1.989   1.133 -0.5980 -0.4035  0.2877
 7100SOL    HW232934   3.484   1.957   1.173  1.2283  0.4228  2.0891
 7101SOL     OW32935   4.567   4.355   7.778 -0.2154 -0.5111 -0.2433
 7101SOL    HW132936   4.614   4.348   7.695  0.1373  3.5922 -0.3738
 7101SOL    HW232937   4.486   4.308   7.757 -0.6907 -1.1043  2.9051
 7102SOL     OW32938   4.002   3.999  14.229  0.2526  0.5485 -0.4227
 7102SOL    HW132939   3.926   4.022  14.283  0.7877 -0.0055  0.5768
 7102SOL    HW232940   3.995   4.038  14.143  2.0412  0.1986 -0.7395
 7103SOL     OW32941   2.151   3.782   5.045 -0.2479 -0.4176 -0.0951
 7103SOL    HW132942   2.208   3.730   4.988  0.5687 -0.0220  0.3708
 7103SOL    HW232943   2.091   3.708   5.048 -0.6832 -0.0141  0.9543
 7104SOL     OW32944   3.025   4.673   6.536 -0.2452 -0.1171 -0.1073
 7104SOL    HW132945   2.979   4.590   6.525 -0.4056  0.1846 -1.7425
 7104SOL    HW232946   3.112   4.641   6.512 -1.4973 -2.3445 -1.6745
 7105SOL     OW32947   2.079   3.634   8.887  0.0268  0.4342 -0.4219
 7105SOL    HW132948   2.016   3.706   8.890  0.9862  1.2455  0.2498
 7105SOL    HW232949   2.111   3.640   8.977 -0.4245 -0.7242 -0.1854
 7106SOL     OW32950   2.718   3.992  11.409 -0.1674  0.0429 -0.0723
 7106SOL    HW132951   2.708   3.985  11.314  1.8850 -0.1342 -0.2730
 7106SOL    HW232952   2.710   4.087  11.415  3.2332  0.4307 -1.5134
 7107SOL     OW32953   1.191   1.340  12.659 -0.0448 -0.9486 -0.4945
 7107SOL    HW132954   1.285   1.351  12.646 -0.2309  0.7931 -0.3888
 7107SOL    HW232955   1.160   1.296  12.580 -1.9158 -0.9204  0.2082
 7108SOL     OW32956   1.917   2.342  17.662 -0.0920  0.1052 -0.1226
 7108SOL    HW132957   1.857   2.346  17.736  0.5479  1.2466  0.3392
 7108SOL    HW232958   1.893   2.424  17.620 -0.6319  0.1052  0.1906
 7109SOL     OW32959   2.317   0.081   3.233  0.5936 -0.2791  0.3089
 7109SOL    HW132960   2.363   0.165   3.227  1.2218 -0.6047  0.5891
 7109SOL    HW232961   2.392   0.022   3.226  0.9289 -0.0752  2.0078
 7110SOL     OW32962   2.685   2.229  12.577  0.1817 -0.0330 -0.2297
 7110SOL    HW132963   2.649   2.153  12.623  0.9066  0.5781  1.3135
 7110SOL    HW232964   2.744   2.183  12.517  0.6143  1.2437 -0.7781
 7111SOL     OW32965   1.738   3.291  12.249  0.4183  0.1368  0.1274
 7111SOL    HW132966   1.654   3.246  12.256  1.2945 -1.6583 -0.7945
 7111SOL    HW232967   1.723   3.382  12.223  0.8812 -0.6382 -2.8181
 7112SOL     OW32968   0.856   3.667   0.062  0.8350 -0.4709 -0.0727
 7112SOL    HW132969   0.873   3.584   0.106  2.7381  0.5355  1.1096
 7112SOL    HW232970   0.795   3.705   0.125 -0.4458 -0.8711 -1.0571
 7113SOL     OW32971   0.715   1.021  14.632 -0.4295  0.0575 -0.1820
 7113SOL    HW132972   0.717   1.054  14.722 -2.7358 -1.8955  0.5802
 7113SOL    HW232973   0.668   1.090  14.587  1.3146  0.1437 -1.8621
 7114SOL     OW32974   3.595   3.543   6.122  0.2274  0.6507 -0.1932
 7114SOL    HW132975   3.531   3.486   6.165  0.3269 -1.2026 -2.4925
 7114SOL    HW232976   3.648   3.470   6.088  0.4236  0.7156 -0.0233
 7115SOL     OW32977   2.697   4.659   6.541  0.1275  0.5817  0.2194
 7115SOL    HW132978   2.687   4.590   6.476 -0.7507 -1.6208  2.6959
 7115SOL    HW232979   2.675   0.005   6.500 -3.9330  0.8355  2.8624
 7116SOL     OW32980   3.988   2.602  11.654 -0.3873 -0.0726 -0.4453
 7116SOL    HW132981   3.993   2.589  11.749  0.4714  2.5402 -0.1334
 7116SOL    HW232982   3.930   2.678  11.656  1.1385  1.0741 -0.1402
 7117SOL     OW32983   0.898   1.581   4.590  0.4738 -0.1668 -0.6633
 7117SOL    HW132984   0.843   1.645   4.636 -0.3998 -1.2420 -0.2380
 7117SOL    HW232985   0.922   1.541   4.673 -0.0660  1.9985  0.5337
 7118SOL     OW32986   4.489   3.139   8.833 -0.7282  0.6426 -0.1789
 7118SOL    HW132987   4.492   3.231   8.806 -1.1465  1.5131  2.6261
 7118SOL    HW232988   4.404   3.148   8.876 -1.1457  3.2431 -1.5525
 7119SOL     OW32989   1.165   1.613  14.320 -0.1175 -0.7778 -1.0147
 7119SOL    HW132990   1.071   1.601  14.305 -0.2275  0.3530 -1.2700
 7119SOL    HW232991   1.195   1.596  14.230 -2.2935 -3.1435 -1.2663
 7120SOL     OW32992   4.465   4.128   3.186 -0.8056 -0.0375  0.2531
 7120SOL    HW132993   4.474   4.054   3.126  0.3499 -0.4706  0.9650
 7120SOL    HW232994   4.550   4.172   3.179 -0.0386 -1.8669 -2.1621
 7121SOL     OW32995   1.394   3.807   0.013 -0.5142 -0.0111 -0.1575
 7121SOL    HW132996   1.425   3.895  17.740  0.6434 -0.4572 -0.2964
 7121SOL    HW232997   1.450   3.797   0.090  0.2354  3.4920 -0.2583
 7122SOL     OW32998   2.031   3.361   2.792  0.3752  0.1330 -0.0615
 7122SOL    HW132999   2.058   3.329   2.879  0.4861  1.4425  0.3880
 7122SOL    HW233000   2.022   3.274   2.754  2.3683 -0.5371  1.0173
 7123SOL     OW33001   0.424   2.821  16.301  0.7504  0.5934  1.0983
 7123SOL    HW133002   0.427   2.805  16.395 -1.5468  1.3885  1.3148
 7123SOL    HW233003   0.347   2.879  16.306  1.3474  1.5188 -0.4322
 7124SOL     OW33004   0.896   4.254   6.200  0.8020 -0.2081 -0.0694
 7124SOL    HW133005   0.949   4.251   6.121  0.3382  0.2595 -0.3977
 7124SOL    HW233006   0.813   4.258   6.153  1.1046 -0.6133 -0.6272
 7125SOL     OW33007   0.484   2.825   4.157 -0.5877  0.0998  0.2665
 7125SOL    HW133008   0.462   2.896   4.217 -1.1904  0.2258 -0.1004
 7125SOL    HW233009   0.446   2.866   4.080 -0.0577 -0.9334 -0.5519
 7126SOL     OW33010   3.529   1.848  13.669  0.0985  0.0138  0.0505
 7126SOL    HW133011   3.546   1.811  13.756 -0.3902 -0.2940  0.0176
 7126SOL    HW233012   3.502   1.938  13.689  2.1583  0.2393  1.7323
 7127SOL     OW33013   0.302   2.784  12.359  0.1860  0.8563  0.3836
 7127SOL    HW133014   0.265   2.811  12.275  1.7971  2.7618  0.2648
 7127SOL    HW233015   0.259   2.700  12.374  0.9766 -0.1104 -2.7230
 7128SOL     OW33016   3.371   0.724  13.053  0.1208  0.7267 -0.5425
 7128SOL    HW133017   3.411   0.740  13.139  0.8019  0.7376 -0.8594
 7128SOL    HW233018   3.285   0.767  13.057  0.0778  0.9107 -3.4431
 7129SOL     OW33019   0.820   3.171   6.973  0.6269 -0.4551  0.3091
 7129SOL    HW133020   0.738   3.166   7.023  0.7926  3.2201  0.9081
 7129SOL    HW233021   0.865   3.098   7.016 -2.4778 -2.8603 -0.5190
 7130SOL     OW33022   0.749   1.522   3.763 -0.1866  0.0822  0.2478
 7130SOL    HW133023   0.692   1.466   3.815  0.1514 -1.7296 -1.3506
 7130SOL    HW233024   0.817   1.549   3.825 -1.0785 -0.5283  1.4827
 7131SOL     OW33025   2.799   3.252   2.197  0.2346 -0.2909 -0.3002
 7131SOL    HW133026   2.879   3.303   2.208 -0.4726  0.5627  0.8678
 7131SOL    HW233027   2.827   3.193   2.127  1.2408 -0.4880  0.2783
 7132SOL     OW33028   3.615   3.917   1.972 -0.1669  0.3841  0.1238
 7132SOL    HW133029   3.596   3.934   1.879  2.6139  0.4358 -0.4150
 7132SOL    HW233030   3.533   3.869   1.989 -0.9059  1.8944  0.8658
 7133SOL     OW33031   4.509   3.185  14.144  0.9442 -0.0127  0.6938
 7133SOL    HW133032   4.472   3.131  14.075  2.0016  0.2250 -0.0579
 7133SOL    HW233033   4.495   3.275  14.114  0.7035 -0.4975 -0.6529
 7134SOL     OW33034   1.463   0.511   6.197 -0.0460  0.6633 -0.0272
 7134SOL    HW133035   1.461   0.416   6.193 -2.6986  0.7218 -0.4373
 7134SOL    HW233036   1.372   0.533   6.177 -0.2379  0.5597  0.7197
 7135SOL     OW33037   2.746   2.859   3.316 -0.3508 -0.0510  0.1180
 7135SOL    HW133038   2.727   2.938   3.366  0.2482  0.2620 -0.1567
 7135SOL    HW233039   2.702   2.872   3.232 -1.2102 -1.8795  0.2743
 7136SOL     OW33040   3.911   3.550  10.067  0.0425  0.2844 -0.5832
 7136SOL    HW133041   3.935   3.642  10.059  1.1041 -0.0481 -1.1977
 7136SOL    HW233042   3.996   3.506  10.062  0.2427  0.6092 -0.0203
 7137SOL     OW33043   4.461   2.818   2.921  0.0995  0.1329  0.0605
 7137SOL    HW133044   4.390   2.868   2.880  0.3778  2.1968  2.0813
 7137SOL    HW233045   4.531   2.823   2.855 -1.8648 -1.6103 -2.1437
 7138SOL     OW33046   2.282   3.088   2.288 -0.0782  0.1958 -0.2522
 7138SOL    HW133047   2.372   3.071   2.260  0.5731  2.2919  0.6085
 7138SOL    HW233048   2.246   3.102   2.200 -0.4932 -0.0183 -0.1182
 7139SOL     OW33049   3.443   4.301   7.503  0.3208  0.0640 -0.2961
 7139SOL    HW133050   3.413   4.326   7.415  1.5849 -3.0928 -1.6102
 7139SOL    HW233051   3.360   4.265   7.536  1.2153 -0.4927  1.3490
 7140SOL     OW33052   4.327   1.499   9.422 -0.3365  0.6145  0.1290
 7140SOL    HW133053   4.284   1.579   9.451  0.1676  1.2375 -0.8141
 7140SOL    HW233054   4.324   1.450   9.503  1.7689  0.3376  0.0518
 7141SOL     OW33055   4.597   3.107  16.407  0.4906  0.2026  0.1969
 7141SOL    HW133056   4.517   3.151  16.380 -0.8603 -0.8618  2.5150
 7141SOL    HW233057   4.609   3.144  16.494 -0.2399  0.5617  0.1460
 7142SOL     OW33058   2.078   2.944   1.868  0.0641  0.4074  0.2681
 7142SOL    HW133059   2.017   2.930   1.796  0.1278  1.6777 -0.0245
 7142SOL    HW233060   2.098   3.037   1.861 -1.2015  0.5813 -1.1162
 7143SOL     OW33061   3.149   2.552  14.971  0.2183 -0.5773  0.4218
 7143SOL    HW133062   3.177   2.554  15.062 -0.7109  2.0263  0.6458
 7143SOL    HW233063   3.196   2.476  14.937  1.6181  0.4611  0.0303
 7144SOL     OW33064   3.077   3.611   6.510 -0.3406  0.7626  0.1931
 7144SOL    HW133065   3.043   3.699   6.526  0.2183  1.4222 -2.2563
 7144SOL    HW233066   3.169   3.624   6.488 -0.6476  0.0573 -1.5594
 7145SOL     OW33067   2.190   2.779  11.888 -0.0202 -1.3061  0.0327
 7145SOL    HW133068   2.179   2.862  11.935 -0.9428 -1.7020  0.5274
 7145SOL    HW233069   2.265   2.799  11.832 -0.5947 -0.5212 -0.4606
 7146SOL     OW33070   4.278   2.505   5.452  0.0266 -0.3477  0.0519
 7146SOL    HW133071   4.223   2.441   5.497  0.2520 -0.1884  0.5510
 7146SOL    HW233072   4.309   2.554   5.528  0.7378  0.1998 -0.5769
 7147SOL     OW33073   3.074   4.449   7.554  0.1874  0.3489  0.4017
 7147SOL    HW133074   3.063   4.424   7.463  0.2918 -0.4822  0.6139
 7147SOL    HW233075   3.110   4.363   7.578  1.7849  0.5119 -1.4331
 7148SOL     OW33076   4.020   0.961   4.210  0.2455  0.3506 -0.1450
 7148SOL    HW133077   3.947   0.950   4.150 -0.1715  1.5187  0.1430
 7148SOL    HW233078   4.089   0.963   4.144  0.2476  0.3645 -0.1424
 7149SOL     OW33079   0.907   2.637   4.035  0.0675  0.2013  0.0450
 7149SOL    HW133080   0.946   2.711   4.081  2.0685 -0.6346 -0.2809
 7149SOL    HW233081   0.820   2.645   4.074 -0.0350 -1.4145  0.1489
 7150SOL     OW33082   1.082   1.182  15.439  0.6403 -0.0172 -0.0588
 7150SOL    HW133083   0.995   1.219  15.429 -0.2865 -1.6440  2.0697
 7150SOL    HW233084   1.100   1.191  15.533 -3.1976 -0.1085  0.6453
 7151SOL     OW33085   4.096   3.429   6.246  0.2189 -0.0262 -0.1731
 7151SOL    HW133086   4.041   3.353   6.263  0.8093 -1.0744 -2.9497
 7151SOL    HW233087   4.041   3.493   6.200  0.8478  0.5479 -0.1200
 7152SOL     OW33088   2.972   3.695   9.406  0.2123 -0.2003  0.4116
 7152SOL    HW133089   3.039   3.684   9.474  0.8074 -1.0115 -0.2889
 7152SOL    HW233090   3.024   3.729   9.333 -0.5736  1.1147  0.4811
 7153SOL     OW33091   3.201   2.349   9.138 -0.1087  0.0050 -0.0443
 7153SOL    HW133092   3.112   2.382   9.127  1.1892  3.9564  1.5925
 7153SOL    HW233093   3.248   2.408   9.079 -0.7327 -0.6978 -1.2412
 7154SOL     OW33094   2.168   3.722   3.422 -0.1556  0.4884 -0.1817
 7154SOL    HW133095   2.201   3.746   3.336  0.9868  0.4964  0.2582
 7154SOL    HW233096   2.088   3.774   3.429 -0.4107 -0.1321  1.4650
 7155SOL     OW33097   2.725   0.712   1.091 -0.3414 -0.2459  0.0613
 7155SOL    HW133098   2.640   0.753   1.080 -1.1339 -2.1790 -1.1392
 7155SOL    HW233099   2.758   0.749   1.173 -0.5622 -0.6248  0.3250
 7156SOL     OW33100   3.828   3.240   3.409  0.0787  0.4610  0.1525
 7156SOL    HW133101   3.888   3.304   3.447 -1.1358  0.5876  1.8858
 7156SOL    HW233102   3.893   3.194   3.357 -1.4626 -0.9586 -0.5119
 7157SOL     OW33103   0.474   3.264  13.685  0.0078  0.1351  0.1252
 7157SOL    HW133104   0.435   3.178  13.698  0.8483 -0.1720  0.6202
 7157SOL    HW233105   0.521   3.265  13.768 -0.7481 -1.9786  0.5750
 7158SOL     OW33106   3.337   1.708   1.094  0.0005 -0.1803  0.0030
 7158SOL    HW133107   3.370   1.639   1.152 -1.1157 -1.0855 -0.4396
 7158SOL    HW233108   3.340   1.788   1.147  0.4035 -0.8224  0.9594
 7159SOL     OW33109   4.563   1.173   4.497  0.2077 -0.3200 -0.7397
 7159SOL    HW133110   4.613   1.255   4.494 -1.7312  0.9258  0.6583
 7159SOL    HW233111   4.533   1.157   4.408  0.6180  0.2948 -0.9912
 7160SOL     OW33112   3.844   2.874  10.310 -0.0422 -0.1562  0.4448
 7160SOL    HW133113   3.875   2.956  10.270 -2.9151  2.3092  3.3139
 7160SOL    HW233114   3.782   2.844  10.244 -0.9757  1.7648  0.4317
 7161SOL     OW33115   1.030   2.540   5.415 -0.5371  0.5228 -0.1141
 7161SOL    HW133116   1.085   2.554   5.338 -1.7705  0.4937 -1.0195
 7161SOL    HW233117   0.960   2.605   5.408 -2.1678 -1.2248 -0.2645
 7162SOL     OW33118   3.532   2.538   4.907 -0.3444 -0.3526  0.1526
 7162SOL    HW133119   3.589   2.613   4.887  1.3386 -1.7982 -0.5022
 7162SOL    HW233120   3.592   2.477   4.950 -1.3544 -0.3150  1.6185
 7163SOL     OW33121   0.624   1.146  16.068 -0.3603  0.1302  0.1137
 7163SOL    HW133122   0.533   1.173  16.081 -0.7918 -0.4977 -1.6413
 7163SOL    HW233123   0.682   1.207  16.113 -0.1653 -0.1561  0.2480
 7164SOL     OW33124   2.967   1.993   5.666  0.4625  0.4835  0.6732
 7164SOL    HW133125   2.943   1.907   5.634  0.1895  1.2621 -1.2112
 7164SOL    HW233126   3.060   1.978   5.687  0.6617  0.0089 -0.5588
 7165SOL     OW33127   0.276   2.527  13.945 -0.6270  0.2919  0.9859
 7165SOL    HW133128   0.257   2.540  13.853  1.7593  1.1349  0.6065
 7165SOL    HW233129   0.249   2.616  13.967 -0.3953  0.0474  2.2627
 7166SOL     OW33130   0.492   2.914  17.035  0.3917  0.9733 -0.5185
 7166SOL    HW133131   0.435   2.909  16.958 -0.3322 -2.1890  0.1948
 7166SOL    HW233132   0.526   3.002  17.021 -0.4230  1.5341  1.0599
 7167SOL     OW33133   4.146   1.108   8.809 -0.0527  0.0585  0.3095
 7167SOL    HW133134   4.229   1.143   8.840 -0.1112  1.4632 -1.1102
 7167SOL    HW233135   4.093   1.105   8.889 -1.2520  1.2567 -0.4357
 7168SOL     OW33136   4.305   0.805   1.495 -0.3373 -0.5030 -0.2039
 7168SOL    HW133137   4.238   0.736   1.506 -1.2001  0.5250  0.9087
 7168SOL    HW233138   4.241   0.871   1.468  0.7181  0.3576 -0.5506
 7169SOL     OW33139   4.032   4.118   9.120 -0.0710 -0.6854  0.4007
 7169SOL    HW133140   4.108   4.101   9.065 -0.6664  1.4886 -1.0976
 7169SOL    HW233141   3.974   4.139   9.048  3.0101  1.3781 -1.4890
 7170SOL     OW33142   0.169   1.140  11.534 -0.2925  0.2276 -1.1406
 7170SOL    HW133143   0.143   1.202  11.466 -0.9915  3.5478  2.1573
 7170SOL    HW233144   0.088   1.139  11.585  0.6767 -0.5256  0.3680
 7171SOL     OW33145   1.727   0.298   6.261  0.5599  0.5497  0.2034
 7171SOL    HW133146   1.654   0.264   6.312  1.2889  0.1203  0.9500
 7171SOL    HW233147   1.695   0.306   6.171  1.8356  0.5648 -0.2518
 7172SOL     OW33148   4.202   1.298   4.673  0.3631  0.1346  0.5001
 7172SOL    HW133149   4.248   1.214   4.662  0.2901  0.0194  1.0751
 7172SOL    HW233150   4.214   1.328   4.583 -1.0614  0.9460  0.5827
 7173SOL     OW33151   0.525   2.914  12.564 -0.0738 -0.2586  0.1735
 7173SOL    HW133152   0.493   2.859  12.492 -0.0761  2.4030 -1.8637
 7173SOL    HW233153   0.469   2.990  12.546 -1.8622 -1.7399 -0.4917
 7174SOL     OW33154   1.700   1.084   7.811  0.6210  0.1428  0.3639
 7174SOL    HW133155   1.661   1.169   7.789 -2.5485 -1.1906  0.7568
 7174SOL    HW233156   1.784   1.093   7.767  0.5211 -1.8312 -0.2435
 7175SOL     OW33157   0.406   4.154   2.224 -0.4280  0.1697 -0.0884
 7175SOL    HW133158   0.477   4.191   2.172  0.9749  1.1097  2.4855
 7175SOL    HW233159   0.375   4.099   2.151  1.2096  1.6364 -1.8761
 7176SOL     OW33160   4.194   1.095  16.719  0.2309 -0.1163 -0.0306
 7176SOL    HW133161   4.183   1.171  16.776  0.6275  0.6566 -0.9819
 7176SOL    HW233162   4.287   1.083  16.737  0.2515 -1.5700 -1.1195
 7177SOL     OW33163   3.967   2.559  12.405  0.6447  0.5522  0.6875
 7177SOL    HW133164   4.023   2.636  12.398  2.8841 -1.0967  0.2591
 7177SOL    HW233165   4.026   2.501  12.357 -0.6572 -0.2048  0.0032
 7178SOL     OW33166   2.267   3.134   8.545 -0.2172  0.0037 -0.4627
 7178SOL    HW133167   2.302   3.223   8.546  0.6543 -0.2532 -5.0376
 7178SOL    HW233168   2.343   3.093   8.503  1.1736 -1.8324  3.7963
 7179SOL     OW33169   2.343   1.693   1.741  0.3474 -0.0377  0.3103
 7179SOL    HW133170   2.433   1.663   1.729  0.3821  0.4875 -0.8110
 7179SOL    HW233171   2.305   1.697   1.653  0.1916 -1.6428  0.2947
 7180SOL     OW33172   3.195   2.099   1.028  0.1525  0.4375 -0.2319
 7180SOL    HW133173   3.121   2.103   1.088 -0.4711 -0.5671 -0.9338
 7180SOL    HW233174   3.143   2.106   0.948 -0.3095  0.2478  0.0516
 7181SOL     OW33175   2.935   2.952   7.744  0.0284  0.7337 -0.0640
 7181SOL    HW133176   2.879   2.876   7.759 -1.8711  2.3299  0.8905
 7181SOL    HW233177   2.920   2.997   7.827 -2.1078 -0.1311  0.0174
 7182SOL     OW33178   1.376   4.678   6.462  0.1374 -0.3819 -0.0194
 7182SOL    HW133179   1.383   4.681   6.557 -1.2850  1.1353  0.0254
 7182SOL    HW233180   1.293   4.634   6.443 -0.8022  1.9457 -1.2302
 7183SOL     OW33181   0.513   2.968   5.192 -0.0286 -0.8519  0.2700
 7183SOL    HW133182   0.575   3.003   5.255 -0.3136  0.1487 -0.0144
 7183SOL    HW233183   0.549   2.883   5.165 -0.1652 -1.2242  1.2677
 7184SOL     OW33184   2.383   1.173   2.519  0.0572 -0.1202  0.1824
 7184SOL    HW133185   2.302   1.220   2.500  0.5771  1.6600  2.3593
 7184SOL    HW233186   2.460   1.226   2.495 -0.3240 -0.4369 -1.7836
 7185SOL     OW33187   0.543   0.830  16.683  0.2081 -0.4998 -0.0997
 7185SOL    HW133188   0.594   0.826  16.763  0.6814  0.8533 -0.3373
 7185SOL    HW233189   0.536   0.735  16.669 -0.5146 -0.0602 -2.6864
 7186SOL     OW33190   2.891   4.732  16.723 -0.1602  0.2735 -0.2579
 7186SOL    HW133191   2.886   0.010  16.628  1.8757 -2.1081 -0.7841
 7186SOL    HW233192   2.796   4.736  16.728 -0.4181 -2.0627 -2.5799
 7187SOL     OW33193   4.441   4.690   6.614 -0.1254 -0.3077  0.2899
 7187SOL    HW133194   4.439   4.714   6.706 -3.3790 -0.9323  0.4010
 7187SOL    HW233195   4.410   0.035   6.577  1.8502  0.2246 -0.1813
 7188SOL     OW33196   3.618   1.815   6.798 -0.2932 -0.3711 -0.6269
 7188SOL    HW133197   3.677   1.809   6.873 -1.7090  0.3515  0.5462
 7188SOL    HW233198   3.674   1.866   6.740  0.2921 -0.6396 -0.3069
 7189SOL     OW33199   1.036   2.313  17.619  0.2262 -0.3321 -0.3528
 7189SOL    HW133200   0.990   2.321  17.703  1.5334 -0.6319  0.3937
 7189SOL    HW233201   0.960   2.274  17.575  1.2006 -1.9852 -0.5733
 7190SOL     OW33202   0.295   2.204   2.265  0.4772  0.3007  0.1971
 7190SOL    HW133203   0.309   2.296   2.288  1.6994  0.0928  0.2665
 7190SOL    HW233204   0.377   2.197   2.216 -0.2170 -1.0430 -0.7890
 7191SOL     OW33205   1.526   3.624   6.405  0.4371 -0.0800  0.0505
 7191SOL    HW133206   1.613   3.662   6.417 -0.4473  2.3608 -1.2192
 7191SOL    HW233207   1.519   3.571   6.484  0.4971  1.1746  0.8977
 7192SOL     OW33208   1.736   4.556   8.912 -0.5255 -0.7311 -0.3315
 7192SOL    HW133209   1.812   4.525   8.861 -2.1035 -0.6526 -2.7575
 7192SOL    HW233210   1.739   4.649   8.891 -0.4442 -0.9303 -1.2462
 7193SOL     OW33211   2.498   3.016   0.067  0.1842  0.6485  0.1848
 7193SOL    HW133212   2.507   3.111   0.075 -1.2532  0.6708  1.5594
 7193SOL    HW233213   2.541   2.988   0.147 -2.2922 -1.3006  0.8165
 7194SOL     OW33214   0.363   0.926   0.153 -0.3369 -0.0620  0.5829
 7194SOL    HW133215   0.379   0.963   0.066  0.5693  0.6299  1.0341
 7194SOL    HW233216   0.300   0.991   0.184 -4.6694 -3.3385 -1.4819
 7195SOL     OW33217   0.474   3.689   3.776 -0.1162  0.3225 -0.2419
 7195SOL    HW133218   0.520   3.769   3.752  0.7009 -0.5756 -1.6333
 7195SOL    HW233219   0.503   3.630   3.706 -3.2389  1.7129 -2.7425
 7196SOL     OW33220   4.135   0.723   9.417  0.0233  0.1465 -0.3204
 7196SOL    HW133221   4.181   0.681   9.490 -0.3915  1.6051  0.7651
 7196SOL    HW233222   4.173   0.811   9.416 -0.8536  0.5356  0.6844
 7197SOL     OW33223   0.787   0.472   1.378  0.3104  0.5008  0.0241
 7197SOL    HW133224   0.704   0.500   1.338 -1.3353 -0.7218  2.6040
 7197SOL    HW233225   0.760   0.401   1.435 -1.2406  0.7364 -0.3890
 7198SOL     OW33226   2.109   4.586   7.910  0.0572  0.3845 -0.0656
 7198SOL    HW133227   2.044   4.625   7.968  1.0380  2.5295 -0.4083
 7198SOL    HW233228   2.113   4.501   7.954  1.1236  0.4573 -0.0240
 7199SOL     OW33229   3.538   2.656   3.145  0.1270  0.0196 -0.0990
 7199SOL    HW133230   3.482   2.728   3.173 -0.8464 -0.2888 -1.2802
 7199SOL    HW233231   3.615   2.663   3.202 -0.7835  0.6760  1.0636
 7200SOL     OW33232   1.331   0.473   5.426  0.2792 -0.1215  0.9969
 7200SOL    HW133233   1.327   0.492   5.519 -2.6087 -1.6801  1.1841
 7200SOL    HW233234   1.244   0.500   5.394  0.6674  0.9048  0.7921
 7201SOL     OW33235   0.348   4.202   2.709  0.0608 -0.3339 -0.2419
 7201SOL    HW133236   0.380   4.292   2.708  1.6212 -0.8766  0.4943
 7201SOL    HW233237   0.307   4.191   2.794  2.8922 -0.9929  1.0555
 7202SOL     OW33238   4.427   2.343   7.910  0.2144  0.3265 -0.0028
 7202SOL    HW133239   4.340   2.363   7.873 -1.3854 -0.6056  3.2473
 7202SOL    HW233240   4.421   2.363   8.003 -4.2366  0.8874 -0.3977
 7203SOL     OW33241   0.526   0.446   8.984 -0.3812  0.2187  0.0399
 7203SOL    HW133242   0.458   0.381   8.967  0.1194 -0.4926  0.7301
 7203SOL    HW233243   0.564   0.433   8.897  1.3209  0.3417  0.7626
 7204SOL     OW33244   1.746   1.292   5.404 -0.2530 -0.1955 -0.0418
 7204SOL    HW133245   1.710   1.227   5.344 -0.9809  0.4785 -0.3397
 7204SOL    HW233246   1.680   1.290   5.474 -1.3626 -2.0402 -1.1260
 7205SOL     OW33247   3.825   1.217   5.154 -0.0958 -0.0172  0.4378
 7205SOL    HW133248   3.880   1.272   5.098  0.6758 -2.8110 -1.5509
 7205SOL    HW233249   3.885   1.204   5.227  0.6332  0.6592 -0.0376
 7206SOL     OW33250   2.057   2.856   2.775 -0.0623  0.3926 -0.2005
 7206SOL    HW133251   2.021   2.877   2.861 -0.6739  0.7502 -0.5468
 7206SOL    HW233252   2.150   2.859   2.797 -0.0503 -1.4863 -0.0394
 7207SOL     OW33253   0.152   3.058   6.863  0.1651 -0.2346  0.1802
 7207SOL    HW133254   0.241   3.055   6.830 -0.1267  2.3468 -0.8393
 7207SOL    HW233255   0.151   2.969   6.896  0.7232 -0.0487  0.6936
 7208SOL     OW33256   3.434   0.429  15.238  0.5980 -0.3715  0.4210
 7208SOL    HW133257   3.474   0.515  15.224 -0.4412 -0.1123 -0.9811
 7208SOL    HW233258   3.363   0.431  15.173  0.8192  0.9928  0.2189
 7209SOL     OW33259   4.290   2.300   7.209  0.4900  0.3652 -0.5888
 7209SOL    HW133260   4.316   2.219   7.254  0.3693  2.2711  2.9204
 7209SOL    HW233261   4.206   2.270   7.173 -0.9405  0.3164  2.7688
 7210SOL     OW33262   0.932   0.222   5.853  0.1569  0.1109  0.0272
 7210SOL    HW133263   0.925   0.317   5.849  1.8582  0.1519 -1.6543
 7210SOL    HW233264   1.025   0.222   5.834  0.2859  1.6742  0.7160
 7211SOL     OW33265   4.579   3.108   8.201 -0.1970 -0.8027  0.0001
 7211SOL    HW133266   4.486   3.090   8.185  0.0763 -0.8139 -1.5247
 7211SOL    HW233267   4.622   3.089   8.118 -0.3394  2.4032 -0.7969
 7212SOL     OW33268   4.393   0.068   6.054 -0.0525 -0.6788  0.0737
 7212SOL    HW133269   4.462   0.130   6.033 -0.6736  0.5836  1.7718
 7212SOL    HW233270   4.442   4.723   6.049  1.1669 -0.0327  1.3293
 7213SOL     OW33271   4.331   4.349   8.186 -0.3747  0.0748 -0.1384
 7213SOL    HW133272   4.332   4.367   8.280 -1.4897 -1.0394  0.0964
 7213SOL    HW233273   4.423   4.324   8.177 -0.1318  0.9984 -0.2041
 7214SOL     OW33274   0.514   1.920  15.984  0.0633  0.1777 -0.9390
 7214SOL    HW133275   0.527   2.010  16.013 -0.6271  0.0202 -0.1127
 7214SOL    HW233276   0.603   1.887  15.972  0.0523 -0.2619  0.1723
 7215SOL     OW33277   3.643   2.795   5.924 -0.0980 -0.2481  0.3294
 7215SOL    HW133278   3.580   2.769   5.856  1.2221 -1.9222 -0.2443
 7215SOL    HW233279   3.728   2.777   5.883  0.8982  1.6889  1.5772
 7216SOL     OW33280   1.699   4.026   5.889  0.0023  0.0038  0.0191
 7216SOL    HW133281   1.789   4.044   5.861 -0.3666 -1.3265 -2.0358
 7216SOL    HW233282   1.709   4.025   5.984 -1.6491  1.1035  0.1957
 7217SOL     OW33283   2.641   2.968   7.627 -0.1443 -0.2947  0.4583
 7217SOL    HW133284   2.594   2.904   7.681 -1.8543  0.1877 -0.4633
 7217SOL    HW233285   2.605   3.047   7.667 -1.9039 -0.4146 -0.8944
 7218SOL     OW33286   2.380   1.337   4.894  0.0988 -0.4695 -0.1050
 7218SOL    HW133287   2.415   1.304   4.977 -0.8608 -0.7905  0.1623
 7218SOL    HW233288   2.293   1.299   4.888 -0.7441  1.4906 -0.5007
 7219SOL     OW33289   1.972   2.085   6.263 -0.7421 -0.1167 -0.9228
 7219SOL    HW133290   1.929   2.111   6.344  2.5443 -2.4096  1.4879
 7219SOL    HW233291   1.969   1.989   6.262 -0.6872 -0.1121 -3.5502
 7220SOL     OW33292   4.538   1.845   1.571 -0.4478  0.2461 -0.1964
 7220SOL    HW133293   4.553   1.932   1.534  2.8105 -0.1826  0.1403
 7220SOL    HW233294   4.499   1.803   1.494 -1.5992 -0.3160  0.6952
 7221SOL     OW33295   4.521   1.019   7.130 -0.2727  0.2596 -0.0936
 7221SOL    HW133296   4.572   1.042   7.208 -0.8059  2.2632 -0.3372
 7221SOL    HW233297   4.476   0.941   7.163  0.2046  0.5099  1.1517
 7222SOL     OW33298   0.634   3.804  16.147 -0.3542 -0.1614  0.0610
 7222SOL    HW133299   0.655   3.750  16.223 -0.0194  1.7368  1.3088
 7222SOL    HW233300   0.621   3.742  16.075  1.9104 -2.4848  1.6404
 7223SOL     OW33301   4.265   2.935  13.749 -0.0196  0.1513  0.2401
 7223SOL    HW133302   4.200   2.884  13.700 -0.1010 -0.3050  0.8204
 7223SOL    HW233303   4.311   2.867  13.800  1.8931  0.0472 -1.5962
 7224SOL     OW33304   0.723   1.769   5.940  0.0823 -0.9107  0.1814
 7224SOL    HW133305   0.731   1.724   5.856  0.9083 -0.3177 -0.0571
 7224SOL    HW233306   0.732   1.694   5.999 -1.5203 -0.8983  0.4401
 7225SOL     OW33307   3.470   3.933  10.594  0.8716  0.7477 -0.5554
 7225SOL    HW133308   3.509   3.971  10.673  2.1685  0.0174 -0.8388
 7225SOL    HW233309   3.394   3.890  10.631 -0.4045  0.4768 -3.5233
 7226SOL     OW33310   2.523   1.769   0.632 -0.1436 -0.3956  0.5804
 7226SOL    HW133311   2.438   1.790   0.669  0.4391  0.2396  1.5555
 7226SOL    HW233312   2.545   1.685   0.673 -0.2815 -1.4966 -1.5829
 7227SOL     OW33313   3.635   1.729   1.740 -0.7060 -0.1863  0.6829
 7227SOL    HW133314   3.622   1.824   1.751 -1.6879 -0.1523 -0.8616
 7227SOL    HW233315   3.547   1.701   1.715 -1.5898  1.5019  1.8567
 7228SOL     OW33316   3.190   0.020   4.157  0.0789  0.2682  0.4425
 7228SOL    HW133317   3.168   0.047   4.246  2.2922  0.5840  0.8996
 7228SOL    HW233318   3.285   0.022   4.169  0.2025 -1.7388 -0.3513
 7229SOL     OW33319   2.490   4.092   9.622  0.0714  0.1276 -0.0992
 7229SOL    HW133320   2.522   4.146   9.549  2.4889 -0.9223  0.1846
 7229SOL    HW233321   2.442   4.166   9.660 -0.2899 -1.5556  2.6503
 7230SOL     OW33322   1.932   0.690   5.973 -0.5885 -0.0704  0.1039
 7230SOL    HW133323   1.887   0.605   5.971  2.3317 -1.6209 -0.2683
 7230SOL    HW233324   2.019   0.667   5.941 -1.2887 -0.5509 -1.4460
 7231SOL     OW33325   0.577   4.287   2.073  0.4105 -0.0525  0.2378
 7231SOL    HW133326   0.638   4.359   2.060 -0.6495  0.6510 -0.7724
 7231SOL    HW233327   0.547   4.257   1.988 -0.8330 -0.7790  0.9273
 7232SOL     OW33328   4.574   4.598   1.515  0.3095  0.0093 -0.5973
 7232SOL    HW133329   4.532   4.534   1.458  0.8252  0.0049 -0.9672
 7232SOL    HW233330   4.629   4.645   1.453 -0.0030  0.2827 -0.6682
 7233SOL     OW33331   1.788   2.593   8.809  0.1778  0.2748  0.2500
 7233SOL    HW133332   1.806   2.670   8.863 -1.2056  1.5914 -1.1568
 7233SOL    HW233333   1.747   2.640   8.737 -0.2646  0.0699  0.3643
 7234SOL     OW33334   2.705   0.728   7.279 -0.2274 -0.3039 -0.5673
 7234SOL    HW133335   2.710   0.674   7.200 -0.3062 -0.8791 -0.1750
 7234SOL    HW233336   2.797   0.728   7.307 -0.4960 -0.5639  0.3149
 7235SOL     OW33337   0.085   2.404   0.259  0.0980 -0.3581  0.1084
 7235SOL    HW133338   0.058   2.364   0.342  0.1953 -1.1472 -0.2366
 7235SOL    HW233339   0.166   2.438   0.296 -0.5717 -0.0054  1.2806
 7236SOL     OW33340   4.699   3.589   3.328 -0.9583  0.6675  0.0625
 7236SOL    HW133341   4.613   3.629   3.343 -1.2322 -0.2222  0.8307
 7236SOL    HW233342   4.717   3.575   3.421 -1.3142  2.1555  0.3537
 7237SOL     OW33343   1.993   3.938   2.495  1.3685 -1.2890  0.0417
 7237SOL    HW133344   2.053   4.013   2.500 -0.7564  0.3820  1.0064
 7237SOL    HW233345   2.052   3.878   2.450  1.6282  0.9283 -2.6009
 7238SOL     OW33346   3.052   1.690   4.182 -0.2959 -0.1847 -0.1551
 7238SOL    HW133347   3.145   1.709   4.167 -0.6425  0.5248 -1.3990
 7238SOL    HW233348   3.009   1.722   4.102 -0.8188  0.1674  0.2711
 7239SOL     OW33349   3.186   1.134   8.171 -0.1110 -0.2633 -0.5380
 7239SOL    HW133350   3.261   1.167   8.122 -0.9884  0.0565 -1.6806
 7239SOL    HW233351   3.148   1.086   8.097 -1.1282 -1.6588  0.8932
 7240SOL     OW33352   4.058   3.634   1.246 -0.4563  0.4205  0.0494
 7240SOL    HW133353   4.033   3.548   1.281 -1.1285 -0.1838 -1.8982
 7240SOL    HW233354   4.064   3.688   1.324 -0.7217  0.4720  0.0321
 7241SOL     OW33355   3.630   3.644   8.720 -0.2633 -0.3417  0.6279
 7241SOL    HW133356   3.567   3.639   8.791 -2.1294  0.7184 -0.9404
 7241SOL    HW233357   3.681   3.564   8.733 -0.9833 -0.7865  0.7510
 7242SOL     OW33358   0.904   0.881   5.054  0.4929 -0.3300  0.0184
 7242SOL    HW133359   0.946   0.938   4.989 -0.5429  2.6283  1.9258
 7242SOL    HW233360   0.838   0.837   5.001 -0.3976 -0.8340  1.5566
 7243SOL     OW33361   0.756   4.395   8.665  0.7774 -0.2920 -0.2029
 7243SOL    HW133362   0.684   4.429   8.612  1.2955  0.7790 -0.2254
 7243SOL    HW233363   0.824   4.459   8.643 -0.1907  2.1845  3.9214
 7244SOL     OW33364   1.856   2.782   5.305  0.1116 -0.2516  0.3162
 7244SOL    HW133365   1.863   2.772   5.400  1.4232 -0.4965  0.1966
 7244SOL    HW233366   1.947   2.782   5.275  0.2210  0.2315  0.6447
 7245SOL     OW33367   0.862   3.141  14.846  0.4917  0.1666  0.4200
 7245SOL    HW133368   0.880   3.116  14.756  3.0962 -1.8733  1.5174
 7245SOL    HW233369   0.943   3.105  14.883  0.5749  0.8677  0.9327
 7246SOL     OW33370   1.191   0.947  15.373  0.0707 -0.2610  0.3114
 7246SOL    HW133371   1.133   0.910  15.440  0.2772  0.2478  0.7728
 7246SOL    HW233372   1.163   1.038  15.383 -1.7734 -0.7635 -0.1677
 7247SOL     OW33373   3.412   2.259   0.535 -0.3708  0.0972  0.2176
 7247SOL    HW133374   3.347   2.232   0.470 -0.0014  0.0227 -0.1248
 7247SOL    HW233375   3.484   2.202   0.508  0.7916  1.9439 -0.6134
 7248SOL     OW33376   1.765   1.137  11.286 -0.2489 -0.0448  0.3300
 7248SOL    HW133377   1.837   1.199  11.298  0.3923 -0.0948 -3.1684
 7248SOL    HW233378   1.738   1.141  11.195 -1.4911  1.3237  0.7747
 7249SOL     OW33379   3.296   0.378   1.632  0.2906  0.3369 -0.5295
 7249SOL    HW133380   3.341   0.297   1.656 -0.6073  0.5903  1.9481
 7249SOL    HW233381   3.343   0.390   1.549  1.6786 -1.1588  0.0438
 7250SOL     OW33382   2.065   1.735   6.854  0.5542 -0.2817 -0.6989
 7250SOL    HW133383   2.115   1.688   6.787 -0.9497 -2.3320 -0.3688
 7250SOL    HW233384   2.114   1.817   6.848 -0.6706  0.4655 -0.5300
 7251SOL     OW33385   2.338   1.935  13.462  0.0962 -0.3122 -0.6011
 7251SOL    HW133386   2.274   1.931  13.532 -0.3667 -3.6129 -1.2265
 7251SOL    HW233387   2.379   2.020  13.481  0.3094 -0.3993 -0.6718
 7252SOL     OW33388   4.490   1.387  16.092  0.4259  0.1368 -0.4540
 7252SOL    HW133389   4.569   1.403  16.144  0.6651 -0.8545 -0.5150
 7252SOL    HW233390   4.467   1.299  16.120 -0.3817  0.5720  0.2413
 7253SOL     OW33391   2.300   4.728   2.378 -0.1662  0.1951 -0.3734
 7253SOL    HW133392   2.394   0.001   2.389  0.0914 -2.7518  0.3857
 7253SOL    HW233393   2.278   4.670   2.452  0.1423 -0.9248 -1.1558
 7254SOL     OW33394   3.187   1.943   1.407  0.0808  0.2009  0.1895
 7254SOL    HW133395   3.271   1.957   1.364 -0.3177 -1.8006 -1.2092
 7254SOL    HW233396   3.208   1.961   1.499 -0.9834  1.8106  0.1171
 7255SOL     OW33397   3.349   4.709  10.111 -0.6703  0.3256 -0.6188
 7255SOL    HW133398   3.421   0.018  10.153  0.1234  1.0445 -2.7942
 7255SOL    HW233399   3.289   4.686  10.182  0.5464 -0.4329  0.1832
 7256SOL     OW33400   2.587   3.776   5.215  0.2521 -0.1156  0.3519
 7256SOL    HW133401   2.534   3.725   5.276  2.5509  0.8701  3.1736
 7256SOL    HW233402   2.574   3.867   5.243  0.4534 -0.8080  2.7391
 7257SOL     OW33403   2.942   1.569   2.533  0.6293 -0.7798 -0.3558
 7257SOL    HW133404   3.008   1.500   2.531  1.1548 -0.3466  1.4724
 7257SOL    HW233405   2.925   1.583   2.626  1.9985  0.3564 -0.2791
 7258SOL     OW33406   4.056   2.552   0.214  0.2284  0.1472 -0.1964
 7258SOL    HW133407   3.987   2.586   0.271  2.4829  0.6346  2.2328
 7258SOL    HW233408   4.067   2.459   0.235  0.1472 -0.0655 -1.0708
 7259SOL     OW33409   4.188   2.839   1.918  0.6251 -0.2053 -0.4411
 7259SOL    HW133410   4.268   2.794   1.945  1.0816  1.0575  0.3170
 7259SOL    HW233411   4.211   2.846   1.825  1.7928  0.0837 -0.1292
 7260SOL     OW33412   3.363   3.082   1.104 -0.4156  0.3858 -0.6274
 7260SOL    HW133413   3.367   3.144   1.177  1.3394  1.8079 -1.8999
 7260SOL    HW233414   3.301   3.017   1.135  0.3451  0.4167  0.9469
 7261SOL     OW33415   1.041   3.416   3.627  0.1477  0.4660 -0.1532
 7261SOL    HW133416   1.132   3.388   3.626 -0.4271 -1.3282 -2.3755
 7261SOL    HW233417   1.029   3.441   3.535  0.6303  0.1728 -0.2943
 7262SOL     OW33418   2.211   4.161   3.861 -0.2244 -0.4357 -0.5191
 7262SOL    HW133419   2.162   4.239   3.836  2.8089  0.5837 -3.4197
 7262SOL    HW233420   2.179   4.142   3.949 -1.7876  2.0394 -0.5452
 7263SOL     OW33421   0.018   3.824   5.982 -0.5116  0.2111 -0.6041
 7263SOL    HW133422   0.086   3.882   5.946 -1.3907  2.1230  0.8190
 7263SOL    HW233423   0.028   3.836   6.077  1.0156  0.3543 -0.7742
 7264SOL     OW33424   2.297   3.501   4.522 -0.1197 -0.1966 -0.4384
 7264SOL    HW133425   2.336   3.432   4.467 -1.7977 -1.1930 -0.3675
 7264SOL    HW233426   2.344   3.575   4.483  0.5968 -0.9048 -0.9251
 7265SOL     OW33427   0.856   0.742  10.060 -0.0849  0.2336 -0.5521
 7265SOL    HW133428   0.798   0.775  10.128 -0.3405  0.2225 -0.7651
 7265SOL    HW233429   0.788   0.733   9.994  0.9305  0.6790 -1.6507
 7266SOL     OW33430   3.016   0.109   5.540 -0.1914  0.6331 -0.1951
 7266SOL    HW133431   3.054   0.156   5.465  0.3864 -2.7951 -2.0341
 7266SOL    HW233432   2.967   0.034   5.506 -2.6684  3.0761 -2.0388
 7267SOL     OW33433   3.996   1.274   8.096 -0.2476 -0.1589 -0.0934
 7267SOL    HW133434   4.037   1.361   8.097  1.6074 -1.0309 -0.7818
 7267SOL    HW233435   4.059   1.211   8.133 -0.4127  1.3521  2.8206
 7268SOL     OW33436   4.738   3.099   6.088  0.2262  0.0472 -0.4981
 7268SOL    HW133437   0.013   3.075   6.180  0.4382  0.2122 -0.4857
 7268SOL    HW233438   0.013   3.193   6.094 -0.7003  0.0866  0.8602
 7269SOL     OW33439   3.289   3.760   5.521  0.2849 -0.2075  0.0519
 7269SOL    HW133440   3.211   3.810   5.499  1.0146  2.3989  3.4119
 7269SOL    HW233441   3.255   3.671   5.512 -1.5568  0.0802  4.1453
 7270SOL     OW33442   0.857   3.505   6.817 -0.4086 -0.2084  0.0684
 7270SOL    HW133443   0.897   3.584   6.781  0.6739 -0.3598  0.9440
 7270SOL    HW233444   0.931   3.445   6.812  1.2740  1.9325 -0.8846
 7271SOL     OW33445   0.365   4.081   3.981  0.7122  0.5001  0.1046
 7271SOL    HW133446   0.318   4.004   3.947  2.6928 -0.1074 -1.2302
 7271SOL    HW233447   0.452   4.043   3.970  1.4121  2.2221 -0.2141
 7272SOL     OW33448   1.592   4.376  14.355 -0.0766 -0.0640  0.0716
 7272SOL    HW133449   1.601   4.451  14.414  0.7240 -1.3983  1.6348
 7272SOL    HW233450   1.506   4.389  14.313  0.2539 -2.1669 -1.2425
 7273SOL     OW33451   1.260   3.675   9.927 -0.2903 -0.6017 -0.3606
 7273SOL    HW133452   1.184   3.638   9.973  0.8504 -2.9085 -0.2961
 7273SOL    HW233453   1.281   3.603   9.867  1.7196 -1.3277  1.2107
 7274SOL     OW33454   3.472   0.393   5.783  0.6903 -0.4092 -0.1386
 7274SOL    HW133455   3.548   0.449   5.765 -0.3134  0.9319 -0.1630
 7274SOL    HW233456   3.414   0.464   5.809  0.8881  0.8704 -3.1626
 7275SOL     OW33457   3.719   3.594   3.236 -0.6324 -0.7637 -0.2620
 7275SOL    HW133458   3.641   3.558   3.194 -0.6688  0.5314 -1.3203
 7275SOL    HW233459   3.727   3.672   3.182 -2.7493 -0.3190  0.0624
 7276SOL     OW33460   3.284   2.716   8.831  0.1926 -0.0980  0.0567
 7276SOL    HW133461   3.376   2.713   8.802  0.0848  1.6008 -0.4457
 7276SOL    HW233462   3.230   2.682   8.760 -0.6828  0.4396  0.4688
 7277SOL     OW33463   4.259   3.175   3.224 -0.3400 -0.0007  0.4285
 7277SOL    HW133464   4.242   3.154   3.132 -1.0131  0.1485  0.5212
 7277SOL    HW233465   4.305   3.258   3.213  0.2095 -0.2254  1.0409
 7278SOL     OW33466   1.445   1.204   0.463  0.1849 -0.2397 -0.0277
 7278SOL    HW133467   1.448   1.209   0.367 -2.4179  0.1564 -0.1002
 7278SOL    HW233468   1.533   1.168   0.467  0.3925  0.7637  3.5236
 7279SOL     OW33469   2.490   4.478   1.157  0.2591 -0.2937  0.0891
 7279SOL    HW133470   2.501   4.407   1.220  0.1106 -0.2994  0.1079
 7279SOL    HW233471   2.577   4.461   1.119  0.9726 -0.1752  1.6556
 7280SOL     OW33472   2.027   3.295   1.114  0.6455 -0.2042  0.2669
 7280SOL    HW133473   2.111   3.254   1.135  1.4178  1.4371  0.3879
 7280SOL    HW233474   2.032   3.311   1.020  1.0137 -0.1924  0.2912
 7281SOL     OW33475   0.436   3.619   4.030 -0.2615  0.6920 -0.4570
 7281SOL    HW133476   0.493   3.693   4.051  0.4886 -0.0872  0.2563
 7281SOL    HW233477   0.416   3.641   3.939 -0.4113 -1.3137 -0.9063
 7282SOL     OW33478   2.459   4.193   2.723 -0.1569 -0.3320 -0.2701
 7282SOL    HW133479   2.417   4.271   2.687  0.6865 -0.7742 -2.2513
 7282SOL    HW233480   2.539   4.186   2.670  0.1622 -1.6636  0.3783
 7283SOL     OW33481   1.823   1.065  16.710 -0.5162  0.0881 -0.4479
 7283SOL    HW133482   1.769   0.988  16.726 -3.0374  2.1495  0.9120
 7283SOL    HW233483   1.755   1.124  16.678  0.3739  2.0162  1.1890
 7284SOL     OW33484   4.243   1.596   1.181  0.5974  0.2182  0.3934
 7284SOL    HW133485   4.299   1.525   1.148  1.0841 -0.0498  1.7829
 7284SOL    HW233486   4.258   1.676   1.132 -0.2855  0.8000  1.0674
 7285SOL     OW33487   4.107   2.658  13.250 -0.6140  0.6562  0.3192
 7285SOL    HW133488   4.158   2.688  13.175 -1.8776 -0.9090 -1.1593
 7285SOL    HW233489   4.115   2.732  13.310  0.2259 -0.1328  1.1807
 7286SOL     OW33490   2.552   1.947   2.380 -0.8601 -0.0035  0.1272
 7286SOL    HW133491   2.588   2.033   2.357  2.0447 -1.5216 -1.0882
 7286SOL    HW233492   2.628   1.903   2.418 -0.9610 -0.5389 -0.3007
 7287SOL     OW33493   2.135   0.877   2.536  0.6800 -0.0836 -0.2572
 7287SOL    HW133494   2.091   0.959   2.512  0.5333  0.3540  1.5210
 7287SOL    HW233495   2.129   0.893   2.630 -2.4132 -0.3989 -0.3823
 7288SOL     OW33496   3.761   4.731   1.421  0.1070  0.1269  0.2660
 7288SOL    HW133497   3.742   0.087   1.423 -0.7788 -0.0079 -2.1752
 7288SOL    HW233498   3.841   4.721   1.369  0.4495  0.3268  0.7540
 7289SOL     OW33499   0.413   0.315   3.939  0.7135 -0.5704  0.0145
 7289SOL    HW133500   0.463   0.383   3.985  0.1995 -1.1822  1.4809
 7289SOL    HW233501   0.362   0.284   4.014 -0.0531  1.0394  0.1524
 7290SOL     OW33502   4.479   1.972   8.500 -0.2508 -0.2169 -0.5231
 7290SOL    HW133503   4.440   1.913   8.564  1.1267 -0.2786  0.2627
 7290SOL    HW233504   4.420   1.958   8.426 -0.1988 -0.3541 -0.5383
 7291SOL     OW33505   2.397   1.263  12.506  0.4687 -0.4995  0.6414
 7291SOL    HW133506   2.473   1.249  12.449 -0.9716 -1.3900 -1.0426
 7291SOL    HW233507   2.367   1.349  12.477  0.8050 -0.5209  0.2362
 7292SOL     OW33508   4.700   1.069   5.068 -0.0509 -0.2070 -0.1165
 7292SOL    HW133509   4.625   1.090   5.012  0.1758  0.4839 -0.1613
 7292SOL    HW233510   0.032   1.134   5.062  0.1170 -0.6417 -3.0719
 7293SOL     OW33511   3.014   2.802   3.312  0.1185 -0.7455 -0.0999
 7293SOL    HW133512   3.034   2.851   3.232 -0.5259 -0.7855 -0.2793
 7293SOL    HW233513   2.924   2.828   3.330  0.5113 -0.1575  1.0362
 7294SOL     OW33514   3.136   2.610   6.202  0.2853 -0.0633 -0.1024
 7294SOL    HW133515   3.082   2.540   6.238  0.8954 -0.5244 -0.0961
 7294SOL    HW233516   3.120   2.678   6.268 -0.7830  1.1730 -1.6499
 7295SOL     OW33517   1.676   3.952   3.481 -0.0652 -0.1548 -0.3521
 7295SOL    HW133518   1.650   4.039   3.511 -2.0286 -0.8174 -0.1179
 7295SOL    HW233519   1.658   3.902   3.560  1.5668 -2.7428 -1.6139
 7296SOL     OW33520   1.387   1.733  11.932  0.2990 -0.2146  0.6296
 7296SOL    HW133521   1.448   1.795  11.973 -0.5122  1.0303 -0.0492
 7296SOL    HW233522   1.388   1.778  11.848 -0.2117  1.0404  1.2944
 7297SOL     OW33523   3.477   3.020   9.607 -0.3394 -0.7322 -0.5426
 7297SOL    HW133524   3.555   2.968   9.589 -0.0278 -0.5124  0.1977
 7297SOL    HW233525   3.516   3.091   9.656 -1.1135  0.6718 -1.9525
 7298SOL     OW33526   1.718   2.012  14.987  0.1301 -0.3121  0.1481
 7298SOL    HW133527   1.793   2.003  14.927 -0.7576 -2.5668 -0.6138
 7298SOL    HW233528   1.762   2.036  15.068 -0.0177  2.9883 -0.7192
 7299SOL     OW33529   0.424   4.404  16.171 -0.5471  0.1993 -0.3351
 7299SOL    HW133530   0.373   4.441  16.099 -0.1432 -0.2472 -0.8572
 7299SOL    HW233531   0.391   4.314  16.165 -0.2847 -0.0036  1.4713
 7300SOL     OW33532   0.420   1.155   9.556  0.4197 -0.2627  0.0222
 7300SOL    HW133533   0.411   1.060   9.563  1.4333 -0.2131  2.0472
 7300SOL    HW233534   0.390   1.184   9.470  3.1545  1.1802 -0.4400
 7301SOL     OW33535   2.043   4.058   8.271  0.1401 -0.2303  0.3369
 7301SOL    HW133536   2.055   4.080   8.179  0.4147  3.5487  1.2937
 7301SOL    HW233537   2.027   4.146   8.304 -0.8078 -0.4046  0.3373
 7302SOL     OW33538   2.521   0.020  15.893  0.2785  0.1820  0.8175
 7302SOL    HW133539   2.586   0.067  15.946 -0.6406  0.3348  1.7953
 7302SOL    HW233540   2.512   4.670  15.930  1.1326 -0.4289 -0.4190
 7303SOL     OW33541   4.096   2.521   9.560  0.2445  0.6973  0.6421
 7303SOL    HW133542   4.189   2.543   9.568  0.3487  0.3626  0.3672
 7303SOL    HW233543   4.052   2.550   9.640 -0.1469  3.8602 -0.6807
 7304SOL     OW33544   4.210   1.979   9.621  0.2704 -0.3252 -0.3693
 7304SOL    HW133545   4.301   1.996   9.595  0.1961 -1.2967 -1.2690
 7304SOL    HW233546   4.226   1.941   9.708 -0.2251  0.8050  0.2096
 7305SOL     OW33547   0.329   0.454   6.887 -0.1644 -0.4763 -0.0786
 7305SOL    HW133548   0.388   0.380   6.876  1.7599  1.2834 -1.8254
 7305SOL    HW233549   0.254   0.405   6.918  0.5455 -1.2589  0.4008
 7306SOL     OW33550   3.773   0.759   0.175  0.2877 -0.1901  0.7158
 7306SOL    HW133551   3.803   0.773   0.085  1.3108 -0.8289  0.9474
 7306SOL    HW233552   3.849   0.793   0.222  0.7328  2.3803 -1.8900
 7307SOL     OW33553   2.329   2.126   7.642 -0.1613 -0.2467 -0.3660
 7307SOL    HW133554   2.345   2.127   7.737 -0.6765 -0.2488 -0.2779
 7307SOL    HW233555   2.319   2.220   7.628  3.4332  0.4267  1.5181
 7308SOL     OW33556   1.365   3.420  10.249  0.3295  0.8480  0.0531
 7308SOL    HW133557   1.299   3.372  10.199  1.7192  0.2593 -1.2236
 7308SOL    HW233558   1.430   3.451  10.186  3.1054 -1.8061  1.6152
 7309SOL     OW33559   0.250   1.921   2.428 -0.2644 -0.0506  0.0203
 7309SOL    HW133560   0.181   1.934   2.362  0.4533 -0.9181 -0.8989
 7309SOL    HW233561   0.329   1.902   2.377  0.7957 -1.0243  2.0239
 7310SOL     OW33562   0.231   3.632  16.255  0.0408  0.1171 -0.4854
 7310SOL    HW133563   0.198   3.545  16.232  2.5850 -1.1533  0.7040
 7310SOL    HW233564   0.312   3.609  16.300  0.0654 -1.8281 -1.5216
 7311SOL     OW33565   2.055   4.683   3.417  0.0155  0.5198 -0.2627
 7311SOL    HW133566   2.049   4.682   3.321 -0.1633  1.3050 -0.2629
 7311SOL    HW233567   2.131   4.630   3.438 -0.8295 -0.7845 -0.5103
 7312SOL     OW33568   2.149   3.107   9.976  0.6430 -0.1985  0.2030
 7312SOL    HW133569   2.198   3.044  10.028  0.5444 -0.7163 -0.3269
 7312SOL    HW233570   2.183   3.191  10.007 -0.0408 -0.2801  1.1817
 7313SOL     OW33571   0.432   0.942   6.731 -0.3796  0.2171  0.3176
 7313SOL    HW133572   0.473   0.859   6.753 -0.0223  0.0044 -1.1677
 7313SOL    HW233573   0.390   0.969   6.812  1.1807  1.4501  0.7293
 7314SOL     OW33574   0.932   3.849   6.149 -0.3654 -0.0860  0.1653
 7314SOL    HW133575   0.968   3.900   6.077 -1.3268 -2.0563 -1.7162
 7314SOL    HW233576   0.992   3.888   6.212 -0.4163 -1.4547  1.0705
 7315SOL     OW33577   1.056   2.711  14.189  0.4570 -0.0564 -0.0431
 7315SOL    HW133578   1.078   2.762  14.111  0.8806 -1.0540 -0.5805
 7315SOL    HW233579   1.136   2.660  14.206  2.0361  2.4016 -0.0455
 7316SOL     OW33580   4.226   1.540   6.724  0.6054 -0.1857 -0.3149
 7316SOL    HW133581   4.315   1.561   6.696  1.0174 -2.2488 -0.5350
 7316SOL    HW233582   4.168   1.603   6.680 -1.0566 -1.4899  0.0185
 7317SOL     OW33583   3.738   1.208   8.516  0.2439  0.8461 -0.3961
 7317SOL    HW133584   3.816   1.264   8.507 -0.3236  2.0156  1.8780
 7317SOL    HW233585   3.783   1.125   8.533  1.5647  1.5705 -0.3730
 7318SOL     OW33586   2.194   1.157  16.427 -0.0001  0.0036  0.0096
 7318SOL    HW133587   2.203   1.168  16.333 -1.2674 -0.3228 -0.1546
 7318SOL    HW233588   2.282   1.172  16.460 -0.0491 -0.2282  0.2529
 7319SOL     OW33589   1.086   0.624   4.690 -0.0446 -0.5885 -0.0621
 7319SOL    HW133590   1.138   0.611   4.611 -0.8471 -1.0205 -0.5143
 7319SOL    HW233591   1.140   0.582   4.757 -0.0709 -1.5879 -0.6709
 7320SOL     OW33592   2.314   0.580   4.933 -0.1706  0.3165  0.1386
 7320SOL    HW133593   2.394   0.559   4.982  0.3080 -0.8410 -1.1476
 7320SOL    HW233594   2.349   0.630   4.859 -1.5779  1.8908  0.5233
 7321SOL     OW33595   0.310   0.732   5.217 -0.0374  0.2236 -0.6904
 7321SOL    HW133596   0.250   0.744   5.144 -0.6716  3.3904  0.3338
 7321SOL    HW233597   0.246   0.717   5.286  0.1249  1.6969 -0.2162
 7322SOL     OW33598   3.962   3.742  14.244  0.1072  0.2958 -0.0195
 7322SOL    HW133599   4.007   3.700  14.170 -0.4886 -1.5186  0.6460
 7322SOL    HW233600   3.982   3.834  14.226 -2.1961  1.0873  1.4891
 7323SOL     OW33601   4.503   3.619   2.339  0.4505 -0.7532 -0.7134
 7323SOL    HW133602   4.507   3.688   2.273  1.6570  1.1849  1.3652
 7323SOL    HW233603   4.451   3.658   2.410 -0.2317 -0.4668 -1.3794
 7324SOL     OW33604   1.753   0.741   5.218  0.0815  0.7018  0.1732
 7324SOL    HW133605   1.716   0.830   5.217 -0.0647  0.6314 -0.8537
 7324SOL    HW233606   1.669   0.697   5.202  0.4454 -0.0246  0.3054
 7325SOL     OW33607   0.693   3.654   5.100  0.0965  0.5821  0.0296
 7325SOL    HW133608   0.705   3.623   5.010  0.2382 -1.6388  0.7969
 7325SOL    HW233609   0.612   3.611   5.129  0.3242 -0.9158 -1.5974
 7326SOL     OW33610   2.079   2.808   5.127 -0.4016  0.1559 -0.1960
 7326SOL    HW133611   2.142   2.852   5.183 -1.0024 -0.7488  1.1894
 7326SOL    HW233612   2.122   2.818   5.042  1.0711 -0.2174  0.5056
 7327SOL     OW33613   1.446   2.157   8.078 -0.2733 -0.1566 -0.3469
 7327SOL    HW133614   1.492   2.155   7.994 -1.2269 -0.0028 -0.8793
 7327SOL    HW233615   1.490   2.081   8.115 -0.9077 -1.1504 -1.6116
 7328SOL     OW33616   0.043   0.792   7.949 -0.0855  0.1993  0.4845
 7328SOL    HW133617   0.064   0.799   7.856 -2.1402  1.4163  0.1202
 7328SOL    HW233618   4.699   0.840   7.964  0.1271  0.5574  0.4942
 7329SOL     OW33619   4.540   3.906   2.946 -0.5568  0.5646  0.1790
 7329SOL    HW133620   4.541   3.861   2.862 -1.1013 -2.0333  1.5508
 7329SOL    HW233621   4.577   3.992   2.927  1.7603 -0.4984 -0.0535
 7330SOL     OW33622   3.025   0.679   4.299  0.4420 -0.8151 -0.2632
 7330SOL    HW133623   3.119   0.693   4.287  0.4407 -0.6581 -0.0911
 7330SOL    HW233624   3.018   0.710   4.389  0.7865 -1.1417 -0.1238
 7331SOL     OW33625   1.898   1.427   7.598  0.3966  0.2978 -0.1908
 7331SOL    HW133626   1.927   1.417   7.689  1.1780  1.9107 -0.2727
 7331SOL    HW233627   1.895   1.334   7.573  4.0516  1.0924 -3.5015
 7332SOL     OW33628   3.034   2.305  14.105 -0.9733  0.3889 -0.0098
 7332SOL    HW133629   2.946   2.303  14.067  0.1253  0.0233 -2.5338
 7332SOL    HW233630   3.014   2.283  14.196  1.6686 -0.5557  0.3435
 7333SOL     OW33631   2.455   1.545  11.697 -0.3543  0.4237 -0.3378
 7333SOL    HW133632   2.493   1.461  11.676  0.1855  0.4830  0.4117
 7333SOL    HW233633   2.446   1.533  11.791 -0.4001  0.4426 -0.3395
 7334SOL     OW33634   0.523   3.868   5.274  0.2292  0.1916 -0.3100
 7334SOL    HW133635   0.572   3.861   5.356  1.9378  1.6816 -1.2109
 7334SOL    HW233636   0.582   3.834   5.207 -1.1591 -2.8424 -0.0162
 7335SOL     OW33637   2.235   3.448   5.346  0.1694 -0.1561 -0.1830
 7335SOL    HW133638   2.317   3.471   5.303 -0.8130 -1.4853 -2.7876
 7335SOL    HW233639   2.261   3.452   5.438  1.4911 -2.4808 -0.4688
 7336SOL     OW33640   1.263   4.211   3.773 -0.0657 -0.0343  0.1722
 7336SOL    HW133641   1.348   4.170   3.788 -1.6672 -2.7920  1.5403
 7336SOL    HW233642   1.221   4.167   3.699  1.0961  1.1979 -1.2425
 7337SOL     OW33643   2.509   3.849   8.119  0.0587 -0.6456  0.1488
 7337SOL    HW133644   2.459   3.767   8.126 -2.2512  1.0639  3.3217
 7337SOL    HW233645   2.597   3.817   8.099  0.9672  0.7682  2.0393
 7338SOL     OW33646   0.314   2.722   1.313 -0.2070 -0.2066  0.5308
 7338SOL    HW133647   0.287   2.661   1.245 -1.1346 -0.0233  0.7395
 7338SOL    HW233648   0.408   2.705   1.323 -0.0168  0.2549 -0.4658
 7339SOL     OW33649   1.776   3.206  12.573 -0.5504 -0.4665 -0.5895
 7339SOL    HW133650   1.820   3.164  12.647 -3.4971 -1.8671  0.3713
 7339SOL    HW233651   1.733   3.135  12.527 -1.2228 -0.4947  0.0854
 7340SOL     OW33652   0.344   0.971  17.586  0.4700  0.3062  0.2800
 7340SOL    HW133653   0.419   0.940  17.536  1.8195  1.7851  1.3778
 7340SOL    HW233654   0.279   0.901  17.581  0.6422  0.2604 -1.2056
 7341SOL     OW33655   0.968   4.659   5.392  0.3668  0.1146 -0.9257
 7341SOL    HW133656   1.048   4.686   5.348  0.9833 -0.3291 -0.0624
 7341SOL    HW233657   0.923   0.001   5.419  0.5484 -0.8321  2.1478
 7342SOL     OW33658   1.264   1.019   5.689 -0.0170 -0.8294  0.0232
 7342SOL    HW133659   1.323   1.053   5.757 -0.3788 -1.3109  0.5725
 7342SOL    HW233660   1.269   0.924   5.701  1.1951 -0.3545  3.3437
 7343SOL     OW33661   4.113   3.392   7.025 -0.1045  0.2951 -0.2164
 7343SOL    HW133662   4.128   3.335   7.101 -0.4724  0.7370  0.1879
 7343SOL    HW233663   4.195   3.439   7.015  0.0671  0.0557  0.0514
 7344SOL     OW33664   1.591   1.531   6.900 -0.6058 -0.0424  0.2794
 7344SOL    HW133665   1.600   1.601   6.835 -0.5946 -0.2250  0.0819
 7344SOL    HW233666   1.635   1.463   6.848  0.6942 -0.3037  1.7400
 7345SOL     OW33667   1.815   1.346   4.303  0.1970 -0.0278 -0.5791
 7345SOL    HW133668   1.878   1.275   4.310  0.8855  0.4681 -1.7856
 7345SOL    HW233669   1.867   1.423   4.282  1.5409 -0.3338  1.5807
 7346SOL     OW33670   3.464   4.400   4.369 -0.1249 -0.2831  0.3552
 7346SOL    HW133671   3.369   4.393   4.372 -0.1926 -1.0537 -3.0766
 7346SOL    HW233672   3.486   4.312   4.402 -1.2401 -1.6682 -2.5813
 7347SOL     OW33673   3.880   1.437   2.547 -0.4377 -0.7388  0.1776
 7347SOL    HW133674   3.823   1.505   2.581 -4.4744 -2.1441 -3.7157
 7347SOL    HW233675   3.919   1.409   2.629 -1.7900 -1.7541  0.4694
 7348SOL     OW33676   3.058   1.180  12.858  0.0480  0.4908 -0.1930
 7348SOL    HW133677   2.983   1.124  12.876 -0.1340  0.5360 -0.8226
 7348SOL    HW233678   3.024   1.259  12.899 -0.3303  0.3432 -0.2261
 7349SOL     OW33679   4.581   2.776   2.302  0.2853  0.1903  0.7298
 7349SOL    HW133680   4.641   2.836   2.346  0.0718 -0.0758  1.3873
 7349SOL    HW233681   4.595   2.780   2.207  0.9201 -2.2619  0.7282
 7350SOL     OW33682   2.480   2.810   7.767 -0.1211 -0.0663  0.3993
 7350SOL    HW133683   2.385   2.806   7.754  0.1088 -1.3051 -0.9354
 7350SOL    HW233684   2.503   2.722   7.735  0.5256  0.2091  0.1191
 7351SOL     OW33685   1.548   4.243   9.212  0.1310 -0.7000 -0.1322
 7351SOL    HW133686   1.488   4.203   9.275 -0.9713 -0.7919 -1.2362
 7351SOL    HW233687   1.562   4.320   9.266 -0.6805  0.6758 -1.8689
 7352SOL     OW33688   4.286   4.073   7.399  0.1474  0.2840  0.1203
 7352SOL    HW133689   4.241   4.045   7.479 -0.0033  0.6268  0.1535
 7352SOL    HW233690   4.205   4.086   7.350 -0.8059 -0.7389  1.3860
 7353SOL     OW33691   3.463   0.411   6.549 -0.3480 -0.2669  0.0535
 7353SOL    HW133692   3.541   0.467   6.555 -0.3056 -0.4293  1.1343
 7353SOL    HW233693   3.393   0.475   6.536 -1.1687 -1.1231  0.2530
 7354SOL     OW33694   2.520   3.545  16.253  0.5643 -0.6266 -0.3873
 7354SOL    HW133695   2.559   3.525  16.338  0.8834  0.8735 -0.1752
 7354SOL    HW233696   2.438   3.583  16.285  0.0771 -0.7443 -1.5022
 7355SOL     OW33697   1.026   0.952   2.769 -0.8157 -0.5317 -0.0694
 7355SOL    HW133698   0.971   0.991   2.701  1.2085  0.5672 -1.0750
 7355SOL    HW233699   0.954   0.921   2.824 -0.5984  1.9705  1.5917
 7356SOL     OW33700   0.606   3.319  16.877  0.2456  0.3647 -0.0282
 7356SOL    HW133701   0.610   3.355  16.789 -2.2888  1.4521  0.3085
 7356SOL    HW233702   0.684   3.362  16.915 -0.3999  2.4328 -1.0675
 7357SOL     OW33703   1.982   4.661   7.444  0.3246  0.0688  0.2034
 7357SOL    HW133704   1.945   0.010   7.462 -1.6245 -0.3908 -1.5465
 7357SOL    HW233705   2.038   4.645   7.520 -0.3492  2.5493  1.2298
 7358SOL     OW33706   1.202   0.305   7.560 -0.3805 -0.2572  0.1761
 7358SOL    HW133707   1.115   0.329   7.592 -0.3509  2.0460 -1.4543
 7358SOL    HW233708   1.229   0.388   7.522  0.0273 -0.3423  0.2814
 7359SOL     OW33709   2.000   2.305  10.499 -0.3905  0.0692 -0.4868
 7359SOL    HW133710   1.965   2.357  10.570 -0.5371 -1.1732  0.3584
 7359SOL    HW233711   1.968   2.216  10.515  1.2303 -0.4212  0.0577
 7360SOL     OW33712   3.757   1.056   2.463 -0.2406  0.0504  0.4394
 7360SOL    HW133713   3.691   1.123   2.445  2.1197  2.2922 -0.0020
 7360SOL    HW233714   3.721   0.974   2.429  0.1660 -0.1279  0.4320
 7361SOL     OW33715   3.947   3.907  12.674 -0.8395  0.0048  0.4454
 7361SOL    HW133716   3.853   3.926  12.673 -0.3507  2.2905 -1.3902
 7361SOL    HW233717   3.945   3.876  12.764  0.9703  0.1440  0.5436
 7362SOL     OW33718   1.074   4.586   9.291 -0.0897 -0.1308  0.2555
 7362SOL    HW133719   1.095   4.499   9.325  1.3290  0.0860 -0.0665
 7362SOL    HW233720   0.998   4.569   9.236  1.1617 -0.9483 -1.2175
 7363SOL     OW33721   4.311   3.471  17.205 -0.1302  0.4081 -0.0568
 7363SOL    HW133722   4.350   3.449  17.290  0.5225  0.6383 -0.2976
 7363SOL    HW233723   4.220   3.487  17.232 -0.1381 -0.9751  0.7319
 7364SOL     OW33724   3.918   3.528   1.006  0.1091  0.5756 -0.5768
 7364SOL    HW133725   3.949   3.576   1.082  1.3604 -1.5595  0.2728
 7364SOL    HW233726   3.998   3.507   0.958  1.4936  4.5682  0.0045
 7365SOL     OW33727   2.828   0.948   8.386  0.3800  1.0590  0.4667
 7365SOL    HW133728   2.920   0.947   8.363  0.7152  2.0094  1.7478
 7365SOL    HW233729   2.801   1.037   8.365 -0.7157  0.1711 -1.8599
 7366SOL     OW33730   0.372   0.653  17.049  0.0830 -0.1641 -0.5324
 7366SOL    HW133731   0.437   0.606  16.996  0.5010 -1.9212  1.5756
 7366SOL    HW233732   0.291   0.655  16.997 -0.0509 -1.7607 -0.3948
 7367SOL     OW33733   3.361   3.427   7.518 -0.0862  0.0594 -0.0695
 7367SOL    HW133734   3.423   3.406   7.448 -1.2187 -2.2020 -0.3991
 7367SOL    HW233735   3.363   3.346   7.569  1.9282 -0.6939 -1.3348
 7368SOL     OW33736   1.540   3.991  13.787 -0.0591 -0.2267  1.0734
 7368SOL    HW133737   1.510   4.016  13.700  1.0290 -1.5904  0.3048
 7368SOL    HW233738   1.456   3.966  13.826 -1.1035  0.2161 -0.9389
 7369SOL     OW33739   0.276   1.975   4.413 -0.1832  0.1920  0.2800
 7369SOL    HW133740   0.269   1.923   4.332 -0.1857  0.9988 -0.2374
 7369SOL    HW233741   0.243   2.059   4.381 -1.0516  0.5161  2.0941
 7370SOL     OW33742   3.230   4.398   9.670 -0.2616 -0.3110  0.3084
 7370SOL    HW133743   3.161   4.436   9.724 -1.2671  0.4036 -1.4680
 7370SOL    HW233744   3.277   4.480   9.658 -0.7741 -0.2564 -1.2860
 7371SOL     OW33745   3.772   1.361   8.238 -0.0733  0.0274  0.6061
 7371SOL    HW133746   3.847   1.316   8.198 -1.0734  1.0161 -2.3617
 7371SOL    HW233747   3.807   1.380   8.325 -1.4950  2.5950  0.6171
 7372SOL     OW33748   4.663   4.691   7.117 -0.0879  0.2028 -0.4303
 7372SOL    HW133749   4.637   0.037   7.157  1.4459 -0.4959  1.9945
 7372SOL    HW233750   0.021   4.685   7.122 -0.1981  0.5569  2.0986
 7373SOL     OW33751   3.578   1.319   4.377  0.2273 -0.1159 -0.7404
 7373SOL    HW133752   3.642   1.390   4.367 -2.2438  2.0720 -0.8068
 7373SOL    HW233753   3.627   1.258   4.432 -0.5230  1.6260  1.8372
 7374SOL     OW33754   0.429   1.958   8.228 -0.4335 -0.5077  0.1934
 7374SOL    HW133755   0.409   2.048   8.202  0.4297 -0.0972  0.9563
 7374SOL    HW233756   0.365   1.922   8.166 -0.1925  0.4230 -0.5940
 7375SOL     OW33757   2.908   2.988   3.757  0.4143 -0.0738 -0.6525
 7375SOL    HW133758   2.991   3.033   3.774 -0.0346  0.5938 -0.2385
 7375SOL    HW233759   2.927   2.902   3.794  0.9811 -0.2137 -1.2606
 7376SOL     OW33760   1.557   0.856   3.574  0.7843 -0.5009  0.1498
 7376SOL    HW133761   1.470   0.832   3.606  1.3332 -1.6833  0.7661
 7376SOL    HW233762   1.562   0.782   3.513 -0.5052 -0.1754 -0.3396
 7377SOL     OW33763   4.654   1.727   5.581 -0.0226  0.7646 -0.4736
 7377SOL    HW133764   0.003   1.687   5.589  1.0053  2.7583 -1.7489
 7377SOL    HW233765   4.596   1.672   5.634  0.8726  0.1209 -0.1695
 7378SOL     OW33766   0.784   2.135   6.901  0.5995 -0.2737 -0.2696
 7378SOL    HW133767   0.849   2.065   6.897  0.9765  0.0686 -0.0358
 7378SOL    HW233768   0.827   2.195   6.961  0.5448 -0.8774  0.3688
 7379SOL     OW33769   1.082   2.544   4.553  0.0071 -0.1327 -0.0541
 7379SOL    HW133770   1.084   2.460   4.508 -1.4329  0.4722 -1.2458
 7379SOL    HW233771   1.123   2.515   4.634 -0.4435 -0.5624  0.0136
 7380SOL     OW33772   1.502   2.369   9.545 -0.1550 -0.1887  0.2608
 7380SOL    HW133773   1.461   2.363   9.458 -1.0108  1.9288  0.5130
 7380SOL    HW233774   1.568   2.303   9.526 -0.6306 -0.4458 -0.5397
 7381SOL     OW33775   3.832   1.769   3.900  0.0530  0.4870  0.1938
 7381SOL    HW133776   3.815   1.814   3.982  0.0505 -2.5388  1.8333
 7381SOL    HW233777   3.874   1.692   3.937 -1.5794 -0.6265 -0.2586
 7382SOL     OW33778   2.104   3.695   4.722 -0.3466 -0.1871  0.1326
 7382SOL    HW133779   2.048   3.645   4.663 -0.9539  2.5142 -1.6030
 7382SOL    HW233780   2.167   3.734   4.661  2.1352 -0.1259  2.7638
 7383SOL     OW33781   2.511   3.557   7.272 -0.5611  0.3228  0.4189
 7383SOL    HW133782   2.455   3.605   7.332 -1.2779  1.0533 -0.8219
 7383SOL    HW233783   2.552   3.624   7.218  0.7682  0.4520  1.5914
 7384SOL     OW33784   1.147   1.909   7.832 -0.4212  0.3276  0.1361
 7384SOL    HW133785   1.235   1.890   7.800 -1.1128 -2.0336 -0.3038
 7384SOL    HW233786   1.170   1.937   7.921 -0.3634 -3.4279  1.2707
 7385SOL     OW33787   1.864   0.385   2.168  0.3946  0.4376  0.2530
 7385SOL    HW133788   1.811   0.375   2.247 -2.5178  0.1795 -1.7383
 7385SOL    HW233789   1.803   0.365   2.098 -0.1432 -0.9142  1.1108
 7386SOL     OW33790   2.176   2.385   9.279 -0.4877 -0.0300  0.1293
 7386SOL    HW133791   2.128   2.305   9.302 -0.8413  0.0779 -0.2378
 7386SOL    HW233792   2.134   2.411   9.197 -1.0881  1.0008  0.7546
 7387SOL     OW33793   0.170   1.226   1.947  0.4754 -0.4862  0.2446
 7387SOL    HW133794   0.114   1.245   1.872 -0.1934 -1.4626  0.4944
 7387SOL    HW233795   0.212   1.311   1.961 -0.6355  0.1922 -0.4820
 7388SOL     OW33796   3.275   3.185   8.703  0.1375  0.4204  0.2721
 7388SOL    HW133797   3.327   3.108   8.680 -0.3007  0.0515  0.5084
 7388SOL    HW233798   3.345   3.231   8.749  0.8037 -1.3955  1.0781
 7389SOL     OW33799   2.622   1.449   8.080 -0.3230  0.0053  0.4097
 7389SOL    HW133800   2.544   1.470   8.132 -1.1153  0.4084 -0.9440
 7389SOL    HW233801   2.630   1.354   8.072 -2.6790 -0.0768 -1.0797
 7390SOL     OW33802   4.458   1.359   6.872 -0.4215 -0.4922  0.2286
 7390SOL    HW133803   4.423   1.313   6.948 -1.9073  0.3383  0.0269
 7390SOL    HW233804   4.436   1.452   6.875  1.6454 -0.0057  0.5173
 7391SOL     OW33805   4.035   2.057   5.700 -0.5353 -0.5532  0.3200
 7391SOL    HW133806   4.014   2.091   5.613 -0.2612 -0.9593  0.0943
 7391SOL    HW233807   3.980   1.979   5.707 -0.6911 -0.5245 -0.4950
 7392SOL     OW33808   2.282   0.929  12.372 -0.9299  0.0875  0.5684
 7392SOL    HW133809   2.239   0.844  12.362 -0.7250  0.0224  0.2559
 7392SOL    HW233810   2.303   0.926  12.465 -0.7214 -1.9068  0.4622
 7393SOL     OW33811   2.577   2.304   5.485 -0.2068  0.5762 -0.1682
 7393SOL    HW133812   2.519   2.235   5.518  0.1714  0.3913  0.1032
 7393SOL    HW233813   2.635   2.309   5.561  0.6279 -2.0608 -0.6100
 7394SOL     OW33814   3.908   4.521   3.651  0.2133 -0.2663 -0.2770
 7394SOL    HW133815   3.944   4.455   3.592  0.2059  0.0622 -0.6448
 7394SOL    HW233816   3.983   4.578   3.664  1.2472 -1.9804  1.3676
 7395SOL     OW33817   4.656   0.728  11.891  0.6373  0.2404  0.3784
 7395SOL    HW133818   4.585   0.689  11.942  0.5046  1.7838  1.4025
 7395SOL    HW233819   4.675   0.645  11.848 -1.7790  0.5463 -1.2223
 7396SOL     OW33820   3.991   0.674   9.772  0.0574 -0.1100 -0.2252
 7396SOL    HW133821   3.921   0.675   9.837 -0.1750 -0.7089 -0.4707
 7396SOL    HW233822   3.984   0.756   9.723  0.8367  1.3820  2.1274
 7397SOL     OW33823   0.910   4.145   3.401 -0.2822 -0.2840  0.0609
 7397SOL    HW133824   0.867   4.141   3.316 -1.4506 -1.1395  0.6843
 7397SOL    HW233825   0.910   4.237   3.429 -0.2938  0.2937 -1.8020
 7398SOL     OW33826   3.563   4.254   5.994  0.3953  0.4349 -0.0513
 7398SOL    HW133827   3.499   4.190   6.025 -1.3564  2.0121 -0.3440
 7398SOL    HW233828   3.512   4.333   5.973 -1.5298 -0.6001  0.7698
 7399SOL     OW33829   4.131   3.821   5.225 -0.3641  0.0642 -0.1307
 7399SOL    HW133830   4.137   3.774   5.142  2.0517  2.7702 -1.5093
 7399SOL    HW233831   4.041   3.851   5.217  0.1184  1.5917  0.0954
 7400SOL     OW33832   3.878   2.517   4.801 -0.2149  0.2898 -0.5253
 7400SOL    HW133833   3.958   2.506   4.852 -1.7431 -0.0270  1.8114
 7400SOL    HW233834   3.819   2.454   4.842 -0.0990 -2.1920 -4.1834
 7401SOL     OW33835   4.496   1.844   6.217 -0.3438 -0.0573  0.0601
 7401SOL    HW133836   4.449   1.856   6.134  0.6062 -2.7493 -0.8629
 7401SOL    HW233837   4.576   1.795   6.196 -0.6174 -0.0019 -1.1205
 7402SOL     OW33838   1.718   2.657   2.190  0.0033 -0.6019  0.0751
 7402SOL    HW133839   1.797   2.697   2.226 -0.9051  3.0926 -1.9730
 7402SOL    HW233840   1.739   2.655   2.096 -2.7584 -0.1111 -0.5637
 7403SOL     OW33841   2.283   4.045   5.009  0.2097  0.3737  0.3865
 7403SOL    HW133842   2.212   4.083   4.958  1.2272  1.5284 -0.1537
 7403SOL    HW233843   2.236   3.967   5.037  0.1149  0.1158 -0.5131
 7404SOL     OW33844   2.748   2.359  14.085  0.4436 -0.2924 -0.2823
 7404SOL    HW133845   2.760   2.429  14.021  0.2506  0.0275  0.0300
 7404SOL    HW233846   2.653   2.356  14.085  0.4536 -0.4136 -1.3476
 7405SOL     OW33847   0.576   4.454   3.511  0.5054  0.4694 -0.3504
 7405SOL    HW133848   0.493   4.413   3.537  1.1755 -1.7698 -1.7191
 7405SOL    HW233849   0.566   4.532   3.566 -1.9868 -1.1635  1.4968
 7406SOL     OW33850   1.193   2.463  14.057  0.4984 -0.3823 -0.0848
 7406SOL    HW133851   1.108   2.420  14.045  1.8285 -3.4165  1.3457
 7406SOL    HW233852   1.254   2.402  14.016  0.4984 -2.8919  3.7161
 7407SOL     OW33853   4.233   1.947   9.888  0.2481 -0.0455  0.0287
 7407SOL    HW133854   4.291   1.872   9.893 -0.2497 -0.5942 -2.3892
 7407SOL    HW233855   4.218   1.961   9.982 -0.9438 -1.8445  0.1039
 7408SOL     OW33856   2.626   3.023   9.359  0.3037 -0.4561  0.0423
 7408SOL    HW133857   2.639   2.933   9.331  1.7150  0.4606 -2.2689
 7408SOL    HW233858   2.548   3.007   9.411  1.4021 -0.3797  1.7029
 7409SOL     OW33859   0.690   4.722   8.574  0.7626 -0.4148  0.0446
 7409SOL    HW133860   0.741   0.065   8.570  2.1592 -1.3204 -0.3951
 7409SOL    HW233861   0.748   4.685   8.508  1.1326 -3.3736  2.0163
 7410SOL     OW33862   3.750   1.876   6.361  0.4866 -0.5614  0.6822
 7410SOL    HW133863   3.697   1.945   6.324 -0.4701 -1.7338 -0.1341
 7410SOL    HW233864   3.709   1.803   6.314 -0.1218 -0.8403  1.6474
 7411SOL     OW33865   3.127   0.767   4.784  0.3820 -0.3877  0.3646
 7411SOL    HW133866   3.034   0.772   4.761  0.0562 -0.8668  1.5930
 7411SOL    HW233867   3.132   0.807   4.871 -1.2810 -1.9575  1.1753
 7412SOL     OW33868   1.265   3.003   7.427 -0.2950 -0.6507 -0.1067
 7412SOL    HW133869   1.273   3.095   7.404  2.2618 -0.4958  1.3801
 7412SOL    HW233870   1.217   2.964   7.354 -1.0309 -2.7525  1.5186
 7413SOL     OW33871   1.777   2.639   0.085 -0.0396 -0.0717  0.1940
 7413SOL    HW133872   1.815   2.694   0.154 -1.3128 -1.2761  1.8513
 7413SOL    HW233873   1.726   2.708   0.041 -0.2982 -1.4037 -1.5658
 7414SOL     OW33874   1.186   2.957   9.490  0.0631  0.0480  0.1748
 7414SOL    HW133875   1.182   2.935   9.396  0.6868  1.6914 -0.2340
 7414SOL    HW233876   1.160   2.874   9.530  1.2652 -0.1307  0.5667
 7415SOL     OW33877   1.689   1.119   0.414 -0.1112  0.0887 -0.1138
 7415SOL    HW133878   1.766   1.176   0.412  0.7181 -0.9894  1.6769
 7415SOL    HW233879   1.683   1.085   0.325  0.0264 -0.1601 -0.0286
 7416SOL     OW33880   3.227   1.861  10.895 -0.1863  0.7247  0.4502
 7416SOL    HW133881   3.218   1.886  10.987 -1.1566 -2.6112  1.2821
 7416SOL    HW233882   3.273   1.777  10.899 -3.8322 -1.3725 -1.8800
 7417SOL     OW33883   0.148   2.876   4.273 -0.1755 -0.2578  0.1375
 7417SOL    HW133884   0.157   2.853   4.366 -1.8011 -2.9218 -0.3571
 7417SOL    HW233885   0.053   2.873   4.267 -0.4381  4.2466  2.2095
 7418SOL     OW33886   2.186   0.309   2.748 -0.1310  0.2451 -0.4735
 7418SOL    HW133887   2.139   0.293   2.666 -0.8695 -1.5446  0.2945
 7418SOL    HW233888   2.123   0.260   2.801 -1.3651 -1.6556 -3.6854
 7419SOL     OW33889   4.080   0.442   2.451 -0.4111  0.8732  0.1247
 7419SOL    HW133890   4.047   0.511   2.393 -0.8293  0.7894  0.2659
 7419SOL    HW233891   4.112   0.487   2.529  0.2478  0.4667  0.0928
 7420SOL     OW33892   2.048   3.644   9.920 -0.0147  0.3876 -0.3518
 7420SOL    HW133893   2.043   3.730   9.962  2.3526  0.8526 -0.9960
 7420SOL    HW233894   2.083   3.588   9.990 -2.3713 -0.3906  0.2096
 7421SOL     OW33895   1.032   2.314   4.386 -0.3167 -0.2511 -0.4527
 7421SOL    HW133896   1.020   2.250   4.315 -1.4744 -1.5231  0.8888
 7421SOL    HW233897   0.946   2.297   4.425 -0.9719  0.3109 -1.6332
 7422SOL     OW33898   1.110   0.412   3.323  0.8848 -0.2769  0.3670
 7422SOL    HW133899   1.071   0.325   3.319  0.5573 -0.0615 -1.1170
 7422SOL    HW233900   1.044   0.461   3.373  1.1779 -1.6181  2.0557
 7423SOL     OW33901   0.578   4.027   0.626 -0.0626  0.4117  0.4543
 7423SOL    HW133902   0.638   4.101   0.614  3.7827 -3.1275 -2.1309
 7423SOL    HW233903   0.551   3.994   0.541 -2.5971 -0.6757  1.6834
 7424SOL     OW33904   1.339   2.826   3.392  0.0651  0.2584 -0.3681
 7424SOL    HW133905   1.296   2.785   3.317  0.2787  0.9362 -0.8618
 7424SOL    HW233906   1.334   2.920   3.374 -0.6877 -0.4278 -3.8819
 7425SOL     OW33907   2.327   2.891   2.002 -1.0323 -0.2149 -0.6770
 7425SOL    HW133908   2.234   2.875   1.983 -1.0866 -1.0818  0.3021
 7425SOL    HW233909   2.353   2.905   1.911  0.3937 -1.8016 -0.5049
 7426SOL     OW33910   3.497   0.870  12.857  0.4145 -0.3508 -0.0504
 7426SOL    HW133911   3.466   0.806  12.921  0.9906 -2.9726 -2.4310
 7426SOL    HW233912   3.422   0.929  12.857 -1.6139 -2.9581  0.2736
 7427SOL     OW33913   0.381   3.119   8.490  0.2882 -0.2191 -0.2761
 7427SOL    HW133914   0.323   3.102   8.564  2.7550 -0.1718  1.6874
 7427SOL    HW233915   0.375   3.213   8.475  0.0375 -0.0672  0.7363
 7428SOL     OW33916   3.026   1.719   4.454  1.0111  0.0211  0.1127
 7428SOL    HW133917   3.033   1.714   4.359  2.0299 -1.5328  0.2762
 7428SOL    HW233918   3.038   1.628   4.481 -0.4889 -0.0451  0.5550
 7429SOL     OW33919   3.244   0.065   3.692 -0.0233 -0.2599  0.1454
 7429SOL    HW133920   3.309   0.042   3.759  1.3434 -1.8212 -1.7089
 7429SOL    HW233921   3.164   0.019   3.716 -1.3605  0.8978 -2.1208
 7430SOL     OW33922   0.553   3.591   3.046  0.5149 -0.4137  0.5127
 7430SOL    HW133923   0.543   3.499   3.071  2.2827 -1.0055 -0.9525
 7430SOL    HW233924   0.627   3.612   3.102 -1.1758 -2.2842  3.4774
 7431SOL     OW33925   1.243   3.008  10.052 -0.4834 -0.2505 -0.3836
 7431SOL    HW133926   1.313   3.028  10.115 -2.1097 -1.3767  1.7529
 7431SOL    HW233927   1.176   3.065  10.090 -0.1099  0.7214 -1.1559
 7432SOL     OW33928   3.519   2.556   4.539 -0.3954  0.2348 -0.9856
 7432SOL    HW133929   3.454   2.623   4.517 -1.9091 -1.0243 -0.4227
 7432SOL    HW233930   3.465   2.492   4.586 -1.2126  1.7397  0.1310
 7433SOL     OW33931   4.373   2.650  15.840 -0.3061 -0.9837 -0.0779
 7433SOL    HW133932   4.360   2.647  15.935  0.7048 -0.2106  0.0853
 7433SOL    HW233933   4.312   2.580  15.819 -2.2340  0.4505  0.6446
 7434SOL     OW33934   4.278   1.325   8.598 -0.0287  0.2538  0.0214
 7434SOL    HW133935   4.307   1.240   8.565  0.2854  0.5766 -0.5404
 7434SOL    HW233936   4.201   1.300   8.650  0.7236  2.3819  2.1498
 7435SOL     OW33937   0.141   0.151  15.183  0.0775  0.0273 -0.2399
 7435SOL    HW133938   0.158   0.135  15.090  1.7635 -1.3588  0.3055
 7435SOL    HW233939   0.230   0.166  15.216  0.0590  0.6424 -0.4853
 7436SOL     OW33940   3.778   2.060   2.464 -0.4137 -0.2034  0.5147
 7436SOL    HW133941   3.689   2.033   2.487 -1.2601  1.3429 -0.9546
 7436SOL    HW233942   3.813   1.989   2.411  0.2151  1.4918 -1.3300
 7437SOL     OW33943   3.906   2.878   8.395 -0.0517  0.1722 -0.2101
 7437SOL    HW133944   4.000   2.871   8.378 -0.4868 -1.4135 -1.9102
 7437SOL    HW233945   3.908   2.958   8.448  0.3674  0.1080 -0.1263
 7438SOL     OW33946   1.963   3.827   8.079 -0.1878 -0.8011  0.0011
 7438SOL    HW133947   1.979   3.865   8.165 -0.1765  1.8976 -1.1832
 7438SOL    HW233948   1.880   3.779   8.087 -1.1607  0.5149 -2.0392
 7439SOL     OW33949   2.127   4.421   3.737 -0.6240  0.5020 -0.0406
 7439SOL    HW133950   2.110   4.514   3.723  0.2742  0.9051  1.6410
 7439SOL    HW233951   2.082   4.395   3.656  2.1051 -1.0733 -1.0626
 7440SOL     OW33952   1.043   3.431   4.218  0.2846  0.5200  0.0223
 7440SOL    HW133953   1.031   3.432   4.123 -1.1886  0.5117  0.2037
 7440SOL    HW233954   1.134   3.450   4.238  1.1790 -1.8546 -1.7792
 7441SOL     OW33955   1.844   4.635   4.626  0.8744 -0.3713 -0.1367
 7441SOL    HW133956   1.923   4.681   4.595  0.6220 -0.3223 -0.7107
 7441SOL    HW233957   1.807   4.625   4.538  0.7467  0.6849 -0.2085
 7442SOL     OW33958   1.863   0.096   0.431 -0.4466 -0.4178  0.1818
 7442SOL    HW133959   1.863   0.021   0.371 -0.5064  0.5552 -1.0391
 7442SOL    HW233960   1.921   0.153   0.379  1.5869 -2.0439  0.6704
 7443SOL     OW33961   0.447   3.942   6.119  0.5199 -0.7312  0.0542
 7443SOL    HW133962   0.452   4.005   6.191 -0.0027 -1.8044  1.0310
 7443SOL    HW233963   0.529   3.893   6.121  0.3694 -0.9495  0.9102
 7444SOL     OW33964   4.120   3.415   8.063 -0.1931 -0.3746  0.4124
 7444SOL    HW133965   4.089   3.506   8.059  0.0882 -0.2918  0.1213
 7444SOL    HW233966   4.151   3.418   8.154 -0.8134  0.1312  0.6064
 7445SOL     OW33967   4.546   4.346   8.466  0.8176  1.1853  0.2828
 7445SOL    HW133968   4.571   4.367   8.556  2.7424  0.0761  0.0152
 7445SOL    HW233969   4.456   4.377   8.465 -0.1765 -1.7059  0.4832
 7446SOL     OW33970   0.676   3.841   5.490  0.2926  0.1530  0.2563
 7446SOL    HW133971   0.756   3.866   5.537 -0.8405  5.4018 -0.5969
 7446SOL    HW233972   0.627   3.794   5.557 -1.0731  2.7213  1.0785
 7447SOL     OW33973   0.608   1.416  14.118  0.0098  0.3160 -0.9045
 7447SOL    HW133974   0.677   1.429  14.052 -0.6752  1.0413 -1.4709
 7447SOL    HW233975   0.625   1.497  14.167 -3.2231  0.3180  0.2341
 7448SOL     OW33976   0.537   0.427   7.700 -0.9950 -0.1241  0.0966
 7448SOL    HW133977   0.628   0.423   7.727 -1.5285  0.9778  2.0516
 7448SOL    HW233978   0.505   0.408   7.788 -0.8284  2.9362  0.8148
 7449SOL     OW33979   1.523   2.289   4.149 -0.4788 -0.1950  0.1726
 7449SOL    HW133980   1.555   2.374   4.121  0.0655 -0.8905 -1.3018
 7449SOL    HW233981   1.580   2.270   4.223  0.0391  1.5895  0.2258
 7450SOL     OW33982   1.935   1.245  17.432  0.4694  0.3541  0.0275
 7450SOL    HW133983   1.990   1.204  17.365 -0.0635  1.7940 -1.2755
 7450SOL    HW233984   1.847   1.225  17.400  0.8707  0.0561 -0.8901
 7451SOL     OW33985   1.528   1.811  10.227  0.1350 -0.4520  0.4001
 7451SOL    HW133986   1.506   1.902  10.245  1.0748  0.1362 -1.4307
 7451SOL    HW233987   1.556   1.785  10.315  0.4852 -2.1510 -0.1945
 7452SOL     OW33988   1.508   0.690   9.281 -0.2186  0.0073 -0.1973
 7452SOL    HW133989   1.454   0.720   9.207 -0.5436  0.4909  0.2298
 7452SOL    HW233990   1.596   0.717   9.254 -0.3733  0.5298 -0.1963
 7453SOL     OW33991   0.174   1.612   4.882 -0.0844 -0.0401  0.0258
 7453SOL    HW133992   0.139   1.622   4.971  0.4053 -1.4222  0.3699
 7453SOL    HW233993   0.267   1.632   4.896 -0.4670  1.2679  0.7105
 7454SOL     OW33994   2.394   3.542  13.718  0.2476  0.1967  0.2924
 7454SOL    HW133995   2.373   3.495  13.637 -1.5180 -0.0119  0.8827
 7454SOL    HW233996   2.325   3.511  13.776  1.5099  0.5345  1.9413
 7455SOL     OW33997   3.442   1.607   2.950  0.0940 -0.3841  0.9695
 7455SOL    HW133998   3.444   1.576   2.860  0.2048  0.3263  0.7265
 7455SOL    HW233999   3.404   1.694   2.941 -3.9204 -2.1336  0.9512
 7456SOL     OW34000   1.302   4.682   8.201  0.0058 -0.3719 -0.4337
 7456SOL    HW134001   1.345   0.010   8.146 -1.5047  0.3847 -0.6876
 7456SOL    HW234002   1.324   4.720   8.286 -1.9764  0.2712 -0.2281
 7457SOL     OW34003   0.216   1.763   6.249  0.7127  0.1916 -0.1049
 7457SOL    HW134004   0.257   1.847   6.266 -1.4669  0.8954  1.6346
 7457SOL    HW234005   0.129   1.784   6.214  1.1829  2.1707 -0.0849
 7458SOL     OW34006   3.567   0.982   9.419  0.1643  0.4826 -0.1754
 7458SOL    HW134007   3.509   0.973   9.495  1.3430 -1.3579  0.5186
 7458SOL    HW234008   3.631   1.048   9.446 -0.7660  0.6406  1.6020
 7459SOL     OW34009   3.898   2.337  15.429 -0.1556  0.5971 -0.1536
 7459SOL    HW134010   3.897   2.431  15.414  0.7861  0.5931 -0.2362
 7459SOL    HW234011   3.898   2.313  15.337 -1.5923 -0.2370  0.0608
 7460SOL     OW34012   3.758   1.526   5.397 -0.0020 -0.5528 -0.1296
 7460SOL    HW134013   3.792   1.595   5.341  0.8240 -0.3738  0.5936
 7460SOL    HW234014   3.682   1.499   5.344 -0.1875 -0.7502  0.2378
 7461SOL     OW34015   2.097   2.738   2.095  0.1310  0.2456 -0.0027
 7461SOL    HW134016   2.053   2.821   2.079 -1.4539 -0.5961  0.0118
 7461SOL    HW234017   2.104   2.740   2.190  2.5559  0.3107 -0.1662
 7462SOL     OW34018   0.668   0.209   9.895  0.3681 -0.6865 -0.0206
 7462SOL    HW134019   0.743   0.260   9.924 -1.6784  1.7529  0.9718
 7462SOL    HW234020   0.704   0.149   9.830  0.6566 -1.0838  0.5055
 7463SOL     OW34021   1.021   3.017   7.082  0.3293  0.2379 -0.1506
 7463SOL    HW134022   1.102   3.041   7.037  0.3775 -0.8586 -0.6399
 7463SOL    HW234023   1.063   2.945   7.128  0.1578 -0.0803 -0.4938
 7464SOL     OW34024   2.331   1.195  14.709  0.0646  0.1744 -0.2151
 7464SOL    HW134025   2.262   1.188  14.643 -0.9357  0.6957  0.7608
 7464SOL    HW234026   2.394   1.256  14.670  0.3736  1.2578  1.9686
 7465SOL     OW34027   0.218   0.651   2.186 -0.0733 -0.3650 -0.2929
 7465SOL    HW134028   0.307   0.686   2.198 -0.8387  1.3869  0.2104
 7465SOL    HW234029   0.233   0.561   2.215 -1.8389 -0.7454 -0.6143
 7466SOL     OW34030   0.389   1.270  16.074 -0.7146  0.2151 -0.2177
 7466SOL    HW134031   0.299   1.266  16.044 -1.5632  1.1596  2.2283
 7466SOL    HW234032   0.389   1.329  16.149 -1.4041 -1.6968  1.2961
 7467SOL     OW34033   0.606   1.090   4.333 -0.3121 -0.2569  0.3096
 7467SOL    HW134034   0.590   1.115   4.424 -3.4243  0.2828 -0.3906
 7467SOL    HW234035   0.701   1.093   4.330 -0.4403  0.4135 -3.0285
 7468SOL     OW34036   2.808   4.570  13.417 -0.2675  0.0200  0.5332
 7468SOL    HW134037   2.886   4.588  13.470 -0.1353 -1.4790  0.8503
 7468SOL    HW234038   2.794   4.478  13.439 -1.5662 -0.1589 -1.1128
 7469SOL     OW34039   4.616   3.339   3.880 -0.1526  0.9579  0.0443
 7469SOL    HW134040   4.635   3.247   3.861 -0.4287  0.2921  2.8411
 7469SOL    HW234041   4.687   3.366   3.939  1.6729 -1.1880 -1.1993
 7470SOL     OW34042   2.186   2.311   1.258 -0.4376  0.0733  0.0451
 7470SOL    HW134043   2.281   2.316   1.269 -0.2602  2.0232 -2.2710
 7470SOL    HW234044   2.160   2.298   1.349 -1.2177  0.5910 -0.1045
 7471SOL     OW34045   0.975   1.882   2.313 -0.7268 -0.0135 -0.9329
 7471SOL    HW134046   0.940   1.794   2.323 -0.1991 -0.3237 -1.8237
 7471SOL    HW234047   0.974   1.893   2.218  2.2533 -0.2031 -0.9858
 7472SOL     OW34048   0.649   1.264   5.639  0.3628 -0.4569  0.0395
 7472SOL    HW134049   0.706   1.214   5.580  1.8977  0.6416  0.6013
 7472SOL    HW234050   0.572   1.211   5.615 -1.0122  0.9607  1.3061
 7473SOL     OW34051   4.358   3.433   4.024 -0.3718  0.4009 -0.6071
 7473SOL    HW134052   4.299   3.486   3.970 -0.7592  1.4224  0.8263
 7473SOL    HW234053   4.433   3.416   3.966 -0.9664 -0.3359 -1.1601
 7474SOL     OW34054   2.971   1.048   2.413 -0.7438 -0.0802  0.0321
 7474SOL    HW134055   2.877   1.051   2.392 -0.8709 -0.7152  0.5094
 7474SOL    HW234056   3.018   1.081   2.337 -2.1800 -0.4474 -1.0200
 7475SOL     OW34057   1.579   4.237  12.205  0.2839 -0.0211  0.2032
 7475SOL    HW134058   1.566   4.317  12.155 -0.1773  0.5218  1.1863
 7475SOL    HW234059   1.503   4.246  12.262 -1.7436 -0.0859 -2.4915
 7476SOL     OW34060   2.473   0.729   4.752  0.2214  0.3676  0.4336
 7476SOL    HW134061   2.534   0.771   4.691  1.6914 -2.3675  0.0493
 7476SOL    HW234062   2.443   0.660   4.694  0.4987  0.0912  0.6171
 7477SOL     OW34063   1.764   0.308   3.478 -0.1853 -0.1923 -0.2660
 7477SOL    HW134064   1.859   0.301   3.474 -0.0754  0.7998  0.7224
 7477SOL    HW234065   1.746   0.347   3.393 -1.1273  1.9685  0.9215
 7478SOL     OW34066   1.509   1.802  12.478  0.3412  0.0293  0.2742
 7478SOL    HW134067   1.454   1.723  12.474  0.8143 -0.1908 -1.7640
 7478SOL    HW234068   1.592   1.765  12.450 -0.5422 -2.1439  0.5505
 7479SOL     OW34069   2.738   3.153   2.426  0.0867  0.0035 -0.0328
 7479SOL    HW134070   2.725   3.058   2.422  2.7073 -0.1805 -4.0032
 7479SOL    HW234071   2.761   3.174   2.336 -0.7020  0.2533 -0.1758
 7480SOL     OW34072   4.279   3.542   5.312  0.6586 -0.0664  0.7452
 7480SOL    HW134073   4.365   3.537   5.269  1.0631  4.0829  1.1176
 7480SOL    HW234074   4.265   3.635   5.327 -0.7355  0.1253 -1.7545
 7481SOL     OW34075   3.850   3.485   3.784 -0.4207 -0.2332  0.4609
 7481SOL    HW134076   3.803   3.498   3.701  1.8188 -0.8231 -0.9250
 7481SOL    HW234077   3.931   3.535   3.768 -1.2117  1.3625  1.5646
 7482SOL     OW34078   3.036   3.301   4.254  0.6256 -0.4642  0.1307
 7482SOL    HW134079   3.111   3.329   4.202 -0.7422  0.6076 -1.2888
 7482SOL    HW234080   3.071   3.226   4.302  0.9610 -1.6608 -2.0094
 7483SOL     OW34081   4.737   4.661   3.398 -0.2956 -0.0755 -0.2694
 7483SOL    HW134082   4.733   4.567   3.416  0.5808 -0.3173 -1.3205
 7483SOL    HW234083   4.699   4.674   3.311  1.9146  1.7935 -0.9537
 7484SOL     OW34084   2.387   1.332   7.241  0.2501 -0.2219 -0.2869
 7484SOL    HW134085   2.301   1.372   7.252  0.3340 -0.2607  0.4964
 7484SOL    HW234086   2.406   1.368   7.154 -1.2426  1.0596 -0.0725
 7485SOL     OW34087   4.542   2.844   5.385  0.2911  0.6591 -0.0442
 7485SOL    HW134088   4.463   2.850   5.331 -0.7690  2.1345  1.6364
 7485SOL    HW234089   4.530   2.922   5.440  0.5771  0.6198  0.0721
 7486SOL     OW34090   3.452   0.639   8.957 -0.0056 -0.9496  0.3208
 7486SOL    HW134091   3.536   0.678   8.931 -0.4247 -1.1616 -1.4052
 7486SOL    HW234092   3.411   0.703   9.015 -0.1524  0.6660 -1.5278
 7487SOL     OW34093   3.093   0.756  15.186 -0.0668 -0.4894  0.0987
 7487SOL    HW134094   3.059   0.682  15.136 -1.7384  1.0539 -1.0209
 7487SOL    HW234095   3.145   0.708  15.251  0.3337 -0.0864  0.0840
 7488SOL     OW34096   0.087   2.740  14.003  0.1354 -0.2710  0.0137
 7488SOL    HW134097   0.059   2.652  13.981 -2.2871  1.0386 -2.0879
 7488SOL    HW234098   0.018   2.796  13.967 -0.1957 -1.1203 -0.6685
 7489SOL     OW34099   3.509   4.326   9.184 -0.3749 -0.0062  0.4360
 7489SOL    HW134100   3.578   4.331   9.117 -0.7244 -1.1128 -0.0123
 7489SOL    HW234101   3.447   4.382   9.139  0.1181 -0.4565 -0.8293
 7490SOL     OW34102   1.805   0.528  14.012 -0.1158 -0.2434  0.4057
 7490SOL    HW134103   1.856   0.532  14.094 -1.6353 -0.6476  1.3720
 7490SOL    HW234104   1.873   0.484  13.961  0.1746  1.4697 -0.6938
 7491SOL     OW34105   1.611   1.086   4.668 -0.2243  0.6128 -0.2032
 7491SOL    HW134106   1.701   1.077   4.699  0.8661  3.0536 -2.6225
 7491SOL    HW234107   1.619   1.019   4.599  0.2850 -0.1422  0.5958
 7492SOL     OW34108   4.654   3.907   8.016 -0.5060  0.1771 -0.3198
 7492SOL    HW134109   4.628   3.817   7.996  1.6568 -0.1052 -1.8712
 7492SOL    HW234110   4.626   3.910   8.107 -3.2058 -2.0954 -1.0862
 7493SOL     OW34111   1.421   0.858   2.263  0.2146 -0.4553  0.0667
 7493SOL    HW134112   1.378   0.805   2.330  1.4347 -0.7569  0.6168
 7493SOL    HW234113   1.448   0.799   2.192 -0.9924 -1.1514  0.1932
 7494SOL     OW34114   0.476   2.626   2.946  0.0921  0.7577 -0.1018
 7494SOL    HW134115   0.405   2.680   2.910 -0.4785  0.1434  0.1172
 7494SOL    HW234116   0.426   2.574   3.009  1.4090 -0.0847  0.2321
 7495SOL     OW34117   3.554   2.644   7.695  0.0247  0.3509 -0.2103
 7495SOL    HW134118   3.581   2.722   7.743 -1.6822  0.5500  0.4059
 7495SOL    HW234119   3.490   2.611   7.757 -0.3535  0.9516 -0.2824
 7496SOL     OW34120   2.313   3.450  13.473 -0.3238 -0.2271  0.1336
 7496SOL    HW134121   2.230   3.432  13.427  0.4550 -1.3384 -0.8443
 7496SOL    HW234122   2.360   3.368  13.457 -1.4943 -1.0674  0.9537
 7497SOL     OW34123   4.320   1.943  17.748  0.1969 -0.0523  0.1471
 7497SOL    HW134124   4.369   1.906   0.073  0.3879 -0.2635 -0.0857
 7497SOL    HW234125   4.300   2.029   0.037  1.4878  0.7682 -0.9950
 7498SOL     OW34126   4.352   4.427   3.620 -0.1548  0.4465  0.7541
 7498SOL    HW134127   4.432   4.460   3.661  0.8043 -0.7007 -0.1847
 7498SOL    HW234128   4.361   4.472   3.536 -3.4699 -1.2511 -0.5033
 7499SOL     OW34129   2.758   1.420  10.219  0.2493 -0.1131 -0.2605
 7499SOL    HW134130   2.736   1.383  10.305 -0.2052  0.5605 -0.0813
 7499SOL    HW234131   2.854   1.413  10.219  0.3357  1.1493 -1.7523
 7500SOL     OW34132   3.616   1.196  14.280 -0.3736 -0.4682 -0.0852
 7500SOL    HW134133   3.532   1.218  14.241 -0.3660 -0.4034 -0.0657
 7500SOL    HW234134   3.588   1.146  14.357 -1.7201  1.6490  0.7856
 7501SOL     OW34135   2.270   2.787   5.956  0.2760  0.3199  0.7882
 7501SOL    HW134136   2.233   2.868   5.921 -2.0472 -0.3840  1.6506
 7501SOL    HW234137   2.218   2.728   5.901  1.6465  1.0613 -1.3252
 7502SOL     OW34138   3.824   4.618  15.649  0.8077 -0.7999 -0.0891
 7502SOL    HW134139   3.876   4.641  15.572 -0.9427  1.5985 -0.5695
 7502SOL    HW234140   3.737   4.600  15.613 -0.8537  1.4644  2.7783
 7503SOL     OW34141   4.143   2.699   4.927 -0.2197 -0.5237 -0.2578
 7503SOL    HW134142   4.207   2.646   4.880  1.0267  0.8496 -0.1101
 7503SOL    HW234143   4.100   2.631   4.978  1.0082  0.3268  1.9514
 7504SOL     OW34144   2.897   2.505   5.210 -0.7988 -0.3773  0.0426
 7504SOL    HW134145   2.852   2.421   5.212 -1.5514  0.0310  0.5485
 7504SOL    HW234146   2.854   2.552   5.281  0.5679  0.7229  0.1513
 7505SOL     OW34147   2.102   1.232   9.206  0.7503 -0.2456  1.0077
 7505SOL    HW134148   2.081   1.166   9.140 -0.3591  1.8093 -0.6968
 7505SOL    HW234149   2.016   1.275   9.203  0.9894  0.0678 -1.1178
 7506SOL     OW34150   0.781   4.555   4.576  0.1766  0.2836  0.1481
 7506SOL    HW134151   0.744   4.474   4.610  1.3555  0.3746  1.6795
 7506SOL    HW234152   0.813   4.599   4.655 -0.5093 -0.6912  0.9698
 7507SOL     OW34153   0.106   2.980  14.978 -0.0519  0.1231 -0.1072
 7507SOL    HW134154   0.170   2.928  15.026  0.0141  2.7324  2.5950
 7507SOL    HW234155   0.127   2.945  14.891 -0.0230  4.0500 -1.6751
 7508SOL     OW34156   3.143   2.799  12.861  0.2030 -0.6761  0.1183
 7508SOL    HW134157   3.171   2.740  12.931  2.4049  1.1872  0.7739
 7508SOL    HW234158   3.204   2.871  12.873 -0.9838  0.5599 -1.2432
 7509SOL     OW34159   1.156   2.835   4.603 -0.2259  0.0950 -0.0508
 7509SOL    HW134160   1.246   2.853   4.576  0.2861 -0.8889  1.0047
 7509SOL    HW234161   1.164   2.745   4.635  1.9244 -0.7956 -3.0039
 7510SOL     OW34162   4.483   0.853   9.333 -0.2566 -0.2097  0.2124
 7510SOL    HW134163   4.404   0.893   9.371  0.8287  1.3023  0.8670
 7510SOL    HW234164   4.542   0.924   9.310 -1.4756  0.5100 -0.6774
 7511SOL     OW34165   4.521   3.748   4.472  0.0752 -0.6347  0.0486
 7511SOL    HW134166   4.496   3.841   4.470  1.3177 -0.2097  3.0202
 7511SOL    HW234167   4.472   3.718   4.549 -2.5110  1.2906 -0.8544
 7512SOL     OW34168   2.312   2.610  13.337  0.7760  0.3453  0.1747
 7512SOL    HW134169   2.355   2.690  13.366 -1.2365  1.5516 -0.1744
 7512SOL    HW234170   2.255   2.584  13.409 -0.8280 -1.7710 -1.8713
 7513SOL     OW34171   1.213   0.737   9.172  0.0321 -0.3105 -0.0293
 7513SOL    HW134172   1.169   0.817   9.198  0.8592 -0.0544  0.6011
 7513SOL    HW234173   1.295   0.781   9.149 -1.4278  2.0574 -0.5871
 7514SOL     OW34174   1.042   3.908   6.905  0.4026  0.4238  0.0649
 7514SOL    HW134175   1.040   3.816   6.879 -0.9503  0.8336 -1.2512
 7514SOL    HW234176   0.990   3.910   6.986  3.5120  0.9400  2.0551
 7515SOL     OW34177   3.065   0.390   8.505 -0.3150  0.3858  0.1050
 7515SOL    HW134178   3.075   0.295   8.500 -0.8806  0.2656  1.1912
 7515SOL    HW234179   3.124   0.420   8.435 -2.2695  2.8820 -0.4509
 7516SOL     OW34180   1.636   2.585   1.699 -0.0607  0.7352 -0.4906
 7516SOL    HW134181   1.600   2.511   1.747 -1.1193  1.9874  0.6148
 7516SOL    HW234182   1.572   2.618   1.636  0.0890  1.9647  0.0137
 7517SOL     OW34183   4.260   1.951  10.749  0.0902  0.1613  0.2263
 7517SOL    HW134184   4.291   2.041  10.740 -0.1693  0.0332 -1.9644
 7517SOL    HW234185   4.316   1.908  10.684  0.3471 -0.3437  0.7884
 7518SOL     OW34186   2.700   1.381   6.409 -0.1673 -0.1973  0.2131
 7518SOL    HW134187   2.709   1.443   6.482  0.7901  2.1035 -1.8841
 7518SOL    HW234188   2.715   1.297   6.453 -0.7497 -0.5033 -0.1720
 7519SOL     OW34189   0.756   0.179   3.058 -0.2371  0.2150  0.4944
 7519SOL    HW134190   0.819   0.118   3.019  0.8948  1.3971  0.4995
 7519SOL    HW234191   0.774   0.152   3.148  3.5307  2.6258  0.4704
 7520SOL     OW34192   3.173   2.060  14.866 -0.6669 -0.1131  0.2648
 7520SOL    HW134193   3.110   2.092  14.930  1.1175 -0.8240  2.3679
 7520SOL    HW234194   3.149   2.117  14.793 -0.5834  0.4090  0.6433
 7521SOL     OW34195   1.128   3.394   7.939  0.0437 -0.2526  0.0864
 7521SOL    HW134196   1.116   3.300   7.949 -1.0151 -0.1321 -0.0648
 7521SOL    HW234197   1.154   3.406   7.847 -2.6400 -2.4519 -0.9551
 7522SOL     OW34198   2.061   0.988  16.594 -0.3979 -0.2909 -0.4344
 7522SOL    HW134199   2.080   1.063  16.537 -0.7623 -0.8126 -1.2414
 7522SOL    HW234200   1.978   1.009  16.636  1.1313  3.0655  0.8856
 7523SOL     OW34201   0.243   1.423   7.332  0.1869  0.3971 -0.6086
 7523SOL    HW134202   0.284   1.386   7.254 -0.0995 -1.4591  0.1189
 7523SOL    HW234203   0.226   1.343   7.383  2.1927  1.4388  1.7096
 7524SOL     OW34204   2.540   2.344  16.555 -0.3462  0.2468  0.1751
 7524SOL    HW134205   2.627   2.370  16.526 -1.3319  2.6556 -0.6642
 7524SOL    HW234206   2.469   2.380  16.502 -0.7942  1.2310  1.4267
 7525SOL     OW34207   1.964   2.719  16.417  0.9398  0.3772 -0.1046
 7525SOL    HW134208   1.989   2.633  16.451  0.0382  1.1035  2.3998
 7525SOL    HW234209   2.037   2.735  16.357  0.7112 -2.2900 -1.0917
 7526SOL     OW34210   2.173   1.756   5.392  0.0062 -0.4513  0.4046
 7526SOL    HW134211   2.121   1.828   5.357  0.1288 -1.0587 -1.0716
 7526SOL    HW234212   2.134   1.763   5.479 -0.7758  1.3409 -0.0899
 7527SOL     OW34213   1.105   2.608  15.705  0.3879  0.0171 -0.1529
 7527SOL    HW134214   1.093   2.693  15.746 -0.4261 -0.3739  0.4140
 7527SOL    HW234215   1.140   2.646  15.625  0.3180 -1.1266 -0.7312
 7528SOL     OW34216   0.414   1.912   7.121 -0.5772  0.2987 -0.4891
 7528SOL    HW134217   0.461   1.851   7.178 -0.7210  1.7223  1.1330
 7528SOL    HW234218   0.347   1.859   7.077 -2.6244  1.0127  1.8233
 7529SOL     OW34219   3.875   3.952   9.637 -0.0885 -0.5422 -0.3301
 7529SOL    HW134220   3.830   4.025   9.680  1.1994  0.0597 -0.0133
 7529SOL    HW234221   3.860   3.964   9.543  0.6424 -1.4717 -0.5518
 7530SOL     OW34222   3.959   3.491   3.265  0.2164 -0.1979 -0.6605
 7530SOL    HW134223   3.979   3.572   3.312  0.8766 -0.7141 -0.0543
 7530SOL    HW234224   3.866   3.505   3.245 -0.4258  2.4573  3.9565
 7531SOL     OW34225   3.593   0.691   4.525  0.8483  0.2364 -0.3037
 7531SOL    HW134226   3.518   0.713   4.580 -0.0955  1.3665 -2.0398
 7531SOL    HW234227   3.624   0.781   4.527 -0.7119  0.7531  0.3466
 7532SOL     OW34228   4.360   0.568   4.544  0.4933  0.3560  0.0799
 7532SOL    HW134229   4.429   0.611   4.594  1.4283 -1.6096  0.4766
 7532SOL    HW234230   4.305   0.532   4.615 -0.5167  1.5055 -0.1213
 7533SOL     OW34231   4.485   1.786   3.857 -0.5145 -0.3706  0.3671
 7533SOL    HW134232   4.426   1.839   3.910  1.7329  0.2096  2.2809
 7533SOL    HW234233   4.462   1.696   3.880  1.6900 -1.6473 -2.3459
 7534SOL     OW34234   1.664   1.969   6.865 -0.0273 -0.0281  0.6101
 7534SOL    HW134235   1.734   1.904   6.869  0.5461  0.4711 -1.3370
 7534SOL    HW234236   1.635   1.953   6.775  0.6902  0.9945  0.1921
 7535SOL     OW34237   1.310   3.270  11.937 -0.3044  0.2370  0.3038
 7535SOL    HW134238   1.379   3.299  11.996  0.7171  2.0245 -1.7560
 7535SOL    HW234239   1.305   3.344  11.877 -0.5229  0.2096  0.2853
 7536SOL     OW34240   0.314   0.438   4.407 -0.2083 -0.0542  0.5611
 7536SOL    HW134241   0.242   0.469   4.351 -0.8612  0.7159  1.8156
 7536SOL    HW234242   0.294   0.345   4.404 -0.8994  0.2442 -4.0823
 7537SOL     OW34243   1.705   0.284  11.003  0.4672  0.3569  0.1545
 7537SOL    HW134244   1.716   0.219  10.933  0.0523  1.4332 -0.9258
 7537SOL    HW234245   1.667   0.233  11.074 -2.3543  2.3096  0.0736
 7538SOL     OW34246   3.727   4.078   7.743 -0.2562 -0.0749  0.6773
 7538SOL    HW134247   3.763   4.133   7.812  2.8996 -0.1626 -0.8851
 7538SOL    HW234248   3.694   4.007   7.797 -0.5536  0.6257  1.4074
 7539SOL     OW34249   4.576   0.559   8.886 -0.5012 -0.5594  0.7393
 7539SOL    HW134250   4.518   0.602   8.949 -2.1207 -0.8666 -0.5512
 7539SOL    HW234251   4.638   0.627   8.856 -1.4440  0.3475  0.8544
 7540SOL     OW34252   3.062   1.122   7.658  0.6842 -0.0445 -0.3346
 7540SOL    HW134253   2.967   1.112   7.653  0.6398  1.2281 -2.0575
 7540SOL    HW234254   3.090   1.137   7.568 -0.1620  1.9790 -0.2699
 7541SOL     OW34255   2.878   4.401   4.308 -0.0688 -0.0507  0.0435
 7541SOL    HW134256   2.927   4.407   4.391 -1.0555 -1.2689  0.7133
 7541SOL    HW234257   2.885   4.490   4.273 -0.8166 -0.1300 -0.3028
 7542SOL     OW34258   3.292   0.148  10.430 -0.0547  0.3243 -0.0823
 7542SOL    HW134259   3.329   0.225  10.386  3.1842 -0.4014  1.3691
 7542SOL    HW234260   3.367   0.089  10.440 -1.3264 -1.1162  0.8311
 7543SOL     OW34261   1.218   0.573   2.031 -0.2928  0.2418  0.4682
 7543SOL    HW134262   1.164   0.636   2.080 -0.7564  0.5765 -0.4695
 7543SOL    HW234263   1.160   0.498   2.043 -2.0937  1.6724  0.8186
 7544SOL     OW34264   0.904   2.345   3.147 -0.3014 -0.2999  0.6503
 7544SOL    HW134265   0.895   2.370   3.055  0.8928 -2.6289 -0.0865
 7544SOL    HW234266   0.869   2.256   3.156  1.3104 -1.1334 -1.4559
 7545SOL     OW34267   3.967   3.101   4.742  0.3463 -0.1520 -0.2385
 7545SOL    HW134268   3.986   3.063   4.657  2.5429 -1.0443  0.6481
 7545SOL    HW234269   4.012   3.041   4.802 -0.7261  0.7184  1.4192
 7546SOL     OW34270   1.969   3.081   3.569 -0.7706  0.7277 -0.5846
 7546SOL    HW134271   2.062   3.060   3.559 -1.2873 -1.1622 -1.5012
 7546SOL    HW234272   1.945   3.120   3.485 -2.9989  1.6941  0.4992
 7547SOL     OW34273   4.208   2.524   7.081 -0.3283 -0.0613 -0.5105
 7547SOL    HW134274   4.163   2.487   7.005  1.2521 -0.7607 -1.1113
 7547SOL    HW234275   4.217   2.464   7.154 -2.2657  0.6169  0.2904
 7548SOL     OW34276   3.114   4.153   6.740 -0.5202  0.0366 -0.3989
 7548SOL    HW134277   3.037   4.189   6.783 -0.9702 -0.9411 -0.3977
 7548SOL    HW234278   3.091   4.060   6.745  2.6399 -0.7544 -0.6260
 7549SOL     OW34279   0.410   2.093   1.837 -0.5087 -0.4849  0.3118
 7549SOL    HW134280   0.484   2.108   1.896 -0.8390  5.0549 -0.6947
 7549SOL    HW234281   0.431   2.000   1.822 -2.0873 -1.1011  1.9372
 7550SOL     OW34282   4.489   4.471   0.902 -0.1913  0.0242  0.0303
 7550SOL    HW134283   4.421   4.500   0.841 -0.7291 -0.9758  0.1551
 7550SOL    HW234284   4.507   4.552   0.949  0.7325 -1.6803  2.5752
 7551SOL     OW34285   1.534   1.453   6.606  0.1555  0.0138 -0.0796
 7551SOL    HW134286   1.578   1.538   6.598  1.2986 -0.5224  0.4196
 7551SOL    HW234287   1.461   1.458   6.544  1.7167  2.1040 -1.7504
 7552SOL     OW34288   0.965   1.149   7.682 -0.2196 -0.1550 -0.8181
 7552SOL    HW134289   0.918   1.097   7.748 -1.3177  1.6240 -0.1775
 7552SOL    HW234290   1.003   1.221   7.733 -1.2638  0.5475 -1.0340
 7553SOL     OW34291   3.281   1.723  12.237  0.2236  0.0848 -0.8269
 7553SOL    HW134292   3.259   1.688  12.151  1.4226 -3.9721  0.5422
 7553SOL    HW234293   3.200   1.716  12.288  0.1969 -0.3628 -0.9349
 7554SOL     OW34294   1.002   4.200   0.665  0.1616 -0.0352  0.0666
 7554SOL    HW134295   1.089   4.240   0.668  0.3614 -0.2593 -2.8528
 7554SOL    HW234296   0.959   4.254   0.731 -1.2904  0.8383 -1.5947
 7555SOL     OW34297   1.088   4.613   7.748 -0.0033  0.4483 -0.0450
 7555SOL    HW134298   1.089   4.704   7.776  0.6785  0.4986 -0.2346
 7555SOL    HW234299   1.087   4.572   7.834  1.7125  1.5315  0.4823
 7556SOL     OW34300   2.826   3.574  10.828 -0.4754  0.1000 -0.6285
 7556SOL    HW134301   2.832   3.505  10.762 -0.5117 -1.1795  0.7128
 7556SOL    HW234302   2.762   3.544  10.892 -1.3081 -0.2496 -1.6261
 7557SOL     OW34303   2.394   0.796  11.771  0.5231  0.2537  0.3889
 7557SOL    HW134304   2.330   0.826  11.835  1.5982  2.7857  0.2853
 7557SOL    HW234305   2.423   0.713  11.809  2.7228 -0.2058 -2.2433
 7558SOL     OW34306   0.742   0.816  15.569  0.6339 -0.6806 -0.0908
 7558SOL    HW134307   0.732   0.910  15.579  2.8637 -0.5188  0.5293
 7558SOL    HW234308   0.675   0.799  15.502  0.1172  1.6710 -0.1478
 7559SOL     OW34309   2.523   0.722  16.452 -0.3565 -0.3486  0.6619
 7559SOL    HW134310   2.435   0.688  16.472 -1.6222  1.6753 -1.4990
 7559SOL    HW234311   2.529   0.808  16.495  2.7999 -0.3603  0.2526
 7560SOL     OW34312   3.887   0.955   8.366  0.1962 -0.7030 -0.6885
 7560SOL    HW134313   3.891   0.871   8.319  1.4575 -2.8716  3.2593
 7560SOL    HW234314   3.844   1.000   8.294 -0.4850 -2.2278 -1.2514
 7561SOL     OW34315   3.394   2.759  11.952 -0.2478 -0.1478  0.6379
 7561SOL    HW134316   3.306   2.727  11.973  0.2999 -1.5344  0.8272
 7561SOL    HW234317   3.424   2.791  12.038 -0.3022  1.0794  0.1907
 7562SOL     OW34318   4.334   1.597   7.785  0.2042 -0.0724 -0.2589
 7562SOL    HW134319   4.285   1.602   7.703  0.5996 -0.0377 -0.4918
 7562SOL    HW234320   4.387   1.675   7.774  0.1384 -0.1481 -1.1462
 7563SOL     OW34321   2.705   0.713  13.289  0.2730  0.0398  0.6105
 7563SOL    HW134322   2.763   0.638  13.300 -0.5676 -0.7032 -0.0757
 7563SOL    HW234323   2.639   0.682  13.351 -0.0342  0.2074  0.3668
 7564SOL     OW34324   3.747   2.037   9.517  0.2379 -0.1725  0.0949
 7564SOL    HW134325   3.834   2.040   9.477  0.2958  2.3308  0.3952
 7564SOL    HW234326   3.726   2.129   9.530 -0.1317 -0.2028 -0.2497
 7565SOL     OW34327   0.972   4.183  16.300  0.5906  0.0191 -0.4570
 7565SOL    HW134328   0.940   4.273  16.308 -1.2666 -0.7748  1.0821
 7565SOL    HW234329   0.957   4.145  16.387 -0.2003 -0.2006 -0.6962
 7566SOL     OW34330   4.504   3.094  17.692  0.3140 -0.1494 -0.0390
 7566SOL    HW134331   4.471   3.184  17.694  0.6852 -0.0002 -0.6088
 7566SOL    HW234332   4.597   3.118  17.689  0.9790 -2.8941 -1.2020
 7567SOL     OW34333   1.810   4.352   7.573 -0.0079  0.1482 -0.3087
 7567SOL    HW134334   1.811   4.406   7.494  0.9761  0.4871 -0.0607
 7567SOL    HW234335   1.718   4.329   7.586  0.0990  0.3685  0.7647
 7568SOL     OW34336   2.223   1.725   6.602 -0.4117  0.1736  0.2527
 7568SOL    HW134337   2.307   1.731   6.557 -0.1736  0.4297  0.7392
 7568SOL    HW234338   2.181   1.804   6.567  0.1549  1.4547  2.4921
 7569SOL     OW34339   3.920   1.866   8.787 -0.0347 -0.5582 -0.5058
 7569SOL    HW134340   3.956   1.954   8.799 -2.2778  0.3811 -0.5638
 7569SOL    HW234341   3.939   1.830   8.874  1.8709  1.9162  0.0860
 7570SOL     OW34342   3.013   0.366   3.849 -0.2966 -0.3128 -0.1251
 7570SOL    HW134343   2.979   0.421   3.919 -0.0305 -0.5006  0.1529
 7570SOL    HW234344   2.997   0.277   3.880 -1.3316 -0.3573 -0.7963
 7571SOL     OW34345   3.441   3.761   4.483  0.2604 -0.1322  0.0002
 7571SOL    HW134346   3.351   3.736   4.504 -0.0035  2.3025  1.7498
 7571SOL    HW234347   3.493   3.713   4.547 -0.4895 -1.9944 -0.7796
 7572SOL     OW34348   1.846   1.797  12.507  0.5203  0.2903 -0.6365
 7572SOL    HW134349   1.812   1.780  12.420  3.3147  0.1375 -1.6843
 7572SOL    HW234350   1.932   1.756  12.498 -0.0733 -1.2005  0.5662
 7573SOL     OW34351   0.155   1.974   2.162 -0.5169 -0.4383  0.3607
 7573SOL    HW134352   0.212   2.047   2.186 -2.1302  0.6737  0.8021
 7573SOL    HW234353   0.139   1.996   2.071 -0.4989 -3.0514 -0.2815
 7574SOL     OW34354   1.192   3.764   5.868  0.7475 -0.9001 -0.0562
 7574SOL    HW134355   1.264   3.810   5.911  0.8673  0.3610 -1.6396
 7574SOL    HW234356   1.180   3.679   5.911  1.4128 -0.8989  0.1225
 7575SOL     OW34357   2.981   2.270  14.372 -0.3707 -0.2970  0.0106
 7575SOL    HW134358   3.064   2.250  14.415  0.3252  1.8711 -0.3007
 7575SOL    HW234359   2.914   2.208  14.399  0.1730 -0.4712  0.9352
 7576SOL     OW34360   3.289   2.162   6.765  0.0454 -0.0265 -0.0391
 7576SOL    HW134361   3.326   2.107   6.696  2.0809  0.2367  0.8526
 7576SOL    HW234362   3.211   2.109   6.785 -0.8877  1.7229  0.9536
 7577SOL     OW34363   1.790   3.127  15.397  0.6970 -0.5800  0.2497
 7577SOL    HW134364   1.817   3.043  15.434 -0.0687 -0.1315  1.8488
 7577SOL    HW234365   1.696   3.117  15.411  0.1504  1.2744 -2.0193
 7578SOL     OW34366   1.175   4.036   3.047 -0.5260  0.3866  0.5089
 7578SOL    HW134367   1.254   3.998   3.008 -0.6845  0.9197 -0.3320
 7578SOL    HW234368   1.215   4.112   3.090  0.3198  0.4432 -0.3820
 7579SOL     OW34369   0.694   0.332  12.014  0.3924 -0.1169 -0.8375
 7579SOL    HW134370   0.769   0.364  11.963 -0.6452  1.4057 -1.4143
 7579SOL    HW234371   0.617   0.342  11.957  0.5519  2.4691 -0.5882
 7580SOL     OW34372   0.068   2.066   3.646  0.1845  0.1440  0.3086
 7580SOL    HW134373   0.021   1.990   3.680  1.3090 -0.4483  0.5414
 7580SOL    HW234374   0.097   2.104   3.730  0.7212 -0.7666  0.5437
 7581SOL     OW34375   4.060   2.006   0.820 -0.1273 -0.3488  0.3779
 7581SOL    HW134376   4.025   1.918   0.807  0.5966 -0.4026 -1.1933
 7581SOL    HW234377   4.131   1.998   0.757 -0.1768  0.4867  0.2202
 7582SOL     OW34378   0.589   1.402   7.548 -0.0356  0.5889  0.1598
 7582SOL    HW134379   0.602   1.463   7.475 -0.4102 -0.6895 -0.9732
 7582SOL    HW234380   0.546   1.458   7.613  2.2110  1.4691  0.8668
 7583SOL     OW34381   2.973   2.204   8.458  0.4080 -0.1399  0.1936
 7583SOL    HW134382   2.928   2.259   8.394  1.5928  0.6850  0.0651
 7583SOL    HW234383   2.936   2.244   8.537  0.6691 -0.2936  0.3957
 7584SOL     OW34384   1.958   2.770  16.685  0.6594 -0.3141 -0.0808
 7584SOL    HW134385   1.960   2.680  16.719  2.9366 -0.9090 -1.7931
 7584SOL    HW234386   1.938   2.752  16.593 -0.3861  0.6289 -0.0419
 7585SOL     OW34387   1.772   1.990  10.491  0.2824 -0.2815 -0.3411
 7585SOL    HW134388   1.693   2.005  10.438 -0.4924  1.1232  1.1997
 7585SOL    HW234389   1.791   1.896  10.489  1.8437  0.0367 -0.0863
 7586SOL     OW34390   1.826   3.785   2.690  0.1792 -0.2910 -0.0002
 7586SOL    HW134391   1.884   3.806   2.763 -0.0047 -1.8519  0.6056
 7586SOL    HW234392   1.859   3.835   2.616  0.2623 -1.1637 -0.5555
 7587SOL     OW34393   1.794   0.691   7.429  0.1343  0.0131  0.5579
 7587SOL    HW134394   1.809   0.714   7.338  0.0311 -2.2143 -0.0375
 7587SOL    HW234395   1.725   0.752   7.455 -0.0722  0.1503 -0.3060
 7588SOL     OW34396   4.464   4.077   7.769  0.1587 -0.7552 -0.0904
 7588SOL    HW134397   4.401   4.018   7.727 -1.5383  2.2685 -1.8641
 7588SOL    HW234398   4.453   4.055   7.861 -0.6917  0.5729  0.1326
 7589SOL     OW34399   2.625   1.216  11.827  0.1567  0.5475  0.0197
 7589SOL    HW134400   2.541   1.173  11.843  0.5707 -0.3039 -0.0986
 7589SOL    HW234401   2.604   1.267  11.749  0.9865  2.5463  1.0943
 7590SOL     OW34402   0.585   2.217   7.875 -0.5619 -0.1748  0.1996
 7590SOL    HW134403   0.653   2.149   7.879 -1.3085 -0.8072  2.2611
 7590SOL    HW234404   0.638   2.295   7.860  0.5408 -0.4244  2.7509
 7591SOL     OW34405   2.140   1.691   2.901 -0.1633 -0.3249  0.1663
 7591SOL    HW134406   2.083   1.701   2.976  0.8101 -0.6259  0.9461
 7591SOL    HW234407   2.216   1.746   2.920 -1.7255  2.5610 -1.8306
 7592SOL     OW34408   3.702   1.844   4.886  0.3920  0.2958 -0.2752
 7592SOL    HW134409   3.772   1.798   4.839 -0.4140 -0.7208 -0.4937
 7592SOL    HW234410   3.742   1.931   4.889  0.1712  0.3333  1.6577
 7593SOL     OW34411   0.393   0.271   2.192 -0.2750  0.5308 -0.6080
 7593SOL    HW134412   0.381   0.182   2.160 -2.1205  0.0806  1.3178
 7593SOL    HW234413   0.304   0.306   2.197 -1.0491 -1.6093  0.5171
 7594SOL     OW34414   1.433   4.017  11.329  0.1947 -0.1704 -0.5576
 7594SOL    HW134415   1.397   4.044  11.414  1.6951 -0.7234  0.2641
 7594SOL    HW234416   1.381   3.941  11.302 -2.6441  1.1792  1.0409
 7595SOL     OW34417   0.828   0.216   8.595 -0.2011  0.4061 -0.3635
 7595SOL    HW134418   0.875   0.266   8.528 -0.2339  0.5117 -0.3074
 7595SOL    HW234419   0.883   0.226   8.672 -0.7963  0.7353  0.0176
 7596SOL     OW34420   2.528   3.023   8.479 -0.4094  0.0824  0.1050
 7596SOL    HW134421   2.593   2.978   8.533  0.1754  0.6286 -0.1485
 7596SOL    HW234422   2.498   2.945   8.432 -1.8494 -0.6873  2.2862
 7597SOL     OW34423   1.153   2.026  14.335 -0.1342 -0.3793  0.1742
 7597SOL    HW134424   1.187   1.990  14.253  0.2256 -0.9407  0.5665
 7597SOL    HW234425   1.206   2.106  14.339  1.0582 -1.2179  1.5169
 7598SOL     OW34426   1.694   4.125   1.035  0.0368  0.7053  0.1460
 7598SOL    HW134427   1.677   4.219   1.029 -1.8027  0.3133 -1.0246
 7598SOL    HW234428   1.635   4.100   0.963  1.3576 -0.8529 -0.4029
 7599SOL     OW34429   0.414   3.034   2.624 -0.0239 -0.3261  0.0955
 7599SOL    HW134430   0.336   3.090   2.618 -0.3082 -0.4394  2.4573
 7599SOL    HW234431   0.425   3.015   2.531  2.1836 -0.1231  0.3121
 7600SOL     OW34432   0.734   1.750   3.403 -0.4425  0.4890 -0.0865
 7600SOL    HW134433   0.685   1.746   3.485  0.1671  0.4188  0.2721
 7600SOL    HW234434   0.812   1.800   3.427  0.0561 -0.0452 -0.5929
 7601SOL     OW34435   1.107   2.541  14.743  0.8942  0.1265  0.3048
 7601SOL    HW134436   1.061   2.522  14.661  0.9322 -0.6630  0.4704
 7601SOL    HW234437   1.190   2.498  14.723  0.7896  1.0412 -2.1688
 7602SOL     OW34438   2.616   4.462   6.789 -0.0096  0.2249  0.2966
 7602SOL    HW134439   2.649   4.545   6.822  0.3494  0.9213 -1.8286
 7602SOL    HW234440   2.574   4.484   6.706 -2.2446 -0.3859  1.2546
 7603SOL     OW34441   3.319   2.442   5.381 -0.0565 -0.1037 -0.2918
 7603SOL    HW134442   3.399   2.473   5.339 -0.5869 -1.9406 -2.6613
 7603SOL    HW234443   3.254   2.469   5.315 -0.4815  0.7676  0.4746
 7604SOL     OW34444   1.303   0.627   7.809 -0.0924 -0.1823  0.0824
 7604SOL    HW134445   1.256   0.663   7.734  0.9124  0.5469 -0.1911
 7604SOL    HW234446   1.352   0.702   7.841  0.7740 -0.7940  0.1820
 7605SOL     OW34447   3.948   4.549   3.958  0.1193 -0.1106 -0.2976
 7605SOL    HW134448   3.922   4.502   3.878 -1.3809  2.6629 -1.4585
 7605SOL    HW234449   4.041   4.530   3.950  0.2607 -0.5089  2.4091
 7606SOL     OW34450   3.509   2.978  11.822 -0.3531 -0.3334 -0.5175
 7606SOL    HW134451   3.499   3.040  11.893  0.9325 -0.8103  0.0834
 7606SOL    HW234452   3.489   2.896  11.868  3.7967 -0.7403  0.5436
 7607SOL     OW34453   2.459   0.686   7.731  0.5367  0.4907 -0.0065
 7607SOL    HW134454   2.416   0.772   7.725 -1.3608 -0.5407 -1.1652
 7607SOL    HW234455   2.483   0.674   7.640 -0.6416 -0.8492 -0.1471
 7608SOL     OW34456   2.451   4.452   7.980 -0.5393  0.1202  0.0898
 7608SOL    HW134457   2.412   4.425   8.063  0.9411 -0.7493  0.4986
 7608SOL    HW234458   2.491   4.371   7.949 -0.6846  0.8603 -2.0201
 7609SOL     OW34459   3.054   2.114   3.983  0.1909 -0.1412 -0.1094
 7609SOL    HW134460   3.008   2.041   4.026 -1.6037 -0.5557 -2.7283
 7609SOL    HW234461   2.983   2.160   3.938 -1.4030 -1.7508  0.7282
 7610SOL     OW34462   3.749   2.611   5.127 -0.4170  0.1241 -0.3933
 7610SOL    HW134463   3.724   2.700   5.103 -0.1355  1.0378  2.7829
 7610SOL    HW234464   3.841   2.620   5.152 -0.3012  0.2550 -0.8620
 7611SOL     OW34465   0.330   3.229   0.335 -0.0828 -0.5009  0.1300
 7611SOL    HW134466   0.342   3.303   0.275  3.3997 -1.3961 -0.2429
 7611SOL    HW234467   0.280   3.172   0.277 -0.8715  0.0559  0.2552
 7612SOL     OW34468   2.926   1.744   5.579  0.2891  0.0563  0.0634
 7612SOL    HW134469   2.919   1.746   5.484 -3.1523 -1.2755  0.2832
 7612SOL    HW234470   2.882   1.662   5.601 -0.5780  0.3483 -0.5661
 7613SOL     OW34471   4.274   2.497   6.393 -0.7975  0.6013 -0.3846
 7613SOL    HW134472   4.209   2.456   6.336 -1.7224  2.6774 -0.7950
 7613SOL    HW234473   4.254   2.456   6.478  0.8810  0.9944  0.1889
 7614SOL     OW34474   3.038   3.904  16.940 -0.7929  0.8236 -0.0118
 7614SOL    HW134475   2.989   3.985  16.930 -0.5357  1.1175  1.0746
 7614SOL    HW234476   3.042   3.889  17.035  0.1586 -1.9894 -0.4901
 7615SOL     OW34477   1.824   3.188   4.072 -0.0349  0.0708 -0.0027
 7615SOL    HW134478   1.914   3.191   4.104  0.2980 -0.0093 -0.9507
 7615SOL    HW234479   1.821   3.276   4.035  0.2008  0.5292  1.0536
 7616SOL     OW34480   0.420   3.404   8.573 -0.4398  0.3280  0.1121
 7616SOL    HW134481   0.380   3.343   8.635  0.8444  0.5068  1.1157
 7616SOL    HW234482   0.418   3.483   8.627 -1.8958  1.1937 -1.2028
 7617SOL     OW34483   4.731   3.449  10.121 -0.4098 -0.2976  0.5344
 7617SOL    HW134484   0.019   3.480  10.208 -0.3330  2.0181 -0.3115
 7617SOL    HW234485   4.648   3.407  10.145 -1.9125  2.0172 -0.6083
 7618SOL     OW34486   4.560   0.211   4.464 -0.1189 -0.0307 -0.1824
 7618SOL    HW134487   4.581   0.180   4.553 -1.6994  0.3875  0.3372
 7618SOL    HW234488   4.465   0.221   4.459 -0.1615 -0.1316  0.4240
 7619SOL     OW34489   2.350   4.230   4.305  0.5886  0.1042  0.0806
 7619SOL    HW134490   2.388   4.147   4.278  2.5861  0.4277  1.9020
 7619SOL    HW234491   2.261   4.198   4.293  0.2382  0.9516  0.4169
 7620SOL     OW34492   4.053   3.694  11.888 -0.1564  0.0186  0.0608
 7620SOL    HW134493   4.010   3.610  11.901 -0.8695  0.5842  1.3577
 7620SOL    HW234494   4.140   3.686  11.927  0.3957 -0.5008 -1.2712
 7621SOL     OW34495   3.148   3.697   7.262  0.3377  0.1584  0.1725
 7621SOL    HW134496   3.199   3.658   7.191  0.7824 -0.7604  0.9851
 7621SOL    HW234497   3.136   3.783   7.223  0.1035  0.7567  1.5341
 7622SOL     OW34498   2.588   0.440  16.960 -0.0169  0.5452 -0.2173
 7622SOL    HW134499   2.542   0.396  16.889 -0.4704  1.7346 -0.6656
 7622SOL    HW234500   2.680   0.424  16.938  0.1375 -2.3340  2.4493
 7623SOL     OW34501   1.881   2.991  12.703 -0.3190  0.0677  0.0632
 7623SOL    HW134502   1.846   2.925  12.642 -1.9971 -0.3973  1.5300
 7623SOL    HW234503   1.971   2.959  12.701 -1.1299 -2.2046 -0.5751
 7624SOL     OW34504   4.394   3.313   5.487  0.1871 -0.3276  0.0875
 7624SOL    HW134505   4.350   3.294   5.405 -0.5590  0.8902  0.2131
 7624SOL    HW234506   4.314   3.317   5.540  0.8601  0.9978  1.0121
 7625SOL     OW34507   4.562   2.487  15.278  0.8424 -0.4711 -0.0806
 7625SOL    HW134508   4.565   2.439  15.361  1.6541 -0.1923  0.0528
 7625SOL    HW234509   4.633   2.444  15.231  0.9595 -0.6696  0.2769
 7626SOL     OW34510   2.404   2.745   6.166  0.5059  0.1985 -0.0068
 7626SOL    HW134511   2.352   2.748   6.086  1.2234 -0.1378 -0.4830
 7626SOL    HW234512   2.326   2.737   6.221  0.4785  1.4159  0.1303
 7627SOL     OW34513   1.586   1.999   2.407  0.0640  0.6335  0.2545
 7627SOL    HW134514   1.585   2.033   2.318  0.9082  0.7401  0.2871
 7627SOL    HW234515   1.582   1.904   2.394 -1.5184  0.8018 -0.4684
 7628SOL     OW34516   4.467   3.807  12.054  0.4112  0.5180 -0.0608
 7628SOL    HW134517   4.405   3.745  12.015 -0.2078  1.0461  0.0880
 7628SOL    HW234518   4.451   3.786  12.146  1.0850 -0.8495 -0.2574
 7629SOL     OW34519   1.126   3.176   4.483  0.0579 -0.0424  0.1061
 7629SOL    HW134520   1.194   3.171   4.550 -0.5983  3.6329  1.0998
 7629SOL    HW234521   1.150   3.107   4.422 -0.6791 -0.6458  0.5007
 7630SOL     OW34522   3.171   3.082   1.632  0.6384 -0.3380  0.6201
 7630SOL    HW134523   3.257   3.060   1.596 -0.6472 -2.3433 -1.2218
 7630SOL    HW234524   3.135   2.997   1.656  0.4824 -1.3429 -3.1830
 7631SOL     OW34525   2.717   2.523  12.626  0.0742 -0.4851  0.1799
 7631SOL    HW134526   2.782   2.520  12.696 -0.9271  0.4552  1.1688
 7631SOL    HW234527   2.693   2.431  12.615 -0.2818 -0.1168 -1.9638
 7632SOL     OW34528   0.219   4.297  14.816  0.4933 -0.5540 -0.0868
 7632SOL    HW134529   0.162   4.272  14.743  0.5928  0.6549 -0.5849
 7632SOL    HW234530   0.268   4.360  14.762  0.4777  1.1541  1.9128
 7633SOL     OW34531   0.381   1.321   2.366  0.1814  0.6411 -0.0416
 7633SOL    HW134532   0.329   1.243   2.384  0.2432  0.1269 -2.1988
 7633SOL    HW234533   0.398   1.361   2.452 -3.6216 -0.4505  1.1959
 7634SOL     OW34534   3.560   2.288  10.745  0.0060 -0.0956  0.1467
 7634SOL    HW134535   3.647   2.249  10.744  0.2411  0.2880  3.4473
 7634SOL    HW234536   3.576   2.365  10.800  1.9805 -0.6139  0.2699
 7635SOL     OW34537   4.202   3.276   9.981  0.1638 -0.1944  0.2906
 7635SOL    HW134538   4.216   3.238   9.895  0.0736  0.4356 -0.0037
 7635SOL    HW234539   4.244   3.361   9.969  0.3169 -0.1095  1.3838
 7636SOL     OW34540   4.552   2.236   6.509 -0.2694 -0.1420 -0.4031
 7636SOL    HW134541   4.480   2.256   6.568  0.3602  3.0693 -0.7150
 7636SOL    HW234542   4.554   2.320   6.462 -0.4814  0.1841  0.1747
 7637SOL     OW34543   4.180   3.076   2.048 -0.0303  0.0646 -0.4380
 7637SOL    HW134544   4.218   2.997   2.007  1.4427  0.4775  0.1265
 7637SOL    HW234545   4.208   3.067   2.139 -1.1237 -0.9809 -0.1929
 7638SOL     OW34546   0.518   0.012  11.192  0.2037 -0.3248 -0.2144
 7638SOL    HW134547   0.463   0.025  11.270  0.5490 -1.0188  0.1500
 7638SOL    HW234548   0.445   0.019  11.130  0.0452  0.9808  0.1379
 7639SOL     OW34549   1.644   4.689   7.279 -0.8608 -0.2271  0.6744
 7639SOL    HW134550   1.671   0.041   7.261  0.5720 -0.7086  0.4158
 7639SOL    HW234551   1.611   4.710   7.366 -2.3670  0.6602 -0.1084
 7640SOL     OW34552   4.309   3.908   1.261  0.0962 -0.4109 -0.3257
 7640SOL    HW134553   4.338   3.943   1.345  0.4866 -1.1015 -0.1771
 7640SOL    HW234554   4.218   3.940   1.264 -0.4312 -1.7931 -1.5539
 7641SOL     OW34555   3.056   3.266   1.895 -0.4554  0.2770 -0.0827
 7641SOL    HW134556   2.995   3.339   1.887 -0.3596  0.5346  1.5167
 7641SOL    HW234557   3.037   3.212   1.818  0.8440  0.4937 -0.5540
 7642SOL     OW34558   4.535   1.059   3.111  0.3424 -0.2674  0.5993
 7642SOL    HW134559   4.602   1.055   3.042  1.0874  0.9287  1.2441
 7642SOL    HW234560   4.456   1.093   3.069  0.8092  0.2052  0.0934
 7643SOL     OW34561   3.448   0.457   1.398  0.3929 -0.2026 -0.3806
 7643SOL    HW134562   3.437   0.404   1.319 -0.2729  1.0210 -1.1210
 7643SOL    HW234563   3.543   0.467   1.398  0.5348 -1.6035 -1.1511
 7644SOL     OW34564   3.489   2.129   7.913  0.8769  0.1080 -0.3886
 7644SOL    HW134565   3.396   2.152   7.908  1.1613  0.9493 -1.7440
 7644SOL    HW234566   3.491   2.102   8.005 -0.7527 -2.1067 -1.0031
 7645SOL     OW34567   0.955   2.681   7.005  0.3341  0.2305  0.4683
 7645SOL    HW134568   1.019   2.625   7.047  0.9988 -0.0217 -0.8939
 7645SOL    HW234569   0.916   2.728   7.079 -1.8595 -2.3051  0.9197
 7646SOL     OW34570   1.398   0.220   2.299  0.0610 -0.0769 -0.1744
 7646SOL    HW134571   1.323   0.279   2.308 -1.7419 -2.8032  2.6759
 7646SOL    HW234572   1.461   0.262   2.240  1.0671 -0.1472  0.8482
 7647SOL     OW34573   2.434   1.030  11.951 -0.0580 -0.3234 -0.1787
 7647SOL    HW134574   2.490   0.990  12.018  2.1096  1.7270 -0.7735
 7647SOL    HW234575   2.360   1.050  12.009  1.6613  0.3434  1.7949
 7648SOL     OW34576   3.307   3.332   3.843  0.8859 -0.1135  0.6916
 7648SOL    HW134577   3.285   3.412   3.890  1.5205 -0.6103  1.8232
 7648SOL    HW234578   3.399   3.349   3.822  0.8612 -0.8680 -0.0705
 7649SOL     OW34579   2.026   0.180   7.314  0.2437  0.2514 -0.2815
 7649SOL    HW134580   2.048   0.195   7.222 -0.0504 -1.8853 -0.6861
 7649SOL    HW234581   2.091   0.113   7.331  0.4688  0.3493 -0.7822
 7650SOL     OW34582   1.900   4.292  17.168  0.1503  0.1021 -0.3717
 7650SOL    HW134583   1.881   4.230  17.238 -3.3911 -0.1472 -1.5368
 7650SOL    HW234584   1.862   4.241  17.097 -0.4185 -3.2129  2.3048
 7651SOL     OW34585   1.212   4.401   9.078 -0.6781  0.2419 -0.1201
 7651SOL    HW134586   1.199   4.470   9.012 -1.5191 -0.6085 -0.8471
 7651SOL    HW234587   1.179   4.433   9.161 -0.3623  0.0553  0.0759
 7652SOL     OW34588   2.507   0.978   6.628 -0.1737 -0.2566  0.3948
 7652SOL    HW134589   2.484   0.930   6.548  1.2284  1.1786 -0.8744
 7652SOL    HW234590   2.423   0.986   6.674 -0.7601 -0.7800 -0.5841
 7653SOL     OW34591   4.109   0.396   7.451  0.5542  0.2185 -0.0557
 7653SOL    HW134592   4.112   0.302   7.471  0.0774  0.2877  0.3476
 7653SOL    HW234593   4.133   0.398   7.358  2.5991 -2.3236  0.3992
 7654SOL     OW34594   2.688   2.758   3.618  0.3165  0.4068 -0.0692
 7654SOL    HW134595   2.770   2.715   3.593  0.5448  0.7648  0.0577
 7654SOL    HW234596   2.686   2.839   3.568 -0.0155 -0.7914 -1.9740
 7655SOL     OW34597   0.770   1.569   0.265 -0.0115 -0.5970 -0.4428
 7655SOL    HW134598   0.847   1.517   0.243  1.6804  2.9362 -2.9461
 7655SOL    HW234599   0.717   1.571   0.185 -0.1662  0.6850 -0.3108
 7656SOL     OW34600   0.319   3.656   6.227  0.5828  0.7114  0.2219
 7656SOL    HW134601   0.269   3.575   6.234 -1.0544  1.5886 -1.4524
 7656SOL    HW234602   0.387   3.632   6.164 -0.7392  2.5001 -1.8828
 7657SOL     OW34603   2.357   3.168  13.426 -0.2621 -0.5069  0.2181
 7657SOL    HW134604   2.448   3.142  13.437  0.2117 -0.0161 -2.4639
 7657SOL    HW234605   2.328   3.169  13.517  0.1826 -0.5738  0.3603
 7658SOL     OW34606   4.707   1.424   7.729 -0.7369 -0.0968 -0.0134
 7658SOL    HW134607   4.665   1.489   7.785 -0.2330 -0.3704  0.6809
 7658SOL    HW234608   4.726   1.490   7.662  0.4643 -0.4683 -0.0288
 7659SOL     OW34609   2.332   1.174   2.204 -0.1165 -0.3065 -0.7206
 7659SOL    HW134610   2.304   1.129   2.124  1.6894  0.3285 -1.7207
 7659SOL    HW234611   2.268   1.159   2.273 -0.6733  2.2825 -0.6772
 7660SOL     OW34612   0.020   1.736   4.383  0.1219  0.5193  0.2165
 7660SOL    HW134613   0.017   1.828   4.356  1.1708  0.1896 -1.0373
 7660SOL    HW234614   0.014   1.689   4.300  2.6240 -1.8519  1.3659
 7661SOL     OW34615   1.629   3.917   4.250 -0.1303  0.1567  0.1328
 7661SOL    HW134616   1.603   3.960   4.331 -1.4886 -1.0850  0.3696
 7661SOL    HW234617   1.559   3.852   4.241 -0.3949  0.5431 -0.5711
 7662SOL     OW34618   2.328   0.206  12.852 -0.5381  0.2248 -0.1207
 7662SOL    HW134619   2.387   0.164  12.914 -1.5371 -1.2417 -0.1689
 7662SOL    HW234620   2.385   0.270  12.808  0.8835 -0.1734  1.1378
 7663SOL     OW34621   1.528   0.978   7.121 -0.2109 -0.3396 -0.2081
 7663SOL    HW134622   1.451   0.987   7.177  0.1221 -2.8364  0.6752
 7663SOL    HW234623   1.486   1.005   7.039  0.0267  0.6555  0.0028
 7664SOL     OW34624   2.753   1.575   1.996 -0.2410  0.5089 -0.0244
 7664SOL    HW134625   2.659   1.565   2.012 -0.7018  1.7092 -2.0332
 7664SOL    HW234626   2.767   1.632   2.072 -2.8907  2.4446 -0.9952
 7665SOL     OW34627   3.387   3.942   4.009  0.0267 -0.3443  0.1711
 7665SOL    HW134628   3.379   3.950   3.914  0.3161 -0.3434  0.1482
 7665SOL    HW234629   3.382   4.036   4.028  2.7093  0.1977 -1.8779
 7666SOL     OW34630   4.431   1.684  13.500 -0.0101 -0.0126 -0.5432
 7666SOL    HW134631   4.522   1.654  13.493  0.2863  0.5882  0.6941
 7666SOL    HW234632   4.430   1.752  13.433  0.9367  1.1331  0.5955
 7667SOL     OW34633   4.727   4.394   3.337 -0.0020 -0.1109  0.2265
 7667SOL    HW134634   4.711   4.329   3.405  1.7789 -0.8199 -0.0242
 7667SOL    HW234635   4.722   4.338   3.258 -1.5112  2.8344 -1.7398
 7668SOL     OW34636   0.364   2.512   2.625  0.5225 -0.4549 -0.4314
 7668SOL    HW134637   0.377   2.606   2.634 -0.3936 -0.3038 -0.6692
 7668SOL    HW234638   0.274   2.497   2.654  0.9471  0.0332  1.1541
 7669SOL     OW34639   1.157   2.171   9.603  0.2827  0.4040  0.3138
 7669SOL    HW134640   1.243   2.166   9.645  0.5948  1.3929 -0.2123
 7669SOL    HW234641   1.181   2.177   9.511 -0.6994 -1.7544 -0.0824
 7670SOL     OW34642   2.291   4.074  13.837  0.1298  0.9923  0.1810
 7670SOL    HW134643   2.385   4.061  13.850  0.2513  1.4841 -0.2073
 7670SOL    HW234644   2.266   3.983  13.826  0.8043  0.8091  0.1292
 7671SOL     OW34645   1.377   4.434   2.508  0.0416 -0.4881 -0.1278
 7671SOL    HW134646   1.334   4.421   2.423 -1.6235 -2.2551  0.9945
 7671SOL    HW234647   1.361   4.528   2.513  2.0294 -0.1943  0.5240
 7672SOL     OW34648   1.079   4.336  13.182 -0.1082 -0.5759 -0.2215
 7672SOL    HW134649   1.117   4.420  13.209 -1.2742 -0.4897  1.1172
 7672SOL    HW234650   1.057   4.356  13.091 -0.3775 -2.6328 -0.6073
 7673SOL     OW34651   0.166   2.756  16.120 -0.3604  1.0379 -0.0662
 7673SOL    HW134652   0.084   2.777  16.075 -1.0254 -2.0193 -0.2554
 7673SOL    HW234653   0.147   2.691  16.187 -0.0458  2.0367  0.9997
 7674SOL     OW34654   0.363   3.669   8.723  0.5593 -0.0984  0.0002
 7674SOL    HW134655   0.453   3.683   8.752 -0.2024  1.4249  1.5877
 7674SOL    HW234656   0.312   3.688   8.801 -0.0066 -3.9008  0.5654
 7675SOL     OW34657   0.932   0.949   3.534  0.3136  0.3763  0.1945
 7675SOL    HW134658   0.966   0.872   3.487 -1.7274  0.2344 -1.0406
 7675SOL    HW234659   0.862   0.981   3.477  0.9694 -1.1823 -1.5144
 7676SOL     OW34660   1.529   3.146  15.470 -0.2172  0.8201  0.1700
 7676SOL    HW134661   1.532   3.218  15.407 -0.7361  0.7416  0.0556
 7676SOL    HW234662   1.461   3.180  15.529  1.4010  0.4831  2.2045
 7677SOL     OW34663   3.758   0.584   1.515  0.0517 -0.0332 -0.1834
 7677SOL    HW134664   3.718   0.648   1.574 -0.0047  0.3830 -0.6772
 7677SOL    HW234665   3.760   0.631   1.432 -0.8093  1.9079  0.8948
 7678SOL     OW34666   3.675   0.845  12.651 -0.1239  0.1146 -0.0783
 7678SOL    HW134667   3.606   0.833  12.716 -0.9726 -0.3172 -1.0644
 7678SOL    HW234668   3.681   0.940  12.635  0.4750  0.1470  0.3487
 7679SOL     OW34669   4.319   0.576   5.938  0.1115  0.3008  0.0010
 7679SOL    HW134670   4.280   0.656   5.903  0.6066  1.3963  1.9661
 7679SOL    HW234671   4.265   0.571   6.017  1.3503  0.1696  0.8450
 7680SOL     OW34672   1.543   2.911   7.917 -0.3457 -0.3554  0.2071
 7680SOL    HW134673   1.603   2.895   7.990 -0.1202 -2.8553 -0.5332
 7680SOL    HW234674   1.463   2.926   7.968 -0.0581 -1.5527  0.9923
 7681SOL     OW34675   3.777   1.160   4.462 -0.6332  0.1120  0.4853
 7681SOL    HW134676   3.856   1.107   4.456 -1.2330 -0.6656 -0.4353
 7681SOL    HW234677   3.812   1.229   4.519 -2.2517 -0.4506  2.1799
 7682SOL     OW34678   1.878   4.405   2.917  0.1987  0.0684  0.5471
 7682SOL    HW134679   1.859   4.317   2.886 -1.5436  1.0412 -1.1357
 7682SOL    HW234680   1.810   4.460   2.879  0.3701  1.4315  2.1804
 7683SOL     OW34681   0.129   0.155   9.816  0.1830 -0.2992  0.5939
 7683SOL    HW134682   0.121   0.246   9.842  0.2598 -0.1720  0.1776
 7683SOL    HW234683   0.206   0.130   9.866  0.2038 -2.0333 -0.2813
 7684SOL     OW34684   4.036   3.114  10.388  0.0406 -0.6813  0.1491
 7684SOL    HW134685   3.995   3.196  10.415 -0.3494 -0.6961 -0.4047
 7684SOL    HW234686   4.018   3.060  10.466  1.1062  0.8207  1.4291
 7685SOL     OW34687   4.552   2.046   5.309 -0.5425  0.1485  0.1595
 7685SOL    HW134688   4.508   2.066   5.391 -0.7833  0.9671 -0.1724
 7685SOL    HW234689   4.523   2.114   5.248  0.7078  0.6625  0.1249
 7686SOL     OW34690   4.008   2.442   8.284  0.1561 -0.1457  0.2932
 7686SOL    HW134691   4.021   2.457   8.378 -0.5245 -0.4111  0.4306
 7686SOL    HW234692   4.007   2.531   8.248 -1.3350 -0.5798 -0.7502
 7687SOL     OW34693   3.391   0.791  15.101 -0.0954  0.7466 -0.1752
 7687SOL    HW134694   3.310   0.832  15.131 -0.8819 -0.3743 -0.7624
 7687SOL    HW234695   3.459   0.847  15.140  0.7283 -0.3876  0.0354
 7688SOL     OW34696   2.846   3.986   0.799 -0.2870  0.0896 -0.3267
 7688SOL    HW134697   2.869   3.910   0.745 -0.5558  1.0742 -1.8258
 7688SOL    HW234698   2.793   3.950   0.870 -1.2997  3.3164  0.5643
 7689SOL     OW34699   1.351   1.485   0.975 -0.2325  0.3126 -0.3059
 7689SOL    HW134700   1.328   1.491   0.882 -0.3411  0.0429 -0.2990
 7689SOL    HW234701   1.270   1.450   1.013 -0.2839  2.8969  1.9321
 7690SOL     OW34702   1.043   3.070   8.807  0.2721 -0.4482  0.2210
 7690SOL    HW134703   1.039   3.046   8.715  2.3571  3.5967 -0.9556
 7690SOL    HW234704   0.952   3.090   8.828  0.1898  0.4961 -1.0050
 7691SOL     OW34705   1.175   3.490   7.004 -0.0963 -0.3426  0.5636
 7691SOL    HW134706   1.121   3.439   6.944  0.3204  0.3549 -0.4029
 7691SOL    HW234707   1.222   3.558   6.955 -0.7397 -0.4410 -0.1861
 7692SOL     OW34708   0.082   1.363   1.712 -0.1770 -0.1215  0.0876
 7692SOL    HW134709   0.063   1.456   1.697 -0.0092  0.2749  2.2102
 7692SOL    HW234710   4.732   1.325   1.713  0.0441 -0.6223  0.8265
 7693SOL     OW34711   3.797   4.427   9.500  0.3239 -0.3359 -0.1978
 7693SOL    HW134712   3.879   4.380   9.489  0.3249 -0.1213 -1.1010
 7693SOL    HW234713   3.818   4.509   9.546  1.3110  0.2746 -1.7279
 7694SOL     OW34714   3.950   1.819   9.276 -0.5628  0.2902 -0.5465
 7694SOL    HW134715   3.978   1.909   9.291 -0.6235  0.6415 -2.4311
 7694SOL    HW234716   3.983   1.776   9.354 -1.1939 -0.6509 -0.7933
 7695SOL     OW34717   2.467   0.459   1.283  0.2365 -0.3213  0.2458
 7695SOL    HW134718   2.509   0.508   1.354 -1.3176  2.1614 -0.5528
 7695SOL    HW234719   2.382   0.501   1.274  0.2812  0.2800  2.6377
 7696SOL     OW34720   1.167   0.136   3.737  0.0734  0.0801  0.5776
 7696SOL    HW134721   1.110   0.131   3.814 -1.0535 -0.4321 -0.3025
 7696SOL    HW234722   1.120   0.101   3.661 -1.9555 -0.1451  1.9436
 7697SOL     OW34723   0.622   3.326  16.389 -0.3240  0.1827  0.1036
 7697SOL    HW134724   0.696   3.266  16.376  1.2099  1.5242  2.6558
 7697SOL    HW234725   0.563   3.251  16.399 -0.6945  0.5041  0.3131
 7698SOL     OW34726   4.692   0.357   1.731  0.1172  0.1224 -0.4553
 7698SOL    HW134727   4.669   0.353   1.638  1.6485  1.9873 -0.9062
 7698SOL    HW234728   4.617   0.317   1.775  0.5810 -1.6442 -1.2578
 7699SOL     OW34729   0.925   2.853   8.264  0.0262 -0.4838 -0.2000
 7699SOL    HW134730   0.886   2.853   8.176  0.4855 -0.0475 -0.4017
 7699SOL    HW234731   0.892   2.766   8.286 -0.0630 -0.4802 -0.3177
 7700SOL     OW34732   2.832   1.539   8.275 -0.5267  0.4254 -0.0708
 7700SOL    HW134733   2.811   1.463   8.220 -0.5230 -1.7740  2.9668
 7700SOL    HW234734   2.745   1.536   8.314 -0.2258  0.1731  0.5807
 7701SOL     OW34735   4.662   0.461   3.552 -0.1436 -0.2055  0.3932
 7701SOL    HW134736   4.624   0.513   3.622  0.1812  1.5786 -0.7608
 7701SOL    HW234737   0.016   0.463   3.578  0.2912  0.5663 -1.2146
 7702SOL     OW34738   0.855   3.556   7.771  0.6256 -0.0092  0.6289
 7702SOL    HW134739   0.848   3.647   7.742 -1.2759 -1.3355 -3.0489
 7702SOL    HW234740   0.851   3.497   7.696  1.3103  1.6772 -0.7260
 7703SOL     OW34741   3.118   1.631   6.546  0.4548 -0.3497  0.0636
 7703SOL    HW134742   3.045   1.582   6.508  0.4185 -1.9102  2.1229
 7703SOL    HW234743   3.171   1.554   6.568 -2.4285 -1.6239  2.5114
 7704SOL     OW34744   1.964   2.437   5.583 -0.4616  0.4792 -0.2843
 7704SOL    HW134745   1.940   2.528   5.601 -1.2673  0.1424  0.3784
 7704SOL    HW234746   2.007   2.442   5.498  0.0730 -0.6888 -0.0886
 7705SOL     OW34747   3.694   2.579   4.251 -0.2389  0.1072 -0.7285
 7705SOL    HW134748   3.599   2.582   4.245 -0.2952 -0.3569 -0.0715
 7705SOL    HW234749   3.708   2.641   4.323 -1.5421 -0.1866 -0.2213
 7706SOL     OW34750   3.700   4.466   6.134  0.4794  0.3019  0.4157
 7706SOL    HW134751   3.644   4.413   6.077  0.4350  0.1214  0.6307
 7706SOL    HW234752   3.787   4.447   6.097 -0.5386 -0.5466 -1.5773
 7707SOL     OW34753   3.652   3.084  11.600  0.0104  0.0489  0.2333
 7707SOL    HW134754   3.604   3.146  11.546 -0.0278  1.0051  1.3877
 7707SOL    HW234755   3.585   3.057  11.662 -0.6247  1.4011  0.1196
 7708SOL     OW34756   0.487   1.358   4.272  0.4036 -0.4081  0.3902
 7708SOL    HW134757   0.513   1.277   4.316  1.9188  0.0294  0.2873
 7708SOL    HW234758   0.471   1.426   4.338 -1.3204 -0.6281  0.2121
 7709SOL     OW34759   0.652   4.729  12.370 -0.4939  0.0562  0.0559
 7709SOL    HW134760   0.623   0.053  12.302 -0.4032  0.2700  0.2121
 7709SOL    HW234761   0.568   4.695  12.403  0.4667 -1.3005  1.0874
 7710SOL     OW34762   0.699   4.149   8.059  1.0070  0.2379  0.8444
 7710SOL    HW134763   0.724   4.086   8.127  2.2621  1.0057  1.0931
 7710SOL    HW234764   0.775   4.206   8.055  0.3775  1.0781  0.8259
 7711SOL     OW34765   2.979   2.189   4.519 -0.7008  0.1071  0.3258
 7711SOL    HW134766   3.045   2.237   4.468  0.1961 -0.1626  1.2284
 7711SOL    HW234767   3.025   2.117   4.562  0.1366  0.0749 -0.6152
 7712SOL     OW34768   3.498   3.642   8.988 -0.0764  0.3031 -0.1411
 7712SOL    HW134769   3.538   3.612   9.069 -0.5044  2.2513  0.8059
 7712SOL    HW234770   3.467   3.730   9.012  1.4549 -0.5817  5.0198
 7713SOL     OW34771   4.160   0.193  12.662 -0.3195 -0.5252 -0.3960
 7713SOL    HW134772   4.130   0.284  12.656  0.6776 -0.1937 -0.2674
 7713SOL    HW234773   4.207   0.190  12.579 -2.2359  1.7633 -1.5630
 7714SOL     OW34774   3.642   1.001   6.955  0.3693  0.0175 -0.3632
 7714SOL    HW134775   3.546   0.999   6.961  0.4352 -0.0971  0.5462
 7714SOL    HW234776   3.660   1.072   6.893  0.4411  1.2226  1.0352
 7715SOL     OW34777   1.054   3.820   4.024 -0.8639 -0.4396 -0.3396
 7715SOL    HW134778   1.074   3.908   3.992 -3.0229  0.0375 -0.3723
 7715SOL    HW234779   1.087   3.772   3.949  0.3617  0.0764 -0.1318
 7716SOL     OW34780   3.341   0.677   4.337  0.1129 -0.1110  0.2180
 7716SOL    HW134781   3.377   0.713   4.256  0.7123 -1.0441  0.0778
 7716SOL    HW234782   3.419   0.670   4.392 -0.0520 -0.4893  0.4019
 7717SOL     OW34783   4.372   0.303   8.877  0.0523 -0.9157  0.4552
 7717SOL    HW134784   4.308   0.371   8.894 -0.3011 -0.7295 -1.5817
 7717SOL    HW234785   4.442   0.314   8.942 -1.8348 -1.3330  2.5365
 7718SOL     OW34786   0.529   0.775  15.354  0.1594 -0.4687 -0.1339
 7718SOL    HW134787   0.552   0.864  15.328 -0.4406 -0.2891 -0.0398
 7718SOL    HW234788   0.435   0.769  15.339  0.0639  1.1841 -0.1323
 7719SOL     OW34789   3.365   1.026   7.725  0.0752  0.2095  0.4183
 7719SOL    HW134790   3.316   1.108   7.721  0.9453  0.6227 -1.5160
 7719SOL    HW234791   3.456   1.053   7.726 -0.5319  2.2549  1.3844
 7720SOL     OW34792   4.565   1.763   5.334  0.1336  0.3090  0.0896
 7720SOL    HW134793   4.583   1.857   5.327  0.5239  0.3734  1.8717
 7720SOL    HW234794   4.603   1.757   5.422  1.9371 -1.2968 -0.7966
 7721SOL     OW34795   2.828   1.600   3.589  0.1647  0.4244  0.6655
 7721SOL    HW134796   2.801   1.588   3.679  0.6552 -1.1233  0.6163
 7721SOL    HW234797   2.917   1.634   3.599  1.9181 -2.5131 -4.5154
 7722SOL     OW34798   1.593   3.650  10.805 -0.0188  0.6685  0.7914
 7722SOL    HW134799   1.643   3.587  10.858  1.2052  0.0107 -1.1326
 7722SOL    HW234800   1.506   3.626  10.835 -1.0400  2.2983 -0.9140
 7723SOL     OW34801   1.154   4.094   3.527 -0.3918  0.2054  0.0142
 7723SOL    HW134802   1.151   4.189   3.527 -1.5684  0.1613 -0.0988
 7723SOL    HW234803   1.079   4.073   3.472 -0.7517  0.9406  0.2300
 7724SOL     OW34804   3.483   2.653  16.877  0.5005 -0.4604  0.1272
 7724SOL    HW134805   3.487   2.746  16.853 -2.6647 -0.3129  0.2269
 7724SOL    HW234806   3.549   2.607  16.824 -0.5026 -0.8941 -0.7518
 7725SOL     OW34807   3.501   2.052   2.535  1.1223 -0.2060 -0.2404
 7725SOL    HW134808   3.542   2.046   2.621  0.1276  1.4180  0.3581
 7725SOL    HW234809   3.425   1.996   2.548 -0.5538  1.6356 -2.0902
 7726SOL     OW34810   0.884   2.751   5.395 -0.3759  0.0592 -0.2317
 7726SOL    HW134811   0.814   2.816   5.402 -0.3989  0.1530 -1.3624
 7726SOL    HW234812   0.961   2.807   5.391  1.2560 -2.1037  1.0721
 7727SOL     OW34813   1.775   4.679   3.994  0.4353  0.4436 -0.2380
 7727SOL    HW134814   1.687   4.657   3.963  0.5241 -0.5463  0.1923
 7727SOL    HW234815   1.752   0.033   4.008 -2.4114  0.0853 -2.6439
 7728SOL     OW34816   2.920   4.458   8.369  0.1091 -0.1035  0.4096
 7728SOL    HW134817   2.871   4.411   8.436 -0.5671  1.6873  1.1657
 7728SOL    HW234818   2.910   4.551   8.388  2.2661  0.3836 -0.7680
 7729SOL     OW34819   4.364   1.292   1.585 -0.2776 -0.4375  0.0425
 7729SOL    HW134820   4.394   1.262   1.499 -0.7277 -2.0777  0.4512
 7729SOL    HW234821   4.354   1.385   1.567  1.0591 -0.3517 -0.1976
 7730SOL     OW34822   2.504   2.598   4.193  0.2043  0.1834  0.1610
 7730SOL    HW134823   2.512   2.527   4.257  0.3781 -0.3064 -0.4064
 7730SOL    HW234824   2.591   2.635   4.207  0.5291 -0.4234 -0.2563
 7731SOL     OW34825   0.850   1.661   7.563 -0.0547  0.1869 -0.1732
 7731SOL    HW134826   0.849   1.695   7.652 -0.0825 -1.3947  0.4362
 7731SOL    HW234827   0.901   1.580   7.566 -0.6983 -0.2365 -0.5764
 7732SOL     OW34828   2.399   4.698   8.714 -1.1254 -0.5981 -0.0926
 7732SOL    HW134829   2.323   4.703   8.771 -0.9669 -1.5215  0.2065
 7732SOL    HW234830   2.465   0.009   8.763  0.9153 -2.0273 -1.3937
 7733SOL     OW34831   4.392   1.804   1.353  0.2324  0.4960 -0.1441
 7733SOL    HW134832   4.306   1.781   1.318  0.1434 -0.7248  0.8881
 7733SOL    HW234833   4.411   1.874   1.290  0.5297  1.7036  1.2777
 7734SOL     OW34834   2.798   0.371   6.978 -0.1292  0.5826  0.1629
 7734SOL    HW134835   2.762   0.316   7.048 -0.3552 -0.8058 -1.0535
 7734SOL    HW234836   2.767   0.461   6.990  0.2951  0.9969 -1.9315
 7735SOL     OW34837   2.913   0.208   3.269  0.5496 -0.2176  0.3208
 7735SOL    HW134838   2.922   0.234   3.177 -0.6765 -0.2551  0.1970
 7735SOL    HW234839   2.817   0.213   3.270  0.6222  2.0238 -3.0200
 7736SOL     OW34840   4.318   2.544   3.085 -0.1686 -1.0166 -0.0488
 7736SOL    HW134841   4.392   2.598   3.112 -0.3317 -0.5999 -0.4397
 7736SOL    HW234842   4.354   2.533   2.997  0.9613  1.5578  0.0803
 7737SOL     OW34843   2.422   3.126   6.635 -0.1074 -0.4448  0.0972
 7737SOL    HW134844   2.394   3.037   6.654 -1.5988  0.9037  4.0579
 7737SOL    HW234845   2.388   3.171   6.712 -0.6899 -0.6496 -0.0413
 7738SOL     OW34846   2.110   4.712   4.564 -0.2688  0.5281 -0.0695
 7738SOL    HW134847   2.181   4.686   4.505  0.6315  2.0092  0.3681
 7738SOL    HW234848   2.162   0.004   4.639  0.1740  1.7576 -0.8782
 7739SOL     OW34849   1.740   1.502   3.519  0.1710  0.4185 -0.3733
 7739SOL    HW134850   1.796   1.579   3.509 -0.1486  0.7994  0.7834
 7739SOL    HW234851   1.793   1.442   3.467 -1.6918 -0.4354 -1.2841
 7740SOL     OW34852   2.218   1.782  15.084  0.4051  0.3326 -0.7315
 7740SOL    HW134853   2.148   1.829  15.038 -1.4411 -1.7510 -0.0642
 7740SOL    HW234854   2.270   1.779  15.004 -1.5124  0.0160 -1.9909
 7741SOL     OW34855   3.593   1.054   6.063  0.0118  0.4645 -0.0599
 7741SOL    HW134856   3.533   1.044   5.989 -2.1545 -2.0979  2.0757
 7741SOL    HW234857   3.652   1.121   6.029  0.6383 -0.0092  0.0838
 7742SOL     OW34858   1.368   1.969   6.624  0.5861 -0.5203  0.0335
 7742SOL    HW134859   1.294   1.927   6.580  0.6872 -0.7617  0.0961
 7742SOL    HW234860   1.389   2.042   6.564 -0.2801  0.7071  1.2207
 7743SOL     OW34861   4.025   3.673   6.695 -0.1568 -0.3972 -0.3647
 7743SOL    HW134862   4.003   3.760   6.662 -2.2296 -0.7779  0.0025
 7743SOL    HW234863   4.081   3.636   6.628  1.2529 -0.0101  0.5883
 7744SOL     OW34864   0.169   3.150   2.260  0.1924 -0.0276  0.1888
 7744SOL    HW134865   0.127   3.154   2.174 -2.0444  2.0059  1.3857
 7744SOL    HW234866   0.086   3.146   2.308 -1.9471  1.5942 -3.3685
 7745SOL     OW34867   2.202   3.813   3.154 -0.0474 -0.6141  0.8145
 7745SOL    HW134868   2.187   3.873   3.227 -1.0328  1.9970 -1.5000
 7745SOL    HW234869   2.226   3.878   3.088  2.0968  0.4170  2.6215
 7746SOL     OW34870   3.774   1.794   4.510 -0.1333  0.6917  0.0625
 7746SOL    HW134871   3.738   1.881   4.529 -4.1109 -0.7518 -1.0138
 7746SOL    HW234872   3.814   1.781   4.597  0.1044  0.0149 -0.1458
 7747SOL     OW34873   4.443   3.812   0.712 -0.2347  0.1299  0.0710
 7747SOL    HW134874   4.356   3.773   0.717  0.4383 -1.2576  0.9376
 7747SOL    HW234875   4.432   3.883   0.776  3.1972 -0.0008  0.8417
 7748SOL     OW34876   0.924   2.946   9.714  0.2065  0.1253 -0.3854
 7748SOL    HW134877   0.966   3.030   9.698  0.5478  0.1634  0.6892
 7748SOL    HW234878   0.993   2.880   9.701  0.8430  0.5003  1.0548
 7749SOL     OW34879   2.771   2.412  12.346 -0.1336 -0.7932  0.0684
 7749SOL    HW134880   2.758   2.374  12.433 -0.0874  0.9110  0.8184
 7749SOL    HW234881   2.827   2.486  12.369 -0.8506  0.3927 -1.9399
 7750SOL     OW34882   4.107   0.798   7.437 -0.2640  0.0439  0.0323
 7750SOL    HW134883   4.071   0.730   7.494  1.0221 -0.3587  0.3567
 7750SOL    HW234884   4.114   0.869   7.501  0.0253 -1.1250  1.2888
 7751SOL     OW34885   1.915   0.835   6.462  0.0955  0.7866  0.2792
 7751SOL    HW134886   1.871   0.895   6.401 -1.6269 -2.2659 -1.5060
 7751SOL    HW234887   1.994   0.811   6.413  0.1417 -0.0452  0.7575
 7752SOL     OW34888   0.757   3.397   6.246  0.0367 -0.1424 -0.0505
 7752SOL    HW134889   0.831   3.452   6.220 -0.7007  1.3889  1.0726
 7752SOL    HW234890   0.760   3.382   6.341  0.0761  1.5118  0.2029
 7753SOL     OW34891   0.223   2.574  12.104  0.1376 -0.0244  0.0133
 7753SOL    HW134892   0.317   2.577  12.121 -0.0127  0.1206  0.7976
 7753SOL    HW234893   0.187   2.583  12.192 -1.7281 -0.5707 -0.6957
 7754SOL     OW34894   1.196   2.686   8.056 -0.4175  0.0642  0.4492
 7754SOL    HW134895   1.205   2.681   7.961  2.3815 -3.2723  0.8748
 7754SOL    HW234896   1.265   2.750   8.078  0.0599 -0.1598 -0.3953
 7755SOL     OW34897   3.579   3.244   2.738 -0.3201  0.1414 -0.0802
 7755SOL    HW134898   3.629   3.256   2.658  1.0813  1.2139  0.9641
 7755SOL    HW234899   3.625   3.165   2.764  0.6574  1.1877  1.3952
 7756SOL     OW34900   2.751   0.248   0.926  0.0941  1.0295  0.7039
 7756SOL    HW134901   2.839   0.284   0.913  0.4408 -0.2059 -0.3974
 7756SOL    HW234902   2.778   0.156   0.921 -0.6176  0.8555  0.0992
 7757SOL     OW34903   1.338   1.943   4.518 -0.5102  0.0551  0.0383
 7757SOL    HW134904   1.371   2.002   4.450  1.4045 -0.8040  0.2260
 7757SOL    HW234905   1.415   1.886   4.521 -2.0483 -1.9954  0.2743
 7758SOL     OW34906   0.723   1.134   5.310  0.0749 -0.3605  0.5339
 7758SOL    HW134907   0.650   1.071   5.313  0.7293 -1.2745 -2.9125
 7758SOL    HW234908   0.792   1.101   5.368 -0.0834  2.0532  2.0809
 7759SOL     OW34909   1.033   3.350   5.086 -0.0149  0.1365  0.9256
 7759SOL    HW134910   1.080   3.430   5.112 -1.7886  1.7967 -0.9875
 7759SOL    HW234911   0.947   3.356   5.127 -0.9300 -3.0275 -0.5845
 7760SOL     OW34912   3.611   1.298   9.603  1.2008 -0.4509  0.4394
 7760SOL    HW134913   3.691   1.303   9.551 -0.5583 -1.3263 -2.3897
 7760SOL    HW234914   3.639   1.305   9.694  1.3421 -2.2956  0.5247
 7761SOL     OW34915   2.684   2.935   4.485 -0.0632 -0.4131  0.2582
 7761SOL    HW134916   2.748   2.996   4.448 -0.0465 -0.8226 -0.3848
 7761SOL    HW234917   2.598   2.963   4.453  0.3807 -0.5725 -1.0668
 7762SOL     OW34918   3.600   3.579   9.234 -0.1863  0.1440 -0.3282
 7762SOL    HW134919   3.692   3.605   9.226 -0.4951  1.2770 -0.2449
 7762SOL    HW234920   3.610   3.508   9.296  0.1258  0.4747 -0.0007
 7763SOL     OW34921   4.217   0.820  17.611  0.6841  0.0766 -0.6256
 7763SOL    HW134922   4.307   0.847  17.594 -0.1062  2.5817 -0.7626
 7763SOL    HW234923   4.197   0.888  17.675 -1.4720 -0.7466 -0.4069
 7764SOL     OW34924   2.717   3.124  17.040 -0.2974 -0.5317  0.3565
 7764SOL    HW134925   2.636   3.116  17.091 -0.4403 -2.0545 -0.1199
 7764SOL    HW234926   2.713   3.047  16.984 -0.2662 -0.7772  0.6959
 7765SOL     OW34927   0.930   2.152   9.007  0.1831 -0.0194 -0.5119
 7765SOL    HW134928   0.884   2.131   8.926  2.5597  0.8374 -2.0903
 7765SOL    HW234929   0.900   2.071   9.050  0.8563  0.8246  1.5512
 7766SOL     OW34930   0.350   0.005   2.156 -0.1915  0.1640  0.2727
 7766SOL    HW134931   0.270   4.736   2.208 -1.1130 -1.5168 -1.3813
 7766SOL    HW234932   0.391   4.659   2.177 -1.6647 -0.3131  1.2143
 7767SOL     OW34933   0.805   3.621  15.401  0.0492  0.3038 -0.2754
 7767SOL    HW134934   0.870   3.656  15.340  0.9523 -0.7740  0.0654
 7767SOL    HW234935   0.858   3.580  15.470  1.0185  0.2254 -1.0636
 7768SOL     OW34936   3.438   2.143  14.589 -0.0288 -0.0602  0.1809
 7768SOL    HW134937   3.442   2.238  14.601 -2.5406  0.0730  0.0339
 7768SOL    HW234938   3.513   2.125  14.646 -1.1500  0.2659  1.7608
 7769SOL     OW34939   4.127   1.291  10.324 -0.2951  0.3064  0.1926
 7769SOL    HW134940   4.089   1.300  10.412 -3.1729 -0.6556 -0.9396
 7769SOL    HW234941   4.140   1.196  10.319  1.5648  0.4817  1.5965
 7770SOL     OW34942   0.162   0.951   9.446 -0.3884  0.1528 -0.2097
 7770SOL    HW134943   0.215   0.911   9.515 -0.0518 -1.0681 -1.1733
 7770SOL    HW234944   0.082   0.899   9.448 -1.9595  2.6274  0.8406
 7771SOL     OW34945   2.771   1.051   5.018  0.1668 -0.3727  0.3371
 7771SOL    HW134946   2.770   0.972   4.965  1.6290  0.6979 -1.3167
 7771SOL    HW234947   2.687   1.034   5.060  0.1612 -0.5059  0.2725
 7772SOL     OW34948   2.886   0.779   3.253  0.0818  1.0795  0.1543
 7772SOL    HW134949   2.821   0.776   3.323  0.7687  0.3486  0.7513
 7772SOL    HW234950   2.924   0.861   3.285  1.9037  0.2441  0.0927
 7773SOL     OW34951   1.929   0.619   0.977  0.1378  0.0991  0.4537
 7773SOL    HW134952   1.951   0.626   1.070  2.0649  3.2542 -0.2548
 7773SOL    HW234953   1.997   0.673   0.937 -0.7650  1.3010  0.5348
 7774SOL     OW34954   3.633   4.652   3.006  0.3898  0.1589 -0.5296
 7774SOL    HW134955   3.569   4.667   3.075  0.9550  1.4932 -0.2931
 7774SOL    HW234956   3.705   4.711   3.030  1.5776 -1.7031  0.4534
 7775SOL     OW34957   0.282   3.422   5.586  0.3119 -0.6520  0.3495
 7775SOL    HW134958   0.306   3.442   5.676  1.9034  2.5956 -0.8091
 7775SOL    HW234959   0.190   3.446   5.599  0.7966  1.7437 -0.6335
 7776SOL     OW34960   0.052   0.080   6.163  0.8181  0.2624  0.0136
 7776SOL    HW134961   0.054   0.087   6.068  0.0841  0.3419  0.0012
 7776SOL    HW234962   0.070   0.169   6.191 -1.6838  1.4993 -2.2892
 7777SOL     OW34963   2.676   0.907   3.452  0.3401  0.1587  0.0005
 7777SOL    HW134964   2.679   0.907   3.548  0.7992 -0.3620 -0.0138
 7777SOL    HW234965   2.735   0.978   3.430  0.6498  0.5438  2.0501
 7778SOL     OW34966   4.066   1.058  14.808 -0.1049  0.3573  0.2058
 7778SOL    HW134967   4.004   1.050  14.880 -0.2771  0.5960  0.0794
 7778SOL    HW234968   4.043   0.979  14.759 -3.1736  1.3062  0.1508
 7779SOL     OW34969   1.827   2.493  13.599 -0.5217 -0.5953 -0.4324
 7779SOL    HW134970   1.822   2.435  13.675 -1.7609 -0.2312 -0.2486
 7779SOL    HW234971   1.806   2.432  13.528 -1.2372  0.0683 -0.7845
 7780SOL     OW34972   3.671   1.359   2.807  0.5347  0.9977  0.0181
 7780SOL    HW134973   3.686   1.307   2.886  1.5526  0.3147 -0.6106
 7780SOL    HW234974   3.630   1.289   2.755  0.9485  1.9990 -1.6724
 7781SOL     OW34975   3.970   3.770   5.575 -0.5333  0.3066  0.0898
 7781SOL    HW134976   4.016   3.697   5.534 -0.5051  1.4341 -1.8937
 7781SOL    HW234977   3.895   3.712   5.592  0.2663 -1.1521 -1.3592
 7782SOL     OW34978   0.435   0.047   7.827  0.4329 -0.7838  0.0786
 7782SOL    HW134979   0.453   4.736   7.907  1.9229  0.9375  0.7840
 7782SOL    HW234980   0.516   0.028   7.780  0.3626 -1.0395  0.0611
 7783SOL     OW34981   4.441   3.001   2.683 -0.4523  0.1406 -0.4112
 7783SOL    HW134982   4.394   3.075   2.721  0.7267  0.6023  0.1409
 7783SOL    HW234983   4.527   3.009   2.725 -0.3951 -0.4609 -0.4070
 7784SOL     OW34984   0.338   1.517   3.140 -0.5197 -0.1025 -0.1148
 7784SOL    HW134985   0.292   1.472   3.212  0.9004 -0.5922  0.4885
 7784SOL    HW234986   0.426   1.524   3.177 -1.2679  2.3278  1.1936
 7785SOL     OW34987   2.911   2.424  16.566  0.4153 -0.2184 -0.1210
 7785SOL    HW134988   2.949   2.451  16.482  2.1583  0.3120  0.8332
 7785SOL    HW234989   2.877   2.337  16.545 -2.9935  0.8983  0.7055
 7786SOL     OW34990   2.037   0.577   0.050  0.3823 -0.0584  0.0639
 7786SOL    HW134991   2.111   0.530   0.087  1.5763  1.0549 -0.9013
 7786SOL    HW234992   1.975   0.524   0.100 -1.4668  0.0648 -2.0848
 7787SOL     OW34993   0.174   2.183  17.530 -0.2111  0.0783  0.1917
 7787SOL    HW134994   0.223   2.265  17.538  0.9899 -0.5992 -0.2674
 7787SOL    HW234995   0.100   2.216  17.480 -0.5161 -0.6657  0.1542
 7788SOL     OW34996   2.813   3.232   8.492  0.2320 -0.1369  0.1619
 7788SOL    HW134997   2.768   3.222   8.408 -0.5813  0.3979  0.5409
 7788SOL    HW234998   2.855   3.316   8.476 -0.7496  0.3906  0.3544
 7789SOL     OW34999   1.680   2.028   8.092  0.2355  1.0334 -0.5797
 7789SOL    HW135000   1.708   1.985   8.173 -2.6441 -0.8180 -0.5727
 7789SOL    HW235001   1.759   2.031   8.038  0.1421 -1.3169 -0.8422
 7790SOL     OW35002   4.559   2.655   5.859  0.0395  0.2090  0.5655
 7790SOL    HW135003   4.520   2.648   5.946 -0.3915 -0.8138  0.3003
 7790SOL    HW235004   4.643   2.686   5.893 -0.1533  0.2612  0.9874
 7791SOL     OW35005   1.116   0.953  10.456 -0.1428 -0.2421  0.4337
 7791SOL    HW135006   1.045   0.912  10.505  0.0142  0.8922  1.6145
 7791SOL    HW235007   1.075   0.960  10.370  0.4975  1.6407  0.2889
 7792SOL     OW35008   4.591   3.979   3.857 -0.1118  0.0035  0.0092
 7792SOL    HW135009   4.549   3.893   3.846  0.5679 -0.2623 -0.4589
 7792SOL    HW235010   4.665   3.973   3.798  0.1725  2.1235  0.1687
 7793SOL     OW35011   1.571   2.073  10.309 -0.5266 -0.0093  0.4319
 7793SOL    HW135012   1.651   2.120  10.285 -1.5570  0.4042 -2.0778
 7793SOL    HW235013   1.510   2.136  10.272  1.2271  0.6684 -1.2858
 7794SOL     OW35014   3.672   4.518   6.394  0.7350 -0.4365  0.1689
 7794SOL    HW135015   3.751   4.469   6.416  1.8725  0.8231 -1.1127
 7794SOL    HW235016   3.685   4.513   6.300 -4.0301 -0.5260 -0.4893
 7795SOL     OW35017   2.675   4.072  13.103 -0.4125 -0.4070 -0.2564
 7795SOL    HW135018   2.657   3.985  13.066  1.3291 -0.9277  0.1415
 7795SOL    HW235019   2.770   4.070  13.098 -0.3286 -1.5682  2.2529
 7796SOL     OW35020   3.014   3.290   2.803 -0.1065 -0.1949  0.6662
 7796SOL    HW135021   3.076   3.351   2.840  0.0168  0.5633 -0.7768
 7796SOL    HW235022   3.030   3.305   2.710  1.0682 -1.0676  0.7286
 7797SOL     OW35023   1.649   3.305   9.958 -0.0768 -0.2495 -0.6685
 7797SOL    HW135024   1.745   3.301   9.963  0.0564  0.1535 -2.5740
 7797SOL    HW235025   1.625   3.389   9.998  2.5749 -0.3451  1.1084
 7798SOL     OW35026   3.752   3.350   1.361 -0.0033 -0.0654 -0.0718
 7798SOL    HW135027   3.718   3.281   1.418 -1.2818  2.2789  2.0535
 7798SOL    HW235028   3.747   3.432   1.411 -1.1013 -0.2904  0.1990
 7799SOL     OW35029   3.307   0.497  12.866 -0.6424 -0.3727  0.1474
 7799SOL    HW135030   3.341   0.581  12.899  0.5148 -0.1793 -1.5131
 7799SOL    HW235031   3.307   0.522  12.773 -1.6902  0.1165  0.2872
 7800SOL     OW35032   2.610   3.969   5.818 -0.5412  0.1975  0.2974
 7800SOL    HW135033   2.660   3.904   5.868  0.1759 -0.1706 -0.8728
 7800SOL    HW235034   2.676   4.032   5.789 -3.7356  2.5185 -1.7703
 7801SOL     OW35035   2.785   0.734   2.525  0.3572 -0.2545  0.3692
 7801SOL    HW135036   2.779   0.754   2.431  2.1990 -0.1872  0.2667
 7801SOL    HW235037   2.710   0.676   2.537 -0.3750  0.9374  1.6369
 7802SOL     OW35038   0.600   4.736   2.348  0.2448 -0.3492  0.2707
 7802SOL    HW135039   0.556   4.652   2.337  0.0656 -0.3004  0.6066
 7802SOL    HW235040   0.647   0.011   2.266 -0.7470 -0.5568 -0.3139
 7803SOL     OW35041   3.176   4.577  10.580 -0.4258 -0.6956 -0.5894
 7803SOL    HW135042   3.215   4.580  10.667  1.1976 -1.1473 -1.3010
 7803SOL    HW235043   3.258   4.588  10.532  1.1097  0.5733  2.3580
 7804SOL     OW35044   0.735   4.553   6.809  0.5237  0.2235 -0.1936
 7804SOL    HW135045   0.793   4.584   6.878  2.3585 -1.4151 -0.9784
 7804SOL    HW235046   0.671   4.513   6.868  1.1237  0.3206  0.5185
 7805SOL     OW35047   3.289   0.657   2.430 -0.1785 -0.0790 -0.1779
 7805SOL    HW135048   3.290   0.633   2.523 -1.0628  0.4897 -0.0176
 7805SOL    HW235049   3.206   0.705   2.429  0.3195  0.7808 -0.6446
 7806SOL     OW35050   1.569   1.331   5.606 -1.0262 -0.5937  0.1959
 7806SOL    HW135051   1.489   1.279   5.594  0.4268 -2.6977 -0.3039
 7806SOL    HW235052   1.544   1.424   5.605 -0.0722 -0.3370  0.3776
 7807SOL     OW35053   2.366   1.905   7.101 -0.1244 -0.0319 -0.2724
 7807SOL    HW135054   2.275   1.930   7.113  0.4936  0.9611  2.2568
 7807SOL    HW235055   2.415   1.967   7.155  1.9119 -1.2436 -0.7199
 7808SOL     OW35056   0.424   4.326   5.406  0.0646 -0.0040  0.1506
 7808SOL    HW135057   0.393   4.236   5.400 -0.4897  0.1000  1.4649
 7808SOL    HW235058   0.339   4.368   5.411 -0.2220 -0.2042 -3.0829
 7809SOL     OW35059   4.532   1.331   5.411  0.0739  0.0853  0.2770
 7809SOL    HW135060   4.449   1.344   5.456 -0.3857 -1.6313 -0.0750
 7809SOL    HW235061   4.533   1.394   5.338 -1.4671  2.0666  1.9626
 7810SOL     OW35062   2.366   0.526  10.559  0.0689 -0.1498  0.2957
 7810SOL    HW135063   2.419   0.581  10.616  1.5047 -0.1473 -1.0545
 7810SOL    HW235064   2.377   0.570  10.474  2.5891 -0.5631  0.4057
 7811SOL     OW35065   4.523   2.459  14.500 -0.0213  0.3380 -0.0832
 7811SOL    HW135066   4.543   2.497  14.414  2.9978  0.9179  0.8756
 7811SOL    HW235067   4.496   2.539  14.546  2.3375  2.3292 -2.0940
 7812SOL     OW35068   3.744   1.387   0.619  0.0494  0.4907 -0.2887
 7812SOL    HW135069   3.731   1.481   0.611  2.7770  1.0139  1.4181
 7812SOL    HW235070   3.661   1.359   0.657  1.3436  0.5634  2.5589
 7813SOL     OW35071   4.564   3.146   3.341 -0.4311  0.5626 -0.0827
 7813SOL    HW135072   4.538   3.097   3.264  2.2814 -2.0685  0.6784
 7813SOL    HW235073   4.658   3.157   3.328 -0.2227 -0.5924  0.5117
 7814SOL     OW35074   2.333   2.576   5.549 -0.8053 -0.3904  0.1716
 7814SOL    HW135075   2.422   2.571   5.584 -0.2044  2.0256 -1.0226
 7814SOL    HW235076   2.296   2.524   5.620 -3.4049 -1.9079 -2.2895
 7815SOL     OW35077   4.609   3.114  11.336 -0.1203 -0.3705  0.5840
 7815SOL    HW135078   4.680   3.110  11.401  0.1711 -2.1046  0.1628
 7815SOL    HW235079   4.527   3.114  11.385 -1.0083  1.9098 -0.8899
 7816SOL     OW35080   1.336   1.802   6.035  0.7116  0.3103  0.4575
 7816SOL    HW135081   1.245   1.791   6.063  0.1135 -1.1810 -2.1324
 7816SOL    HW235082   1.366   1.882   6.079  1.6441  0.5712 -0.6731
 7817SOL     OW35083   1.170   4.603  14.937 -0.2719  0.3395  0.2668
 7817SOL    HW135084   1.247   4.636  14.982  1.5564 -0.5584 -2.2364
 7817SOL    HW235085   1.170   4.513  14.969  2.0927 -0.2172 -1.3426
 7818SOL     OW35086   0.267   4.436   2.418 -0.2296  0.2647  0.8104
 7818SOL    HW135087   0.268   4.341   2.428  0.7514 -0.0852 -2.6929
 7818SOL    HW235088   0.288   4.468   2.506  0.0227  0.4141  0.6950
 7819SOL     OW35089   1.824   2.394   7.799  0.1561  0.4649  0.5996
 7819SOL    HW135090   1.851   2.481   7.771 -0.1420  0.1854 -0.5419
 7819SOL    HW235091   1.848   2.344   7.722 -2.6416 -0.4221  0.2848
 7820SOL     OW35092   3.177   2.954   0.116  0.3037  0.2642  0.4955
 7820SOL    HW135093   3.118   2.945   0.041  2.0344  2.3838 -1.0935
 7820SOL    HW235094   3.264   2.952   0.077  0.1253  1.2481  0.0538
 7821SOL     OW35095   2.802   3.333   8.981 -0.1205  0.7050  0.1288
 7821SOL    HW135096   2.869   3.370   8.923  0.5103 -0.1793  0.3052
 7821SOL    HW235097   2.814   3.239   8.966 -0.3885  0.4952  1.2751
 7822SOL     OW35098   0.926   3.159  17.144  0.3902  0.1199 -0.2301
 7822SOL    HW135099   0.968   3.186  17.226  2.1113 -0.5327 -0.8973
 7822SOL    HW235100   0.989   3.204  17.088  1.0326  2.0949  2.1148
 7823SOL     OW35101   0.937   2.701  13.702 -0.1087  0.3870 -0.3563
 7823SOL    HW135102   0.976   2.743  13.626 -0.3707 -1.3092 -1.4218
 7823SOL    HW235103   0.995   2.625  13.707 -0.1244  0.3562 -0.6633
 7824SOL     OW35104   0.500   1.516   6.318  0.7280  0.3465 -0.6411
 7824SOL    HW135105   0.443   1.444   6.293  1.0251  0.7517 -2.5173
 7824SOL    HW235106   0.567   1.471   6.369 -0.0965 -0.7870 -0.5675
 7825SOL     OW35107   1.620   3.113   7.484  0.1258 -0.4558 -0.2476
 7825SOL    HW135108   1.564   3.072   7.418 -0.5709  0.9021 -0.5123
 7825SOL    HW235109   1.697   3.148   7.440  0.6415 -0.8454  0.3390
 7826SOL     OW35110   2.237   0.822   1.728  0.0710 -0.0437  0.7163
 7826SOL    HW135111   2.153   0.791   1.764  0.9857 -1.1691  1.8723
 7826SOL    HW235112   2.227   0.821   1.632  1.5035  1.7362  0.5581
 7827SOL     OW35113   1.098   1.049  12.107 -0.0921 -0.4901 -0.1663
 7827SOL    HW135114   1.008   1.035  12.136  0.0892 -2.3628 -0.4915
 7827SOL    HW235115   1.090   1.142  12.084  0.6702 -0.8270 -1.8479
 7828SOL     OW35116   1.679   1.583   8.434  0.0968 -0.1398 -0.1281
 7828SOL    HW135117   1.743   1.543   8.493  1.7431  1.2037 -0.9942
 7828SOL    HW235118   1.680   1.671   8.471 -0.6918 -0.7362  1.3365
 7829SOL     OW35119   0.333   0.770   3.147 -0.2976  0.2700 -0.2534
 7829SOL    HW135120   0.366   0.806   3.065 -1.6461  0.3330 -0.7684
 7829SOL    HW235121   0.408   0.733   3.194 -0.1923  1.5712  0.6045
 7830SOL     OW35122   0.560   4.135   2.543 -0.0107 -0.6095 -0.6276
 7830SOL    HW135123   0.590   4.224   2.527  0.2423 -0.5486  0.1810
 7830SOL    HW235124   0.472   4.151   2.577  1.0690  0.1764  1.7998
 7831SOL     OW35125   4.239   3.655   9.482  0.0207  0.2072 -0.4111
 7831SOL    HW135126   4.199   3.727   9.530  0.3989  0.3323 -0.2807
 7831SOL    HW235127   4.334   3.660   9.495  0.1041 -1.3618 -0.4546
 7832SOL     OW35128   4.488   3.752   9.502 -0.1977  0.0624  0.4183
 7832SOL    HW135129   4.489   3.823   9.438  2.9581 -0.5582 -0.1888
 7832SOL    HW235130   4.564   3.699   9.480 -0.2974  0.1209 -0.0492
 7833SOL     OW35131   3.030   1.263   2.213  0.0079  0.2104 -0.0190
 7833SOL    HW135132   3.087   1.294   2.142 -0.7331  0.1030 -0.6601
 7833SOL    HW235133   2.943   1.277   2.176 -0.7622  0.7783  2.0299
 7834SOL     OW35134   1.942   2.374   0.314  0.7551 -0.2533  0.0710
 7834SOL    HW135135   1.961   2.421   0.233  0.8798 -1.5000 -0.6116
 7834SOL    HW235136   2.017   2.315   0.322  1.5111  0.6047 -0.6457
 7835SOL     OW35137   2.795   4.562  16.901  0.2784 -0.2614  0.3818
 7835SOL    HW135138   2.768   4.616  16.975  1.7269  0.5380  0.3349
 7835SOL    HW235139   2.853   4.626  16.858 -1.4769  0.5568 -0.7840
 7836SOL     OW35140   0.914   0.539   9.187  0.1703 -0.0731  0.0890
 7836SOL    HW135141   1.000   0.508   9.216 -0.4811 -1.5747  0.4270
 7836SOL    HW235142   0.887   0.587   9.265 -1.7070  0.6689 -1.0173
 7837SOL     OW35143   0.288   3.042  14.330 -0.3116  0.0388  0.3099
 7837SOL    HW135144   0.223   3.073  14.393  1.2222  1.5951  1.1245
 7837SOL    HW235145   0.366   3.034  14.384 -0.8767 -0.2154  1.0892
 7838SOL     OW35146   0.113   1.046   9.122  0.1911 -0.3462  0.3170
 7838SOL    HW135147   0.025   1.061   9.155  0.3410 -1.0850  1.0535
 7838SOL    HW235148   0.093   0.978   9.058  0.4358 -1.1617  1.1195
 7839SOL     OW35149   1.747   2.069   7.135  0.3327  0.0743  0.1031
 7839SOL    HW135150   1.800   2.149   7.129 -0.6937  0.7484  0.0287
 7839SOL    HW235151   1.764   2.017   7.057  0.5991  0.9082 -0.3948
 7840SOL     OW35152   1.989   4.328   3.517 -0.5104 -0.3672 -0.3310
 7840SOL    HW135153   1.933   4.274   3.572 -0.8263  1.0108  0.7078
 7840SOL    HW235154   1.985   4.272   3.439  0.5512 -1.1740  0.1985
 7841SOL     OW35155   3.946   0.045   9.136 -0.5642  0.6581 -0.1617
 7841SOL    HW135156   3.942   0.057   9.231 -0.4425 -2.9088  0.3237
 7841SOL    HW235157   4.042   0.043   9.139 -0.6328 -3.1401  0.1428
 7842SOL     OW35158   0.488   0.722  12.765  0.8016 -0.0025 -0.3829
 7842SOL    HW135159   0.491   0.812  12.798 -1.6045  0.3149 -1.0193
 7842SOL    HW235160   0.566   0.682  12.804  0.3601 -0.1957  0.2832
 7843SOL     OW35161   3.495   1.032   5.505  0.2193 -0.6593 -0.2405
 7843SOL    HW135162   3.568   1.090   5.481  0.6521 -1.0302  0.1789
 7843SOL    HW235163   3.443   1.094   5.557 -0.1067  0.5938 -2.0776
 7844SOL     OW35164   2.783   2.121   7.317  0.1732 -0.3142  0.5788
 7844SOL    HW135165   2.809   2.102   7.407  2.2443  0.2533  0.1087
 7844SOL    HW235166   2.823   2.207   7.308 -2.4945  0.9136  0.5878
 7845SOL     OW35167   4.455   0.409   9.664 -0.5473  0.1234  0.1250
 7845SOL    HW135168   4.512   0.335   9.641 -3.1077 -1.8798  0.1331
 7845SOL    HW235169   4.374   0.367   9.694 -0.9072 -0.5923 -1.8334
 7846SOL     OW35170   4.535   1.532   1.858  0.5193  0.1679 -0.3854
 7846SOL    HW135171   4.563   1.521   1.949 -0.6783  1.4472  0.1337
 7846SOL    HW235172   4.517   1.625   1.860 -0.0754  0.0443 -0.0200
 7847SOL     OW35173   3.856   0.030   7.363  0.1113  0.3018  0.0716
 7847SOL    HW135174   3.808   0.101   7.406  1.1654  1.0710 -0.0088
 7847SOL    HW235175   3.887   0.067   7.281 -0.3679 -0.2197 -0.3425
 7848SOL     OW35176   3.384   1.757   7.158 -0.1648  0.0879 -0.3487
 7848SOL    HW135177   3.304   1.714   7.189  0.1468  0.0863  0.4531
 7848SOL    HW235178   3.436   1.681   7.130  0.5823  0.5642 -0.2524
 7849SOL     OW35179   4.040   1.267   5.000  0.4288 -0.0064  0.4453
 7849SOL    HW135180   4.114   1.261   5.061  0.0810 -1.9459  0.6813
 7849SOL    HW235181   4.078   1.213   4.931  0.7427 -1.0099  1.3963
 7850SOL     OW35182   4.566   1.564   2.130  0.0928 -0.3462 -0.0860
 7850SOL    HW135183   4.487   1.609   2.160  0.2078 -0.1539 -0.0715
 7850SOL    HW235184   4.629   1.634   2.147  0.4425 -0.6423 -0.1742
 7851SOL     OW35185   0.917   4.306   8.099  0.5134  0.0401 -0.3886
 7851SOL    HW135186   0.928   4.298   8.194  0.0622 -4.4531 -0.7182
 7851SOL    HW235187   0.962   4.387   8.076  1.4113 -0.2605  0.2972
 7852SOL     OW35188   3.237   4.680   5.972  0.0993 -0.0039 -0.8567
 7852SOL    HW135189   3.269   0.026   5.938  1.4231  0.0843  0.6308
 7852SOL    HW235190   3.159   4.659   5.921 -0.0063  2.2090 -1.5888
 7853SOL     OW35191   2.411   0.908   9.712  0.2994 -0.0517 -0.0321
 7853SOL    HW135192   2.478   0.949   9.767  1.9560  0.2215 -2.2139
 7853SOL    HW235193   2.450   0.822   9.699  0.0367 -0.2262  0.3813
 7854SOL     OW35194   2.555   4.392   4.991  0.0110  0.0640  0.3275
 7854SOL    HW135195   2.523   4.340   5.065 -2.0587 -0.2055 -0.7584
 7854SOL    HW235196   2.512   4.345   4.919  1.9409  0.3089 -0.9999
 7855SOL     OW35197   3.181   3.123  13.210 -0.2059  0.4308  0.0005
 7855SOL    HW135198   3.167   3.207  13.254 -0.9510  0.6298 -0.6150
 7855SOL    HW235199   3.193   3.072  13.290 -1.1097 -1.5799 -1.1400
 7856SOL     OW35200   1.334   0.360   1.123  0.7127 -0.1072 -0.1819
 7856SOL    HW135201   1.400   0.430   1.123 -0.3293  0.8851  1.3278
 7856SOL    HW235202   1.263   0.416   1.091  1.0781 -0.3896 -1.4630
 7857SOL     OW35203   0.058   0.019   1.093 -0.0240  0.4609  0.4381
 7857SOL    HW135204   0.020   0.104   1.114 -1.4404 -0.1828  0.4573
 7857SOL    HW235205   0.039   4.712   1.175  1.2085  0.7475  0.8837
 7858SOL     OW35206   3.648   3.648   5.867 -0.4514 -0.3538  0.2042
 7858SOL    HW135207   3.620   3.618   5.954  0.0659  0.7945  0.7730
 7858SOL    HW235208   3.566   3.694   5.851  0.3491  0.5136 -1.4339
 7859SOL     OW35209   4.045   1.119   9.054  0.0767  0.1013 -0.3765
 7859SOL    HW135210   3.953   1.147   9.052 -0.0610 -0.3967 -0.8070
 7859SOL    HW235211   4.068   1.158   9.139 -0.3934  2.1841 -1.1966
 7860SOL     OW35212   2.886   4.666   5.393 -0.3690 -0.3776 -0.9338
 7860SOL    HW135213   2.822   4.725   5.354  1.4505  0.7998 -2.1235
 7860SOL    HW235214   2.899   4.606   5.320 -2.5187 -1.3729 -0.5236
 7861SOL     OW35215   2.929   3.637  17.195  0.1208 -0.2125 -0.0446
 7861SOL    HW135216   2.893   3.636  17.106  1.7786 -1.6484 -0.7014
 7861SOL    HW235217   2.936   3.732  17.207  0.2709 -0.0994 -0.9871
 7862SOL     OW35218   2.779   3.086   8.723  0.6656 -0.4937 -0.4017
 7862SOL    HW135219   2.860   3.102   8.770 -0.5550  0.4769  1.3826
 7862SOL    HW235220   2.810   3.107   8.635  0.5854  0.2141 -0.2580
 7863SOL     OW35221   2.323   3.320  13.927 -0.0532 -0.5054  0.0817
 7863SOL    HW135222   2.372   3.397  13.955 -1.6106  1.0201 -1.4599
 7863SOL    HW235223   2.229   3.337  13.931  0.0490  0.3053 -1.0310
 7864SOL     OW35224   1.172   1.767   5.471  0.3102  0.6435 -0.2916
 7864SOL    HW135225   1.219   1.849   5.454  1.7052  0.2424  1.5329
 7864SOL    HW235226   1.154   1.785   5.563  0.0374 -0.9678 -0.0353
 7865SOL     OW35227   4.356   1.090   8.506 -0.7625  0.1082 -0.1528
 7865SOL    HW135228   4.433   1.033   8.501 -0.5134  0.6856 -2.8527
 7865SOL    HW235229   4.289   1.023   8.487 -0.9621  0.2398  0.0858
 7866SOL     OW35230   0.093   1.577   1.227 -0.4224 -0.1465 -0.3193
 7866SOL    HW135231   0.063   1.651   1.279 -0.0560 -0.1524 -0.0955
 7866SOL    HW235232   0.180   1.568   1.267  0.2477  1.8126 -1.3302
 7867SOL     OW35233   2.890   2.776   9.153 -0.1551  0.1260 -0.5669
 7867SOL    HW135234   2.805   2.805   9.185 -0.1564  0.1401 -0.5838
 7867SOL    HW235235   2.955   2.821   9.208  0.2119 -0.4040 -0.5667
 7868SOL     OW35236   3.919   2.143   1.913 -0.3973  0.4830 -0.1761
 7868SOL    HW135237   3.997   2.191   1.887 -0.3934  0.4694 -0.1895
 7868SOL    HW235238   3.910   2.161   2.007  0.8864  0.5854 -0.0689
 7869SOL     OW35239   1.851   0.022   6.249 -0.1701 -0.2942  0.0298
 7869SOL    HW135240   1.888   0.022   6.161 -3.2623 -2.7711 -1.3006
 7869SOL    HW235241   1.831   0.113   6.268  2.1905 -0.2175  2.1234
 7870SOL     OW35242   1.132   0.521   1.037  0.1920 -0.3696  0.2418
 7870SOL    HW135243   1.124   0.613   1.010 -1.2400 -0.7429 -0.5830
 7870SOL    HW235244   1.039   0.503   1.051  0.0536  0.1403 -0.0411
 7871SOL     OW35245   1.961   3.784  15.709  0.3872 -0.4519 -0.8015
 7871SOL    HW135246   1.888   3.779  15.648 -1.3844  1.7253  1.1419
 7871SOL    HW235247   1.974   3.879  15.712  0.7377 -0.5190 -0.1527
 7872SOL     OW35248   0.525   3.965   6.637 -0.0896  0.5607  0.3128
 7872SOL    HW135249   0.524   3.895   6.702 -0.4201  1.9221  1.7493
 7872SOL    HW235250   0.618   3.971   6.613 -0.2568  2.9090  0.2620
 7873SOL     OW35251   2.104   3.919   9.096  0.1826 -0.2710  0.8083
 7873SOL    HW135252   2.081   3.943   9.006 -0.0222  0.5700  1.0910
 7873SOL    HW235253   2.094   4.002   9.141  1.3959 -0.9290  2.3002
 7874SOL     OW35254   0.426   3.548   2.799  0.0933  0.1007 -0.2893
 7874SOL    HW135255   0.456   3.577   2.885  0.1646 -0.2000 -0.2138
 7874SOL    HW235256   0.442   3.631   2.753 -1.0610 -0.6043 -1.9623
 7875SOL     OW35257   4.064   2.174   4.994  0.3594 -0.1453 -0.8631
 7875SOL    HW135258   4.086   2.217   5.077 -1.3197  0.2117 -0.6031
 7875SOL    HW235259   4.120   2.218   4.931  1.1120  0.7580  0.4467
 7876SOL     OW35260   2.632   3.815  11.616  0.5719  0.9706  0.0458
 7876SOL    HW135261   2.538   3.834  11.625  0.7339  0.5356  2.6352
 7876SOL    HW235262   2.663   3.874  11.547 -2.9854  1.8612 -0.8006
 7877SOL     OW35263   0.718   1.865   9.464 -0.0073  0.0658  0.3694
 7877SOL    HW135264   0.772   1.941   9.487 -0.1420  0.5433 -0.8853
 7877SOL    HW235265   0.784   1.805   9.428  0.8113  1.2460 -0.1100
 7878SOL     OW35266   0.421   0.634   7.534 -0.0982 -0.8182 -0.1617
 7878SOL    HW135267   0.459   0.560   7.582 -0.9337 -0.8167  0.4902
 7878SOL    HW235268   0.334   0.631   7.573  0.6389 -0.4273  1.5207
 7879SOL     OW35269   2.036   1.487   3.857 -0.4427  0.8243  0.3603
 7879SOL    HW135270   1.975   1.424   3.895  1.7032 -1.3317  0.2169
 7879SOL    HW235271   1.973   1.552   3.824  0.9269  1.3013 -1.3057
 7880SOL     OW35272   2.988   0.412  11.675  0.0570  0.0777 -0.7125
 7880SOL    HW135273   3.007   0.319  11.689 -1.9125  0.1731  2.6023
 7880SOL    HW235274   2.894   0.413  11.655 -0.2836 -4.6997  0.7006
 7881SOL     OW35275   0.042   4.351   6.655 -0.2047 -0.2529 -0.1673
 7881SOL    HW135276   0.099   4.376   6.582  0.5841 -0.4420  0.3843
 7881SOL    HW235277   4.700   4.403   6.641 -1.1383 -1.7182 -0.2354
 7882SOL     OW35278   3.072   2.655   4.882  0.3771  0.3723 -0.1752
 7882SOL    HW135279   3.117   2.715   4.941  1.2661  0.3470 -0.8177
 7882SOL    HW235280   3.029   2.720   4.826  0.3420 -0.8126 -1.5216
 7883SOL     OW35281   1.178   0.440   8.570  0.4433  0.3234  0.3841
 7883SOL    HW135282   1.213   0.433   8.659  0.3544  1.9682  0.5464
 7883SOL    HW235283   1.139   0.527   8.577  0.0991  0.3480 -1.9275
 7884SOL     OW35284   2.739   2.118   6.550  0.1423 -0.3067  0.2171
 7884SOL    HW135285   2.744   2.194   6.608 -1.0783 -0.6851  0.7998
 7884SOL    HW235286   2.831   2.114   6.521 -0.6695  1.7311 -2.6500
 7885SOL     OW35287   4.082   2.965   4.019 -0.0181 -0.1148 -0.0764
 7885SOL    HW135288   3.999   2.968   3.971  0.9480 -0.3551 -1.7687
 7885SOL    HW235289   4.062   2.989   4.109  3.8469  0.8312  0.5465
 7886SOL     OW35290   1.295   3.199   6.203 -0.6626 -0.0529  0.4766
 7886SOL    HW135291   1.376   3.154   6.176 -1.7743 -2.7257  1.6001
 7886SOL    HW235292   1.233   3.172   6.135  0.0154 -0.8490  0.1656
 7887SOL     OW35293   2.483   2.934  16.167 -0.1339  0.5925  0.2088
 7887SOL    HW135294   2.388   2.937  16.153  0.2088  0.8176 -2.0196
 7887SOL    HW235295   2.493   2.853  16.217 -1.1676 -0.6308 -1.5457
 7888SOL     OW35296   4.159   3.516  10.503  0.2062  0.1504 -0.2045
 7888SOL    HW135297   4.175   3.477  10.588  0.4210 -0.4769 -0.5390
 7888SOL    HW235298   4.245   3.512  10.462  2.0670  1.7166  3.5823
 7889SOL     OW35299   3.376   3.448   3.368 -0.4175 -0.0799  0.0924
 7889SOL    HW135300   3.307   3.395   3.409 -1.6036  1.4344  0.0615
 7889SOL    HW235301   3.446   3.383   3.359 -2.5469 -2.5109  1.3428
 7890SOL     OW35302   1.578   0.650   5.880  0.1722  0.5417  0.1466
 7890SOL    HW135303   1.608   0.616   5.965  1.4387  0.0171 -0.4947
 7890SOL    HW235304   1.559   0.574   5.824  0.4119  0.1571  0.5892
 7891SOL     OW35305   4.641   0.572   1.909 -0.2858 -0.2789  0.0136
 7891SOL    HW135306   4.615   0.644   1.851 -0.5217  1.2121  1.9408
 7891SOL    HW235307   4.669   0.509   1.843  1.5061  2.2090 -1.6527
 7892SOL     OW35308   4.402   4.573   7.022  0.0952 -0.4003 -0.2880
 7892SOL    HW135309   4.363   4.488   7.040 -0.2221 -0.1192  0.3616
 7892SOL    HW235310   4.494   4.556   7.045  0.8741 -0.0334 -3.1347
 7893SOL     OW35311   4.647   0.766   6.028  0.2591  0.1406 -0.2334
 7893SOL    HW135312   4.636   0.858   6.054  0.0872 -0.0078  0.2210
 7893SOL    HW235313   4.606   0.763   5.941  0.5895  0.6147 -0.4080
 7894SOL     OW35314   2.099   1.559   1.803  0.0221  0.0613 -0.3161
 7894SOL    HW135315   2.174   1.613   1.779  0.8202 -0.6854  0.5094
 7894SOL    HW235316   2.126   1.468   1.817 -0.6174 -0.4045 -2.1370
 7895SOL     OW35317   2.130   2.878  12.706  0.0613 -0.3211 -0.1866
 7895SOL    HW135318   2.162   2.822  12.777 -0.2805 -0.9223 -0.5117
 7895SOL    HW235319   2.218   2.896  12.674 -1.0836  1.9386 -2.0256
 7896SOL     OW35320   4.120   2.670   3.627  0.5520  0.6782  0.1839
 7896SOL    HW135321   4.105   2.761   3.601  0.8627  0.8497  0.5953
 7896SOL    HW235322   4.130   2.666   3.722 -3.1110  3.3954  0.6785
 7897SOL     OW35323   1.208   1.608   6.700  0.4524  0.3341  0.5030
 7897SOL    HW135324   1.178   1.552   6.771 -0.9091  1.5077  0.8684
 7897SOL    HW235325   1.258   1.672   6.751  0.3101  1.1335 -0.3675
 7898SOL     OW35326   4.223   4.166   3.740  0.7552 -0.0457 -0.3721
 7898SOL    HW135327   4.236   4.074   3.766 -1.6103 -0.1073  0.5991
 7898SOL    HW235328   4.309   4.193   3.707  2.4949 -0.4261  3.8221
 7899SOL     OW35329   4.443   0.811   4.230 -0.2643 -0.2588  0.1364
 7899SOL    HW135330   4.430   0.874   4.159  1.2483  0.6736  0.6850
 7899SOL    HW235331   4.489   0.745   4.178  0.8914 -1.1925  2.3490
 7900SOL     OW35332   3.798   1.628   7.125 -0.2459  0.3746 -0.5187
 7900SOL    HW135333   3.735   1.558   7.107  1.5625 -0.9413 -1.6837
 7900SOL    HW235334   3.844   1.627   7.041  0.3941 -0.4881 -0.1588
 7901SOL     OW35335   2.615   0.449   2.439 -0.1433  0.2347 -0.7316
 7901SOL    HW135336   2.629   0.423   2.530  0.1787 -1.7873 -1.3683
 7901SOL    HW235337   2.532   0.497   2.441  1.0914  2.3309  0.0085
 7902SOL     OW35338   4.701   0.777   7.172  1.1504  0.3610  0.1937
 7902SOL    HW135339   0.021   0.702   7.166  0.7466 -0.1095  2.2920
 7902SOL    HW235340   0.011   0.835   7.232 -0.2240  0.5136  1.1323
 7903SOL     OW35341   1.580   0.290  10.075 -0.3779  0.5125 -0.3601
 7903SOL    HW135342   1.629   0.307   9.994  1.6788  1.0314  0.9659
 7903SOL    HW235343   1.491   0.318  10.057 -1.2545 -2.4645 -0.5446
 7904SOL     OW35344   1.183   1.404   2.579  0.1108 -0.3264  0.1960
 7904SOL    HW135345   1.239   1.336   2.617  0.2139 -0.4138 -0.1149
 7904SOL    HW235346   1.210   1.476   2.636  0.5079 -1.0323  0.9073
 7905SOL     OW35347   2.324   0.628  16.976 -0.0089 -0.3518 -0.5518
 7905SOL    HW135348   2.281   0.711  16.957  0.7676  0.1049 -0.2842
 7905SOL    HW235349   2.261   0.563  16.945 -0.5178 -0.5181  0.8508
 7906SOL     OW35350   1.033   0.587   8.057 -0.7656  0.2918 -0.6698
 7906SOL    HW135351   0.944   0.554   8.071 -1.1708  0.9297 -1.6859
 7906SOL    HW235352   1.028   0.633   7.973  1.4553  0.0914 -0.9162
 7907SOL     OW35353   0.472   0.369   8.536 -1.0229 -0.5087  0.0342
 7907SOL    HW135354   0.408   0.300   8.552 -1.6263  0.4818  1.9360
 7907SOL    HW235355   0.432   0.421   8.466 -4.3402 -0.8448  1.6543
 7908SOL     OW35356   4.004   4.432   5.305  0.6850 -0.1726  0.2389
 7908SOL    HW135357   4.039   4.501   5.363 -1.3162  1.9424 -1.0754
 7908SOL    HW235358   3.910   4.448   5.313  0.7093  0.3659 -0.5200
 7909SOL     OW35359   4.525   1.530   5.742 -0.0517 -0.0446  0.0437
 7909SOL    HW135360   4.477   1.453   5.712 -1.8046  1.2750 -0.5762
 7909SOL    HW235361   4.574   1.490   5.814 -0.7462 -1.5236 -0.3001
 7910SOL     OW35362   2.229   0.823  16.388  0.0265  0.0051 -0.4546
 7910SOL    HW135363   2.157   0.847  16.446 -0.8504 -1.0004 -1.1209
 7910SOL    HW235364   2.294   0.891  16.405  1.7647 -1.6028 -0.6407
 7911SOL     OW35365   4.504   0.084   3.562 -0.4822 -0.1089  0.4019
 7911SOL    HW135366   4.500   0.097   3.657 -0.4022  0.4687  0.3312
 7911SOL    HW235367   4.517   4.728   3.560  0.0652 -0.0644  1.8875
 7912SOL     OW35368   0.916   4.510   4.310  0.8234  0.5692 -0.2131
 7912SOL    HW135369   0.891   4.557   4.389 -0.7958 -0.3135 -0.1904
 7912SOL    HW235370   0.896   4.572   4.240 -0.0567  1.3534  0.7349
 7913SOL     OW35371   2.526   2.221   8.678 -0.8157 -0.0419  0.3264
 7913SOL    HW135372   2.434   2.227   8.649 -0.4059 -0.5249 -1.0900
 7913SOL    HW235373   2.550   2.314   8.681 -0.8051  0.0420 -2.1882
 7914SOL     OW35374   1.810   2.209  10.236  0.1752  0.2005  0.2776
 7914SOL    HW135375   1.870   2.155  10.287  0.2318 -1.7331 -1.8789
 7914SOL    HW235376   1.847   2.297  10.249  1.2056 -0.3859  1.2650
 7915SOL     OW35377   1.887   1.877  14.743  0.6720 -0.2722  0.1433
 7915SOL    HW135378   1.823   1.805  14.742  0.8931 -0.4761  1.4518
 7915SOL    HW235379   1.972   1.833  14.751  0.8619 -0.0390 -0.6020
 7916SOL     OW35380   1.105   4.545   8.025 -0.1390 -0.0110 -0.7896
 7916SOL    HW135381   1.189   4.577   8.058  0.5764 -1.8269 -0.8790
 7916SOL    HW235382   1.044   4.589   8.085  0.1466 -1.2882  0.4417
 7917SOL     OW35383   2.713   4.038   6.992  0.6232  0.0071  0.1995
 7917SOL    HW135384   2.635   4.092   7.002 -1.4355 -2.5264 -1.9297
 7917SOL    HW235385   2.780   4.105   7.008  1.9999 -0.4829 -3.3806
 7918SOL     OW35386   2.561   1.517   6.641  0.0375  0.1594  0.3179
 7918SOL    HW135387   2.550   1.610   6.621 -0.1246  0.0828  0.0385
 7918SOL    HW235388   2.612   1.523   6.722 -1.1228  1.9424  0.9179
 7919SOL     OW35389   1.818   4.348  10.725 -0.5754  0.1166 -0.1318
 7919SOL    HW135390   1.853   4.352  10.814 -2.1017 -2.6087  0.5726
 7919SOL    HW235391   1.850   4.261  10.702 -1.6294 -0.4248  0.4567
 7920SOL     OW35392   3.110   1.201   6.811  0.6404 -0.2802  0.4841
 7920SOL    HW135393   3.158   1.146   6.874  0.2565  0.2241  1.2207
 7920SOL    HW235394   3.074   1.135   6.752 -0.2131  1.3194 -0.7886
 7921SOL     OW35395   1.267   0.616   6.496  0.3196 -0.0605  0.3722
 7921SOL    HW135396   1.303   0.628   6.584 -1.5470 -0.4997  1.1885
 7921SOL    HW235397   1.294   0.524   6.493 -2.8203 -1.0534  1.9538
 7922SOL     OW35398   3.328   2.409   9.384  0.7327 -0.1869  0.4333
 7922SOL    HW135399   3.310   2.503   9.381 -1.9451 -0.7327  0.1265
 7922SOL    HW235400   3.327   2.378   9.293  0.9023  0.1227  0.3247
 7923SOL     OW35401   0.660   2.619   4.151  0.5159  0.1864  0.0492
 7923SOL    HW135402   0.588   2.679   4.134  0.1365  0.0010  1.0415
 7923SOL    HW235403   0.628   2.568   4.225 -0.5778 -0.5473 -0.9405
 7924SOL     OW35404   2.181   0.589  15.514  0.0261  0.2260 -0.1708
 7924SOL    HW135405   2.206   0.666  15.464  2.0610 -1.0037 -1.0434
 7924SOL    HW235406   2.263   0.539  15.509 -0.4537 -0.3110 -2.5827
 7925SOL     OW35407   0.947   1.046  11.138  0.9266 -0.0353  0.1205
 7925SOL    HW135408   0.898   0.985  11.192 -1.1006  1.6189  0.1225
 7925SOL    HW235409   1.018   0.988  11.108  2.0733  1.9221 -0.9442
 7926SOL     OW35410   1.243   0.730   0.920 -0.5325 -0.0018 -0.0852
 7926SOL    HW135411   1.211   0.747   0.831  1.1923 -1.9083 -1.0438
 7926SOL    HW235412   1.315   0.675   0.891 -1.1081 -0.4237 -0.6895
 7927SOL     OW35413   1.001   3.542   3.361 -0.3929 -0.0632  0.1847
 7927SOL    HW135414   1.043   3.505   3.283  0.1459 -1.7434  1.2760
 7927SOL    HW235415   0.915   3.551   3.322 -0.4346 -0.2775  0.2248
 7928SOL     OW35416   3.154   4.216  16.817  0.3611  0.0319 -0.2715
 7928SOL    HW135417   3.065   4.250  16.816  0.6565  0.8220 -0.2765
 7928SOL    HW235418   3.188   4.236  16.729 -1.7522  3.0098 -0.3957
 7929SOL     OW35419   1.268   2.647   9.297  0.5327  0.3007  0.2256
 7929SOL    HW135420   1.204   2.713   9.270 -1.3300 -1.1106  1.1924
 7929SOL    HW235421   1.283   2.603   9.213 -1.2309 -0.7435  0.4339
 7930SOL     OW35422   1.865   2.661  12.077  0.4069  0.2012  0.4918
 7930SOL    HW135423   1.885   2.705  12.160 -0.4174 -0.4505  1.0467
 7930SOL    HW235424   1.917   2.581  12.090  0.8771  0.5587  0.7933
 7931SOL     OW35425   3.339   2.996   9.915  0.3580  0.1245  0.0899
 7931SOL    HW135426   3.285   2.977   9.991 -0.1719  1.3189  0.0060
 7931SOL    HW235427   3.321   3.088   9.895  3.4772  1.0895  1.6800
 7932SOL     OW35428   0.459   1.240  13.847 -0.1804 -0.6422 -0.2645
 7932SOL    HW135429   0.523   1.181  13.887 -1.5312 -1.5440  0.5758
 7932SOL    HW235430   0.410   1.251  13.929  0.1016 -0.7599 -0.0793
 7933SOL     OW35431   0.361   4.565  14.958  0.3904 -0.6032  0.0316
 7933SOL    HW135432   0.289   4.507  14.980  0.9441 -0.9799  0.8683
 7933SOL    HW235433   0.335   4.600  14.872 -1.1626 -0.5389  0.5330
 7934SOL     OW35434   0.300   4.387   8.090  0.3668  0.3905  0.1453
 7934SOL    HW135435   0.262   4.315   8.039  1.7190 -1.4857  1.7651
 7934SOL    HW235436   0.242   4.388   8.166 -0.8140  0.7929 -0.7755
 7935SOL     OW35437   0.716   3.315   4.299  0.7446 -0.2073 -0.4280
 7935SOL    HW135438   0.682   3.227   4.279 -1.6847  0.6629 -0.2142
 7935SOL    HW235439   0.806   3.298   4.325  0.9253  0.8563 -0.3566
 7936SOL     OW35440   3.013   0.255   2.994  0.6070  0.2096  0.7022
 7936SOL    HW135441   2.965   0.305   2.928  0.5537  0.2088  0.7396
 7936SOL    HW235442   3.089   0.235   2.940 -0.4982  1.4869 -1.3091
 7937SOL     OW35443   2.021   0.981   4.602  0.2396  0.0793 -0.2727
 7937SOL    HW135444   2.072   1.058   4.578  0.1906 -0.5645 -2.3859
 7937SOL    HW235445   1.978   1.014   4.681  1.9012 -0.5998  0.9064
 7938SOL     OW35446   1.188   3.324   5.740 -0.3450  0.0093  0.2414
 7938SOL    HW135447   1.271   3.322   5.692 -1.0445 -2.7374 -0.8252
 7938SOL    HW235448   1.156   3.235   5.754 -1.3824  0.0357 -1.8939
 7939SOL     OW35449   1.403   3.973  10.319  0.1153 -0.1540  0.0367
 7939SOL    HW135450   1.334   4.023  10.363  0.0302  0.8411 -1.2186
 7939SOL    HW235451   1.355   3.907  10.269  0.3006 -0.4973  0.3186
 7940SOL     OW35452   2.878   0.611  14.110  0.0268 -0.4860 -0.1717
 7940SOL    HW135453   2.948   0.650  14.163 -1.9839  1.4590  1.0721
 7940SOL    HW235454   2.919   0.618  14.024  0.6496 -2.2944 -0.0122
 7941SOL     OW35455   0.224   0.709   6.058 -0.8081 -0.1731  0.1900
 7941SOL    HW135456   0.141   0.743   6.091 -0.1513  2.3533 -0.7560
 7941SOL    HW235457   0.242   0.658   6.136  1.6702 -1.8172 -1.4592
 7942SOL     OW35458   2.617   2.081   0.616 -0.0325  0.4891  0.5696
 7942SOL    HW135459   2.700   2.079   0.570 -0.4304 -0.6348 -0.0948
 7942SOL    HW235460   2.556   2.082   0.543 -0.8211  0.6452  1.2256
 7943SOL     OW35461   4.032   3.067   7.441  0.1715  0.6655  0.1264
 7943SOL    HW135462   3.991   2.983   7.458  1.8429 -0.3714 -0.9214
 7943SOL    HW235463   4.112   3.047   7.392  0.4001 -0.2911  0.9062
 7944SOL     OW35464   0.526   4.214   7.852  0.0602 -0.3205  0.2487
 7944SOL    HW135465   0.579   4.174   7.921  1.9475  0.2533 -0.8755
 7944SOL    HW235466   0.559   4.304   7.853  0.5900 -0.5098 -0.3393
 7945SOL     OW35467   0.783   3.395   5.224 -0.3932  0.2444 -0.6227
 7945SOL    HW135468   0.798   3.489   5.235 -0.8923  0.0012  2.2785
 7945SOL    HW235469   0.776   3.365   5.315  0.6151  1.9664  0.0291
 7946SOL     OW35470   2.710   1.663   7.930 -0.4553  0.4472 -0.1595
 7946SOL    HW135471   2.764   1.694   8.002  1.3085 -3.6415  0.2836
 7946SOL    HW235472   2.682   1.582   7.971  0.4256  0.7657  1.0695
 7947SOL     OW35473   2.088   0.527   5.593  0.4911 -0.0720 -0.2799
 7947SOL    HW135474   2.152   0.456   5.580 -1.4051 -1.6092 -1.1835
 7947SOL    HW235475   2.073   0.562   5.506 -0.9543  0.2820  0.1210
 7948SOL     OW35476   2.090   4.359   5.153 -0.3810 -0.2416 -0.2960
 7948SOL    HW135477   2.075   4.448   5.120 -1.2987  0.0066  0.7962
 7948SOL    HW235478   2.038   4.369   5.233 -1.0654  0.4740 -0.8277
 7949SOL     OW35479   2.332   0.987   4.832 -0.6012  1.1340 -0.0660
 7949SOL    HW135480   2.407   0.936   4.862 -2.3045 -0.1454  2.0546
 7949SOL    HW235481   2.378   1.054   4.783  3.5232 -1.8403 -0.2787
 7950SOL     OW35482   2.334   4.316   6.100  0.7675  0.3520 -0.1587
 7950SOL    HW135483   2.420   4.293   6.135  0.8955  0.2345 -0.5455
 7950SOL    HW235484   2.325   4.248   6.033  2.2105 -1.6485  1.6769
 7951SOL     OW35485   3.531   2.877   5.488 -0.1794  0.4256  0.6705
 7951SOL    HW135486   3.452   2.831   5.461 -0.1618  1.2637 -0.8110
 7951SOL    HW235487   3.484   2.949   5.531 -0.8449 -0.1081  0.8383
 7952SOL     OW35488   3.620   2.037  12.509  0.2557  0.3119  0.1779
 7952SOL    HW135489   3.716   2.034  12.510  0.2335 -0.8387 -0.2738
 7952SOL    HW235490   3.611   1.975  12.436  0.7335  1.2909 -0.7236
 7953SOL     OW35491   2.759   1.041   7.602  0.2341 -0.1886  0.7441
 7953SOL    HW135492   2.792   1.055   7.513 -0.9636  0.7661  0.4664
 7953SOL    HW235493   2.682   0.987   7.587 -0.0790  0.2201  0.9018
 7954SOL     OW35494   3.039   0.167   6.066  0.2118  0.1902  0.1650
 7954SOL    HW135495   3.043   0.072   6.072  0.1196  0.1952  0.3168
 7954SOL    HW235496   3.093   0.184   6.143  0.7025  1.0227 -0.3596
 7955SOL     OW35497   0.560   3.181  17.113 -0.1451 -0.4573  0.3025
 7955SOL    HW135498   0.600   3.256  17.158 -0.5039 -0.3561  0.4550
 7955SOL    HW235499   0.599   3.180  17.026 -2.3850 -0.1653 -0.7017
 7956SOL     OW35500   2.391   1.917   5.773 -0.1717 -0.5145  0.2789
 7956SOL    HW135501   2.318   1.857   5.790  0.0775 -0.6709  0.7703
 7956SOL    HW235502   2.446   1.856   5.724  1.3184  1.5536 -0.6411
 7957SOL     OW35503   1.872   0.621  15.048 -0.2405 -0.1795 -0.6585
 7957SOL    HW135504   1.928   0.687  15.006  0.8636  0.0405  1.1497
 7957SOL    HW235505   1.910   0.625  15.135 -3.7679 -0.5441  0.8893
 7958SOL     OW35506   2.152   2.360  17.546 -0.2992 -0.2378  0.3173
 7958SOL    HW135507   2.198   2.307  17.612  2.4079  0.5728 -0.9248
 7958SOL    HW235508   2.060   2.348  17.567 -0.4998  1.6940  0.6083
 7959SOL     OW35509   3.193   4.122  15.945 -0.1591 -0.0602  0.6714
 7959SOL    HW135510   3.105   4.098  15.975 -0.3601  1.0860  1.0019
 7959SOL    HW235511   3.190   4.082  15.858 -1.1851  1.2553  0.1092
 7960SOL     OW35512   2.996   4.452   2.771  0.4168 -0.1366  0.0738
 7960SOL    HW135513   3.090   4.437   2.760  0.4573  0.5793 -0.5685
 7960SOL    HW235514   2.992   4.433   2.864  0.3797 -1.2444 -0.1564
 7961SOL     OW35515   0.157   3.233   4.667 -0.2761 -0.1393 -0.0312
 7961SOL    HW135516   0.186   3.176   4.738 -3.7687 -0.1095  1.3887
 7961SOL    HW235517   0.101   3.167   4.625 -1.6366  1.6718 -1.0346
 7962SOL     OW35518   2.252   2.515   8.308  0.0286  0.1005  0.1412
 7962SOL    HW135519   2.319   2.530   8.375 -0.8449  2.1582  0.5803
 7962SOL    HW235520   2.206   2.444   8.352 -0.7483 -0.0234 -0.8616
 7963SOL     OW35521   3.607   4.652   9.343 -0.1383 -0.0223  0.5954
 7963SOL    HW135522   3.601   4.737   9.387  0.3341  0.6819 -0.7133
 7963SOL    HW235523   3.693   4.623   9.374  0.5050  0.7968 -0.4386
 7964SOL     OW35524   3.387   2.905   4.621 -0.2685 -0.2460  0.8205
 7964SOL    HW135525   3.387   2.839   4.552 -1.1070  0.9533 -0.3333
 7964SOL    HW235526   3.465   2.894   4.675 -1.3583 -0.5777  2.3107
 7965SOL     OW35527   3.597   2.159   3.046  0.4416 -0.0538 -0.8751
 7965SOL    HW135528   3.612   2.253   3.040 -2.7070  0.4834 -0.0280
 7965SOL    HW235529   3.515   2.146   2.998  0.3184  0.1861 -0.7294
 7966SOL     OW35530   4.384   2.398   0.387  0.4438 -0.0629  0.2566
 7966SOL    HW135531   4.467   2.365   0.421  0.8930 -0.5164 -1.3111
 7966SOL    HW235532   4.411   2.419   0.298 -0.4160  0.0176  0.0112
 7967SOL     OW35533   0.898   3.355   9.713  0.0727 -0.2116 -0.4242
 7967SOL    HW135534   0.944   3.303   9.779 -1.5775  0.1980  1.0384
 7967SOL    HW235535   0.876   3.302   9.636 -1.0090  0.2820 -0.4518
 7968SOL     OW35536   4.736   2.771  12.247  0.3174 -0.6432  0.4310
 7968SOL    HW135537   0.071   2.813  12.199 -0.8181  2.6765  1.6289
 7968SOL    HW235538   0.034   2.683  12.257  0.4713 -0.4708  1.3634
 7969SOL     OW35539   0.476   4.429   4.097 -0.1673 -1.0426 -0.4409
 7969SOL    HW135540   0.443   4.400   4.182 -2.1038 -2.4351 -1.6717
 7969SOL    HW235541   0.570   4.414   4.102 -0.3032 -1.6902  0.1259
 7970SOL     OW35542   0.691   3.430   4.010  0.1673  0.0438  0.4590
 7970SOL    HW135543   0.633   3.497   4.046  2.5499  2.0235  0.5939
 7970SOL    HW235544   0.627   3.363   3.986  2.0718 -2.2142  1.6641
 7971SOL     OW35545   3.861   2.627   0.400  0.3726  0.0061  0.0978
 7971SOL    HW135546   3.802   2.555   0.377  0.2649  0.4510 -0.9937
 7971SOL    HW235547   3.832   2.676   0.477 -0.0725  2.6196 -1.7301
 7972SOL     OW35548   1.612   2.105  11.544  0.4236  0.3999 -0.8222
 7972SOL    HW135549   1.641   2.017  11.569  2.9325  1.4090 -0.1798
 7972SOL    HW235550   1.517   2.100  11.552  0.3241 -1.1483 -2.8144
 7973SOL     OW35551   2.293   1.220   8.958  0.3990 -0.6957 -0.6593
 7973SOL    HW135552   2.272   1.311   8.938  0.5534 -0.4257  0.4024
 7973SOL    HW235553   2.328   1.241   9.045  1.6405 -2.0245 -0.8209
 7974SOL     OW35554   0.775   3.008   5.373  0.0055 -0.5474 -0.3956
 7974SOL    HW135555   0.696   3.061   5.380  1.0320  0.9367  0.0552
 7974SOL    HW235556   0.827   3.060   5.434  1.4331 -0.6915 -1.4892
 7975SOL     OW35557   1.154   3.294  10.095 -0.2883 -0.1523 -0.2967
 7975SOL    HW135558   1.174   3.230  10.026 -0.5059 -0.1305 -0.3800
 7975SOL    HW235559   1.062   3.316  10.080  0.1056  1.7192  0.1035
 7976SOL     OW35560   2.959   1.970   3.102 -0.1333 -0.1181  0.1197
 7976SOL    HW135561   3.041   1.923   3.118 -0.3469  0.1202  1.8366
 7976SOL    HW235562   2.979   2.010   3.017 -0.8566  0.6309  0.3086
 7977SOL     OW35563   1.142   2.110   6.924  0.1552 -0.5425 -0.3749
 7977SOL    HW135564   1.087   2.096   7.001 -1.5465  0.4646 -1.4219
 7977SOL    HW235565   1.223   2.060   6.941  1.1617  0.5592 -1.9495
 7978SOL     OW35566   3.508   4.581   4.857  0.4457 -0.3498  0.9073
 7978SOL    HW135567   3.597   4.555   4.832  0.1926  0.3560 -0.7137
 7978SOL    HW235568   3.488   4.536   4.939 -2.7993 -1.0858 -0.2917
 7979SOL     OW35569   1.974   0.542   9.354 -0.1619 -0.1066  0.5733
 7979SOL    HW135570   1.893   0.552   9.403 -1.6934 -2.6083 -1.4134
 7979SOL    HW235571   2.026   0.620   9.374 -0.1305  0.2000 -0.6568
 7980SOL     OW35572   3.503   0.698   9.964  0.1670 -0.4342 -0.5376
 7980SOL    HW135573   3.434   0.747  10.008  0.2693 -0.3667 -0.4519
 7980SOL    HW235574   3.573   0.692  10.030 -0.1177  0.2168 -0.1806
 7981SOL     OW35575   3.415   0.563  16.616 -0.0902 -0.2164 -0.2111
 7981SOL    HW135576   3.448   0.583  16.704 -0.8546 -2.3507  0.5385
 7981SOL    HW235577   3.339   0.621  16.611  0.6606  0.7405 -0.5385
 7982SOL     OW35578   3.953   0.815  12.631 -0.5569  0.0759  0.1232
 7982SOL    HW135579   3.951   0.908  12.609  1.4687 -0.3473 -1.8580
 7982SOL    HW235580   3.863   0.792  12.651 -0.5076  0.2577  0.5597
 7983SOL     OW35581   0.884   1.677   8.068 -0.1671  0.1693  0.0491
 7983SOL    HW135582   0.816   1.745   8.072  0.2746  0.7220 -1.7313
 7983SOL    HW235583   0.898   1.674   7.973 -0.2713 -2.9651  0.1407
 7984SOL     OW35584   4.523   2.481   3.570  0.0437 -0.9486  0.1029
 7984SOL    HW135585   4.581   2.498   3.496 -1.8215  0.0901 -1.1177
 7984SOL    HW235586   4.505   2.389   3.555  0.5832 -0.8136 -1.3383
 7985SOL     OW35587   0.463   0.026  15.599  0.6551 -0.4215 -0.7178
 7985SOL    HW135588   0.491   0.082  15.527  1.3870 -2.9572 -2.4040
 7985SOL    HW235589   0.461   4.678  15.558 -0.6632 -0.6121 -0.2395
 7986SOL     OW35590   2.210   1.120   1.250  0.2482  0.0863  0.1323
 7986SOL    HW135591   2.302   1.108   1.270 -0.1837  0.2693  2.1462
 7986SOL    HW235592   2.203   1.060   1.175 -0.2255  0.5642 -0.2049
 7987SOL     OW35593   2.356   4.738   6.649  0.0594  0.1238  0.0839
 7987SOL    HW135594   2.307   4.681   6.590 -1.1006  0.0635  1.0911
 7987SOL    HW235595   2.307   0.082   6.650  0.6219  0.4677 -0.3887
 7988SOL     OW35596   3.399   2.593   6.772  0.1047 -0.0705  0.3475
 7988SOL    HW135597   3.400   2.686   6.748 -0.2123 -0.4348 -1.0956
 7988SOL    HW235598   3.354   2.608   6.855  0.2922  2.1042  0.0511
 7989SOL     OW35599   3.988   2.867   6.103 -0.2430  0.1105  0.6772
 7989SOL    HW135600   4.053   2.937   6.100 -1.2812  1.0281 -0.5535
 7989SOL    HW235601   4.029   2.792   6.145  0.1296 -0.2685 -0.3548
 7990SOL     OW35602   1.798   1.249   5.104 -0.3676  0.7801  0.2401
 7990SOL    HW135603   1.802   1.344   5.090  2.2403  0.4308 -1.2411
 7990SOL    HW235604   1.881   1.238   5.150 -1.3981  1.5849  2.3215
 7991SOL     OW35605   0.248   0.378  11.549  0.1032 -0.3755  0.0629
 7991SOL    HW135606   0.175   0.317  11.537  1.7738 -2.3204 -0.1634
 7991SOL    HW235607   0.223   0.423  11.630 -0.1957 -1.8804  0.8279
 7992SOL     OW35608   1.196   0.783  12.201 -0.2114  0.2403 -0.1000
 7992SOL    HW135609   1.151   0.748  12.278 -1.2293  0.6964 -0.4794
 7992SOL    HW235610   1.146   0.862  12.177 -0.0652  0.4344  0.2477
 7993SOL     OW35611   0.228   0.391   1.860  0.5193 -0.0845  0.4060
 7993SOL    HW135612   0.155   0.363   1.806 -1.0346  1.2798  1.7985
 7993SOL    HW235613   0.260   0.305   1.886 -4.0818 -2.0900 -0.5176
 7994SOL     OW35614   2.987   4.626   6.181  0.2365 -0.2184 -0.7175
 7994SOL    HW135615   3.069   4.576   6.177 -2.0700 -4.1230  0.4258
 7994SOL    HW235616   2.995   4.685   6.256 -2.8544  1.9707 -2.1133
 7995SOL     OW35617   2.429   2.814   3.371 -0.1151  0.3007 -0.3657
 7995SOL    HW135618   2.520   2.812   3.401 -0.5344  2.2601  1.0451
 7995SOL    HW235619   2.399   2.738   3.421 -0.6024  2.0916  2.0811
 7996SOL     OW35620   2.196   4.109   4.654  0.0984 -0.2361 -0.3202
 7996SOL    HW135621   2.165   4.180   4.597 -0.2155 -0.2014 -0.1039
 7996SOL    HW235622   2.171   4.148   4.737  1.4232  0.7400 -0.3695
 7997SOL     OW35623   1.894   4.451   0.806 -0.1926  0.4455  0.2419
 7997SOL    HW135624   1.909   4.492   0.892 -0.3044  1.2979 -0.1427
 7997SOL    HW235625   1.807   4.476   0.776 -0.3960 -2.2096 -1.3393
 7998SOL     OW35626   1.141   4.564   6.398 -0.2540  0.3931  0.4598
 7998SOL    HW135627   1.105   4.577   6.310  0.8315  2.1111  0.2660
 7998SOL    HW235628   1.177   4.480   6.370 -1.9217 -0.3083  0.4518
 7999SOL     OW35629   1.938   4.284  10.967  0.6142  0.4746  0.2964
 7999SOL    HW135630   1.978   4.224  10.905  0.3898  1.6293 -0.9610
 7999SOL    HW235631   1.920   4.222  11.037 -1.8774 -0.5504 -1.2629
 8000SOL     OW35632   2.376   2.076  17.439 -0.2731  0.1502  0.6953
 8000SOL    HW135633   2.411   2.164  17.446 -0.4965  0.6136 -4.1442
 8000SOL    HW235634   2.288   2.093  17.474 -1.4487 -1.2289 -1.5346
 8001SOL     OW35635   1.718   1.828   8.556 -0.0560  0.0915 -0.0299
 8001SOL    HW135636   1.643   1.885   8.571 -0.2157  0.1094 -0.9042
 8001SOL    HW235637   1.750   1.818   8.646 -0.1803  2.5247  0.2782
 8002SOL     OW35638   3.771   3.227  11.202 -0.0491  0.4098 -0.3857
 8002SOL    HW135639   3.804   3.204  11.289  1.7547  0.9191 -0.9448
 8002SOL    HW235640   3.830   3.297  11.174 -1.2200  0.6456 -2.2643
 8003SOL     OW35641   1.688   3.199   7.884 -0.5076  0.4152  0.3499
 8003SOL    HW135642   1.654   3.209   7.973 -1.4269 -1.6091  0.2286
 8003SOL    HW235643   1.779   3.183   7.910 -0.0640  0.2731 -1.2935
 8004SOL     OW35644   2.116   2.808  13.579 -0.3339  0.0167 -0.1418
 8004SOL    HW135645   2.023   2.797  13.561 -0.1280 -1.1178 -0.5379
 8004SOL    HW235646   2.152   2.722  13.600 -0.5556  0.5730  2.4632
 8005SOL     OW35647   1.725   2.051  10.743 -0.0488 -0.0843 -0.2168
 8005SOL    HW135648   1.738   2.038  10.649  2.1950 -0.8831  0.2224
 8005SOL    HW235649   1.801   2.101  10.772 -0.0709 -0.3986  0.3688
 8006SOL     OW35650   3.402   1.361   7.395  0.4672  0.0449  0.4053
 8006SOL    HW135651   3.337   1.414   7.442 -0.4855  0.3160 -1.2371
 8006SOL    HW235652   3.469   1.358   7.463 -0.6709  0.9226  1.5755
 8007SOL     OW35653   2.351   4.665   4.107 -0.7597 -0.0376 -0.3170
 8007SOL    HW135654   2.435   4.636   4.144 -0.5176  2.2867  0.9656
 8007SOL    HW235655   2.294   4.660   4.183 -2.0484 -0.9400 -1.3467
 8008SOL     OW35656   3.473   3.680   5.323 -0.2138  0.3294 -0.6858
 8008SOL    HW135657   3.532   3.620   5.370 -1.7647 -2.5030 -2.3450
 8008SOL    HW235658   3.428   3.708   5.402  1.0725 -0.8723  0.4737
 8009SOL     OW35659   3.220   0.303   2.532 -0.2750 -0.6537  0.0986
 8009SOL    HW135660   3.238   0.392   2.563 -0.4447 -1.1746  1.6782
 8009SOL    HW235661   3.131   0.312   2.499  0.5675  1.2579 -1.6301
 8010SOL     OW35662   0.770   0.361  16.754  0.3953 -0.5883  0.2073
 8010SOL    HW135663   0.722   0.280  16.769  1.3102 -0.7965  2.0348
 8010SOL    HW235664   0.836   0.326  16.694  1.4810  2.2660 -0.2954
 8011SOL     OW35665   2.828   4.111  10.113  0.0511  0.4247  0.6001
 8011SOL    HW135666   2.825   4.096  10.018 -2.4381  1.1406  0.5661
 8011SOL    HW235667   2.916   4.147  10.118 -0.4504  1.6465  0.8359
 8012SOL     OW35668   2.659   3.321   9.189  0.3015 -0.3069  0.1579
 8012SOL    HW135669   2.637   3.228   9.189 -0.3183 -0.1426  2.1190
 8012SOL    HW235670   2.725   3.328   9.120  1.1900 -0.4487  1.0118
 8013SOL     OW35671   4.244   3.230  16.114  0.5369  0.3221 -0.9793
 8013SOL    HW135672   4.180   3.272  16.172  1.5846  0.0087  0.3845
 8013SOL    HW235673   4.224   3.260  16.025 -2.0034 -1.8717 -1.1734
 8014SOL     OW35674   1.679   1.066   8.987 -0.2422  0.3445  0.2522
 8014SOL    HW135675   1.629   1.000   8.940  0.7024  1.1477 -1.8732
 8014SOL    HW235676   1.608   1.113   9.030 -0.8475  0.5412 -0.9557
 8015SOL     OW35677   2.053   3.714  14.413 -0.2001 -0.9813 -0.6162
 8015SOL    HW135678   2.118   3.747  14.350 -0.3129  1.1734  0.3913
 8015SOL    HW235679   2.088   3.633  14.450 -0.8314 -0.1179  1.8191
 8016SOL     OW35680   2.821   0.133   7.543 -0.0545 -0.2714 -0.6680
 8016SOL    HW135681   2.745   0.076   7.538 -0.8323  0.7369 -0.2209
 8016SOL    HW235682   2.847   0.130   7.450 -2.7283 -0.4475 -1.4037
 8017SOL     OW35683   0.975   1.076   4.892 -0.1258 -0.2290 -0.2997
 8017SOL    HW135684   1.036   1.060   4.819  0.4982 -1.8847  0.5892
 8017SOL    HW235685   0.896   1.090   4.840 -0.4808 -2.0707 -0.2493
 8018SOL     OW35686   4.227   2.176   3.776 -0.5089  0.3310 -0.3608
 8018SOL    HW135687   4.152   2.234   3.786 -0.6162 -0.0743  1.1360
 8018SOL    HW235688   4.197   2.133   3.696  2.9562  0.9052 -1.9731
 8019SOL     OW35689   4.001   1.578   2.278  0.3231  0.6710 -0.2900
 8019SOL    HW135690   4.063   1.535   2.218  0.1514 -1.8758  1.3755
 8019SOL    HW235691   4.004   1.523   2.356 -0.9535  0.9627 -0.0330
 8020SOL     OW35692   2.613   0.857   3.717 -0.2779  0.0831  0.1609
 8020SOL    HW135693   2.702   0.837   3.745 -0.5178 -2.3508 -0.8852
 8020SOL    HW235694   2.561   0.834   3.794 -0.0059 -1.5149 -0.1435
 8021SOL     OW35695   1.860   0.235   4.095 -0.1759  0.2274  0.1853
 8021SOL    HW135696   1.860   0.294   4.171  2.5735  1.6916 -0.9330
 8021SOL    HW235697   1.770   0.242   4.064  0.4073 -0.7403 -1.7400
 8022SOL     OW35698   0.306   4.434  12.316  0.2019  0.2172 -0.5703
 8022SOL    HW135699   0.378   4.474  12.266  1.7758 -0.7007  0.9936
 8022SOL    HW235700   0.235   4.448  12.253 -0.7582  0.6183  0.6092
 8023SOL     OW35701   2.892   4.116   4.727  0.7404 -0.1284  0.0874
 8023SOL    HW135702   2.970   4.063   4.709  1.4271  0.9507 -0.1458
 8023SOL    HW235703   2.855   4.070   4.802  0.4912  2.1888  1.3621
 8024SOL     OW35704   3.799   1.554   1.009 -0.0791 -0.1081 -0.1515
 8024SOL    HW135705   3.847   1.631   1.038  1.0489 -0.2998 -1.4976
 8024SOL    HW235706   3.826   1.565   0.918 -1.9312  1.3139 -0.5118
 8025SOL     OW35707   0.872   2.178   9.290 -0.4455  0.4814 -0.0949
 8025SOL    HW135708   0.847   2.179   9.198  0.4604  1.4513 -0.3364
 8025SOL    HW235709   0.967   2.178   9.278 -0.3814  0.3054  0.4084
 8026SOL     OW35710   0.376   0.441   3.019 -0.1649 -0.0364  0.4834
 8026SOL    HW135711   0.392   0.533   2.996 -0.3968 -0.2146 -0.3744
 8026SOL    HW235712   0.299   0.455   3.073 -0.7205 -0.3101 -0.2315
 8027SOL     OW35713   2.999   0.960   3.397  0.7572 -0.2145 -0.3769
 8027SOL    HW135714   2.954   1.007   3.467  0.8550  1.0853 -1.1978
 8027SOL    HW235715   3.048   0.894   3.447 -2.1141 -1.4311  0.8208
 8028SOL     OW35716   0.548   0.262   8.299 -0.3183 -0.2649 -0.2216
 8028SOL    HW135717   0.525   0.295   8.386 -0.8807  0.7898 -0.7710
 8028SOL    HW235718   0.458   0.240   8.273 -0.1754 -1.1888  0.0930
 8029SOL     OW35719   2.005   1.764   7.561  0.1447 -0.2806  0.3897
 8029SOL    HW135720   2.077   1.718   7.605  0.4611  0.2230  0.3942
 8029SOL    HW235721   2.031   1.854   7.579  0.8150  0.3231 -3.5097
 8030SOL     OW35722   4.183   4.699   8.723 -0.1322 -0.0368 -0.1567
 8030SOL    HW135723   4.220   4.642   8.790 -2.6975 -2.0042 -0.4472
 8030SOL    HW235724   4.102   4.730   8.764  0.8166  0.7806  1.0783
 8031SOL     OW35725   3.667   1.187   3.889 -0.1787  1.3802 -0.5402
 8031SOL    HW135726   3.731   1.220   3.951  0.5213  1.0351 -1.0754
 8031SOL    HW235727   3.584   1.197   3.934  1.0236  2.4868  1.3991
 8032SOL     OW35728   3.678   0.240   6.662  0.2042 -0.7796 -0.2322
 8032SOL    HW135729   3.664   0.164   6.604 -1.6491  0.9362 -2.0278
 8032SOL    HW235730   3.597   0.289   6.650  0.0145 -0.9576  0.3475
 8033SOL     OW35731   2.214   2.805   8.292 -0.3028 -0.5730 -0.4318
 8033SOL    HW135732   2.268   2.821   8.370 -0.6284  0.8810 -0.4914
 8033SOL    HW235733   2.244   2.719   8.264  0.9229  0.1208 -1.2965
 8034SOL     OW35734   4.128   3.878  12.126 -0.1640  0.1872  0.7310
 8034SOL    HW135735   4.188   3.886  12.201  1.7622  0.1750 -0.8157
 8034SOL    HW235736   4.075   3.804  12.155 -1.2045  0.8318  0.5022
 8035SOL     OW35737   2.005   0.086   2.257 -0.2520 -0.1229  0.7398
 8035SOL    HW135738   1.969   0.142   2.326 -1.2444 -0.8235  0.7901
 8035SOL    HW235739   2.065   0.033   2.311 -0.5403  1.4653  2.6220
 8036SOL     OW35740   2.682   2.137  15.851 -0.3523  0.5005  0.4310
 8036SOL    HW135741   2.731   2.194  15.909  0.1571 -0.5964  1.0660
 8036SOL    HW235742   2.614   2.099  15.906  0.1877  1.3262  1.6691
 8037SOL     OW35743   1.492   3.741   8.211 -0.3218  0.2975 -0.3882
 8037SOL    HW135744   1.434   3.677   8.251  0.2540 -0.6872 -1.1019
 8037SOL    HW235745   1.568   3.732   8.269 -0.0356  1.3400 -0.6063
 8038SOL     OW35746   0.238   0.052   9.488 -0.3242  0.1683 -0.1582
 8038SOL    HW135747   0.284   0.007   9.559  1.1019  0.1062 -1.1100
 8038SOL    HW235748   0.272   0.006   9.411 -0.2311  1.1925 -0.7321
 8039SOL     OW35749   0.338   3.892  16.191 -0.2152 -0.0686  0.0348
 8039SOL    HW135750   0.285   3.820  16.157  0.3500 -0.4625 -0.0251
 8039SOL    HW235751   0.426   3.857  16.176 -0.1760 -0.4645  1.1445
 8040SOL     OW35752   2.465   0.249   4.916 -0.4223 -0.5914  0.2381
 8040SOL    HW135753   2.520   0.308   4.967  0.7414  0.2206 -1.9290
 8040SOL    HW235754   2.374   0.248   4.946 -0.4373 -1.1019  0.1670
 8041SOL     OW35755   2.533   4.237   6.936 -0.6836 -0.0638 -0.0708
 8041SOL    HW135756   2.448   4.245   6.978 -0.8357 -1.0138 -0.1938
 8041SOL    HW235757   2.545   4.327   6.906 -2.4109 -0.2447 -1.2733
 8042SOL     OW35758   0.117   3.131  14.512 -0.4873 -0.2899  0.1467
 8042SOL    HW135759   0.117   3.227  14.504 -2.5751 -0.4696 -1.8943
 8042SOL    HW235760   0.132   3.121  14.606 -0.1851 -1.7231 -0.0608
 8043SOL     OW35761   4.031   1.298   3.352  0.2845  0.2763 -0.1927
 8043SOL    HW135762   4.100   1.248   3.396  2.8898  1.8781 -2.4765
 8043SOL    HW235763   3.952   1.251   3.379 -0.9031  1.8090 -1.0287
 8044SOL     OW35764   4.670   4.493   5.002 -0.4279 -0.3450 -0.4185
 8044SOL    HW135765   4.588   4.470   5.047 -0.7788  1.0517 -0.3427
 8044SOL    HW235766   4.644   4.545   4.926  3.9726  2.9875  0.3423
 8045SOL     OW35767   0.066   1.839   1.737  0.3532 -0.0385 -1.3804
 8045SOL    HW135768   0.084   1.920   1.785 -2.7941  0.1562 -0.5649
 8045SOL    HW235769   4.713   1.852   1.711  0.4973  1.1646 -1.2672
 8046SOL     OW35770   2.259   4.239   7.015  0.1348  0.5931 -0.7700
 8046SOL    HW135771   2.254   4.277   7.103 -0.3046  2.8416 -1.7713
 8046SOL    HW235772   2.196   4.166   7.015  1.8938 -0.9260  0.2703
 8047SOL     OW35773   0.723   4.640   3.728  0.5055  0.0892 -0.0206
 8047SOL    HW135774   0.706   4.730   3.703 -1.5434 -0.0853  0.7076
 8047SOL    HW235775   0.653   4.641   3.794 -0.8511  0.2522 -1.4800
 8048SOL     OW35776   0.251   0.853   6.547  0.2378 -0.5965  0.6001
 8048SOL    HW135777   0.308   0.918   6.588  1.4283 -0.5644 -1.1103
 8048SOL    HW235778   0.211   0.917   6.488  1.8658  0.4584  0.6196
 8049SOL     OW35779   1.276   3.429   8.666 -0.5014 -0.3529  0.0274
 8049SOL    HW135780   1.345   3.387   8.614 -0.4558 -0.0930 -0.1221
 8049SOL    HW235781   1.315   3.423   8.754 -2.7320  1.3468  1.1241
 8050SOL     OW35782   3.738   2.484   2.501 -0.4819  0.5441  0.5760
 8050SOL    HW135783   3.807   2.546   2.524 -1.2518  1.7575 -0.4020
 8050SOL    HW235784   3.729   2.502   2.408  0.1698 -0.0767  0.3973
 8051SOL     OW35785   1.944   3.687   7.789  0.0605  0.0212  0.1446
 8051SOL    HW135786   1.852   3.715   7.783 -0.2487 -1.5354 -1.9896
 8051SOL    HW235787   1.975   3.739   7.863  0.2313  0.0520  0.0498
 8052SOL     OW35788   1.190   2.822   5.608  0.5924 -0.4859  0.0574
 8052SOL    HW135789   1.175   2.843   5.516  1.6539 -0.3075 -0.0818
 8052SOL    HW235790   1.134   2.745   5.614  2.4742 -1.7841  1.2420
 8053SOL     OW35791   3.186   3.080   3.822 -0.1380 -0.3892  0.0505
 8053SOL    HW135792   3.243   3.143   3.778 -0.5025 -0.2137 -0.1736
 8053SOL    HW235793   3.123   3.136   3.868 -0.1463 -0.2366 -0.1451
 8054SOL     OW35794   3.265   3.361  16.446 -0.3035 -0.5315 -0.4036
 8054SOL    HW135795   3.174   3.386  16.427 -0.2329 -0.2260 -0.3298
 8054SOL    HW235796   3.272   3.272  16.411  0.5811 -0.5699 -0.1196
 8055SOL     OW35797   4.518   3.281   5.032  0.2800 -0.8098 -0.2516
 8055SOL    HW135798   4.477   3.332   4.962  0.0935  0.9764  1.1529
 8055SOL    HW235799   4.609   3.281   5.003  0.6814  0.1412  1.0016
 8056SOL     OW35800   2.407   3.583   2.182  0.0139  0.2412 -0.2170
 8056SOL    HW135801   2.380   3.595   2.273 -0.9162 -1.6307 -0.2558
 8056SOL    HW235802   2.441   3.494   2.190 -0.1967 -0.0047 -2.1765
 8057SOL     OW35803   3.783   2.879  17.529  0.0192 -0.0527  0.7996
 8057SOL    HW135804   3.874   2.885  17.557  0.3543  0.5839 -0.4467
 8057SOL    HW235805   3.753   2.802  17.578 -1.3493  0.3977  0.6621
 8058SOL     OW35806   2.631   2.778   9.220 -1.0128 -0.0089 -0.2866
 8058SOL    HW135807   2.631   2.697   9.169 -0.4062  0.8016 -1.5755
 8058SOL    HW235808   2.541   2.806   9.202 -0.1606  3.0991  0.3776
 8059SOL     OW35809   2.241   3.134  11.072  0.1635 -0.0917 -0.1627
 8059SOL    HW135810   2.319   3.091  11.107  1.8283  1.8559 -1.4574
 8059SOL    HW235811   2.271   3.225  11.061  0.1129 -0.1137 -0.4787
 8060SOL     OW35812   2.058   0.601   5.065  0.2390 -0.2014 -0.2081
 8060SOL    HW135813   2.053   0.688   5.026 -1.1493  0.1681  0.8297
 8060SOL    HW235814   2.127   0.561   5.012 -0.9357 -0.4119 -1.5809
 8061SOL     OW35815   3.451   2.037   8.174  0.4250 -0.4946  0.0213
 8061SOL    HW135816   3.466   1.964   8.234  2.4271  0.0756  0.2113
 8061SOL    HW235817   3.377   2.072   8.224  0.2833  0.4332 -0.8445
 8062SOL     OW35818   1.269   4.474  12.808  0.2686 -0.1576  0.0222
 8062SOL    HW135819   1.330   4.411  12.846 -2.3155 -2.0196  1.1072
 8062SOL    HW235820   1.310   4.554  12.838 -1.0720 -0.2170  2.0575
 8063SOL     OW35821   0.542   2.014   3.354  0.2374 -0.2431  0.6471
 8063SOL    HW135822   0.594   2.002   3.433 -1.7331 -0.7595  1.8648
 8063SOL    HW235823   0.475   2.069   3.394  0.8685 -1.3119  3.1707
 8064SOL     OW35824   3.363   3.570   9.371 -0.5261 -0.0757  0.3032
 8064SOL    HW135825   3.286   3.554   9.316 -1.0600  1.7692  0.5089
 8064SOL    HW235826   3.435   3.589   9.311 -0.9252  0.4283 -0.0123
 8065SOL     OW35827   3.065   1.073  15.480  0.3783  0.3548 -0.0984
 8065SOL    HW135828   3.152   1.055  15.443  0.4256  2.2370 -0.9107
 8065SOL    HW235829   3.017   1.096  15.401 -0.8237  3.1933  1.4537
 8066SOL     OW35830   2.268   3.463   8.843  0.0991 -0.1863  0.7074
 8066SOL    HW135831   2.352   3.499   8.816  0.2984  0.8999  2.6947
 8066SOL    HW235832   2.201   3.530   8.825  0.5923  0.2501  0.5100
 8067SOL     OW35833   3.934   0.056   5.849  0.3195  0.1335 -0.0714
 8067SOL    HW135834   3.904   0.127   5.793 -1.8007 -1.6992 -1.2668
 8067SOL    HW235835   3.959   4.718   5.795  0.7117  1.9485 -2.4222
 8068SOL     OW35836   2.248   2.617   7.448  0.2851 -0.4433  0.2855
 8068SOL    HW135837   2.220   2.706   7.428 -1.0964 -1.2759 -1.5654
 8068SOL    HW235838   2.305   2.600   7.373  2.6883  1.8419  1.6092
 8069SOL     OW35839   4.148   4.352   8.835 -0.4084  0.6626  0.2147
 8069SOL    HW135840   4.149   4.447   8.825  3.6309  0.6834  0.9190
 8069SOL    HW235841   4.223   4.341   8.894 -0.4293  0.9703  0.2994
 8070SOL     OW35842   2.310   1.734  16.585 -0.4095 -0.8780 -0.2065
 8070SOL    HW135843   2.349   1.821  16.596  0.9004 -1.4846 -0.0969
 8070SOL    HW235844   2.270   1.739  16.498 -1.1175 -2.0729  0.0519
 8071SOL     OW35845   3.119   2.901   8.957 -0.2760  0.5129  0.3058
 8071SOL    HW135846   3.054   2.869   9.021  0.2513 -1.1209  0.0013
 8071SOL    HW235847   3.170   2.827   8.926 -1.3302 -1.0228  2.2490
 8072SOL     OW35848   1.480   2.012   2.770  0.7691 -0.1914 -0.1658
 8072SOL    HW135849   1.389   2.035   2.792  0.4908 -2.0852  0.6945
 8072SOL    HW235850   1.504   2.074   2.701  1.6800  1.8987  2.0170
 8073SOL     OW35851   2.983   2.291   1.936 -0.0777 -0.1874  0.2566
 8073SOL    HW135852   2.893   2.261   1.945 -0.3180  1.2935  2.9111
 8073SOL    HW235853   3.039   2.214   1.949  0.7448  0.2560 -0.7133
 8074SOL     OW35854   2.350   2.318   2.171 -0.1102  0.0435  0.7555
 8074SOL    HW135855   2.304   2.267   2.237 -1.7618 -0.5563 -0.8725
 8074SOL    HW235856   2.318   2.407   2.185 -0.4282 -0.1027  0.9491
 8075SOL     OW35857   2.567   4.442   8.951  0.4787 -0.3277 -0.2001
 8075SOL    HW135858   2.543   4.464   8.861 -1.0329 -0.6430  0.1127
 8075SOL    HW235859   2.546   4.349   8.957 -0.3698 -0.1742 -0.6832
 8076SOL     OW35860   1.504   1.694   4.281  0.4400 -0.3204  0.3541
 8076SOL    HW135861   1.474   1.671   4.369 -1.7868  1.9838  0.1958
 8076SOL    HW235862   1.581   1.747   4.300 -0.5069  1.0570  0.4119
 8077SOL     OW35863   0.136   3.151   3.899 -0.1727 -0.1788 -0.2606
 8077SOL    HW135864   0.155   3.236   3.937 -0.2385 -0.9217  1.4078
 8077SOL    HW235865   0.063   3.131   3.958 -0.0757 -2.1035 -0.8066
 8078SOL     OW35866   0.801   1.190   8.371 -0.1931 -0.2659 -0.0727
 8078SOL    HW135867   0.779   1.098   8.359  0.9874 -0.3424 -1.5514
 8078SOL    HW235868   0.721   1.216   8.418  0.4821 -1.3091  1.6120
 8079SOL     OW35869   0.461   3.675  15.584  0.4055  0.3005 -0.2003
 8079SOL    HW135870   0.372   3.695  15.554  0.3618  0.9399  0.3776
 8079SOL    HW235871   0.480   3.749  15.640 -1.9039  1.3474 -0.8138
 8080SOL     OW35872   2.837   0.027   4.992  0.2418 -0.4302  0.4340
 8080SOL    HW135873   2.771   0.023   4.923  0.5658 -0.6043  0.1350
 8080SOL    HW235874   2.919   0.037   4.944 -1.5192 -0.0359 -2.4829
 8081SOL     OW35875   0.941   2.263   2.687 -0.1367  0.1847  0.1175
 8081SOL    HW135876   0.908   2.180   2.653 -0.9614  0.9961 -1.0691
 8081SOL    HW235877   0.941   2.321   2.611  1.1086  0.4663  0.3324
 8082SOL     OW35878   3.718   3.615  12.585 -0.3715 -0.0304 -0.4700
 8082SOL    HW135879   3.808   3.637  12.561 -0.3251 -0.5521 -0.7642
 8082SOL    HW235880   3.723   3.629  12.679 -1.5332 -0.2851 -0.3688
 8083SOL     OW35881   2.288   1.970   9.553  0.0848 -0.6361 -0.2304
 8083SOL    HW135882   2.324   2.048   9.512 -1.3238 -0.3844 -0.9823
 8083SOL    HW235883   2.363   1.935   9.602  0.3947  0.2136 -0.0929
 8084SOL     OW35884   3.350   0.622   2.925  0.2692 -0.0157  0.8634
 8084SOL    HW135885   3.438   0.587   2.906 -0.2833  0.9106 -3.3514
 8084SOL    HW235886   3.365   0.716   2.933  1.7334 -0.0813 -0.9854
 8085SOL     OW35887   1.991   2.466   8.927 -0.2247 -0.0439  0.4475
 8085SOL    HW135888   1.951   2.396   8.978  1.1978 -0.2479  1.2596
 8085SOL    HW235889   1.916   2.519   8.900 -0.4729 -1.0782 -0.9191
 8086SOL     OW35890   3.353   3.151  10.992 -0.3997 -0.3692 -0.5481
 8086SOL    HW135891   3.420   3.149  11.061  0.8925 -2.9997 -1.8787
 8086SOL    HW235892   3.284   3.102  11.036  0.8047 -0.8292  0.8491
 8087SOL     OW35893   1.970   4.162   3.311 -0.1861 -0.3488  0.0350
 8087SOL    HW135894   1.916   4.097   3.268 -2.1017  0.4764  1.1897
 8087SOL    HW235895   1.998   4.207   3.231  1.8209  0.2887  1.0657
 8088SOL     OW35896   3.521   2.200  11.495 -0.1356 -0.0590  0.0557
 8088SOL    HW135897   3.580   2.167  11.426 -0.6699 -0.0440 -0.4063
 8088SOL    HW235898   3.551   2.280  11.538 -1.1181  0.9401 -1.1433
 8089SOL     OW35899   2.099   4.181   6.742  0.2604 -0.0087  0.2199
 8089SOL    HW135900   2.160   4.145   6.677 -1.0671 -3.1136  0.6883
 8089SOL    HW235901   2.161   4.211   6.808 -0.2708  2.6454 -0.5097
 8090SOL     OW35902   1.790   2.453  11.858 -0.1775  1.2068 -0.1005
 8090SOL    HW135903   1.700   2.445  11.888 -0.3718 -0.9196 -1.2761
 8090SOL    HW235904   1.797   2.423  11.768  0.7796  2.5393 -0.4664
 8091SOL     OW35905   0.782   1.337  16.150  0.5272 -0.2862 -0.1234
 8091SOL    HW135906   0.773   1.432  16.157 -0.5821 -0.3411 -0.7896
 8091SOL    HW235907   0.827   1.315  16.069  0.1831  1.6708 -0.8651
 8092SOL     OW35908   3.244   3.759   4.148  0.1173  0.1080  0.2163
 8092SOL    HW135909   3.158   3.788   4.118  0.1302  2.5953  2.5609
 8092SOL    HW235910   3.310   3.813   4.102  1.3303 -0.8433  0.8447
 8093SOL     OW35911   0.621   1.367   4.016  0.4496  0.4554 -0.3826
 8093SOL    HW135912   0.566   1.296   3.984  1.1303  0.3578 -1.3317
 8093SOL    HW235913   0.575   1.381   4.099 -0.0041  0.9721 -0.7223
 8094SOL     OW35914   3.446   0.900  11.865 -0.1161  0.2852  0.1341
 8094SOL    HW135915   3.470   0.957  11.791  0.6676 -1.1222 -0.7067
 8094SOL    HW235916   3.360   0.870  11.837  0.2390 -0.5298 -0.0857
 8095SOL     OW35917   1.098   1.737  15.215 -0.0813  0.7330 -0.6331
 8095SOL    HW135918   1.016   1.778  15.242  0.2936  0.5931  0.7075
 8095SOL    HW235919   1.129   1.811  15.163  0.8992  1.6508  1.2322
 8096SOL     OW35920   0.576   0.218  17.540 -0.5626  0.5449 -0.0533
 8096SOL    HW135921   0.569   0.219  17.635 -2.0466 -1.9543 -0.1527
 8096SOL    HW235922   0.553   0.126  17.530 -0.6456  0.3387  2.1698
 8097SOL     OW35923   2.590   1.174   2.277 -0.1774  0.3070 -0.1373
 8097SOL    HW135924   2.631   1.091   2.252 -1.7017  0.0445 -1.7924
 8097SOL    HW235925   2.503   1.175   2.236  0.5167  2.4739 -1.5896
 8098SOL     OW35926   2.356   1.608   8.589  0.0232 -0.5954  0.0478
 8098SOL    HW135927   2.448   1.616   8.613  0.0225 -2.1829  0.6070
 8098SOL    HW235928   2.362   1.665   8.513  2.2178 -2.5157 -1.2301
 8099SOL     OW35929   1.411   1.827   7.736 -0.4481 -0.0243 -0.1971
 8099SOL    HW135930   1.458   1.885   7.675 -0.5934 -0.5194 -0.7767
 8099SOL    HW235931   1.455   1.749   7.703  0.2674 -0.2315  1.2450
 8100SOL     OW35932   4.590   4.360   7.475 -0.1191  0.0391 -0.3225
 8100SOL    HW135933   4.683   4.370   7.496  0.3901 -3.8058 -0.7558
 8100SOL    HW235934   4.579   4.273   7.436 -3.3137  0.8545 -1.2243
 8101SOL     OW35935   4.698   1.699   6.133 -0.3680 -0.2538  0.1891
 8101SOL    HW135936   4.717   1.741   6.049  0.4349 -0.4841  0.2621
 8101SOL    HW235937   4.701   1.608   6.106  2.2471 -0.5341  1.4697
 8102SOL     OW35938   3.343   1.695   4.120  0.4394  0.0895 -0.2489
 8102SOL    HW135939   3.378   1.607   4.112 -1.6533 -0.7263 -0.4969
 8102SOL    HW235940   3.398   1.735   4.188 -1.9146  2.3502  0.3566
 8103SOL     OW35941   1.296   1.736   9.725  0.4462  0.3440 -0.1474
 8103SOL    HW135942   1.300   1.801   9.796  0.8854  0.5099 -0.3208
 8103SOL    HW235943   1.386   1.751   9.694  0.1511  1.7399 -0.3636
 8104SOL     OW35944   0.734   3.668  16.809 -0.0154  0.5280 -0.0176
 8104SOL    HW135945   0.797   3.735  16.782  0.1419  0.2853 -0.2586
 8104SOL    HW235946   0.663   3.721  16.845 -0.6537 -2.1814  2.7112
 8105SOL     OW35947   2.145   3.097   4.988 -0.2551 -0.3306  0.0274
 8105SOL    HW135948   2.229   3.067   4.953  0.9454 -0.6689  3.1801
 8105SOL    HW235949   2.184   3.151   5.056 -1.7238  0.9791 -0.1918
 8106SOL     OW35950   0.708   2.719   1.844  0.4451 -0.7226 -0.2682
 8106SOL    HW135951   0.717   2.751   1.934  1.4552 -0.4812 -0.4488
 8106SOL    HW235952   0.771   2.647   1.851  2.4061  0.9610 -0.6486
 8107SOL     OW35953   1.145   1.658   7.197 -0.2648 -0.2362 -0.2246
 8107SOL    HW135954   1.060   1.614   7.189 -0.9723  0.8092  1.6566
 8107SOL    HW235955   1.204   1.611   7.138  0.3382  0.3128 -0.0600
 8108SOL     OW35956   2.990   0.670  13.587 -0.1893 -0.4223  0.0503
 8108SOL    HW135957   3.041   0.737  13.543  0.3935 -1.1688 -0.4076
 8108SOL    HW235958   3.055   0.601  13.593 -1.0414 -1.5407 -3.1833
 8109SOL     OW35959   1.854   0.510   2.586  0.3999  0.4601  0.2111
 8109SOL    HW135960   1.893   0.568   2.521 -1.4396  1.7823  0.3168
 8109SOL    HW235961   1.862   0.554   2.671 -1.2826  2.5794 -0.7308
 8110SOL     OW35962   3.744   4.323   3.763 -0.0921  0.0980 -0.0991
 8110SOL    HW135963   3.796   4.249   3.731 -0.4763  0.3634 -1.3353
 8110SOL    HW235964   3.783   4.396   3.714 -0.4743  1.9566  2.3399
 8111SOL     OW35965   3.594   3.370   8.534 -0.4967  0.1325 -0.1843
 8111SOL    HW135966   3.582   3.345   8.625 -0.1015  1.2239  0.1767
 8111SOL    HW235967   3.687   3.357   8.516 -0.6134  0.5514 -1.1184
 8112SOL     OW35968   2.939   3.105   4.867  0.3637 -0.0195 -0.0915
 8112SOL    HW135969   2.911   3.111   4.958 -0.7343  2.6930 -0.5962
 8112SOL    HW235970   3.021   3.056   4.875  0.9084  1.0135  0.6643
 8113SOL     OW35971   3.445   4.384  10.304  0.1996  0.3043 -0.1628
 8113SOL    HW135972   3.416   4.325  10.235 -0.1038 -0.4296  0.5906
 8113SOL    HW235973   3.454   4.321  10.376 -1.1280  0.4108  0.0903
 8114SOL     OW35974   2.878   1.854   4.772  1.0034  0.1332  0.2310
 8114SOL    HW135975   2.860   1.777   4.719  0.4637  0.8763 -0.6553
 8114SOL    HW235976   2.827   1.925   4.734 -0.4642 -1.0600 -0.0045
 8115SOL     OW35977   4.601   2.367  12.571 -0.5586 -0.1752 -0.6675
 8115SOL    HW135978   4.605   2.356  12.666  0.9162  1.4965 -0.5478
 8115SOL    HW235979   4.568   2.283  12.539 -1.1256  0.3351 -1.4417
 8116SOL     OW35980   2.397   3.799  14.472  0.1677 -0.4385  0.6200
 8116SOL    HW135981   2.417   3.867  14.409  0.3956 -1.7241 -0.6948
 8116SOL    HW235982   2.418   3.723  14.417 -0.1609  1.8430 -2.6299
 8117SOL     OW35983   3.154   2.599   5.200  0.4316 -0.0012  0.4249
 8117SOL    HW135984   3.201   2.628   5.121 -0.1374  2.5055  1.0199
 8117SOL    HW235985   3.076   2.561   5.160  0.0449  2.0262 -0.7346
 8118SOL     OW35986   2.059   2.342   7.995 -0.5593  0.4759 -0.1014
 8118SOL    HW135987   2.089   2.427   8.028  0.9974  0.2961 -0.9995
 8118SOL    HW235988   1.978   2.366   7.951 -2.5349 -1.2984  2.5893
 8119SOL     OW35989   1.334   4.267   4.225  0.2132  0.5407  1.0479
 8119SOL    HW135990   1.391   4.203   4.183 -1.9033 -1.6115  1.4425
 8119SOL    HW235991   1.399   4.336   4.238  2.3047 -0.5391 -3.5143
 8120SOL     OW35992   2.785   3.640   6.925  0.0933 -0.2604  0.5872
 8120SOL    HW135993   2.722   3.680   6.866  0.9339 -0.8309 -0.6816
 8120SOL    HW235994   2.786   3.551   6.891 -1.4038 -0.5047  1.1837
 8121SOL     OW35995   1.216   2.752  15.458 -0.1757 -0.0770  0.6685
 8121SOL    HW135996   1.186   2.840  15.480 -2.2964 -0.4595 -0.6583
 8121SOL    HW235997   1.306   2.780  15.444 -0.6169  2.3196  2.6448
 8122SOL     OW35998   0.268   0.119   7.410 -0.5818 -0.2817 -0.5547
 8122SOL    HW135999   0.309   0.201   7.434 -2.7645  0.6975 -0.1319
 8122SOL    HW236000   0.290   0.052   7.474 -0.7875  0.0881 -0.0981
 8123SOL     OW36001   2.701   3.915   9.647 -0.8979 -0.5917  0.3879
 8123SOL    HW136002   2.705   3.862   9.568 -2.7423  0.0257 -0.1009
 8123SOL    HW236003   2.635   3.975   9.613 -0.2803  0.7580  1.5914
 8124SOL     OW36004   3.338   2.842   2.230  0.0881  0.4380 -0.5104
 8124SOL    HW136005   3.342   2.935   2.253 -2.2578  0.7704 -1.5272
 8124SOL    HW236006   3.417   2.805   2.271 -1.6567 -0.6661  1.8561
 8125SOL     OW36007   0.534   1.625   2.803  0.1382 -0.2274 -0.0284
 8125SOL    HW136008   0.463   1.668   2.852 -0.0644  1.4932 -1.8352
 8125SOL    HW236009   0.572   1.700   2.757  0.1261  1.3229  2.4466
 8126SOL     OW36010   4.255   4.103   6.318  0.0541  0.0230 -0.4460
 8126SOL    HW136011   4.226   4.040   6.252 -2.8674  0.0949  0.7376
 8126SOL    HW236012   4.282   4.039   6.384  0.0622 -0.1704 -0.6388
 8127SOL     OW36013   0.198   0.514   7.657 -0.7424  0.4368  0.3099
 8127SOL    HW136014   0.214   0.475   7.743 -0.2329 -1.6766 -0.7230
 8127SOL    HW236015   0.110   0.484   7.633 -0.9392  2.2030 -1.1565
 8128SOL     OW36016   1.919   4.723   1.853  0.1615 -0.4887 -0.1774
 8128SOL    HW136017   1.918   4.629   1.836  0.9628 -0.4432 -0.4808
 8128SOL    HW236018   1.865   0.030   1.788 -0.0406  0.6286  0.7734
 8129SOL     OW36019   2.739   1.300   8.591 -0.0922 -0.1812 -0.6873
 8129SOL    HW136020   2.714   1.230   8.651  0.1117 -0.0947 -0.5010
 8129SOL    HW236021   2.764   1.369   8.652 -1.3147  1.4902 -2.0592
 8130SOL     OW36022   3.642   2.252   7.457  0.5378  0.2643  0.3151
 8130SOL    HW136023   3.696   2.189   7.410  0.4917  0.3799  0.1064
 8130SOL    HW236024   3.673   2.227   7.543  1.6098 -1.1129 -0.4750
 8131SOL     OW36025   0.347   4.485   7.814 -0.0265  0.6072 -0.2104
 8131SOL    HW136026   0.331   4.462   7.905  1.3274  1.0531  0.1403
 8131SOL    HW236027   0.435   4.524   7.821 -1.2532  3.7610 -2.2061
 8132SOL     OW36028   1.381   2.579   2.400 -0.3177  0.3344  0.8761
 8132SOL    HW136029   1.369   2.510   2.465  0.2431 -0.3161  0.2861
 8132SOL    HW236030   1.293   2.587   2.363  0.0810  0.0324 -0.1587
 8133SOL     OW36031   2.099   0.655   6.322  0.2240  0.0644  0.2186
 8133SOL    HW136032   2.183   0.612   6.301 -0.1397  0.1378 -1.4047
 8133SOL    HW236033   2.038   0.581   6.313 -1.1324  1.3082 -0.7318
 8134SOL     OW36034   4.591   1.385   6.580 -0.7571 -0.1230  0.4167
 8134SOL    HW136035   4.521   1.328   6.549 -0.3973  1.1626 -2.7813
 8134SOL    HW236036   4.575   1.407   6.672  0.1902  0.9207  0.3266
 8135SOL     OW36037   4.158   1.826  13.136 -0.9102 -0.4814  0.5584
 8135SOL    HW136038   4.074   1.779  13.131  0.1117 -2.0110 -2.4508
 8135SOL    HW236039   4.215   1.766  13.087 -0.7273 -0.1187  0.3316
 8136SOL     OW36040   0.036   0.757   4.377 -0.0163 -0.3954 -0.5661
 8136SOL    HW136041   0.062   0.843   4.410 -1.3404  0.2771 -1.3371
 8136SOL    HW236042   4.689   0.779   4.340  0.3184 -0.3962 -1.3345
 8137SOL     OW36043   3.966   2.681  10.940  0.3852 -0.3865  0.3116
 8137SOL    HW136044   3.998   2.713  10.855 -1.4199  0.4468 -0.0511
 8137SOL    HW236045   3.932   2.597  10.907  0.3591 -1.0603  2.0717
 8138SOL     OW36046   3.574   2.005  10.931  0.0375 -0.3974 -0.4322
 8138SOL    HW136047   3.656   2.055  10.933 -0.8176  1.0275 -0.5433
 8138SOL    HW236048   3.615   1.919  10.922 -0.0545 -0.5369  0.5049
 8139SOL     OW36049   2.562   1.414   2.709  0.1543  0.0640 -0.4309
 8139SOL    HW136050   2.508   1.430   2.786  1.5675  1.4306  0.2725
 8139SOL    HW236051   2.597   1.325   2.720  0.0949  0.2777  1.4873
 8140SOL     OW36052   1.991   1.624   8.389 -0.0287  0.2897 -0.4214
 8140SOL    HW136053   1.925   1.604   8.455 -0.8011  0.3317 -1.1706
 8140SOL    HW236054   2.036   1.539   8.390 -0.6009  0.0143  1.1096
 8141SOL     OW36055   3.306   3.802  13.273  0.7916 -0.2258  0.2374
 8141SOL    HW136056   3.372   3.733  13.286  1.2687  0.6652  2.4346
 8141SOL    HW236057   3.231   3.757  13.235  1.0614  0.0560 -0.6386
 8142SOL     OW36058   3.068   0.861   2.857  0.5984  0.3594  0.1980
 8142SOL    HW136059   3.121   0.828   2.784 -0.6534 -2.6146  0.6542
 8142SOL    HW236060   2.990   0.898   2.815  1.4840  1.2304 -0.6783
 8143SOL     OW36061   3.253   4.455   1.504 -0.0765 -0.7168 -0.2278
 8143SOL    HW136062   3.295   4.407   1.576  0.9545  3.2826  1.8538
 8143SOL    HW236063   3.165   4.421   1.518  0.2039 -0.1998  2.8048
 8144SOL     OW36064   2.641   0.147   2.638  0.3079  0.2006 -0.4676
 8144SOL    HW136065   2.586   0.070   2.624  1.1381 -0.0186 -2.5721
 8144SOL    HW236066   2.583   0.195   2.697 -1.2564 -2.0004 -0.2449
 8145SOL     OW36067   0.860   4.632  14.514  0.1086  1.1234  0.0453
 8145SOL    HW136068   0.866   4.616  14.608  1.2859 -1.5317 -0.5024
 8145SOL    HW236069   0.937   4.586  14.480 -0.9267 -0.4345 -0.1568
 8146SOL     OW36070   2.352   4.370   6.660  0.2681  0.5023  0.1270
 8146SOL    HW136071   2.279   4.423   6.627 -0.5068 -0.2558  0.6290
 8146SOL    HW236072   2.370   4.403   6.748 -2.0365  2.0719  0.0113
 8147SOL     OW36073   1.122   1.334   4.661  0.2945  0.6678  0.5557
 8147SOL    HW136074   1.100   1.274   4.591  1.1399  1.2395 -0.1954
 8147SOL    HW236075   1.063   1.323   4.736  0.0932 -1.4274  0.0719
 8148SOL     OW36076   0.372   4.278   8.990  0.0200  0.1174 -0.0200
 8148SOL    HW136077   0.463   4.303   8.974  0.7012 -2.0925  0.3872
 8148SOL    HW236078   0.363   4.332   9.069  2.3661  2.5885 -1.4566
 8149SOL     OW36079   0.305   4.609   9.792  0.0539  0.5781 -0.0080
 8149SOL    HW136080   0.224   4.561   9.771  1.4200 -1.7980  0.1858
 8149SOL    HW236081   0.376   4.551   9.766 -0.1639 -0.1798  1.0779
 8150SOL     OW36082   0.276   0.539   6.261  0.0858 -0.1232 -0.1578
 8150SOL    HW136083   0.366   0.512   6.245 -0.3946 -0.6565 -1.9468
 8150SOL    HW236084   0.285   0.600   6.334 -2.3063  0.5980 -0.4573
 8151SOL     OW36085   3.731   3.217   7.092  0.4153 -0.1426 -0.0840
 8151SOL    HW136086   3.770   3.247   7.174 -0.7653  1.3956 -0.0732
 8151SOL    HW236087   3.692   3.132   7.113 -1.3650  0.5754 -0.5024
 8152SOL     OW36088   3.073   2.261  17.544 -0.6938 -0.3776  0.3448
 8152SOL    HW136089   3.120   2.226  17.468 -1.4015 -1.3995  0.3821
 8152SOL    HW236090   2.984   2.258  17.508 -0.1010  0.0045 -1.1562
 8153SOL     OW36091   1.529   3.895   6.568  0.6847  0.1314  0.5164
 8153SOL    HW136092   1.599   3.899   6.503 -0.1490  3.7327 -0.1683
 8153SOL    HW236093   1.560   3.936   6.649  0.5507 -2.1702  1.7444
 8154SOL     OW36094   1.705   0.637   9.511  0.2209  0.0566 -0.4356
 8154SOL    HW136095   1.670   0.568   9.566  0.7504 -1.2488 -1.7426
 8154SOL    HW236096   1.645   0.650   9.438 -1.9931 -0.1454  1.3563
 8155SOL     OW36097   0.437   1.588   0.309 -0.3874  0.0239  0.0355
 8155SOL    HW136098   0.529   1.615   0.307 -0.1057 -1.1904 -3.0882
 8155SOL    HW236099   0.452   1.496   0.333  0.8252  0.1935 -0.0934
 8156SOL     OW36100   4.167   3.510   1.713 -0.2628 -0.2176 -0.0481
 8156SOL    HW136101   4.258   3.535   1.730 -1.4153  2.1024  2.6912
 8156SOL    HW236102   4.132   3.473   1.794  2.7703  1.8908  2.2238
 8157SOL     OW36103   0.957   0.946   7.106 -1.0369  0.6865  0.1097
 8157SOL    HW136104   0.953   0.854   7.078  0.3380  0.3114  1.1458
 8157SOL    HW236105   0.873   0.950   7.151 -0.9746 -2.6846  0.5540
 8158SOL     OW36106   4.217   2.617   4.435  0.0580 -0.8999 -0.0483
 8158SOL    HW136107   4.150   2.681   4.458  0.2323 -0.5895 -0.3973
 8158SOL    HW236108   4.169   2.547   4.390  0.8127 -0.9948 -0.7029
 8159SOL     OW36109   3.085   1.936   4.626  0.0533 -0.0000 -0.4810
 8159SOL    HW136110   3.047   1.875   4.563  0.0173  0.8359 -1.2686
 8159SOL    HW236111   3.064   1.893   4.709 -0.0013 -3.0671 -2.0893
 8160SOL     OW36112   4.335   1.612   8.288  0.0176 -0.1623  0.0980
 8160SOL    HW136113   4.248   1.607   8.249 -0.0028  1.2605 -0.0310
 8160SOL    HW236114   4.323   1.701   8.322  0.0163 -0.6882  1.4700
 8161SOL     OW36115   2.694   2.806   3.892 -0.3652 -0.4920  0.3663
 8161SOL    HW136116   2.787   2.782   3.902  0.0056  0.2797 -1.3634
 8161SOL    HW236117   2.683   2.793   3.798  1.0446 -0.0379  0.1312
 8162SOL     OW36118   1.934   1.803   2.420  0.3538 -0.9131  0.2685
 8162SOL    HW136119   1.919   1.713   2.391  0.4703 -1.1220  0.8548
 8162SOL    HW236120   1.971   1.780   2.505  0.8314 -3.4374 -0.6166
 8163SOL     OW36121   4.487   2.696  17.266  0.5503 -0.0928 -0.7166
 8163SOL    HW136122   4.454   2.751  17.337  1.1213  0.6383 -1.0160
 8163SOL    HW236123   4.423   2.706  17.197  0.7332 -0.2947 -0.9175
 8164SOL     OW36124   2.792   4.279   0.446 -0.1529 -0.1888 -0.3687
 8164SOL    HW136125   2.772   4.253   0.536 -0.7729 -1.4534 -0.8559
 8164SOL    HW236126   2.866   4.337   0.462 -0.0260 -0.1028 -1.2870
 8165SOL     OW36127   1.877   0.620  12.323  0.2388 -0.0220  0.2819
 8165SOL    HW136128   1.809   0.565  12.283  1.7776 -0.7728 -1.3110
 8165SOL    HW236129   1.880   0.578  12.409 -0.4213 -1.2157 -0.2903
 8166SOL     OW36130   0.307   2.565  15.285 -1.1656  0.5084 -0.0936
 8166SOL    HW136131   0.243   2.498  15.309  0.7309 -0.5220  2.2093
 8166SOL    HW236132   0.347   2.586  15.370 -1.8603 -3.0008  1.0948
 8167SOL     OW36133   3.122   4.133  16.349 -0.1019 -0.2817 -0.2677
 8167SOL    HW136134   3.104   4.094  16.435 -0.9951  0.9988  0.1258
 8167SOL    HW236135   3.126   4.225  16.374  0.1418 -0.6012  0.8720
 8168SOL     OW36136   0.042   2.298   5.427 -0.0278 -0.3350  0.7057
 8168SOL    HW136137   4.686   2.290   5.446 -0.3849  2.9366  0.4125
 8168SOL    HW236138   0.048   2.219   5.374 -0.3175  0.6026 -0.7243
 8169SOL     OW36139   1.442   2.936   9.238  0.1403 -0.8100 -0.3364
 8169SOL    HW136140   1.408   3.025   9.242  1.0408 -0.5346  1.0640
 8169SOL    HW236141   1.362   2.891   9.210 -0.4136 -0.8087  1.2497
 8170SOL     OW36142   4.324   3.378   2.112 -0.1661 -0.0282 -0.2836
 8170SOL    HW136143   4.405   3.336   2.141 -0.5790 -0.1978  0.6243
 8170SOL    HW236144   4.258   3.310   2.098 -2.4987  2.4442 -1.1697
 8171SOL     OW36145   1.105   0.606   5.338 -0.2917  0.7715  0.3798
 8171SOL    HW136146   1.180   0.654   5.302 -0.3803  1.1850  0.7467
 8171SOL    HW236147   1.024   0.652   5.315  0.0099  1.5629  0.8791
 8172SOL     OW36148   3.006   3.048   7.493 -0.4448 -0.3247 -0.0835
 8172SOL    HW136149   3.083   3.093   7.527 -0.4713  0.1486 -0.6557
 8172SOL    HW236150   2.991   3.001   7.575 -1.0038  0.4881  0.2841
 8173SOL     OW36151   4.110   2.980   4.944  0.1636  0.3784 -0.0714
 8173SOL    HW136152   4.092   2.962   5.036 -0.3740 -0.0975 -0.2741
 8173SOL    HW236153   4.137   2.892   4.918  2.6311  1.2677 -0.5147
 8174SOL     OW36154   1.397   0.021   7.865 -0.2601 -0.5393 -0.1265
 8174SOL    HW136155   1.322   0.045   7.919  0.0926  1.7238 -0.6106
 8174SOL    HW236156   1.452   0.099   7.863 -2.9650  1.3567 -1.7235
 8175SOL     OW36157   4.558   3.394  15.930 -0.4202  0.0838 -0.2322
 8175SOL    HW136158   4.505   3.460  15.885  0.0172  1.2716  0.9940
 8175SOL    HW236159   4.529   3.385  16.021  1.1641  0.6783  0.3450
 8176SOL     OW36160   1.826   1.947   8.330  0.3684  0.2604 -0.2424
 8176SOL    HW136161   1.867   2.031   8.350  1.2857  0.1073 -1.4690
 8176SOL    HW236162   1.792   1.907   8.410  1.7014 -0.6540 -0.1418
 8177SOL     OW36163   4.379   3.293   8.389 -0.3062 -0.0365  0.0377
 8177SOL    HW136164   4.323   3.363   8.356  0.8853 -0.4021 -2.7661
 8177SOL    HW236165   4.363   3.215   8.337 -1.0867 -0.7988  1.4303
 8178SOL     OW36166   3.838   4.629   8.483  0.0119  0.3633 -0.6133
 8178SOL    HW136167   3.783   4.617   8.561  0.9478 -1.5638 -0.2444
 8178SOL    HW236168   3.774   4.588   8.425  0.5029 -0.5296 -0.5224
 8179SOL     OW36169   3.519   0.407  10.028  0.3988 -0.2650 -0.7794
 8179SOL    HW136170   3.574   0.485  10.044  1.0530 -0.8320 -0.2569
 8179SOL    HW236171   3.483   0.390  10.115  1.2587 -2.3340 -0.8405
 8180SOL     OW36172   4.526   2.465   1.759  0.1907 -0.2637 -0.0554
 8180SOL    HW136173   4.432   2.470   1.775  0.0179 -1.4002 -0.7000
 8180SOL    HW236174   4.545   2.554   1.789  0.1226 -0.6298  1.0816
 8181SOL     OW36175   3.059   2.397   4.798  0.3340 -0.1017 -0.6303
 8181SOL    HW136176   3.107   2.419   4.718  2.9788  1.5516  1.3859
 8181SOL    HW236177   3.063   2.485   4.834  0.5542 -0.8937  1.2757
 8182SOL     OW36178   3.910   1.735   4.749 -0.1173  0.7945  0.2151
 8182SOL    HW136179   3.912   1.645   4.781  2.3230  0.9877  0.6051
 8182SOL    HW236180   4.002   1.762   4.746 -0.0335  0.4167 -0.5874
 8183SOL     OW36181   3.916   0.810   4.650  0.1279  0.2155 -0.1498
 8183SOL    HW136182   3.838   0.858   4.622  0.8570  0.3201 -2.0091
 8183SOL    HW236183   3.953   0.783   4.566 -0.3431  1.2695 -0.6864
 8184SOL     OW36184   0.931   2.352   5.807  0.5509 -0.1552  0.1539
 8184SOL    HW136185   0.931   2.325   5.715  1.3630 -0.2340  0.1817
 8184SOL    HW236186   0.837   2.350   5.828  0.6550 -2.5053  0.3843
 8185SOL     OW36187   2.979   3.625   1.510 -0.8868 -0.4368  0.1415
 8185SOL    HW136188   3.053   3.578   1.548 -0.9001 -0.0635  0.6327
 8185SOL    HW236189   2.956   3.682   1.584  1.9204  0.6096  0.2172
 8186SOL     OW36190   0.762   0.860   5.605  0.4346 -0.5874  0.0746
 8186SOL    HW136191   0.681   0.875   5.557  0.8112  4.1655  0.8726
 8186SOL    HW236192   0.814   0.938   5.583 -0.3893 -0.5856 -1.8171
 8187SOL     OW36193   2.315   1.328   1.843 -0.4389  0.2758  0.6321
 8187SOL    HW136194   2.228   1.298   1.872 -1.6158  1.2188 -1.9290
 8187SOL    HW236195   2.313   1.292   1.754  1.1421 -0.4001  0.8799
 8188SOL     OW36196   1.302   2.712   7.416 -0.2157  0.1960 -0.3549
 8188SOL    HW136197   1.398   2.702   7.410 -0.2466 -0.9328  0.8559
 8188SOL    HW236198   1.285   2.805   7.431  0.6116 -0.0385  2.0393
 8189SOL     OW36199   1.487   0.786   6.360  0.4618 -0.3874  0.3269
 8189SOL    HW136200   1.441   0.717   6.408  1.0531 -0.7310  0.4053
 8189SOL    HW236201   1.437   0.861   6.392 -1.9043 -1.0241 -1.9104
 8190SOL     OW36202   2.506   1.547   2.468 -0.4790 -0.0929  0.1840
 8190SOL    HW136203   2.539   1.497   2.542  0.2931 -0.1003 -0.1666
 8190SOL    HW236204   2.524   1.635   2.501  1.1635 -0.5173  0.3962
 8191SOL     OW36205   3.721   0.339   8.248 -0.2892 -0.3935 -0.6272
 8191SOL    HW136206   3.742   0.383   8.166  0.3701 -1.9832 -1.3076
 8191SOL    HW236207   3.747   0.417   8.298  1.2821 -0.6805 -0.9847
 8192SOL     OW36208   1.363   1.445   6.111 -0.6546  1.0145 -0.6048
 8192SOL    HW136209   1.298   1.494   6.061 -1.2470  1.0779  0.2191
 8192SOL    HW236210   1.434   1.508   6.104  0.3959 -0.2430 -1.2921
 8193SOL     OW36211   1.902   0.352   5.184 -0.4621 -0.1901  0.2987
 8193SOL    HW136212   1.835   0.369   5.118 -0.0688 -0.2301 -0.1090
 8193SOL    HW236213   1.929   0.443   5.188 -1.0322 -0.0522  1.1262
 8194SOL     OW36214   2.033   3.989   1.418 -0.0558  0.0509 -0.2581
 8194SOL    HW136215   2.001   4.057   1.477  2.4695 -1.1033  2.4166
 8194SOL    HW236216   2.032   4.037   1.335  0.2709 -0.7820 -0.7407
 8195SOL     OW36217   4.660   2.118   6.263 -0.3484  0.3983  0.3555
 8195SOL    HW136218   0.014   2.109   6.289 -0.5402 -0.5969  0.6732
 8195SOL    HW236219   4.653   2.092   6.171  1.5900  1.2243 -0.0209
 8196SOL     OW36220   2.944   1.037   7.387 -0.7168 -0.6368 -0.1048
 8196SOL    HW136221   2.924   1.090   7.310 -0.3762 -2.1529 -1.2418
 8196SOL    HW236222   2.958   0.950   7.348 -2.0311 -1.4098  1.1027
 8197SOL     OW36223   1.869   2.075   3.632  0.4286 -0.1116 -0.0511
 8197SOL    HW136224   1.787   2.110   3.666  1.2199  1.4306  0.2621
 8197SOL    HW236225   1.926   2.151   3.641 -0.3672  0.3895  0.6955
 8198SOL     OW36226   3.812   3.121   8.796 -0.0817  0.4393  0.2841
 8198SOL    HW136227   3.762   3.186   8.847  0.1165  0.3534  0.5891
 8198SOL    HW236228   3.837   3.068   8.871  2.7038  0.8223 -0.3735
 8199SOL     OW36229   4.550   4.003   2.443 -0.2952 -0.1413 -0.3382
 8199SOL    HW136230   4.454   4.006   2.438 -0.3852 -3.0734 -0.3433
 8199SOL    HW236231   4.571   4.021   2.351 -0.3706 -1.2483 -0.5647
 8200SOL     OW36232   0.428   1.099   0.569 -0.2599 -0.0137  0.0623
 8200SOL    HW136233   0.403   1.127   0.657  0.4186  0.3699  0.1310
 8200SOL    HW236234   0.516   1.137   0.567 -0.5773  0.8475  2.2847
 8201SOL     OW36235   1.629   2.564  12.155  0.3652 -0.2645 -0.2024
 8201SOL    HW136236   1.680   2.496  12.200 -1.1349 -1.1127  0.2522
 8201SOL    HW236237   1.699   2.615  12.115  1.6126 -1.9932 -0.2348
 8202SOL     OW36238   1.113   0.170   7.825  0.6383 -0.3153  0.6544
 8202SOL    HW136239   1.052   0.198   7.893  0.1579 -0.2929  0.2180
 8202SOL    HW236240   1.150   0.251   7.790  0.9359 -0.1594  1.3326
 8203SOL     OW36241   2.014   2.042   0.188 -0.7530  0.1073  0.1023
 8203SOL    HW136242   2.042   1.972   0.130 -0.4911 -0.5500  1.0182
 8203SOL    HW236243   2.094   2.062   0.237 -1.0857  0.8985  0.3239
 8204SOL     OW36244   0.044   0.039   8.621 -0.3142 -0.1602 -0.5880
 8204SOL    HW136245   4.699   0.026   8.574  0.2727 -1.3838 -1.2772
 8204SOL    HW236246   0.013   0.071   8.705 -2.0798 -1.0205 -0.9099
 8205SOL     OW36247   2.620   1.161   2.851  0.1711  0.3865 -0.4837
 8205SOL    HW136248   2.636   1.143   2.758 -1.3899  1.4237 -0.9548
 8205SOL    HW236249   2.600   1.072   2.877  0.3761  0.4193 -0.2099
 8206SOL     OW36250   3.004   1.798   7.403 -0.4251  0.5032  0.3044
 8206SOL    HW136251   3.030   1.764   7.488 -0.0766  1.1797  0.4619
 8206SOL    HW236252   3.005   1.892   7.421 -2.2930  0.1598  2.1900
 8207SOL     OW36253   3.722   1.764   9.135 -0.5096 -0.3907 -0.1830
 8207SOL    HW136254   3.801   1.750   9.188 -1.3439 -0.6146  1.0012
 8207SOL    HW236255   3.677   1.831   9.187 -0.0720 -1.1837  1.2098
 8208SOL     OW36256   0.930   0.499   7.350 -0.4709  0.5201  0.4883
 8208SOL    HW136257   0.954   0.449   7.272 -1.8099 -0.4424  0.6961
 8208SOL    HW236258   0.916   0.586   7.311 -1.3169 -0.6036 -1.7676
 8209SOL     OW36259   0.177   1.983  17.713 -0.6363  0.0527  0.2426
 8209SOL    HW136260   0.097   1.944  17.676 -0.8008  1.0047 -0.4116
 8209SOL    HW236261   0.194   2.032  17.633  2.8326 -0.1491  0.8731
 8210SOL     OW36262   0.479   2.881   3.168 -0.4994 -0.4359 -0.1916
 8210SOL    HW136263   0.415   2.876   3.239  0.2484 -0.3169  0.4919
 8210SOL    HW236264   0.500   2.788   3.171 -1.1136 -0.5243  1.5933
 8211SOL     OW36265   4.614   3.874   7.460 -0.3882  0.0900 -0.8605
 8211SOL    HW136266   4.586   3.843   7.374 -0.3720  0.6039 -1.0534
 8211SOL    HW236267   4.544   3.852   7.522 -1.5418  0.1735 -2.1497
 8212SOL     OW36268   0.232   3.403   1.624 -0.0054 -0.0924  0.4258
 8212SOL    HW136269   0.151   3.356   1.607  0.4511 -1.1452  1.2056
 8212SOL    HW236270   0.218   3.419   1.717  0.1375  3.3345 -0.1331
 8213SOL     OW36271   0.118   2.394   6.699  0.2731  0.0057 -0.3726
 8213SOL    HW136272   0.100   2.430   6.786 -0.8951  0.4033 -0.7790
 8213SOL    HW236273   0.106   2.300   6.715 -2.1459  0.1868 -1.1146
 8214SOL     OW36274   2.036   1.318   1.533 -0.5832  0.0671  0.2031
 8214SOL    HW136275   1.986   1.328   1.614  2.2086 -1.8533  2.1416
 8214SOL    HW236276   2.125   1.302   1.564 -0.0843 -1.3663 -1.9801
 8215SOL     OW36277   4.588   0.957   8.391 -0.2285  0.2431 -0.0019
 8215SOL    HW136278   4.679   0.929   8.399  0.2908  1.9228 -0.1039
 8215SOL    HW236279   4.558   0.882   8.339  1.5737  1.3272 -2.5488
 8216SOL     OW36280   3.131   2.713   6.642 -0.0830  0.3921  0.0508
 8216SOL    HW136281   3.195   2.642   6.635 -0.2321  0.2632  0.0029
 8216SOL    HW236282   3.196   2.771   6.681 -0.2084 -0.6138  1.7671
 8217SOL     OW36283   3.017   4.520   3.045 -0.0563 -0.2078  0.9745
 8217SOL    HW136284   3.065   4.602   3.033  0.9864 -1.2978 -2.4098
 8217SOL    HW236285   3.007   4.515   3.140 -4.1622 -3.4613  0.3724
 8218SOL     OW36286   2.785   0.357  10.473 -0.7882 -0.3434 -0.1585
 8218SOL    HW136287   2.726   0.289  10.441  1.0022 -0.9525 -2.1539
 8218SOL    HW236288   2.848   0.292  10.505 -0.8484 -0.5905 -0.5413
 8219SOL     OW36289   2.375   3.532   6.965 -0.0969 -0.1235 -0.1019
 8219SOL    HW136290   2.328   3.509   7.045 -0.4142  0.4790 -0.1109
 8219SOL    HW236291   2.440   3.593   7.001  0.8334 -0.2212 -1.6271
 8220SOL     OW36292   0.247   1.115  10.318  0.2362  0.1973  0.3576
 8220SOL    HW136293   0.276   1.203  10.341 -1.0444  0.4126  1.1299
 8220SOL    HW236294   0.189   1.082  10.387 -0.5101 -0.1177 -0.4207
 8221SOL     OW36295   3.525   4.336   7.997 -0.5104 -0.1021 -0.2845
 8221SOL    HW136296   3.467   4.263   7.975 -0.7435 -0.1700  0.5622
 8221SOL    HW236297   3.494   4.402   7.934  3.7024  1.4295 -0.7630
 8222SOL     OW36298   3.940   4.649   3.365 -0.2227 -0.3018  0.4679
 8222SOL    HW136299   4.009   4.707   3.398  1.2006 -2.5198  1.3953
 8222SOL    HW236300   3.997   4.585   3.324  0.7194  1.6624 -1.2744
 8223SOL     OW36301   1.722   2.055   2.938 -0.4513 -0.0841  0.1434
 8223SOL    HW136302   1.685   2.127   2.989 -0.1761 -1.6590  2.5809
 8223SOL    HW236303   1.651   2.042   2.875 -1.8097  0.0598  1.6464
 8224SOL     OW36304   3.226   0.545  13.534 -0.1933  0.0112  0.2036
 8224SOL    HW136305   3.225   0.451  13.516 -0.8968 -0.1219  0.9431
 8224SOL    HW236306   3.285   0.567  13.463 -0.8155 -1.3190 -0.7347
 8225SOL     OW36307   3.805   1.835   8.339  0.3228  0.4512 -0.3518
 8225SOL    HW136308   3.887   1.795   8.366 -0.5352 -0.7375  0.4694
 8225SOL    HW236309   3.824   1.867   8.250 -1.5342 -0.8052 -1.2075
 8226SOL     OW36310   4.481   3.943   9.999 -0.3482  0.4750  0.5683
 8226SOL    HW136311   4.492   3.874  10.065 -0.5728  1.6517  1.8254
 8226SOL    HW236312   4.496   3.893   9.919  1.0288  1.6526  0.0966
 8227SOL     OW36313   2.032   3.655   0.842 -0.4150  0.1423  0.0443
 8227SOL    HW136314   2.010   3.714   0.915  2.4274  0.8428  0.3307
 8227SOL    HW236315   2.018   3.567   0.876 -1.5775 -0.4624 -2.0013
 8228SOL     OW36316   4.080   4.697  10.929 -0.4670 -0.4255  0.9174
 8228SOL    HW136317   4.105   0.023  10.862  0.0722 -1.0968  0.4729
 8228SOL    HW236318   4.141   4.624  10.917 -0.6281 -0.4438  0.1568
 8229SOL     OW36319   0.989   1.367   8.734  0.1575 -0.1194  0.3263
 8229SOL    HW136320   0.983   1.361   8.830  2.2803 -0.3094  0.4620
 8229SOL    HW236321   0.899   1.382   8.705 -0.1955 -1.8813  0.5398
 8230SOL     OW36322   2.382   3.824   6.308  0.1334  0.0695  0.0956
 8230SOL    HW136323   2.440   3.749   6.317  0.2604  0.2009  0.3633
 8230SOL    HW236324   2.320   3.809   6.380  2.9039 -0.4376  2.3440
 8231SOL     OW36325   0.421   3.907  17.456 -0.0189 -0.2848 -0.0280
 8231SOL    HW136326   0.398   3.993  17.491  0.9693  0.0873 -0.2609
 8231SOL    HW236327   0.389   3.909  17.366  1.2704  0.5388 -0.4671
 8232SOL     OW36328   3.354   4.496   9.945  0.0125  0.4186 -0.2270
 8232SOL    HW136329   3.367   4.573   9.999 -0.1606 -0.5362  1.1727
 8232SOL    HW236330   3.270   4.474   9.985 -0.1445 -1.4866 -1.5597
 8233SOL     OW36331   4.130   3.519  12.781 -0.0293  0.0450  0.0064
 8233SOL    HW136332   4.051   3.467  12.798  0.4609 -1.1356 -1.3418
 8233SOL    HW236333   4.081   3.597  12.754  2.0335  0.3009 -3.0044
 8234SOL     OW36334   1.145   3.662  12.770  0.2519 -0.0404  0.1028
 8234SOL    HW136335   1.231   3.620  12.766  0.0639 -0.4026 -0.2160
 8234SOL    HW236336   1.157   3.730  12.704 -0.9636  0.9527  0.9210
 8235SOL     OW36337   3.928   1.609  13.071 -0.4409 -0.4493 -0.4371
 8235SOL    HW136338   3.926   1.669  12.996 -3.7137 -2.7775 -2.2275
 8235SOL    HW236339   3.844   1.630  13.112  0.5282 -1.3678  2.0072
 8236SOL     OW36340   2.314   3.680  10.732 -0.1159 -0.0422  0.9588
 8236SOL    HW136341   2.331   3.680  10.638 -0.2507  0.4896  0.9319
 8236SOL    HW236342   2.221   3.662  10.747 -0.6323 -1.4672 -4.0448
 8237SOL     OW36343   1.907   3.809   3.488 -0.1783  0.4076  0.7473
 8237SOL    HW136344   1.834   3.867   3.466 -0.3202  0.3715  1.1253
 8237SOL    HW236345   1.865   3.724   3.504 -2.2178  1.5797  1.6344
 8238SOL     OW36346   1.199   4.114   1.816  0.0479  0.5838  0.1163
 8238SOL    HW136347   1.162   4.078   1.897 -0.7083 -0.5158 -0.7167
 8238SOL    HW236348   1.123   4.159   1.779  0.9523  1.4181 -0.7065
 8239SOL     OW36349   4.182   4.369   4.745 -0.0216 -0.0040 -0.2733
 8239SOL    HW136350   4.171   4.448   4.797  0.7349  0.8423 -1.3990
 8239SOL    HW236351   4.110   4.313   4.773 -0.1324 -0.5587 -1.6438
 8240SOL     OW36352   1.262   3.673   8.525 -0.0544 -0.1947 -0.1451
 8240SOL    HW136353   1.345   3.712   8.553 -0.0768  1.0865 -1.9281
 8240SOL    HW236354   1.260   3.604   8.592  2.0144  0.7534  0.8767
 8241SOL     OW36355   3.415   1.823  10.550 -0.0025  0.2691  0.6723
 8241SOL    HW136356   3.358   1.777  10.612  0.8125 -1.4985  0.1232
 8241SOL    HW236357   3.402   1.915  10.570  2.1301  0.9468 -1.0059
 8242SOL     OW36358   0.536   0.779   0.607 -0.1910 -0.4166 -0.0823
 8242SOL    HW136359   0.513   0.757   0.517  0.7083 -0.3052 -0.3460
 8242SOL    HW236360   0.497   0.866   0.619  1.1181 -0.0089  1.3569
 8243SOL     OW36361   2.402   2.179   4.073  0.4576 -0.4528  0.3626
 8243SOL    HW136362   2.393   2.132   4.157  0.6475 -0.1266  0.5649
 8243SOL    HW236363   2.498   2.181   4.073  0.4742 -1.0639  0.2262
 8244SOL     OW36364   2.764   2.016   9.101 -0.0129  0.8252 -0.9070
 8244SOL    HW136365   2.838   1.959   9.083 -2.0572 -1.0617 -3.2826
 8244SOL    HW236366   2.764   2.018   9.197  2.8386 -0.4374 -0.8785
 8245SOL     OW36367   0.573   0.690   2.209 -1.1848 -0.3643  0.1941
 8245SOL    HW136368   0.529   0.731   2.135 -2.0112 -0.5373  0.5837
 8245SOL    HW236369   0.614   0.614   2.169 -1.2008  0.5659 -1.5710
 8246SOL     OW36370   3.451   2.815   0.951 -0.8338 -0.0481  0.4678
 8246SOL    HW136371   3.501   2.883   0.906  1.6934 -1.6624  0.8267
 8246SOL    HW236372   3.364   2.853   0.948 -1.6294 -2.0058 -1.2483
 8247SOL     OW36373   3.787   2.720  17.174 -0.7247 -0.3116 -0.0510
 8247SOL    HW136374   3.724   2.674  17.228 -2.5280  0.3145 -1.6105
 8247SOL    HW236375   3.731   2.795  17.152  0.2496  0.7160  0.9260
 8248SOL     OW36376   4.661   1.358   7.189  0.6124  0.8080 -0.0315
 8248SOL    HW136377   4.680   1.351   7.096 -1.4040 -1.7424 -0.2468
 8248SOL    HW236378   4.697   1.445   7.206  0.1057  0.7390  1.3710
 8249SOL     OW36379   3.859   0.753  13.138 -0.3109  0.0434 -0.0322
 8249SOL    HW136380   3.843   0.753  13.232  0.6845  3.5127  0.1394
 8249SOL    HW236381   3.778   0.713  13.105  0.7203 -0.1347 -2.3471
 8250SOL     OW36382   2.651   1.293  13.349 -0.4292  0.1783  0.2819
 8250SOL    HW136383   2.659   1.274  13.256 -0.4420 -0.3547  0.3883
 8250SOL    HW236384   2.697   1.225  13.398 -0.4801 -0.3911 -0.4615
 8251SOL     OW36385   3.532   1.031  15.696 -0.1123  0.8828 -0.1586
 8251SOL    HW136386   3.607   1.082  15.727 -0.4504  1.0100  0.4610
 8251SOL    HW236387   3.456   1.064  15.744  0.2492 -0.2587  1.2015
 8252SOL     OW36388   4.425   2.807   1.650  0.1213  0.0144  0.4351
 8252SOL    HW136389   4.502   2.787   1.598  1.4359 -0.9025  2.7341
 8252SOL    HW236390   4.357   2.755   1.608 -0.0888  0.1690  0.5839
 8253SOL     OW36391   0.230   0.260   1.464 -0.3538  0.0395 -0.2262
 8253SOL    HW136392   0.225   0.356   1.467  1.8055  0.1088  1.7220
 8253SOL    HW236393   0.268   0.230   1.547 -0.5218  0.1433 -0.1123
 8254SOL     OW36394   0.278   0.197   8.588  0.4862 -0.3383 -0.1798
 8254SOL    HW136395   0.328   0.122   8.555  0.3631 -0.8740  0.8735
 8254SOL    HW236396   0.201   0.143   8.605 -0.3785  1.4824  1.5993
 8255SOL     OW36397   3.391   2.925  17.723 -0.2737 -0.1442  0.3083
 8255SOL    HW136398   3.440   2.843  17.724  0.0566  0.0786  2.1130
 8255SOL    HW236399   3.459   2.989  17.743 -0.5484  1.3047 -3.3771
 8256SOL     OW36400   0.580   3.338   3.125 -0.4711  0.6724 -0.6130
 8256SOL    HW136401   0.496   3.303   3.096  0.4812  0.3708 -3.0245
 8256SOL    HW236402   0.637   3.265   3.101 -1.3378 -0.3534  0.4658
 8257SOL     OW36403   2.435   0.021   1.225 -0.2824 -0.6249  0.3515
 8257SOL    HW136404   2.502   0.087   1.208 -0.7307 -0.4402 -0.6818
 8257SOL    HW236405   2.478   4.679   1.192 -1.3328 -1.6973  1.5625
 8258SOL     OW36406   0.712   4.498  17.186  0.4464  0.3830  0.2330
 8258SOL    HW136407   0.750   4.504  17.099 -2.7611 -0.9468 -1.2835
 8258SOL    HW236408   0.642   4.432  17.175 -0.0472  0.7495  1.1808
 8259SOL     OW36409   0.859   2.310  14.808 -0.2577  0.3011 -0.6511
 8259SOL    HW136410   0.829   2.358  14.731 -1.4498 -0.0470 -0.4086
 8259SOL    HW236411   0.925   2.249  14.775  1.2183  0.3830  2.0909
 8260SOL     OW36412   4.118   4.725   3.704 -1.2042  0.0012  0.4149
 8260SOL    HW136413   4.143   0.031   3.623 -1.0731 -0.0479  0.4281
 8260SOL    HW236414   4.141   0.057   3.766  0.2773  0.3423 -0.5142
 8261SOL     OW36415   1.797   2.020   2.609 -0.2506 -0.0413 -0.2328
 8261SOL    HW136416   1.728   2.009   2.544 -0.3791 -1.2818  0.1126
 8261SOL    HW236417   1.878   2.030   2.558 -0.7760  0.3172 -0.9917
 8262SOL     OW36418   0.629   3.050   3.899 -0.0496  0.2007 -0.4774
 8262SOL    HW136419   0.553   3.099   3.930  1.8628  1.8715  1.5980
 8262SOL    HW236420   0.674   3.104   3.834 -2.2879  1.8988 -0.5922
 8263SOL     OW36421   4.202   1.108   8.208 -0.2370 -0.1409 -0.7654
 8263SOL    HW136422   4.190   1.041   8.140 -1.3024 -0.6976 -0.0187
 8263SOL    HW236423   4.251   1.058   8.273 -0.6271  0.0972 -0.2919
 8264SOL     OW36424   3.034   3.618   9.834  0.1054 -0.2884  0.3741
 8264SOL    HW136425   3.084   3.629   9.915  1.2927  2.4727 -0.7371
 8264SOL    HW236426   2.977   3.694   9.846  0.0804 -0.2816  0.2038
 8265SOL     OW36427   3.667   2.030  10.625 -0.3336 -0.2195  0.0011
 8265SOL    HW136428   3.644   2.092  10.555  1.3107  0.2700 -0.0955
 8265SOL    HW236429   3.576   2.016  10.652 -1.0748 -2.0384 -3.4545
 8266SOL     OW36430   0.615   3.232  10.895 -0.2815  0.1820  0.0526
 8266SOL    HW136431   0.677   3.189  10.954  0.2217  1.4821  0.4636
 8266SOL    HW236432   0.655   3.214  10.810 -0.3026 -2.2203  0.5449
 8267SOL     OW36433   0.569   2.149   4.875  0.3150  0.4511  0.7265
 8267SOL    HW136434   0.545   2.135   4.966 -0.5355 -0.4476  0.3557
 8267SOL    HW236435   0.582   2.244   4.866 -1.0059  0.6879  1.3525
 8268SOL     OW36436   4.223   0.465   7.766 -0.1656 -0.2698  0.4078
 8268SOL    HW136437   4.183   0.537   7.717  0.0196 -0.5117 -0.1041
 8268SOL    HW236438   4.143   0.435   7.809 -0.9416  0.8056 -0.3043
 8269SOL     OW36439   4.359   2.583   4.797 -0.0714  0.5511  0.3226
 8269SOL    HW136440   4.426   2.607   4.860  0.0005 -1.9314  1.1816
 8269SOL    HW236441   4.398   2.607   4.713 -0.7644 -1.7035 -0.6763
 8270SOL     OW36442   4.153   2.857  12.760  0.2333  0.3392  0.4279
 8270SOL    HW136443   4.224   2.844  12.696  0.1801  0.6770  0.3009
 8270SOL    HW236444   4.091   2.910  12.710  0.0923 -1.0551 -0.8927
 8271SOL     OW36445   3.870   3.093   3.876 -0.3497 -0.3119  0.6106
 8271SOL    HW136446   3.830   3.157   3.817  0.5448 -0.9925 -0.7317
 8271SOL    HW236447   3.907   3.149   3.945 -0.8396  0.2108  0.4473
 8272SOL     OW36448   1.088   1.365  17.207 -0.4068 -0.3157 -0.0914
 8272SOL    HW136449   1.056   1.453  17.229  0.5321 -0.2401  0.9392
 8272SOL    HW236450   1.006   1.316  17.199 -0.4735  0.0533 -1.5931
 8273SOL     OW36451   1.187   0.671   3.122  0.4097  0.2469  0.3985
 8273SOL    HW136452   1.096   0.682   3.095  0.4458  0.1001  0.2203
 8273SOL    HW236453   1.209   0.579   3.108  2.7501  1.0791 -1.5193
 8274SOL     OW36454   2.473   4.592   6.303 -0.1362  0.0802 -0.1878
 8274SOL    HW136455   2.502   4.649   6.374 -0.7371 -0.2621  0.3340
 8274SOL    HW236456   2.540   4.610   6.237 -1.7026  1.5698 -1.3510
 8275SOL     OW36457   3.879   2.243  10.651 -0.0308  0.1328  0.0761
 8275SOL    HW136458   3.829   2.168  10.682 -1.4869  0.7954 -0.6846
 8275SOL    HW236459   3.952   2.192  10.614  1.0985  1.3345  0.6292
 8276SOL     OW36460   2.132   3.004   4.334 -0.0213 -0.0991  0.2106
 8276SOL    HW136461   2.038   2.988   4.325 -0.3575  2.7858 -1.0983
 8276SOL    HW236462   2.127   3.095   4.305 -2.1567  0.5137  2.5150
 8277SOL     OW36463   4.312   3.616  17.498 -0.7494 -0.0661  0.4051
 8277SOL    HW136464   4.320   3.711  17.511  1.1286 -0.4164  1.8179
 8277SOL    HW236465   4.235   3.613  17.442 -1.1452 -3.5203  1.1811
 8278SOL     OW36466   1.950   0.167   2.865 -0.3908  0.4453 -0.2126
 8278SOL    HW136467   1.972   0.175   2.958 -1.3977  2.7381 -0.1586
 8278SOL    HW236468   1.881   0.233   2.854  0.9737  1.8940 -0.1401
 8279SOL     OW36469   3.366   2.469  11.114 -0.5743  0.1910  0.4305
 8279SOL    HW136470   3.425   2.487  11.040 -0.2566 -0.0110  0.6320
 8279SOL    HW236471   3.367   2.374  11.121 -0.0246  0.2060  0.6250
 8280SOL     OW36472   1.267   4.337   6.290  0.3080  0.4400  0.2701
 8280SOL    HW136473   1.319   4.272   6.337  1.5728  1.8791  0.8574
 8280SOL    HW236474   1.251   4.292   6.207 -0.1023 -3.5755  2.5483
 8281SOL     OW36475   0.563   1.402   2.944 -0.2332  0.0627  0.4018
 8281SOL    HW136476   0.574   1.474   2.882 -0.6079  2.5875  3.3027
 8281SOL    HW236477   0.472   1.403   2.917 -1.0906 -0.6903  3.2846
 8282SOL     OW36478   3.011   1.826   0.573 -0.6144  0.0264  0.5000
 8282SOL    HW136479   2.945   1.838   0.641 -2.7997  3.2685 -2.1988
 8282SOL    HW236480   3.040   1.916   0.555  0.6969 -0.8872 -2.0236
 8283SOL     OW36481   1.878   1.899   6.678 -0.0707 -1.0693 -0.5243
 8283SOL    HW136482   1.942   1.909   6.607 -0.0467 -0.6828 -0.4510
 8283SOL    HW236483   1.930   1.934   6.751 -0.8066 -0.1780 -0.4342
 8284SOL     OW36484   2.972   0.626  13.853  0.3812  0.0008 -0.8664
 8284SOL    HW136485   3.067   0.625  13.842  0.2652  0.1258 -1.9317
 8284SOL    HW236486   2.948   0.637  13.761  0.3156  2.2081 -0.5772
 8285SOL     OW36487   4.083   2.355   2.378 -0.4359  0.1121 -0.7937
 8285SOL    HW136488   4.027   2.358   2.455 -0.7404 -1.8438 -0.9318
 8285SOL    HW236489   4.085   2.260   2.367  0.4352 -0.2945  3.0694
 8286SOL     OW36490   2.618   3.586  13.574  0.6286 -0.2383  0.6756
 8286SOL    HW136491   2.528   3.581  13.605  0.4912 -2.7614 -0.1756
 8286SOL    HW236492   2.623   3.679  13.549  2.1726 -0.1304  1.3523
 8287SOL     OW36493   0.292   2.958   5.005  0.1924 -0.7467  0.3572
 8287SOL    HW136494   0.261   3.048   5.013  1.7767 -0.0686 -1.0803
 8287SOL    HW236495   0.385   2.974   4.986 -0.0885 -1.5459 -1.7011
 8288SOL     OW36496   1.713   3.689  13.348 -0.3371  0.0057  0.3794
 8288SOL    HW136497   1.747   3.778  13.357  1.2067 -0.6245  0.6651
 8288SOL    HW236498   1.641   3.697  13.284 -1.7241 -3.0145  1.5514
 8289SOL     OW36499   0.670   1.742   2.484  0.1947 -0.0171  0.2435
 8289SOL    HW136500   0.716   1.748   2.401 -1.6364  0.6258 -0.7290
 8289SOL    HW236501   0.690   1.653   2.513 -1.6232 -0.0092  1.5272
 8290SOL     OW36502   4.330   0.070  16.022  0.6344  0.0506 -0.3842
 8290SOL    HW136503   4.384   0.135  16.066 -0.0612  0.5309 -0.2425
 8290SOL    HW236504   4.360   4.722  16.052 -3.4015 -1.1634  0.2295
 8291SOL     OW36505   0.295   4.655   3.370 -0.4163  0.5520  0.4634
 8291SOL    HW136506   0.207   4.627   3.346 -0.7335  2.5254 -0.7109
 8291SOL    HW236507   0.347   4.644   3.290 -1.5949  1.7803 -0.4690
 8292SOL     OW36508   3.722   1.735   2.015 -0.1797 -0.1613 -0.2166
 8292SOL    HW136509   3.802   1.776   1.982 -1.3399  2.3100  0.0088
 8292SOL    HW236510   3.691   1.704   1.930  1.0905  1.1504 -1.1632
 8293SOL     OW36511   4.387   2.691   5.647  0.4867  0.2218 -0.1575
 8293SOL    HW136512   4.454   2.687   5.715 -1.0183  2.5197  1.4256
 8293SOL    HW236513   4.423   2.756   5.586 -0.4870  0.1951 -0.7705
 8294SOL     OW36514   1.273   0.555   7.495  0.1582  0.6066  0.0445
 8294SOL    HW136515   1.260   0.640   7.453 -0.0631  1.7098  2.4012
 8294SOL    HW236516   1.368   0.551   7.482  0.6612  2.3579  3.3086
 8295SOL     OW36517   0.111   3.377   4.030  0.2047  0.3338  1.0644
 8295SOL    HW136518   0.126   3.463   3.990 -0.1395  1.0060  2.3722
 8295SOL    HW236519   0.186   3.375   4.090  1.1798 -1.2205 -0.1997
 8296SOL     OW36520   3.046   2.077   7.505 -0.0572 -0.4610 -0.3952
 8296SOL    HW136521   3.058   2.168   7.532  0.5844 -1.3494  2.2883
 8296SOL    HW236522   3.051   2.045   7.595  1.7084  0.4049 -0.1877
 8297SOL     OW36523   0.043   2.686   3.104 -0.3956  0.7456  0.1188
 8297SOL    HW136524   0.082   2.771   3.083  1.4990  0.1930  1.4228
 8297SOL    HW236525   0.099   2.659   3.177 -2.5905  1.3830  2.0304
 8298SOL     OW36526   1.529   4.093   2.880 -0.2105 -0.6053 -0.1449
 8298SOL    HW136527   1.491   4.006   2.893 -1.4984 -0.1946 -1.0864
 8298SOL    HW236528   1.471   4.128   2.812  0.8452 -1.5701 -1.5477
 8299SOL     OW36529   2.103   4.116   4.267 -0.1232  0.2398  0.2734
 8299SOL    HW136530   2.076   4.059   4.340  0.6279 -0.9762 -0.3978
 8299SOL    HW236531   2.121   4.055   4.195  0.9896  1.7450 -0.7208
 8300SOL     OW36532   4.730   4.504  10.897  0.1724 -0.3116 -0.2436
 8300SOL    HW136533   0.081   4.471  10.884  0.1170 -1.6502  2.7918
 8300SOL    HW236534   4.733   4.519  10.991  0.3122  0.3269 -0.3484
 8301SOL     OW36535   1.624   3.331  12.762  0.3506  0.0062 -0.0474
 8301SOL    HW136536   1.675   3.292  12.692 -2.5396  0.2369 -2.2904
 8301SOL    HW236537   1.661   3.278  12.832 -0.1525 -0.4907 -0.1628
 8302SOL     OW36538   2.681   3.161   8.283  0.0737  0.1655  0.6343
 8302SOL    HW136539   2.600   3.127   8.321 -0.0572  0.4172  0.5799
 8302SOL    HW236540   2.736   3.083   8.290 -0.2692 -0.1270  0.0960
 8303SOL     OW36541   0.562   2.275   5.138  0.2737 -0.2479  0.1544
 8303SOL    HW136542   0.562   2.215   5.212 -0.7747  0.1635  0.4832
 8303SOL    HW236543   0.500   2.338   5.174  0.3782 -1.4908  2.4964
 8304SOL     OW36544   1.394   0.608  17.045  0.3645 -0.6993 -0.0740
 8304SOL    HW136545   1.354   0.524  17.025 -3.3913  0.1038  4.2054
 8304SOL    HW236546   1.447   0.617  16.966 -1.0957  1.2039 -0.8086
 8305SOL     OW36547   4.137   1.242   9.278  0.1046  0.1975 -0.0140
 8305SOL    HW136548   4.070   1.302   9.311  1.0110  0.3037  1.6234
 8305SOL    HW236549   4.218   1.293   9.280  0.1156  0.0843  2.9277
 8306SOL     OW36550   3.549   3.471   3.852  0.4420 -0.2111 -0.1029
 8306SOL    HW136551   3.634   3.508   3.829  1.2383 -2.6769 -1.2086
 8306SOL    HW236552   3.489   3.545   3.847 -0.6170 -0.8356  3.0985
 8307SOL     OW36553   3.083   1.506   4.622  0.0560  0.3324 -0.2782
 8307SOL    HW136554   3.042   1.579   4.668  0.8845  1.3702 -1.1971
 8307SOL    HW236555   3.080   1.436   4.687 -0.8949 -0.1342 -0.8164
 8308SOL     OW36556   4.389   2.716  13.877  0.4348  0.0845 -0.1496
 8308SOL    HW136557   4.318   2.701  13.940  0.0732  3.8142  0.3581
 8308SOL    HW236558   4.471   2.691  13.918  0.9286  1.6749 -0.1629
 8309SOL     OW36559   2.564   4.561   1.906  0.0251 -0.3986 -0.3295
 8309SOL    HW136560   2.635   4.625   1.899 -0.1593 -0.2347 -0.7118
 8309SOL    HW236561   2.493   4.598   1.853  1.0089  0.6487 -0.9356
 8310SOL     OW36562   0.404   3.461  12.313  0.4237 -0.0354  0.3293
 8310SOL    HW136563   0.455   3.526  12.265  0.0009  0.4971  0.5992
 8310SOL    HW236564   0.473   3.397  12.329  0.9987  0.3783 -0.4783
 8311SOL     OW36565   4.168   4.292  11.633  0.0665  0.0948  0.3833
 8311SOL    HW136566   4.126   4.373  11.661  0.3464  0.9480 -1.6585
 8311SOL    HW236567   4.247   4.313  11.681 -0.0557 -3.1289  1.9640
 8312SOL     OW36568   4.634   1.564  10.990  0.1348  0.1182 -0.3636
 8312SOL    HW136569   4.661   1.634  11.049 -1.2045  2.3884 -2.4476
 8312SOL    HW236570   4.710   1.505  10.994 -0.0739 -0.0880  0.5245
 8313SOL     OW36571   2.220   3.926   1.195  0.1002  0.1352  0.7230
 8313SOL    HW136572   2.254   3.974   1.270  0.6428  0.1133  0.4912
 8313SOL    HW236573   2.298   3.884   1.158 -0.9929 -0.3874 -0.9931
 8314SOL     OW36574   4.174   3.563   4.415  0.3928 -0.0805 -0.0516
 8314SOL    HW136575   4.081   3.545   4.401  1.2126 -3.6531 -0.9882
 8314SOL    HW236576   4.171   3.565   4.510  2.0258  0.8104 -0.0219
 8315SOL     OW36577   4.240   0.282   8.088  0.0977 -0.5846 -0.1712
 8315SOL    HW136578   4.194   0.220   8.144  2.3253 -0.8272  1.3808
 8315SOL    HW236579   4.214   0.252   8.001  2.7573  0.9800 -1.4937
 8316SOL     OW36580   0.122   3.819  17.001 -0.0941 -0.1099 -0.1461
 8316SOL    HW136581   0.068   3.742  16.988 -0.7134  0.0896  1.3386
 8316SOL    HW236582   0.198   3.799  16.946 -0.9102 -0.8049 -1.0007
 8317SOL     OW36583   2.412   2.796   5.215 -0.1635  0.3491 -0.3488
 8317SOL    HW136584   2.468   2.845   5.155 -0.5416 -0.1468 -1.1053
 8317SOL    HW236585   2.411   2.713   5.168 -1.9369  0.1556  0.0288
 8318SOL     OW36586   3.389   3.065  10.719  0.0216  0.2441 -0.1055
 8318SOL    HW136587   3.411   3.115  10.797 -0.0459  0.8603 -0.4860
 8318SOL    HW236588   3.377   2.977  10.755  0.9266  1.1564  2.3951
 8319SOL     OW36589   3.958   1.468   4.269  0.1505 -0.2574  0.5546
 8319SOL    HW136590   4.025   1.401   4.256  0.8983  0.5335  0.3277
 8319SOL    HW236591   3.954   1.508   4.182  1.7410 -0.1956  0.5196
 8320SOL     OW36592   2.936   3.389   0.291  0.3057  0.5635  0.7471
 8320SOL    HW136593   2.880   3.334   0.236 -0.5948  1.6656  0.5726
 8320SOL    HW236594   3.019   3.344   0.275  0.2748  0.6593  0.2971
 8321SOL     OW36595   2.049   0.300   1.652  0.2468  0.2945 -0.1399
 8321SOL    HW136596   1.992   0.280   1.726  0.5101  0.7600  0.1842
 8321SOL    HW236597   2.124   0.244   1.672  1.0440  1.7651  1.0052
 8322SOL     OW36598   4.732   2.577   2.488  0.0085 -0.2890 -0.2650
 8322SOL    HW136599   4.681   2.499   2.512 -0.2842  0.2307  0.7488
 8322SOL    HW236600   0.013   2.548   2.398  0.2593 -1.4612  0.1618
 8323SOL     OW36601   3.970   4.126   8.680 -0.4244 -0.3242 -0.1454
 8323SOL    HW136602   3.943   4.205   8.633 -1.0322 -1.1977 -1.2814
 8323SOL    HW236603   4.050   4.158   8.720  0.6752 -1.8383 -1.1156
 8324SOL     OW36604   0.135   4.171   8.045  0.3079  0.1666 -0.0126
 8324SOL    HW136605   0.048   4.192   8.078 -1.0358 -3.7194 -1.1831
 8324SOL    HW236606   0.144   4.080   8.074  0.8996  0.3531  0.4005
 8325SOL     OW36607   0.344   0.289   9.547  0.1595 -0.1189  0.0299
 8325SOL    HW136608   0.276   0.346   9.512  0.4898  0.5914  0.5377
 8325SOL    HW236609   0.296   0.207   9.559  2.1448 -1.4404 -1.1088
 8326SOL     OW36610   0.522   0.822   5.462  0.4155  0.3757  0.0479
 8326SOL    HW136611   0.462   0.824   5.536 -1.9649 -1.0512 -1.8542
 8326SOL    HW236612   0.473   0.870   5.395  2.1857 -0.6222 -1.9823
 8327SOL     OW36613   1.278   4.215   2.123 -0.6544  0.1017 -0.1067
 8327SOL    HW136614   1.237   4.129   2.110  3.3861 -1.8269  0.1034
 8327SOL    HW236615   1.346   4.213   2.056  1.2940  0.8485  1.8451
 8328SOL     OW36616   0.893   0.143   2.207 -0.1722 -0.7153 -0.2416
 8328SOL    HW136617   0.973   0.091   2.215 -1.3342 -2.6733 -1.3448
 8328SOL    HW236618   0.837   0.076   2.166  0.0755 -0.8803 -0.3095
 8329SOL     OW36619   0.792   4.537   2.490  0.4104 -0.4340  0.4256
 8329SOL    HW136620   0.837   4.465   2.533 -3.1344 -3.7647 -1.4963
 8329SOL    HW236621   0.855   4.551   2.419 -1.1362 -0.7546 -1.0051
 8330SOL     OW36622   0.624   1.303  15.081  0.1939 -0.0826 -0.1421
 8330SOL    HW136623   0.534   1.278  15.100  0.7182 -0.5299  1.7770
 8330SOL    HW236624   0.621   1.345  14.995 -2.1587 -0.8090 -0.4154
 8331SOL     OW36625   2.229   1.956   3.644  0.2821  0.3405  0.1816
 8331SOL    HW136626   2.210   1.886   3.707  0.3921  1.5191  1.5141
 8331SOL    HW236627   2.238   2.033   3.701 -1.2418 -0.3613  1.3739
 8332SOL     OW36628   3.263   3.226   3.481 -0.0791 -0.1084  0.7808
 8332SOL    HW136629   3.331   3.162   3.504  0.0127 -0.3572 -0.1853
 8332SOL    HW236630   3.186   3.169   3.480 -0.2203  0.1248 -1.1348
 8333SOL     OW36631   1.331   1.238   5.528  0.0725 -0.0434  0.2706
 8333SOL    HW136632   1.299   1.156   5.567  1.5539 -0.8592 -0.2172
 8333SOL    HW236633   1.250   1.288   5.538  0.6316  0.4571  2.2924
 8334SOL     OW36634   3.753   0.714   1.275 -0.2733 -0.0700 -0.6713
 8334SOL    HW136635   3.819   0.705   1.206  0.7516  1.1065  0.1438
 8334SOL    HW236636   3.722   0.804   1.262 -3.1402 -0.6463  2.3455
 8335SOL     OW36637   1.411   0.591   0.740  0.6939 -0.1560  0.2134
 8335SOL    HW136638   1.325   0.568   0.705  1.7022 -0.5639 -2.0106
 8335SOL    HW236639   1.435   0.653   0.671 -1.9112 -0.9789 -1.4567
 8336SOL     OW36640   2.552   0.856   7.979 -0.1153 -0.1032  0.6446
 8336SOL    HW136641   2.557   0.818   7.891  2.4264 -0.8836  1.1261
 8336SOL    HW236642   2.481   0.804   8.017 -0.4284  0.7632  1.2350
 8337SOL     OW36643   4.269   3.723  12.494  0.1328  0.5491 -0.3261
 8337SOL    HW136644   4.312   3.687  12.572  2.0436 -0.3144 -1.7741
 8337SOL    HW236645   4.326   3.710  12.418 -0.0733  0.4633 -0.4676
 8338SOL     OW36646   2.237   0.147  16.784 -0.2655  0.4072  0.6333
 8338SOL    HW136647   2.267   0.142  16.875 -1.5353 -0.7882  0.9991
 8338SOL    HW236648   2.201   0.059  16.770  1.2051  0.3384 -2.6676
 8339SOL     OW36649   0.115   4.476  12.135 -0.1798  0.4302  0.1312
 8339SOL    HW136650   0.103   4.401  12.076 -1.5946  0.0053  0.9572
 8339SOL    HW236651   0.025   4.510  12.138 -0.9486 -1.3197 -2.7764
 8340SOL     OW36652   3.599   4.543   1.302 -0.1950  0.1126  0.3099
 8340SOL    HW136653   3.548   4.475   1.346  0.2113 -0.0417  0.5453
 8340SOL    HW236654   3.621   4.600   1.376 -2.6247 -0.5950  1.5473
 8341SOL     OW36655   4.200   4.045   7.662  0.1583 -0.3407 -0.0682
 8341SOL    HW136656   4.132   4.035   7.729  0.2952 -1.4910 -0.1045
 8341SOL    HW236657   4.203   4.141   7.657  0.1257 -0.3671 -0.6051
 8342SOL     OW36658   3.761   1.235   6.243 -0.5618  0.3593  0.1955
 8342SOL    HW136659   3.852   1.233   6.212  0.3454  1.6612  2.7011
 8342SOL    HW236660   3.726   1.283   6.169 -0.1828 -3.1474 -2.2668
 8343SOL     OW36661   2.067   2.447  11.867  0.3354 -0.4536 -0.5643
 8343SOL    HW136662   2.075   2.356  11.840  1.7973 -0.0956 -1.2998
 8343SOL    HW236663   1.974   2.469  11.857  0.6627  1.4897  0.6286
 8344SOL     OW36664   1.221   2.954   8.963  0.0246 -0.2959  0.3919
 8344SOL    HW136665   1.160   2.992   8.900  0.0441 -3.3736 -1.5352
 8344SOL    HW236666   1.270   2.902   8.899 -1.3600 -1.4374  0.2550
 8345SOL     OW36667   1.162   4.025   7.716  0.1883  0.0143 -0.0064
 8345SOL    HW136668   1.084   4.081   7.711 -1.9453 -3.0838 -1.7534
 8345SOL    HW236669   1.170   4.000   7.808 -1.8708  0.0822  0.2054
 8346SOL     OW36670   0.036   1.376   8.537 -0.7124 -0.6549 -0.7931
 8346SOL    HW136671   4.727   1.315   8.593  1.8473 -2.4933 -0.6266
 8346SOL    HW236672   0.009   1.461   8.572 -0.3501  0.2084 -2.5851
 8347SOL     OW36673   0.770   3.083   5.711  0.1312  0.1187  0.0135
 8347SOL    HW136674   0.679   3.054   5.705  0.2173 -0.5191  1.8022
 8347SOL    HW236675   0.787   3.027   5.787 -1.2577  0.7141  0.7764
 8348SOL     OW36676   3.840   2.439   8.688 -0.0105 -0.2315 -0.4921
 8348SOL    HW136677   3.758   2.405   8.724  0.2464 -1.5018 -1.1111
 8348SOL    HW236678   3.821   2.435   8.594 -1.9298  1.5530 -0.1757
 8349SOL     OW36679   1.470   2.578   4.513 -0.2500  0.5030 -0.2245
 8349SOL    HW136680   1.521   2.610   4.588  1.8196 -0.6314 -1.1499
 8349SOL    HW236681   1.454   2.487   4.539  2.4824 -0.5434 -2.2196
 8350SOL     OW36682   4.733   3.869  13.492  0.7524  0.1700  0.1500
 8350SOL    HW136683   0.074   3.847  13.542  0.7571 -0.2679 -0.0536
 8350SOL    HW236684   4.735   3.817  13.412 -2.9098 -2.2061  1.6005
 8351SOL     OW36685   0.775   1.578   8.396  0.7480  0.5223  0.3613
 8351SOL    HW136686   0.761   1.557   8.304 -1.8803  0.9701  0.6423
 8351SOL    HW236687   0.684   1.564   8.425  0.7121  1.0060  0.4902
 8352SOL     OW36688   2.574   1.693   4.447  0.0217  0.0777 -0.3063
 8352SOL    HW136689   2.518   1.617   4.425  1.8384 -1.8122  1.6389
 8352SOL    HW236690   2.570   1.751   4.371 -2.0101 -0.6594 -0.7728
 8353SOL     OW36691   2.362   2.890  13.782 -0.0725  0.2249  0.5702
 8353SOL    HW136692   2.364   2.926  13.870 -1.7420 -2.0398  1.5452
 8353SOL    HW236693   2.320   2.964  13.738  0.7736  0.7356  0.6224
 8354SOL     OW36694   2.276   1.406   9.655  0.5081  0.1741 -0.5021
 8354SOL    HW136695   2.307   1.400   9.565 -0.6482 -0.7882 -0.8413
 8354SOL    HW236696   2.356   1.375   9.697 -1.7385 -0.2548  3.4609
 8355SOL     OW36697   0.328   2.970   8.876  0.2525  0.0859  0.9507
 8355SOL    HW136698   0.241   2.940   8.900  0.1545  0.7010  1.3820
 8355SOL    HW236699   0.378   2.889   8.865 -0.9859 -0.1454 -2.7623
 8356SOL     OW36700   3.458   3.316   1.277 -0.3564 -0.6726 -0.4769
 8356SOL    HW136701   3.499   3.399   1.252 -2.5905 -0.1576 -2.3129
 8356SOL    HW236702   3.535   3.276   1.319  0.3806  1.7708  0.5079
 8357SOL     OW36703   2.430   2.024   8.430  0.1583  0.1752 -0.5959
 8357SOL    HW136704   2.457   1.988   8.514  0.3318 -0.2961 -0.8521
 8357SOL    HW236705   2.481   1.963   8.376 -2.3755 -0.1569 -2.6084
 8358SOL     OW36706   0.773   0.514   9.758 -0.2991 -0.3636  0.3478
 8358SOL    HW136707   0.690   0.468   9.744 -0.1389 -0.9806  1.4985
 8358SOL    HW236708   0.805   0.505   9.668 -0.1980  0.5719  0.2832
 8359SOL     OW36709   4.339   1.988   5.966  0.1374  0.0072  0.1246
 8359SOL    HW136710   4.257   2.029   5.992  0.0612 -0.2037  0.2150
 8359SOL    HW236711   4.353   2.025   5.878  0.4398 -0.3129  0.0343
 8360SOL     OW36712   3.019   3.921   5.745  0.7821 -0.4730 -0.7072
 8360SOL    HW136713   3.034   3.906   5.652  0.9752 -1.7996 -0.4673
 8360SOL    HW236714   3.105   3.935   5.783 -0.3793  1.3892  1.2481
 8361SOL     OW36715   0.127   0.091  14.918  0.0709 -0.3346 -0.2965
 8361SOL    HW136716   0.089   0.171  14.882 -1.4592 -1.4557 -1.1342
 8361SOL    HW236717   0.193   0.075  14.851 -0.3971  0.1556 -0.8780
 8362SOL     OW36718   1.119   2.490   4.166  0.0886 -0.3028  0.5841
 8362SOL    HW136719   1.099   2.422   4.231 -0.8849 -0.4095  0.1729
 8362SOL    HW236720   1.031   2.519   4.143  1.1632  1.6941 -1.0275
 8363SOL     OW36721   4.099   2.460   0.942 -0.2898 -0.1236 -0.1551
 8363SOL    HW136722   4.064   2.516   1.012 -1.2243 -1.2163  0.2468
 8363SOL    HW236723   4.077   2.518   0.869  1.0663  1.7247  0.8797
 8364SOL     OW36724   0.981   0.621   9.565  0.4633  0.6292  0.0848
 8364SOL    HW136725   1.046   0.553   9.583 -1.9145 -1.6859 -0.0775
 8364SOL    HW236726   0.917   0.572   9.512  0.1814  2.9945 -1.7499
 8365SOL     OW36727   0.306   2.901   3.386 -0.4019 -0.4152 -0.4248
 8365SOL    HW136728   0.211   2.901   3.398 -0.5248 -0.2289 -1.3948
 8365SOL    HW236729   0.336   2.973   3.441 -0.1327  0.1007 -1.2387
 8366SOL     OW36730   1.560   1.439   8.243  0.0135  0.0821  0.2607
 8366SOL    HW136731   1.612   1.362   8.221  1.2369  0.6374  1.2032
 8366SOL    HW236732   1.610   1.479   8.314  0.6090  0.3303 -0.3009
 8367SOL     OW36733   4.507   3.267  16.158 -0.6833 -0.2142 -0.3498
 8367SOL    HW136734   4.411   3.264  16.156 -0.7048 -1.4159  3.3393
 8367SOL    HW236735   4.531   3.187  16.112  1.7781  0.0613  0.4432
 8368SOL     OW36736   3.225   4.315   8.311 -0.2117 -0.4268 -0.0493
 8368SOL    HW136737   3.178   4.334   8.392  2.1783 -1.5976  1.6033
 8368SOL    HW236738   3.300   4.272   8.351  1.8856  1.1776 -2.2620
 8369SOL     OW36739   3.876   4.489   7.305 -0.3304  0.3771 -0.3800
 8369SOL    HW136740   3.870   4.584   7.311 -0.0272  0.2935  1.4432
 8369SOL    HW236741   3.942   4.469   7.373 -0.2553 -2.6533 -1.3353
 8370SOL     OW36742   2.684   1.147   3.269 -0.0923 -0.0324 -0.1015
 8370SOL    HW136743   2.749   1.149   3.198 -0.0350  1.3015 -0.0204
 8370SOL    HW236744   2.725   1.203   3.336 -1.1811  0.5358  0.0908
 8371SOL     OW36745   2.512   2.783   8.395  0.1373  0.0051 -0.0431
 8371SOL    HW136746   2.485   2.702   8.437 -2.6952 -0.6761 -3.1877
 8371SOL    HW236747   2.573   2.743   8.333  1.4440  2.0713 -0.0879
 8372SOL     OW36748   0.874   3.618   1.837  0.4537  0.1427  0.1145
 8372SOL    HW136749   0.871   3.674   1.914 -0.4553  1.6215 -0.9887
 8372SOL    HW236750   0.787   3.638   1.800  0.3928  1.3234  0.8840
 8373SOL     OW36751   3.885   4.687   9.636 -0.1768 -0.3804  0.4680
 8373SOL    HW136752   3.948   4.695   9.708  2.1884 -1.8991 -1.4569
 8373SOL    HW236753   3.802   4.668   9.681 -0.0632  1.8133  1.5961
 8374SOL     OW36754   2.516   3.773  10.878 -0.0207  0.2932 -0.3343
 8374SOL    HW136755   2.425   3.748  10.863  0.5427 -0.7338 -1.9784
 8374SOL    HW236756   2.547   3.697  10.927 -1.3806 -1.9647 -2.9982
 8375SOL     OW36757   0.290   4.659   7.635  0.2054  0.2407 -0.0480
 8375SOL    HW136758   0.292   4.579   7.688  1.7338  0.5448  0.3439
 8375SOL    HW236759   0.315   4.729   7.696 -2.5961 -0.1885  1.6057
 8376SOL     OW36760   4.335   2.234   3.023 -0.3376 -0.1294 -0.2759
 8376SOL    HW136761   4.305   2.319   2.990  2.2754  1.3759  1.1796
 8376SOL    HW236762   4.319   2.194   2.937  1.5052 -0.8204 -0.3088
 8377SOL     OW36763   4.313   4.599   4.120 -0.4249 -0.2580 -0.6745
 8377SOL    HW136764   4.249   4.597   4.192  0.0665  1.3971 -0.2005
 8377SOL    HW236765   4.323   4.507   4.096  1.2725  0.3014 -2.0437
 8378SOL     OW36766   3.487   3.320   8.796  0.0801  0.2754 -0.1972
 8378SOL    HW136767   3.557   3.321   8.862  0.5552  0.0667 -0.7005
 8378SOL    HW236768   3.425   3.384   8.831 -2.4464 -3.0477  1.4675
 8379SOL     OW36769   4.243   4.275   7.939  0.6279  0.2448 -0.7391
 8379SOL    HW136770   4.251   4.321   8.023  0.8719  0.5989 -0.9578
 8379SOL    HW236771   4.227   4.182   7.953  0.4560  0.5199  0.8726
 8380SOL     OW36772   1.362   0.732   9.521 -0.1842  0.1322 -0.6660
 8380SOL    HW136773   1.412   0.721   9.440 -1.6536  0.8844 -1.6760
 8380SOL    HW236774   1.406   0.663   9.570  0.2098 -0.3316 -1.6880
 8381SOL     OW36775   3.106   0.826  13.078  0.1253 -0.3310 -0.0881
 8381SOL    HW136776   3.066   0.893  13.134  2.3192  3.6314 -3.3312
 8381SOL    HW236777   3.062   0.826  12.993  0.5097 -0.6742 -0.2873
 8382SOL     OW36778   2.427   2.102   4.309 -0.1632  0.2119 -0.0713
 8382SOL    HW136779   2.418   2.090   4.404  0.1826  0.7778  0.0312
 8382SOL    HW236780   2.473   2.184   4.294  0.4720 -0.0603  0.3912
 8383SOL     OW36781   0.191   2.695  17.692  0.0164 -0.5625  0.2679
 8383SOL    HW136782   0.195   2.670  17.600 -0.1603  0.8492 -0.1285
 8383SOL    HW236783   0.223   2.785  17.694  0.9314 -0.8938  0.6527
 8384SOL     OW36784   0.888   1.887   6.497 -0.1502 -0.6876  0.8993
 8384SOL    HW136785   0.800   1.904   6.532 -0.5144  0.1836 -0.4349
 8384SOL    HW236786   0.880   1.806   6.448 -0.8799 -0.4126  0.5637
 8385SOL     OW36787   1.402   2.200   1.936 -0.2012  0.6034 -0.4417
 8385SOL    HW136788   1.475   2.257   1.912  0.0659 -1.0542 -3.6754
 8385SOL    HW236789   1.420   2.187   2.029  1.1007  1.9499 -0.5067
 8386SOL     OW36790   2.742   2.451  10.371 -0.5137 -0.3843 -0.2643
 8386SOL    HW136791   2.801   2.505  10.423  0.4941 -1.6144 -0.1311
 8386SOL    HW236792   2.672   2.435  10.434 -1.4356 -2.4904 -1.8169
 8387SOL     OW36793   0.473   1.120   7.415  0.0218  0.4887 -0.4592
 8387SOL    HW136794   0.528   1.145   7.489 -0.1855 -0.3279 -0.0276
 8387SOL    HW236795   0.506   1.030   7.406 -0.0010  0.3941  0.4209
 8388SOL     OW36796   1.759   1.571  14.492  0.6146  0.1021 -0.7551
 8388SOL    HW136797   1.740   1.590  14.584 -1.0064 -0.3613 -0.9991
 8388SOL    HW236798   1.726   1.481  14.493 -0.3063  0.4235 -1.7023
 8389SOL     OW36799   0.151   4.377  16.452  0.2195  0.4579 -0.0973
 8389SOL    HW136800   0.184   4.465  16.437  1.3506 -0.0049 -0.3253
 8389SOL    HW236801   0.187   4.330  16.377  1.0700 -0.0030  0.5841
 8390SOL     OW36802   0.563   2.658   1.336 -0.2992  0.0153  0.3207
 8390SOL    HW136803   0.615   2.682   1.413 -1.7902  3.3053  0.2909
 8390SOL    HW236804   0.625   2.622   1.273  1.0825  2.0387  0.5293
 8391SOL     OW36805   4.481   1.044  12.585  0.0519 -1.1693  0.5864
 8391SOL    HW136806   4.522   1.075  12.505 -1.4844 -1.1594 -0.1963
 8391SOL    HW236807   4.554   0.987  12.608  0.2021 -1.1442  0.1616
 8392SOL     OW36808   4.312   2.589   1.468 -0.7606 -0.0675  0.2962
 8392SOL    HW136809   4.232   2.540   1.446 -1.0124 -0.0106  1.1031
 8392SOL    HW236810   4.369   2.549   1.403 -0.7110 -0.9746  0.9032
 8393SOL     OW36811   1.737   2.260   2.732 -0.4895 -0.0172 -0.5332
 8393SOL    HW136812   1.828   2.282   2.713 -0.3109 -0.3795 -0.1035
 8393SOL    HW236813   1.729   2.166   2.716 -1.4765 -0.4819  2.6910
 8394SOL     OW36814   3.965   0.861   5.004  0.2955 -0.0864 -0.1486
 8394SOL    HW136815   3.973   0.926   4.935 -0.4991  1.2969  1.0643
 8394SOL    HW236816   3.876   0.847   4.973  0.5598  0.4469 -1.1335
 8395SOL     OW36817   3.063   1.827   2.233 -0.4264 -0.3111  0.5533
 8395SOL    HW136818   3.053   1.736   2.261 -0.5044 -0.5997 -0.3990
 8395SOL    HW236819   3.002   1.834   2.159  0.4291  0.0103 -0.1235
 8396SOL     OW36820   0.092   0.294   2.664  0.3136 -0.2873  0.1376
 8396SOL    HW136821   0.182   0.325   2.663  0.6826 -1.3159  0.8009
 8396SOL    HW236822   0.098   0.229   2.594  0.6866 -1.8888  1.6358
 8397SOL     OW36823   2.612   3.541   3.023 -0.3058 -0.0656 -0.0530
 8397SOL    HW136824   2.693   3.585   3.048 -1.2430  0.8338  1.3981
 8397SOL    HW236825   2.573   3.557   3.109 -2.7926  0.7855 -1.3318
 8398SOL     OW36826   1.713   3.960   7.315  0.2775 -0.5149  0.1607
 8398SOL    HW136827   1.756   4.041   7.287 -0.1844  0.4250  2.1715
 8398SOL    HW236828   1.754   3.945   7.400  1.3654 -0.0530 -0.2796
 8399SOL     OW36829   3.053   1.557   2.261  0.6792 -0.4868 -0.1767
 8399SOL    HW136830   2.992   1.538   2.333  0.3347 -0.2348 -0.4013
 8399SOL    HW236831   3.097   1.472   2.259 -0.2512 -0.9870  0.3123
 8400SOL     OW36832   4.505   2.192   4.808 -0.2648  0.0198  0.6483
 8400SOL    HW136833   4.583   2.165   4.856 -0.5134  0.1580  1.1294
 8400SOL    HW236834   4.518   2.284   4.785  2.2018 -0.5338 -0.1359
 8401SOL     OW36835   3.209   1.424  12.589  0.3960  0.3043 -0.3629
 8401SOL    HW136836   3.158   1.461  12.661  1.2778  0.2797  0.2856
 8401SOL    HW236837   3.149   1.432  12.515  1.7310 -1.4404 -1.6482
 8402SOL     OW36838   0.496   0.317   7.933 -0.1988  0.8037 -0.1474
 8402SOL    HW136839   0.488   0.231   7.892  0.1181  0.9703 -0.5605
 8402SOL    HW236840   0.406   0.345   7.950 -0.6983 -0.1146 -1.3258
 8403SOL     OW36841   4.374   3.318  15.686 -0.6325  0.7738  0.1859
 8403SOL    HW136842   4.448   3.271  15.649  0.3149  2.6177 -0.2864
 8403SOL    HW236843   4.420   3.402  15.690 -0.7378  0.9763 -2.8491
 8404SOL     OW36844   2.905   4.537   0.417  0.5009 -0.2125  0.5912
 8404SOL    HW136845   2.997   4.546   0.390  0.3692 -0.4453  0.0516
 8404SOL    HW236846   2.861   4.563   0.336  0.6584  1.3854  1.0277
 8405SOL     OW36847   2.637   3.915  15.964 -0.1446 -0.0595 -0.6511
 8405SOL    HW136848   2.633   3.895  16.058 -0.8386 -0.7848 -0.8298
 8405SOL    HW236849   2.576   3.850  15.928 -2.1397  1.2375  0.3464
 8406SOL     OW36850   4.016   2.335   3.410  0.2748 -0.1892  0.1270
 8406SOL    HW136851   4.081   2.286   3.359 -0.1310  0.3456 -0.9029
 8406SOL    HW236852   4.007   2.414   3.357  1.0057  0.3032  0.7420
 8407SOL     OW36853   4.504   4.648   2.703  0.0184 -0.1075 -0.8105
 8407SOL    HW136854   4.414   4.655   2.734  0.0728 -0.4865 -0.5593
 8407SOL    HW236855   4.555   4.647   2.785 -0.5940  1.8282 -0.4170
 8408SOL     OW36856   3.522   4.146  10.114  0.0676  0.5606  0.1949
 8408SOL    HW136857   3.522   4.132  10.209  0.7652  0.9580  0.2544
 8408SOL    HW236858   3.453   4.087  10.084  2.2155 -2.1600  0.5053
 8409SOL     OW36859   0.976   2.742   2.623 -0.1782  0.5460  0.0655
 8409SOL    HW136860   1.039   2.765   2.691 -1.6652 -2.6641  2.5496
 8409SOL    HW236861   0.912   2.810   2.642  0.8491  0.4029  3.9207
 8410SOL     OW36862   3.255   4.340   5.586 -0.6060 -0.1913 -0.3460
 8410SOL    HW136863   3.222   4.410   5.643  0.9165 -0.8979  1.4092
 8410SOL    HW236864   3.340   4.323   5.627 -2.0499 -0.9226  2.3388
 8411SOL     OW36865   0.471   0.846   5.932  0.4807 -0.4383  0.4719
 8411SOL    HW136866   0.489   0.935   5.963 -1.9886  0.5732 -0.9879
 8411SOL    HW236867   0.406   0.815   5.995 -1.1485  1.0196 -0.4983
 8412SOL     OW36868   3.027   3.245  10.420  0.4960  0.0961 -0.2364
 8412SOL    HW136869   3.070   3.286  10.345 -1.7362  0.7492 -1.1564
 8412SOL    HW236870   3.008   3.158  10.386  1.1961  0.0857 -0.6032
 8413SOL     OW36871   2.856   0.480  13.305  0.4721 -0.3769  0.1617
 8413SOL    HW136872   2.839   0.390  13.277 -1.9217  0.9086 -2.4659
 8413SOL    HW236873   2.842   0.474  13.400  0.1900 -0.8944  0.0904
 8414SOL     OW36874   3.629   0.105   9.819 -0.4214  0.1883  0.2851
 8414SOL    HW136875   3.649   0.020   9.780  1.7615  0.7720  0.1273
 8414SOL    HW236876   3.535   0.102   9.839 -0.4634 -1.4199 -0.1921
 8415SOL     OW36877   3.921   3.608   6.121 -0.2117  1.1189 -0.1301
 8415SOL    HW136878   3.873   3.655   6.188  0.4457 -0.3653  1.3923
 8415SOL    HW236879   3.849   3.559   6.081  0.4679  1.1707 -1.4090
 8416SOL     OW36880   3.588   2.124   0.362 -0.1264 -0.1643 -0.3700
 8416SOL    HW136881   3.661   2.093   0.309  0.4648  0.2165  0.2263
 8416SOL    HW236882   3.549   2.041   0.391  0.5692 -0.7978 -1.2652
 8417SOL     OW36883   0.656   4.592   2.946 -0.5499  0.2646  0.1174
 8417SOL    HW136884   0.730   4.653   2.947 -1.7115  1.6961 -2.6298
 8417SOL    HW236885   0.601   4.648   2.891 -1.2163 -0.1506  0.3620
 8418SOL     OW36886   3.953   3.617   8.161 -0.6139 -0.1123  0.5522
 8418SOL    HW136887   3.866   3.655   8.167 -0.1288  0.9121  1.0436
 8418SOL    HW236888   3.967   3.610   8.255  0.6487 -1.4081  0.2725
 8419SOL     OW36889   2.706   0.154   2.323  0.7198  0.0232 -0.0348
 8419SOL    HW136890   2.714   0.190   2.235  1.4174  0.4876  0.2267
 8419SOL    HW236891   2.651   0.225   2.356 -2.2066 -1.3704 -1.8464
 8420SOL     OW36892   0.198   4.603   7.172  0.2500  0.9546 -0.2415
 8420SOL    HW136893   0.243   4.541   7.115  1.6550  1.0356  0.7852
 8420SOL    HW236894   0.190   4.557   7.255  0.4529  0.4482 -0.5054
 8421SOL     OW36895   3.338   2.852   3.943 -0.0892  0.2196 -0.2397
 8421SOL    HW136896   3.369   2.875   3.855 -0.3285 -0.0422 -0.3934
 8421SOL    HW236897   3.265   2.914   3.942 -1.6111 -1.5776 -2.3942
 8422SOL     OW36898   2.258   1.564  17.303  0.0321 -0.0871  0.2051
 8422SOL    HW136899   2.347   1.597  17.315  0.0634 -0.3058  0.5968
 8422SOL    HW236900   2.211   1.646  17.287 -0.5304 -0.9672 -2.5262
 8423SOL     OW36901   4.153   3.332   1.235 -0.1200 -0.0552  0.1177
 8423SOL    HW136902   4.121   3.339   1.326 -0.2957 -1.8110  0.1992
 8423SOL    HW236903   4.075   3.294   1.195  1.0307 -0.4471 -1.7526
 8424SOL     OW36904   4.358   4.456   7.337  0.4896 -0.0951  0.4969
 8424SOL    HW136905   4.442   4.429   7.374  1.2380  1.8678  0.2302
 8424SOL    HW236906   4.364   4.550   7.355  1.3612  0.1884 -1.3515
 8425SOL     OW36907   2.733   0.289   4.511  0.0623 -0.1064  0.3341
 8425SOL    HW136908   2.709   0.281   4.604 -2.1568  0.6739 -0.1720
 8425SOL    HW236909   2.726   0.196   4.491 -2.7133  0.7162 -2.3962
 8426SOL     OW36910   0.182   0.641  13.995 -0.5696 -0.4431  0.1584
 8426SOL    HW136911   0.205   0.698  14.068 -2.2292 -0.5800  0.7859
 8426SOL    HW236912   0.203   0.559  14.040 -1.0387 -0.9458 -0.5301
 8427SOL     OW36913   4.688   2.849  16.326  0.0724 -0.0996 -0.0721
 8427SOL    HW136914   4.690   2.882  16.236 -1.8026  1.9715  0.6371
 8427SOL    HW236915   4.646   2.928  16.360  0.9348  0.3180  0.0255
 8428SOL     OW36916   2.035   2.987  15.722  0.3574  0.0505 -0.2657
 8428SOL    HW136917   2.022   3.061  15.664  0.4380  0.7345  0.5886
 8428SOL    HW236918   1.942   2.964  15.722  0.0947  1.1433 -1.3719
 8429SOL     OW36919   0.215   4.714   4.954  0.6880 -0.5004  0.0440
 8429SOL    HW136920   0.202   4.648   4.886 -1.0830  1.1312 -1.1946
 8429SOL    HW236921   0.224   0.053   4.898 -1.4331  2.0975  3.2510
 8430SOL     OW36922   2.882   2.072   4.258 -0.1238  0.2381 -0.3437
 8430SOL    HW136923   2.916   1.999   4.310 -0.9204 -0.0621 -0.2408
 8430SOL    HW236924   2.864   2.134   4.328 -3.0334 -0.6839 -0.2745
 8431SOL     OW36925   4.438   3.795   6.864  0.1457 -0.2535  0.2662
 8431SOL    HW136926   4.445   3.843   6.781 -0.0134 -0.3976  0.1697
 8431SOL    HW236927   4.412   3.869   6.918  0.9300  0.9746 -1.0482
 8432SOL     OW36928   3.849   2.924   8.946  0.7577  0.0881  0.4010
 8432SOL    HW136929   3.890   2.863   8.885 -1.6411 -0.6399 -0.4806
 8432SOL    HW236930   3.802   2.867   9.007 -0.3042 -0.0966 -0.5801
 8433SOL     OW36931   3.577   0.847   3.742 -1.1512 -0.5558  0.0941
 8433SOL    HW136932   3.492   0.805   3.750 -1.5755  0.3979  0.5041
 8433SOL    HW236933   3.614   0.792   3.673 -1.9350  2.0191 -2.3960
 8434SOL     OW36934   2.315   0.609   1.886 -0.1847  0.6015  0.0870
 8434SOL    HW136935   2.233   0.564   1.866 -0.6377  1.8519 -0.9269
 8434SOL    HW236936   2.303   0.697   1.849 -0.8435  1.0645  1.4002
 8435SOL     OW36937   0.302   1.003   8.822  0.0199  0.7360 -0.0174
 8435SOL    HW136938   0.365   0.938   8.791  1.3629  2.7398 -1.5134
 8435SOL    HW236939   0.237   0.989   8.753  0.9174  1.4393 -1.0101
 8436SOL     OW36940   0.047   2.061  16.684 -0.0445  0.0657  0.4783
 8436SOL    HW136941   0.082   2.027  16.602  0.1173  1.7696 -0.1652
 8436SOL    HW236942   0.081   1.995  16.745  1.2714  0.2080 -0.0849
 8437SOL     OW36943   0.403   1.732   0.985 -0.1151  0.0527 -0.0085
 8437SOL    HW136944   0.419   1.780   1.066 -1.6912 -1.8667  1.4406
 8437SOL    HW236945   0.308   1.741   0.977 -0.0009  2.1360  1.1414
 8438SOL     OW36946   4.534   3.813   1.852 -0.1336  0.6660  0.0196
 8438SOL    HW136947   4.516   3.719   1.851  2.8868  0.0758 -0.8277
 8438SOL    HW236948   4.465   3.854   1.801 -1.4656 -2.8883 -1.0517
 8439SOL     OW36949   0.865   1.715  10.794 -0.4695  0.1506  0.5108
 8439SOL    HW136950   0.877   1.808  10.779 -0.9193  0.3644  1.4928
 8439SOL    HW236951   0.871   1.719  10.889 -1.3538 -1.4674  0.6404
 8440SOL     OW36952   4.668   0.253   6.764  0.1910  0.1529 -0.4107
 8440SOL    HW136953   4.593   0.198   6.786 -0.1892  1.0722  0.5876
 8440SOL    HW236954   4.691   0.210   6.681  2.3957  0.4439  0.0588
 8441SOL     OW36955   0.073   3.637   1.806  0.3038 -0.2475  0.2764
 8441SOL    HW136956   0.167   3.627   1.820  0.7553 -0.7669 -3.2169
 8441SOL    HW236957   0.072   3.685   1.723  0.9403 -2.3584 -0.9468
 8442SOL     OW36958   4.643   3.567  15.056  0.1456  0.3855  0.1779
 8442SOL    HW136959   4.604   3.622  15.124  3.4741 -0.0674  2.4678
 8442SOL    HW236960   4.584   3.580  14.982  1.2895 -2.1310 -1.1710
 8443SOL     OW36961   3.746   2.313   6.001  0.4158  0.0154  0.1502
 8443SOL    HW136962   3.809   2.379   5.973  1.3537  0.2054  2.7402
 8443SOL    HW236963   3.798   2.250   6.050  0.1887  1.3346  2.1120
 8444SOL     OW36964   1.932   1.931   3.250 -0.4483 -0.2392 -0.7536
 8444SOL    HW136965   1.955   1.918   3.158  1.6296 -0.5080 -0.1918
 8444SOL    HW236966   1.989   2.003   3.279 -1.1103  0.4342 -1.1134
 8445SOL     OW36967   2.339   1.065   9.452 -0.0965 -0.0914 -0.7161
 8445SOL    HW136968   2.387   1.134   9.499 -2.3645 -0.4464  2.1352
 8445SOL    HW236969   2.337   1.004   9.526 -0.9664 -1.1260 -1.6001
 8446SOL     OW36970   2.430   2.256   1.349  0.5147  0.4300 -0.5129
 8446SOL    HW136971   2.425   2.202   1.427  0.4091 -0.4489 -1.1291
 8446SOL    HW236972   2.435   2.189   1.280  0.0892  0.1675 -0.2869
 8447SOL     OW36973   0.405   3.740   8.187  0.2186 -0.6162 -0.3731
 8447SOL    HW136974   0.476   3.752   8.250  0.6163  0.5001 -1.0193
 8447SOL    HW236975   0.406   3.827   8.146 -1.1853 -1.6084 -2.5031
 8448SOL     OW36976   1.218   2.304   7.834  0.0089 -0.6201 -0.1666
 8448SOL    HW136977   1.241   2.227   7.782  1.9043  0.4315 -0.8887
 8448SOL    HW236978   1.305   2.339   7.856  0.2849  1.1134 -3.9759
 8449SOL     OW36979   0.617   3.794   7.919 -0.3281  0.3397  0.3606
 8449SOL    HW136980   0.711   3.777   7.912  0.2167  2.7468  2.0372
 8449SOL    HW236981   0.604   3.855   7.991 -2.0886  0.4064 -0.0137
 8450SOL     OW36982   1.183   2.514   3.612 -0.3309 -0.7525  0.0029
 8450SOL    HW136983   1.165   2.531   3.704 -1.1493 -1.1638 -0.0885
 8450SOL    HW236984   1.277   2.494   3.616 -0.5664 -2.1015 -1.0284
 8451SOL     OW36985   1.940   3.842   5.966  0.6679 -0.7093 -0.3671
 8451SOL    HW136986   1.946   3.750   5.939 -0.0313 -1.0092  0.5020
 8451SOL    HW236987   1.991   3.831   6.046  0.9215  0.6319 -0.3365
 8452SOL     OW36988   2.640   3.521   8.886 -0.2561  0.2571  0.0740
 8452SOL    HW136989   2.675   3.458   8.950 -1.5529  0.2762  0.7947
 8452SOL    HW236990   2.604   3.454   8.828 -0.5612 -1.1022  1.8002
 8453SOL     OW36991   0.561   0.689  10.803 -0.4150  0.1366 -0.2233
 8453SOL    HW136992   0.574   0.635  10.724  0.5870 -2.3388  1.6374
 8453SOL    HW236993   0.601   0.629  10.866 -0.9357  0.6128  0.5593
 8454SOL     OW36994   2.015   4.042   7.016 -0.0182 -0.0851  0.0395
 8454SOL    HW136995   1.963   4.064   7.093  1.3982 -0.4757  1.0848
 8454SOL    HW236996   1.988   4.108   6.952  2.0764  0.0014 -0.7483
 8455SOL     OW36997   2.459   0.196   6.244 -0.8079  0.0098  0.1606
 8455SOL    HW136998   2.372   0.173   6.210 -0.7635  0.3148 -0.1623
 8455SOL    HW236999   2.457   0.284   6.207  1.1718 -0.5197 -1.1762
 8456SOL     OW37000   3.338   1.041   2.442  0.1084 -0.0821 -0.5935
 8456SOL    HW137001   3.268   1.065   2.503 -0.5509  2.1532 -2.2426
 8456SOL    HW237002   3.304   1.021   2.354  0.2981  1.0262 -0.9113
 8457SOL     OW37003   4.022   3.511   5.405  0.0942 -0.1519 -0.0225
 8457SOL    HW137004   3.984   3.426   5.383  0.6299  0.0489 -1.7376
 8457SOL    HW237005   4.113   3.506   5.375 -0.2554 -0.1750 -1.0791
 8458SOL     OW37006   4.623   4.086   9.008  0.0741 -0.3805 -0.6479
 8458SOL    HW137007   4.620   4.100   8.913  1.6856  3.2671 -0.1341
 8458SOL    HW237008   4.680   4.152   9.048  1.5496 -1.6962 -0.5489
 8459SOL     OW37009   3.979   1.488   5.885  0.0231 -0.0472 -0.1693
 8459SOL    HW137010   4.026   1.570   5.900 -1.0745  0.8110 -1.4440
 8459SOL    HW237011   4.044   1.425   5.918 -1.3291 -1.2394  0.2263
 8460SOL     OW37012   3.306   4.697   6.450 -0.3054  0.1333  0.1999
 8460SOL    HW137013   3.312   4.655   6.365  1.4081 -1.4884  1.1208
 8460SOL    HW237014   3.343   0.047   6.438  2.5138 -1.1853 -0.7441
 8461SOL     OW37015   1.609   0.743  10.141 -0.0063  0.3488  0.1126
 8461SOL    HW137016   1.664   0.818  10.166 -1.2072  1.1393  0.3879
 8461SOL    HW237017   1.518   0.765  10.162  0.7224  1.4100  2.0971
 8462SOL     OW37018   0.262   1.320   3.353  0.4973  0.4988 -0.3603
 8462SOL    HW137019   0.235   1.313   3.444  2.1028  2.3283  0.2389
 8462SOL    HW237020   0.182   1.303   3.302  1.9530 -2.5483 -1.6352
 8463SOL     OW37021   1.730   0.119  16.419 -0.4591  0.3511 -0.1396
 8463SOL    HW137022   1.727   0.169  16.501  0.7939  0.9032 -0.4363
 8463SOL    HW237023   1.671   0.051  16.451  1.5721 -2.0024 -1.3952
 8464SOL     OW37024   1.748   1.582   5.430  0.2890  0.9640 -0.1598
 8464SOL    HW137025   1.686   1.610   5.362 -1.1395  0.6626  1.0317
 8464SOL    HW237026   1.744   1.488   5.413 -2.6774  0.8098  1.4564
 8465SOL     OW37027   3.778   0.168   7.982  0.1203 -0.6944  0.7037
 8465SOL    HW137028   3.855   0.116   8.005  0.5274 -0.1080  0.6636
 8465SOL    HW237029   3.734   0.113   7.918 -0.8395  0.2406  0.5498
 8466SOL     OW37030   2.727   1.004   1.430 -0.1790  0.1721 -0.1229
 8466SOL    HW137031   2.802   1.018   1.372  0.8074 -0.8000  0.9103
 8466SOL    HW237032   2.727   0.908   1.426  0.3654  0.2323 -1.6181
 8467SOL     OW37033   2.930   3.822  10.832 -0.1362  0.2778 -0.0321
 8467SOL    HW137034   2.887   3.737  10.843 -0.2944  0.4434  0.6189
 8467SOL    HW237035   2.865   3.884  10.864 -1.4082 -0.9741 -0.2275
 8468SOL     OW37036   0.671   0.844   7.505  0.4815 -0.1143  0.2015
 8468SOL    HW137037   0.624   0.760   7.502  1.2711 -0.4425 -2.2977
 8468SOL    HW237038   0.671   0.861   7.600 -2.1478 -1.8972  0.5247
 8469SOL     OW37039   2.703   1.392   4.652 -0.1329  0.0179  0.2381
 8469SOL    HW137040   2.718   1.337   4.576 -0.4646 -1.8972  1.5531
 8469SOL    HW237041   2.748   1.475   4.635 -1.6386  0.6209 -0.8079
 8470SOL     OW37042   0.418   1.178  14.849  0.0899 -0.0815 -0.4906
 8470SOL    HW137043   0.336   1.210  14.811  0.0309  1.3348  0.8452
 8470SOL    HW237044   0.376   1.110  14.902 -2.4515  1.2121 -0.8586
 8471SOL     OW37045   0.485   0.215   2.447 -0.1519 -0.3806 -0.2736
 8471SOL    HW137046   0.522   0.133   2.415  1.2882  0.3812 -0.5671
 8471SOL    HW237047   0.445   0.248   2.366 -0.7483  0.1061  0.2249
 8472SOL     OW37048   2.408   1.856  17.581 -0.0491 -0.0713 -0.2822
 8472SOL    HW137049   2.453   1.806  17.512  0.0981 -1.2851  0.7013
 8472SOL    HW237050   2.430   1.948  17.569  0.2886 -0.1591 -0.3506
 8473SOL     OW37051   2.998   0.650   7.760  0.2520 -0.6062  0.0353
 8473SOL    HW137052   3.025   0.730   7.714  1.6300 -1.5949 -0.8819
 8473SOL    HW237053   2.955   0.673   7.842 -0.3343  1.5043 -0.8725
 8474SOL     OW37054   3.248   0.543   8.392  0.1846 -0.5813  0.6478
 8474SOL    HW137055   3.277   0.597   8.319 -1.3870  0.5157  0.8565
 8474SOL    HW237056   3.310   0.470   8.385  0.0758 -0.4882 -1.3798
 8475SOL     OW37057   2.948   2.770   8.094 -0.0173 -0.5971 -0.2766
 8475SOL    HW137058   2.871   2.792   8.040  1.5190  0.2776 -2.0993
 8475SOL    HW237059   3.025   2.789   8.041  0.5193  1.8236  1.3585
 8476SOL     OW37060   1.344   3.679   6.850 -0.2114  0.4387 -0.3510
 8476SOL    HW137061   1.403   3.754   6.859  0.3784 -0.2216  1.3379
 8476SOL    HW237062   1.319   3.679   6.758  0.6075  0.1746 -0.5696
 8477SOL     OW37063   1.460   3.379   3.394 -0.3875  0.1602  0.1218
 8477SOL    HW137064   1.423   3.353   3.478  2.0589 -1.3804  0.7188
 8477SOL    HW237065   1.387   3.425   3.352 -0.3637  0.0952  0.0107
 8478SOL     OW37066   3.710   0.441  16.650 -0.2061  0.3043 -0.0567
 8478SOL    HW137067   3.627   0.462  16.607 -0.4858 -1.0948 -0.1999
 8478SOL    HW237068   3.684   0.467  16.738 -1.9618  0.8903 -0.7433
 8479SOL     OW37069   2.069   2.514   7.044 -0.6863 -0.9684  0.1900
 8479SOL    HW137070   2.135   2.562   7.094 -1.1202  0.7198 -0.8806
 8479SOL    HW237071   2.011   2.583   7.012  1.6532  1.2360  0.6317
 8480SOL     OW37072   0.975   3.698  10.918 -0.1870 -0.0585  0.0629
 8480SOL    HW137073   1.027   3.748  10.855 -1.1514  0.1799 -0.5499
 8480SOL    HW237074   0.885   3.725  10.900  0.1181 -0.0969 -1.5221
 8481SOL     OW37075   3.846   3.845   2.982 -0.1962  0.2704 -0.1954
 8481SOL    HW137076   3.842   3.911   3.051  3.1990  0.4346 -0.1600
 8481SOL    HW237077   3.756   3.819   3.000  0.2834 -0.6162  0.9330
 8482SOL     OW37078   2.935   4.536   1.230 -0.0043  0.3144 -0.4252
 8482SOL    HW137079   2.955   4.604   1.166  1.1776  1.6349  1.3633
 8482SOL    HW237080   2.883   4.473   1.179  2.5596 -1.6215 -0.6649
 8483SOL     OW37081   3.325   0.956   3.627 -0.3071  0.1602 -0.1971
 8483SOL    HW137082   3.299   0.865   3.617 -1.3041  0.4889 -0.6212
 8483SOL    HW237083   3.339   0.997   3.542  1.4935  0.7120  0.3683
 8484SOL     OW37084   0.374   1.390  17.459  0.0895  0.1076  0.4173
 8484SOL    HW137085   0.470   1.393  17.456  0.0197 -1.3159 -3.1697
 8484SOL    HW237086   0.357   1.393  17.365 -1.6766 -0.9141  0.6969
 8485SOL     OW37087   0.441   1.818   1.861  0.0763 -0.0441  0.1064
 8485SOL    HW137088   0.452   1.800   1.955 -1.0585  0.7683  0.4008
 8485SOL    HW237089   0.384   1.744   1.838 -1.1450  0.6035  1.0503
 8486SOL     OW37090   3.471   2.210  11.106  0.1980  0.2679  0.0811
 8486SOL    HW137091   3.466   2.142  11.039 -0.0096 -0.8898  1.2644
 8486SOL    HW237092   3.535   2.177  11.169  0.8374  0.8864 -0.2464
 8487SOL     OW37093   1.521   1.334   7.708  0.1540  0.4948 -0.3468
 8487SOL    HW137094   1.557   1.420   7.729 -0.5080  0.2449  1.8104
 8487SOL    HW237095   1.466   1.365   7.636 -0.1327 -0.7658 -0.6603
 8488SOL     OW37096   1.476   1.622   5.641  0.4577  0.2621  0.0754
 8488SOL    HW137097   1.556   1.622   5.692  1.8681 -0.7853 -2.1113
 8488SOL    HW237098   1.504   1.686   5.576 -0.6895  1.0830  0.3851
 8489SOL     OW37099   2.046   1.504  14.441 -0.4088 -0.2311  0.4587
 8489SOL    HW137100   1.960   1.502  14.483 -0.0190  0.4725  1.3181
 8489SOL    HW237101   2.027   1.443  14.371 -1.0374  2.4049 -1.6750
 8490SOL     OW37102   0.098   3.165   3.323  0.0943 -0.3947 -0.1813
 8490SOL    HW137103   0.128   3.147   3.412 -0.9660 -0.7066  0.1137
 8490SOL    HW237104   0.143   3.250   3.323  0.9348 -0.8409  1.3664
 8491SOL     OW37105   0.882   0.810   3.777  0.2190  0.6836 -0.2947
 8491SOL    HW137106   0.874   0.853   3.692 -0.7545  1.2885  0.1082
 8491SOL    HW237107   0.931   0.731   3.753  1.7724  2.0635 -1.7325
 8492SOL     OW37108   3.167   3.715   4.507 -0.0303 -0.0586  0.1047
 8492SOL    HW137109   3.140   3.716   4.415 -1.8313 -0.1330  0.6419
 8492SOL    HW237110   3.159   3.621   4.527  1.0258  0.0376  0.9987
 8493SOL     OW37111   1.220   0.638  12.909 -0.1585 -0.2623 -0.1359
 8493SOL    HW137112   1.265   0.675  12.833  2.2317  0.0187  1.4549
 8493SOL    HW237113   1.269   0.558  12.929 -0.4912 -0.8375 -1.6057
 8494SOL     OW37114   3.291   1.045  16.760 -0.0780 -0.1147 -0.1715
 8494SOL    HW137115   3.215   1.102  16.748  2.4746  3.3475  0.4394
 8494SOL    HW237116   3.326   1.045  16.671  0.6192 -1.1418  0.1109
 8495SOL     OW37117   4.398   0.369   4.050  0.3324  0.1784 -0.0418
 8495SOL    HW137118   4.365   0.292   4.097 -1.0259  0.8318  0.0859
 8495SOL    HW237119   4.330   0.432   4.073  0.4857 -0.5504  2.3532
 8496SOL     OW37120   3.412   1.918  11.380  0.3233 -0.5440 -0.7234
 8496SOL    HW137121   3.493   1.938  11.335  0.9379 -1.3347  0.0246
 8496SOL    HW237122   3.399   2.002  11.426 -0.6778 -2.5834  2.7812
 8497SOL     OW37123   3.072   4.665   6.825 -0.6685 -0.1309  0.2777
 8497SOL    HW137124   2.977   4.670   6.819 -0.5631  0.8484 -0.6935
 8497SOL    HW237125   3.086   4.626   6.739 -0.0296  0.5512  0.0745
 8498SOL     OW37126   2.075   2.447  15.737  0.2135 -0.2711 -0.1538
 8498SOL    HW137127   1.997   2.447  15.793 -0.0877  2.7963 -0.5814
 8498SOL    HW237128   2.096   2.539  15.720 -2.3327 -0.0497 -2.1968
 8499SOL     OW37129   3.681   1.016   0.157  0.8576  0.5582  0.3786
 8499SOL    HW137130   3.590   1.044   0.148 -0.1111 -3.0715 -0.7903
 8499SOL    HW237131   3.667   0.925   0.181  0.2716  0.6543  0.4012
 8500SOL     OW37132   0.884   1.634  14.881  0.1349 -0.1334  0.4524
 8500SOL    HW137133   0.956   1.572  14.894  0.5099  0.2071  0.0051
 8500SOL    HW237134   0.921   1.673  14.802  0.1247  1.0914  1.0529
 8501SOL     OW37135   1.499   0.733   4.596  0.8628  0.1940 -0.6076
 8501SOL    HW137136   1.516   0.818   4.556 -1.2235  0.7981 -0.2307
 8501SOL    HW237137   1.410   0.710   4.568  0.4093 -3.8980  4.2364
 8502SOL     OW37138   3.387   2.517   9.013 -0.2288 -0.0441  0.4210
 8502SOL    HW137139   3.370   2.584   8.946 -1.1420 -1.3999 -0.7040
 8502SOL    HW237140   3.473   2.534   9.052  0.4568 -3.7655  0.5400
 8503SOL     OW37141   3.493   0.563  14.056  0.3986  0.1685 -0.5726
 8503SOL    HW137142   3.484   0.629  14.125 -0.8313 -0.6105  0.0111
 8503SOL    HW237143   3.566   0.506  14.082 -2.1694 -2.2704  1.4049
 8504SOL     OW37144   2.439   2.492  12.214 -0.1364 -0.1643  1.2855
 8504SOL    HW137145   2.369   2.527  12.159  1.5661 -2.0518 -2.0614
 8504SOL    HW237146   2.414   2.402  12.235  2.6907 -1.3800 -0.6721
 8505SOL     OW37147   3.611   3.757  10.371 -0.2550  0.1936  0.3428
 8505SOL    HW137148   3.595   3.846  10.403  2.3050  0.3730  1.1214
 8505SOL    HW237149   3.645   3.718  10.452 -0.0695  1.8472  1.0738
 8506SOL     OW37150   1.516   0.916   8.853  0.1728 -0.3221 -0.2896
 8506SOL    HW137151   1.503   0.984   8.787  0.1599  1.1051  1.1801
 8506SOL    HW237152   1.472   0.842   8.811 -1.6269  1.5255 -1.6640
 8507SOL     OW37153   0.515   3.481  17.708 -0.0686 -0.0012 -0.0756
 8507SOL    HW137154   0.481   3.445  17.626  0.3962  0.0865 -0.3040
 8507SOL    HW237155   0.478   3.569  17.697  1.1939  0.6015  0.4641
 8508SOL     OW37156   0.185   2.159   0.670  0.3933 -0.7091 -0.3296
 8508SOL    HW137157   0.222   2.171   0.583  0.4480 -1.6422 -0.4282
 8508SOL    HW237158   0.243   2.099   0.715  0.6668 -1.6405 -1.9422
 8509SOL     OW37159   0.246   1.725   4.532 -0.3818 -0.2648 -0.0985
 8509SOL    HW137160   0.236   1.816   4.502  0.4257 -0.6165 -1.4881
 8509SOL    HW237161   0.173   1.687   4.484 -0.5250  1.8847 -1.5986
 8510SOL     OW37162   3.948   2.889  17.269 -0.0577  0.8274  0.2029
 8510SOL    HW137163   3.883   2.914  17.334  1.0790  0.1505  1.6071
 8510SOL    HW237164   3.907   2.811  17.233  0.4195  0.2997  0.8038
 8511SOL     OW37165   3.094   4.556   7.063 -0.8893 -0.9533  0.8117
 8511SOL    HW137166   3.098   4.619   6.992  1.3173 -2.2904 -0.2288
 8511SOL    HW237167   3.138   4.484   7.019 -1.8010  0.0576 -1.7370
 8512SOL     OW37168   2.077   3.488  10.145 -0.3955 -0.0833 -0.2961
 8512SOL    HW137169   2.025   3.423  10.193  0.4025  0.6202  1.5350
 8512SOL    HW237170   2.123   3.530  10.218 -2.5044 -1.2788  1.7609
 8513SOL     OW37171   4.500   3.407   6.193 -0.1646  0.3090 -0.1230
 8513SOL    HW137172   4.578   3.372   6.150  0.2574  1.4867 -0.2875
 8513SOL    HW237173   4.533   3.470   6.257  0.9523 -0.1841 -0.2196
 8514SOL     OW37174   2.755   3.636  16.965 -0.1545  0.3942 -0.0707
 8514SOL    HW137175   2.667   3.672  16.974  0.1688  0.9652  0.9054
 8514SOL    HW237176   2.761   3.642  16.870 -3.0240 -0.5149 -0.2994
 8515SOL     OW37177   2.178   2.132   5.961  0.1020 -0.3777  0.0218
 8515SOL    HW137178   2.083   2.134   5.960 -0.0068 -3.4048  1.7172
 8515SOL    HW237179   2.188   2.036   5.965 -0.5505 -0.5371 -2.4264
 8516SOL     OW37180   2.215   3.101   5.514 -0.0276  0.2735 -0.4559
 8516SOL    HW137181   2.134   3.068   5.551  0.4179 -1.4412 -0.9898
 8516SOL    HW237182   2.252   3.013   5.500 -0.7847 -0.0773 -0.2646
 8517SOL     OW37183   0.980   0.772   6.737 -0.3787  0.0677 -0.3296
 8517SOL    HW137184   0.908   0.755   6.798  1.1761 -2.2879  0.8328
 8517SOL    HW237185   0.939   0.755   6.652 -0.8860  0.1673 -0.1029
 8518SOL     OW37186   3.651   3.309   0.651  0.4646  0.8975  0.3158
 8518SOL    HW137187   3.727   3.335   0.703  0.3241  1.6074  0.1669
 8518SOL    HW237188   3.578   3.350   0.697  0.4188 -0.7254  1.6686
 8519SOL     OW37189   4.523   1.804   0.673 -0.0064  0.2220 -0.0733
 8519SOL    HW137190   4.571   1.887   0.684  1.4455 -0.5499 -0.6297
 8519SOL    HW237191   4.601   1.749   0.674  1.6828  2.6385  0.7678
 8520SOL     OW37192   2.475   3.780   2.014 -0.2150  0.0801 -1.0215
 8520SOL    HW137193   2.436   3.721   2.079  0.6576  0.3086 -0.2962
 8520SOL    HW237194   2.533   3.835   2.066  0.5977  0.4205 -2.3078
 8521SOL     OW37195   4.582   2.913   8.958 -0.2106 -0.0322  0.0159
 8521SOL    HW137196   4.502   2.862   8.968 -0.3362 -0.3997 -2.8774
 8521SOL    HW237197   4.557   2.996   8.916 -0.4207 -0.4659 -0.7164
 8522SOL     OW37198   0.226   4.452   6.863  0.0816 -0.5645  0.7685
 8522SOL    HW137199   0.255   4.408   6.943  0.3959  0.2875  1.1349
 8522SOL    HW237200   0.155   4.398   6.829 -1.2606  0.2675  2.1961
 8523SOL     OW37201   0.952   0.187   8.821 -0.2038  0.1118  0.4188
 8523SOL    HW137202   1.045   0.169   8.836  0.7773  2.5385 -2.8132
 8523SOL    HW237203   0.919   0.146   8.901 -1.2727 -1.5787 -0.8870
 8524SOL     OW37204   0.134   2.541  12.362 -1.1872  0.4888 -0.0425
 8524SOL    HW137205   0.084   2.462  12.342 -0.1580 -0.5537  1.5459
 8524SOL    HW237206   0.190   2.502  12.429 -1.3433 -1.1040 -0.8469
 8525SOL     OW37207   1.357   3.876   2.873 -0.0397 -0.0527  0.6547
 8525SOL    HW137208   1.288   3.899   2.810 -0.9769 -0.5316  1.5114
 8525SOL    HW237209   1.425   3.861   2.806 -0.1103  0.9470  0.3541
 8526SOL     OW37210   4.390   1.239   7.857 -0.8971  0.1581  0.0298
 8526SOL    HW137211   4.401   1.313   7.916  0.3648 -1.5597  1.9657
 8526SOL    HW237212   4.484   1.220   7.859 -0.6238  1.6005  0.6802
 8527SOL     OW37213   0.824   1.449   1.120 -0.2528 -0.6567  0.3079
 8527SOL    HW137214   0.747   1.401   1.153 -2.1681  1.3364 -1.2451
 8527SOL    HW237215   0.782   1.531   1.092 -2.1717 -1.0426  2.0838
 8528SOL     OW37216   1.082   3.141   8.033  0.3864  0.1184  0.7716
 8528SOL    HW137217   0.990   3.126   8.009 -0.0008  0.6081  1.9565
 8528SOL    HW237218   1.065   3.174   8.121  0.2528 -1.4495  1.3379
 8529SOL     OW37219   3.428   0.227   6.372 -0.0680  0.3345 -0.5300
 8529SOL    HW137220   3.515   0.220   6.333  1.0427 -0.0600  2.0132
 8529SOL    HW237221   3.454   0.289   6.441 -1.2359  1.6012 -1.2203
 8530SOL     OW37222   2.288   2.836   5.460  0.2986 -0.1194  0.4582
 8530SOL    HW137223   2.312   2.837   5.367  2.2163  0.8851  0.9563
 8530SOL    HW237224   2.296   2.741   5.469  0.8448  0.0788  2.0465
 8531SOL     OW37225   0.443   4.284   4.977  0.6651  0.3472  0.2943
 8531SOL    HW137226   0.484   4.250   5.056 -1.3888 -0.3865  1.0309
 8531SOL    HW237227   0.361   4.319   5.011  1.6193  1.8509  1.0763
 8532SOL     OW37228   1.805   3.562   3.608 -0.4198  0.2144 -0.0154
 8532SOL    HW137229   1.827   3.604   3.692  1.1543 -0.0717 -0.2797
 8532SOL    HW237230   1.799   3.471   3.636 -1.4337  0.5595  0.8910
 8533SOL     OW37231   2.273   1.676   2.412  0.0636 -0.3914  0.1447
 8533SOL    HW137232   2.362   1.639   2.416  0.7201  0.7747 -3.6023
 8533SOL    HW237233   2.230   1.611   2.356  0.8528 -0.0453 -0.8817
 8534SOL     OW37234   1.472   0.313   7.186  0.0556  0.1109 -0.0789
 8534SOL    HW137235   1.554   0.291   7.232 -0.2410 -0.1818  0.3133
 8534SOL    HW237236   1.471   0.408   7.191  1.6278  0.2027 -1.3284
 8535SOL     OW37237   1.721   2.642   6.107  0.1827 -0.0410  0.2414
 8535SOL    HW137238   1.693   2.581   6.039  0.5854 -0.0320  0.0679
 8535SOL    HW237239   1.752   2.576   6.169 -1.6598 -0.6842  0.4630
 8536SOL     OW37240   0.700   2.179  14.973  0.0449  0.2852  0.4400
 8536SOL    HW137241   0.736   2.221  14.896 -0.0214 -1.8884 -0.7704
 8536SOL    HW237242   0.775   2.183  15.032 -1.0471  0.1495  1.8457
 8537SOL     OW37243   2.489   2.749   8.778 -0.5084 -0.5464 -0.3306
 8537SOL    HW137244   2.463   2.809   8.848  1.3378  0.0164 -0.1279
 8537SOL    HW237245   2.557   2.799   8.734 -1.2008  2.1284  1.6293
 8538SOL     OW37246   3.345   0.747   8.249 -0.1582 -0.0187 -0.3379
 8538SOL    HW137247   3.429   0.701   8.259 -1.9799 -2.7057  2.3499
 8538SOL    HW237248   3.378   0.824   8.201 -1.3285  0.0563 -1.0278
 8539SOL     OW37249   0.263   3.569   9.499  0.2594 -0.0853 -0.4661
 8539SOL    HW137250   0.317   3.490   9.496 -0.9489 -0.9674  0.5623
 8539SOL    HW237251   0.293   3.598   9.585 -0.2163 -1.0386  0.0301
 8540SOL     OW37252   2.674   0.652   6.680  0.3192  0.2839  0.7389
 8540SOL    HW137253   2.695   0.560   6.663 -0.3103  0.4577 -0.9646
 8540SOL    HW237254   2.594   0.642   6.731 -0.2273  1.0475  0.0273
 8541SOL     OW37255   2.405   3.186   0.824 -0.3606 -0.0050  0.5333
 8541SOL    HW137256   2.409   3.239   0.744 -1.1987 -2.1259 -0.9146
 8541SOL    HW237257   2.498   3.168   0.836 -0.4484 -1.2603 -0.7090
 8542SOL     OW37258   4.244   2.599  10.973  0.4754  0.0076 -0.3652
 8542SOL    HW137259   4.266   2.647  11.052 -2.2680 -0.6175  0.7840
 8542SOL    HW237260   4.156   2.632  10.955 -0.8149 -4.2485 -1.9123
 8543SOL     OW37261   4.032   0.270  15.322  0.7002 -0.5093 -0.0564
 8543SOL    HW137262   3.987   0.335  15.376  0.3027 -0.1313 -0.8493
 8543SOL    HW237263   4.010   0.300  15.234 -2.2423 -0.3459  0.7302
 8544SOL     OW37264   1.265   1.745   7.441  0.3281 -0.0209 -0.0549
 8544SOL    HW137265   1.356   1.721   7.459  0.9221  1.3973 -1.2037
 8544SOL    HW237266   1.257   1.713   7.351  0.2992 -2.0126  0.6554
 8545SOL     OW37267   0.086   0.916   6.282 -0.2394 -0.1353  0.5343
 8545SOL    HW137268   0.104   0.995   6.333  0.2364  0.3330 -0.3602
 8545SOL    HW237269   0.089   0.944   6.191  0.7486  2.2455  1.2742
 8546SOL     OW37270   2.537   3.806   3.440 -0.2542  0.0285  0.1072
 8546SOL    HW137271   2.574   3.748   3.508 -1.2032  0.8269  1.3002
 8546SOL    HW237272   2.539   3.895   3.475 -0.4844  0.1828 -0.2791
 8547SOL     OW37273   3.769   4.076   9.385  0.0346 -0.0641  0.1899
 8547SOL    HW137274   3.719   4.140   9.334 -0.2494  0.2020  0.8061
 8547SOL    HW237275   3.837   4.139   9.408  0.1771  1.0962 -3.4188
 8548SOL     OW37276   0.859   3.671   2.362 -0.1223  0.1955 -0.3460
 8548SOL    HW137277   0.858   3.575   2.353  1.0884  0.1437  0.1320
 8548SOL    HW237278   0.825   3.673   2.451  0.5198  3.2199 -0.1684
 8549SOL     OW37279   1.465   1.141   9.156  0.1651 -0.0674  0.4738
 8549SOL    HW137280   1.412   1.196   9.097 -0.6168 -0.5429  0.7226
 8549SOL    HW237281   1.423   1.178   9.233 -1.1103 -1.5338  0.4854
 8550SOL     OW37282   2.651   2.865   5.393 -0.3009  0.3872  0.3287
 8550SOL    HW137283   2.577   2.814   5.426 -0.6884  1.6417  1.4105
 8550SOL    HW237284   2.626   2.883   5.302  2.7423  0.9864 -0.3903
 8551SOL     OW37285   1.237   0.872   3.345  0.0998 -0.0170  0.0645
 8551SOL    HW137286   1.177   0.814   3.299  1.2982  0.5955 -2.2686
 8551SOL    HW237287   1.186   0.952   3.358 -0.9232 -0.9937  2.1298
 8552SOL     OW37288   2.450   1.919   1.494  0.2938 -0.1276 -0.7979
 8552SOL    HW137289   2.366   1.875   1.508  0.1008  0.6193  0.3292
 8552SOL    HW237290   2.433   2.005   1.532  0.9730 -0.1236 -0.5045
 8553SOL     OW37291   2.538   0.053   7.444  0.5293 -0.2907  0.0930
 8553SOL    HW137292   2.449   0.056   7.409  0.8680 -0.3656 -0.7665
 8553SOL    HW237293   2.560   0.146   7.434  0.4289 -0.2592  0.1659
 8554SOL     OW37294   3.080   1.372   7.233  0.3158  0.2382 -0.5358
 8554SOL    HW137295   3.017   1.362   7.304  1.4736 -0.1378  0.4396
 8554SOL    HW237296   3.056   1.292   7.188 -1.4030 -0.2560  1.2665
 8555SOL     OW37297   3.978   0.031  11.657  0.3994 -0.0631  0.2776
 8555SOL    HW137298   4.015   0.104  11.606  1.7420 -0.5280  0.5879
 8555SOL    HW237299   4.005   4.695  11.603 -2.6252 -1.2499  0.4417
 8556SOL     OW37300   0.474   1.574  15.409 -0.5509 -0.3875  0.3270
 8556SOL    HW137301   0.498   1.666  15.394  1.5710 -0.5233  2.8452
 8556SOL    HW237302   0.404   1.551  15.348 -0.3459 -0.3555  0.0818
 8557SOL     OW37303   3.415   3.231   5.204 -0.1929  0.2243  0.2690
 8557SOL    HW137304   3.465   3.284   5.141  0.6309 -2.0646 -1.0069
 8557SOL    HW237305   3.465   3.150   5.205 -1.3493 -0.5779 -4.7817
 8558SOL     OW37306   3.726   1.667   2.946  0.0328  0.0446  0.3595
 8558SOL    HW137307   3.648   1.618   2.921  0.4050 -0.2458 -0.2325
 8558SOL    HW237308   3.717   1.668   3.041 -2.2638 -0.0353  0.1399
 8559SOL     OW37309   2.011   2.513   1.902  0.0357 -0.0723  0.2381
 8559SOL    HW137310   1.966   2.551   1.826  3.3680 -0.3276 -1.8855
 8559SOL    HW237311   2.018   2.582   1.968 -1.3847  1.2817 -1.0128
 8560SOL     OW37312   2.408   1.645   3.181  0.8784 -0.6919 -0.4258
 8560SOL    HW137313   2.372   1.698   3.253  5.4518 -1.3487  2.3544
 8560SOL    HW237314   2.484   1.603   3.221  2.0499  0.7064 -1.1818
 8561SOL     OW37315   1.276   1.098   9.753 -0.5722 -0.1588 -0.1644
 8561SOL    HW137316   1.227   1.166   9.707 -2.9927 -0.9782  1.2197
 8561SOL    HW237317   1.268   1.015   9.705 -2.8289  0.1328 -0.2770
 8562SOL     OW37318   1.868   2.509   6.338 -0.3768  0.6900  0.0766
 8562SOL    HW137319   1.852   2.578   6.402 -0.5786 -0.8880  1.7442
 8562SOL    HW237320   1.959   2.529   6.315 -0.7313  1.1438 -0.9446
 8563SOL     OW37321   1.279   4.530   2.038 -0.5467  0.5135  0.1424
 8563SOL    HW137322   1.312   4.514   2.126  0.3680  0.3340 -0.2274
 8563SOL    HW237323   1.233   4.450   2.012 -0.8761  0.2805  1.4818
 8564SOL     OW37324   4.111   4.665   9.838  0.0622 -0.0022 -0.4527
 8564SOL    HW137325   4.195   4.682   9.879 -0.4439  2.6857 -0.5063
 8564SOL    HW237326   4.137   4.602   9.771  2.7004  0.9735 -0.3228
 8565SOL     OW37327   2.801   1.232  11.267  0.0812  0.0596  0.5282
 8565SOL    HW137328   2.713   1.210  11.298  0.0828  2.6718  2.3419
 8565SOL    HW237329   2.792   1.307  11.209 -0.6845 -1.3966 -1.2361
 8566SOL     OW37330   4.241   3.842   6.210 -0.2591  0.1291  0.0470
 8566SOL    HW137331   4.172   3.844   6.144  1.9036 -0.6519 -2.2268
 8566SOL    HW237332   4.312   3.791   6.171  0.0983 -1.2615  2.5577
 8567SOL     OW37333   0.134   4.136  17.436  0.5006  0.2462 -0.5582
 8567SOL    HW137334   0.085   4.056  17.454  1.4802 -0.1331  0.4161
 8567SOL    HW237335   0.053   4.185  17.424  0.4171  0.2008 -0.1679
 8568SOL     OW37336   2.025   0.212   5.745 -0.2945  0.4965  0.2190
 8568SOL    HW137337   2.058   0.202   5.656 -1.7406  0.0592 -0.2813
 8568SOL    HW237338   2.092   0.163   5.793  1.3889  2.9859  0.4030
 8569SOL     OW37339   0.559   1.545  14.628 -0.1720  1.0784 -0.1104
 8569SOL    HW137340   0.621   1.594  14.575  0.5030  1.9537  1.4710
 8569SOL    HW237341   0.508   1.617  14.667 -0.4530  1.6530 -1.5370
 8570SOL     OW37342   1.869   1.546   8.630  0.3373  0.4459 -0.3037
 8570SOL    HW137343   1.880   1.456   8.661 -0.9437  0.3829 -0.0571
 8570SOL    HW237344   1.938   1.598   8.671 -1.8695  2.8349  0.2973
 8571SOL     OW37345   0.986   1.556  15.421 -0.3837  0.0529 -0.2395
 8571SOL    HW137346   1.008   1.596  15.337 -0.6295  1.1915  0.2432
 8571SOL    HW237347   0.947   1.474  15.392  0.5341 -0.4333 -0.1097
 8572SOL     OW37348   0.401   0.601   8.380  0.7765  0.1768  0.1397
 8572SOL    HW137349   0.445   0.651   8.311  0.8526  2.2783  1.6916
 8572SOL    HW237350   0.313   0.614   8.346  0.1281 -1.9147  1.0314
 8573SOL     OW37351   1.703   1.850  11.564 -0.5314 -0.0668  0.0801
 8573SOL    HW137352   1.626   1.794  11.572 -0.1804 -0.4028  1.0642
 8573SOL    HW237353   1.777   1.795  11.540  0.2870  0.4610  1.3917
 8574SOL     OW37354   2.181   4.539   2.584 -0.2651  0.1486  0.4338
 8574SOL    HW137355   2.141   4.598   2.647 -1.6830 -2.0805  1.5865
 8574SOL    HW237356   2.110   4.479   2.562  0.3888  0.2802 -2.0947
 8575SOL     OW37357   3.925   1.175  11.875 -0.2616  0.2668  0.0374
 8575SOL    HW137358   3.955   1.119  11.947  0.2808  0.1424 -0.2857
 8575SOL    HW237359   3.994   1.241  11.874  0.3372 -0.3539  0.3356
 8576SOL     OW37360   2.061   1.619   5.113  0.2295 -0.1753  0.5209
 8576SOL    HW137361   1.978   1.667   5.114  0.3577  0.0762 -0.2232
 8576SOL    HW237362   2.106   1.693   5.071 -1.4277  0.5710  0.0307
 8577SOL     OW37363   2.704   0.950   4.626 -0.7363  0.2114 -0.1651
 8577SOL    HW137364   2.691   0.963   4.532  0.3067  1.9766 -0.0642
 8577SOL    HW237365   2.633   1.005   4.660  0.2428  1.3043  0.1278
 8578SOL     OW37366   4.694   2.326   4.219 -0.2046  0.1661 -0.1647
 8578SOL    HW137367   4.653   2.368   4.144 -0.2270  1.1311  0.3918
 8578SOL    HW237368   4.640   2.350   4.294 -1.0732 -0.7194 -0.5150
 8579SOL     OW37369   3.016   4.107  14.442 -0.1995 -0.0603 -0.1597
 8579SOL    HW137370   3.032   4.049  14.517 -2.9387 -1.0227 -0.3399
 8579SOL    HW237371   3.109   4.118  14.420 -0.0018  2.6739  1.9451
 8580SOL     OW37372   0.903   0.300   2.452 -0.6484  0.0659  0.1651
 8580SOL    HW137373   0.839   0.252   2.506 -0.1264 -1.1856 -0.3202
 8580SOL    HW237374   0.897   0.252   2.370 -1.7158 -2.9555  2.0008
 8581SOL     OW37375   2.016   0.797   4.858 -0.0712  0.3643  0.2180
 8581SOL    HW137376   2.047   0.884   4.882  2.5772 -0.7246  0.8063
 8581SOL    HW237377   2.051   0.784   4.770  1.9130  0.5392  0.9857
 8582SOL     OW37378   1.400   0.127   7.485 -0.7324  0.1190 -0.2906
 8582SOL    HW137379   1.329   0.177   7.524 -0.0339  0.0693  1.0312
 8582SOL    HW237380   1.470   0.156   7.543 -0.8458  2.2739 -1.2250
 8583SOL     OW37381   4.644   1.639   3.502  0.3900  0.0055  0.3157
 8583SOL    HW137382   4.680   1.644   3.414 -0.2917  3.0626  0.2094
 8583SOL    HW237383   4.551   1.649   3.481  1.2400  0.2107 -3.2977
 8584SOL     OW37384   2.032   2.167   9.390  0.8240 -0.2606 -0.1579
 8584SOL    HW137385   2.018   2.118   9.309 -0.2670  0.5245 -0.4447
 8584SOL    HW237386   2.027   2.089   9.445  1.1082  0.6585  1.1688
 8585SOL     OW37387   2.657   0.160   6.428 -0.1104 -0.2498 -0.4026
 8585SOL    HW137388   2.740   0.157   6.380  0.1057  1.3966 -0.1277
 8585SOL    HW237389   2.601   0.193   6.358  0.6392  0.1103 -0.8353
 8586SOL     OW37390   4.646   0.816  10.829  0.5000  0.3839  0.5428
 8586SOL    HW137391   4.677   0.906  10.828  1.4304  0.0739  1.0789
 8586SOL    HW237392   4.562   0.830  10.872  0.5345  1.0122  0.3969
 8587SOL     OW37393   4.456   2.111   0.490 -0.4676 -0.2424 -0.6783
 8587SOL    HW137394   4.517   2.066   0.432 -0.2357  0.6397 -1.1201
 8587SOL    HW237395   4.512   2.145   0.560  0.3568 -0.5872 -1.1783
 8588SOL     OW37396   1.846   3.769   9.770  0.1571 -0.3439 -0.2430
 8588SOL    HW137397   1.789   3.698   9.742  0.4434 -0.1119 -1.4400
 8588SOL    HW237398   1.904   3.722   9.830  0.6939 -1.6008 -1.7494
 8589SOL     OW37399   1.319   1.120   5.067 -0.1377 -0.3614 -0.1214
 8589SOL    HW137400   1.330   1.027   5.050  3.0492 -0.2408  1.2489
 8589SOL    HW237401   1.400   1.154   5.029 -0.3810  0.6345  0.2374
 8590SOL     OW37402   3.407   3.708   6.360 -0.0632 -0.2945  0.0701
 8590SOL    HW137403   3.327   3.711   6.308  1.1816  0.3223 -1.8169
 8590SOL    HW237404   3.433   3.617   6.345  1.3678 -0.0495  1.0863
 8591SOL     OW37405   3.071   4.208   8.531 -0.3643 -0.4404  0.3856
 8591SOL    HW137406   3.055   4.231   8.623 -0.7061  0.7582  0.0300
 8591SOL    HW237407   2.989   4.162   8.516  0.7902 -2.2143 -0.4077
 8592SOL     OW37408   1.075   3.032   4.797 -0.5271  0.1656  0.3412
 8592SOL    HW137409   1.035   3.115   4.773 -2.4917 -0.9469 -0.2711
 8592SOL    HW237410   1.152   3.020   4.741 -2.5453  0.5260 -2.4766
 8593SOL     OW37411   1.955   3.272   7.002 -0.3627 -0.7498 -0.9350
 8593SOL    HW137412   1.997   3.297   6.919 -0.7966 -0.3319 -1.0268
 8593SOL    HW237413   1.912   3.190   6.981  0.9723 -1.7125  0.1136
 8594SOL     OW37414   2.664   3.870  13.694 -0.0672 -0.0554 -0.2884
 8594SOL    HW137415   2.688   3.963  13.687  1.6228 -0.6193 -1.9137
 8594SOL    HW237416   2.620   3.860  13.610 -2.4561 -0.4559  1.0153
 8595SOL     OW37417   4.401   1.462   8.011 -0.4367 -0.4070 -0.0789
 8595SOL    HW137418   4.396   1.514   8.091  0.3640  0.8872 -0.8671
 8595SOL    HW237419   4.378   1.524   7.942  2.6166 -0.5161 -1.1950
 8596SOL     OW37420   3.630   2.329  14.893  0.0338  0.0563 -0.3909
 8596SOL    HW137421   3.670   2.354  14.976 -1.0391  1.0516 -0.1721
 8596SOL    HW237422   3.698   2.359  14.833  0.0338 -2.3236 -1.5847
 8597SOL     OW37423   4.161   2.107  15.493  0.0986 -0.4890  0.3309
 8597SOL    HW137424   4.096   2.176  15.508 -0.8436 -1.0199 -1.2380
 8597SOL    HW237425   4.146   2.108  15.398 -1.3667 -0.3639  0.5595
 8598SOL     OW37426   2.808   4.713  17.109  1.3245  0.1860  0.8333
 8598SOL    HW137427   2.735   4.716  17.172  0.7372  0.0208  0.1602
 8598SOL    HW237428   2.872   0.045  17.120  0.6873  0.7429  0.9892
 8599SOL     OW37429   1.203   1.261  11.750  0.3155  0.3825  0.0831
 8599SOL    HW137430   1.211   1.185  11.807 -0.3698 -0.6924 -1.2488
 8599SOL    HW237431   1.267   1.322  11.789  0.1079  0.2324  0.6563
 8600SOL     OW37432   1.782   2.935  14.321  0.6195 -0.3466  0.0658
 8600SOL    HW137433   1.764   2.875  14.249 -0.0616  1.2801 -1.1342
 8600SOL    HW237434   1.746   2.888  14.396  0.5413 -0.0275  0.2324
 8601SOL     OW37435   2.393   0.894   2.415 -0.0836 -0.4111  0.7064
 8601SOL    HW137436   2.409   0.987   2.433 -0.0536  0.0188 -1.5487
 8601SOL    HW237437   2.304   0.888   2.451 -0.4982  0.7278 -0.1220
 8602SOL     OW37438   3.282   4.050   5.685 -0.5184 -0.1515 -0.2164
 8602SOL    HW137439   3.349   4.098   5.735  0.4587 -0.8017 -0.8888
 8602SOL    HW237440   3.255   4.120   5.626 -1.1673 -0.1710  0.0681
 8603SOL     OW37441   0.175   1.076   3.675  0.1432 -0.0950  0.7731
 8603SOL    HW137442   0.150   0.985   3.688  0.4275 -0.4672 -1.2816
 8603SOL    HW237443   0.103   1.101   3.617 -0.7571 -1.6015  1.2298
 8604SOL     OW37444   4.480   3.259   7.234 -0.1839 -0.0559 -0.4573
 8604SOL    HW137445   4.512   3.349   7.243 -0.1653 -0.0873 -0.2114
 8604SOL    HW237446   4.513   3.234   7.147  0.4246 -0.3389 -0.1413
 8605SOL     OW37447   0.284   2.937  17.675 -0.4215  0.7313 -0.2887
 8605SOL    HW137448   0.307   3.023  17.639  2.7781 -0.2360 -0.5066
 8605SOL    HW237449   0.372   2.920  17.709 -0.8141 -0.9614 -0.1415
 8606SOL     OW37450   4.224   1.688   3.198  0.4788 -0.3823 -0.0038
 8606SOL    HW137451   4.263   1.720   3.117  0.1235 -1.3956 -0.5761
 8606SOL    HW237452   4.197   1.599   3.175 -0.6810 -0.8256  3.0171
 8607SOL     OW37453   4.461   1.799   0.978 -0.1479 -0.1875  0.7108
 8607SOL    HW137454   4.546   1.757   0.991 -0.4133 -0.5798  1.1965
 8607SOL    HW237455   4.454   1.792   0.883  0.5886 -0.2258  0.6562
 8608SOL     OW37456   4.160   2.093   6.352 -0.2933  0.4824  0.4203
 8608SOL    HW137457   4.249   2.111   6.323 -0.0676  0.4645  1.0919
 8608SOL    HW237458   4.139   2.009   6.310  1.9276 -1.3348  2.9022
 8609SOL     OW37459   1.644   0.502   8.013 -0.3353 -0.1169  0.7642
 8609SOL    HW137460   1.615   0.517   7.923 -0.4756 -0.4293  0.7596
 8609SOL    HW237461   1.716   0.448   7.980 -0.4020  0.1183  0.2209
 8610SOL     OW37462   2.287   3.334   6.360  0.7448  0.1829  0.2791
 8610SOL    HW137463   2.382   3.321   6.355  0.7029 -0.5130  1.2631
 8610SOL    HW237464   2.263   3.423   6.385  2.1531  1.2150 -2.0064
 8611SOL     OW37465   4.556   4.696   8.507 -0.6142 -0.1262 -0.4760
 8611SOL    HW137466   4.513   0.022   8.563  0.5024  0.4447 -0.2595
 8611SOL    HW237467   4.536   4.622   8.564  1.5228  1.3278  2.1922
 8612SOL     OW37468   4.247   3.332   2.879  0.1453 -0.2947  0.6552
 8612SOL    HW137469   4.256   3.385   2.959  0.6097  0.6080  0.0089
 8612SOL    HW237470   4.181   3.268   2.905 -0.3239  0.7366  2.0529
 8613SOL     OW37471   0.322   0.366  11.284 -0.0117  0.3087 -0.0831
 8613SOL    HW137472   0.300   0.275  11.300  0.9212  0.1189  0.1442
 8613SOL    HW237473   0.307   0.401  11.372 -2.5530  1.5746 -1.0388
 8614SOL     OW37474   0.744   1.848   1.420 -0.0761  0.3143  0.6181
 8614SOL    HW137475   0.730   1.768   1.369  2.2140 -1.0872  2.1379
 8614SOL    HW237476   0.674   1.846   1.485 -0.0872 -2.5187  0.5350
 8615SOL     OW37477   2.816   4.476   7.122  0.5397 -0.0318  0.3972
 8615SOL    HW137478   2.889   4.533   7.098  1.3121 -0.9895  0.4975
 8615SOL    HW237479   2.798   4.507   7.210  1.6742 -0.7238  0.8729
 8616SOL     OW37480   0.065   3.658  14.734 -0.0829  0.2765  0.3212
 8616SOL    HW137481   4.714   3.690  14.744 -0.5731 -1.3504  1.1890
 8616SOL    HW237482   0.054   3.564  14.721 -1.0921  0.6579 -1.5689
 8617SOL     OW37483   1.772   3.628   8.104  0.4711  0.4226 -0.0430
 8617SOL    HW137484   1.748   3.645   8.195  0.7737  1.5167 -0.1759
 8617SOL    HW237485   1.686   3.600   8.072  0.3248 -0.0907  0.7952
 8618SOL     OW37486   3.216   3.910  10.250  0.7176 -0.2185  0.2190
 8618SOL    HW137487   3.266   3.931  10.329  1.8335  0.3470 -0.6365
 8618SOL    HW237488   3.206   3.998  10.215 -2.8355 -0.6853  0.0546
 8619SOL     OW37489   0.085   0.779  12.089 -0.3712  0.2239  0.1137
 8619SOL    HW137490   0.150   0.717  12.056  1.0790  1.1565  1.2071
 8619SOL    HW237491   0.021   0.766  12.019  0.9864 -0.9223 -0.9010
 8620SOL     OW37492   3.812   0.950   6.682 -0.6256  0.1342 -0.4178
 8620SOL    HW137493   3.875   1.016   6.712 -2.2477  0.7734  1.5144
 8620SOL    HW237494   3.862   0.869   6.672  1.5042  1.4632 -0.6413
 8621SOL     OW37495   4.434   4.732   3.863  0.0793 -0.1019  0.0141
 8621SOL    HW137496   4.393   4.715   3.948  0.5662 -3.2457 -0.3550
 8621SOL    HW237497   4.510   4.674   3.867  0.0956 -0.1610 -1.2087
 8622SOL     OW37498   4.198   0.361   9.895 -0.3912 -0.2654  0.0255
 8622SOL    HW137499   4.162   0.341   9.809 -1.4659 -2.3669  0.9661
 8622SOL    HW237500   4.118   0.350   9.947 -1.1338  1.2525 -0.7925
 8623SOL     OW37501   1.922   2.807   2.318 -0.1964 -0.3559 -0.4586
 8623SOL    HW137502   1.938   2.771   2.405  0.8335 -2.7118 -1.6503
 8623SOL    HW237503   1.962   2.893   2.332 -1.2123  0.3059 -1.5886
 8624SOL     OW37504   3.274   0.339  13.094  0.3138  0.1171  0.5004
 8624SOL    HW137505   3.279   0.377  13.006  0.4046  1.2276  0.9902
 8624SOL    HW237506   3.215   0.401  13.135 -1.6831 -1.9492  0.7554
 8625SOL     OW37507   4.590   3.907   8.371  0.2163  0.0586 -0.0324
 8625SOL    HW137508   4.642   3.987   8.364 -1.5036  1.1820 -0.1169
 8625SOL    HW237509   4.661   3.844   8.365 -0.7587 -1.1209  0.6575
 8626SOL     OW37510   4.417   0.127  12.186 -0.5013  0.0485 -0.1512
 8626SOL    HW137511   4.488   0.115  12.249 -0.0858  3.6417  0.0605
 8626SOL    HW237512   4.456   0.157  12.104  0.7238 -1.0650  0.0407
 8627SOL     OW37513   1.608   1.663   4.747 -0.7513  0.3755  0.3038
 8627SOL    HW137514   1.678   1.690   4.807  0.8577 -1.0310 -0.9402
 8627SOL    HW237515   1.551   1.620   4.810 -1.0766  0.5406  0.1234
 8628SOL     OW37516   0.297   1.483   3.895  0.0130 -0.4983 -0.0589
 8628SOL    HW137517   0.220   1.466   3.948 -0.2456  0.0902 -0.2511
 8628SOL    HW237518   0.250   1.500   3.813 -0.6967  1.0617  0.6765
 8629SOL     OW37519   1.667   4.604   3.695  0.3858 -0.4849 -0.3272
 8629SOL    HW137520   1.648   4.662   3.768 -0.6578 -1.6585  0.3397
 8629SOL    HW237521   1.762   4.595   3.690  0.3675  0.4556 -2.4705
 8630SOL     OW37522   0.324   3.716  14.679 -0.3937  0.2026  0.0569
 8630SOL    HW137523   0.230   3.727  14.689 -0.3263 -0.3516  1.2261
 8630SOL    HW237524   0.349   3.809  14.676  0.4656  0.0566  2.4659
 8631SOL     OW37525   0.535   1.100   6.036  0.7819  0.0174  0.0161
 8631SOL    HW137526   0.493   1.179   6.069  1.5799  1.1299 -1.6861
 8631SOL    HW237527   0.606   1.142   5.989  1.7814 -2.4771 -0.6843
 8632SOL     OW37528   2.106   1.255   4.702  0.3996  0.3073 -0.5484
 8632SOL    HW137529   2.050   1.331   4.688 -0.6973  0.1622  3.1191
 8632SOL    HW237530   2.190   1.293   4.677 -0.8082  4.2450  1.3663
 8633SOL     OW37531   0.135   2.773  16.573 -0.7529  0.1466 -0.8379
 8633SOL    HW137532   0.095   2.687  16.585 -0.1419 -0.1064 -0.6137
 8633SOL    HW237533   0.116   2.806  16.661  1.3912 -1.0588  0.0863
 8634SOL     OW37534   4.625   1.182   8.660  0.6853 -0.4327 -0.0619
 8634SOL    HW137535   4.534   1.193   8.634  0.4344  0.0350  1.0101
 8634SOL    HW237536   4.617   1.101   8.711  2.8938 -1.1737 -0.8981
 8635SOL     OW37537   4.495   3.965   9.372 -0.0018  0.5150 -0.2471
 8635SOL    HW137538   4.546   4.019   9.432 -1.5532  1.7808 -0.0771
 8635SOL    HW237539   4.464   4.026   9.305 -2.1840  1.2012  1.4155
 8636SOL     OW37540   0.430   2.770   2.624  0.1943  0.0897 -0.0716
 8636SOL    HW137541   0.415   2.864   2.611  1.6138  0.3950  0.5788
 8636SOL    HW237542   0.379   2.759   2.704  0.2648 -0.6495 -0.1244
 8637SOL     OW37543   2.399   2.686   3.135  0.2751  0.4233  0.0499
 8637SOL    HW137544   2.425   2.731   3.215 -1.5714  1.5250  0.0213
 8637SOL    HW237545   2.470   2.621   3.135 -0.1201 -0.0098  0.4543
 8638SOL     OW37546   2.291   4.729   1.750 -0.2461 -0.3663 -0.3830
 8638SOL    HW137547   2.231   0.035   1.810  0.3021 -1.2415  0.8059
 8638SOL    HW237548   2.266   0.023   1.663  1.1800  0.7999 -0.3681
 8639SOL     OW37549   4.227   3.743   3.143 -0.1570 -0.5183 -0.9131
 8639SOL    HW137550   4.309   3.792   3.142 -0.7474  0.4916  1.5280
 8639SOL    HW237551   4.170   3.786   3.207 -1.3749 -1.0464 -1.6250
 8640SOL     OW37552   0.806   0.860  11.277  0.5192  0.0840  0.7377
 8640SOL    HW137553   0.783   0.870  11.369  0.1231  4.8829  0.1122
 8640SOL    HW237554   0.729   0.814  11.244 -0.1061  0.8957  1.0792
 8641SOL     OW37555   4.352   1.612  16.043 -0.6035 -0.3892  0.2646
 8641SOL    HW137556   4.397   1.652  15.968 -2.4333 -1.3367 -1.3675
 8641SOL    HW237557   4.408   1.535  16.056  0.8474  0.8247  1.1525
 8642SOL     OW37558   1.804   0.189   8.503  0.2559 -0.5150  0.9855
 8642SOL    HW137559   1.874   0.244   8.470  0.4533 -0.4844  1.4548
 8642SOL    HW237560   1.834   0.182   8.593  1.2441 -2.2889  0.4977
 8643SOL     OW37561   3.611   0.848  12.269 -0.3036  0.1019  0.8538
 8643SOL    HW137562   3.628   0.855  12.175  0.5983  3.4807  1.2584
 8643SOL    HW237563   3.675   0.910  12.304  0.0993 -0.0257  0.3490
 8644SOL     OW37564   0.390   4.423   9.218 -0.0878  0.2964 -0.0727
 8644SOL    HW137565   0.375   4.369   9.296 -0.6644  0.1091 -0.3126
 8644SOL    HW237566   0.380   4.509   9.258  1.5290  0.0162  0.9656
 8645SOL     OW37567   3.654   0.330   8.599  0.8454 -0.0505  0.0685
 8645SOL    HW137568   3.662   0.246   8.645  1.4397 -1.4109 -2.4770
 8645SOL    HW237569   3.565   0.319   8.565  1.0629  1.0838 -0.8668
 8646SOL     OW37570   3.178   4.587   0.347  0.2603 -0.0010  0.5640
 8646SOL    HW137571   3.174   4.645   0.271 -0.2176 -0.3786  0.3015
 8646SOL    HW237572   3.226   4.512   0.314 -0.6469  0.5655 -2.0015
 8647SOL     OW37573   4.071   2.272   5.245  0.4326  0.0684 -0.5499
 8647SOL    HW137574   4.106   2.195   5.289 -0.2731 -0.3235 -0.6884
 8647SOL    HW237575   3.978   2.249   5.250  0.2835  0.3012 -2.2045
 8648SOL     OW37576   2.408   0.338   3.230 -0.4280 -0.4114  0.1235
 8648SOL    HW137577   2.388   0.406   3.166  0.5918 -0.6536 -0.4561
 8648SOL    HW237578   2.391   0.384   3.312 -0.5333 -0.4556  0.1260
 8649SOL     OW37579   3.073   3.896   4.683  0.0309  0.4436  0.3924
 8649SOL    HW137580   3.027   3.834   4.740 -0.1513  1.3169  1.2071
 8649SOL    HW237581   3.117   3.838   4.623  0.8831 -1.0164  2.4363
 8650SOL     OW37582   3.478   3.002   3.490  0.1296 -0.1303  0.0045
 8650SOL    HW137583   3.419   2.935   3.526 -0.6037  1.0925  1.0758
 8650SOL    HW237584   3.549   2.949   3.455  0.4827 -0.4546  1.2097
 8651SOL     OW37585   2.876   4.730   2.468 -0.2254  0.0228 -0.1080
 8651SOL    HW137586   2.834   0.049   2.403 -0.2697  2.1226  1.7989
 8651SOL    HW237587   2.826   0.022   2.544  1.6042  1.2194  0.6236
 8652SOL     OW37588   4.668   3.395   1.820 -0.0579  0.5804  0.4876
 8652SOL    HW137589   4.674   3.358   1.732 -0.1552  0.5199  0.5061
 8652SOL    HW237590   4.696   3.485   1.806  1.6492  0.0069  0.1946
 8653SOL     OW37591   4.550   4.160   6.535 -0.0597  0.7620  0.5703
 8653SOL    HW137592   4.622   4.096   6.530 -0.7012  0.0720  0.0938
 8653SOL    HW237593   4.572   4.225   6.469  1.1728 -1.2976 -1.0690
 8654SOL     OW37594   0.048   3.999   8.604 -0.6116  0.0762 -0.1018
 8654SOL    HW137595   0.120   3.998   8.541  0.5416  0.2466  1.2165
 8654SOL    HW237596   0.100   3.964   8.676 -1.4631 -1.1799 -0.0961
 8655SOL     OW37597   1.438   4.573   8.949  0.0418  0.1249  0.0156
 8655SOL    HW137598   1.531   4.589   8.930  0.3160 -1.1526  0.2801
 8655SOL    HW237599   1.424   4.634   9.021 -3.6934  0.3245 -0.8953
 8656SOL     OW37600   2.337   3.868   8.862  0.6033  0.6995  0.4925
 8656SOL    HW137601   2.394   3.846   8.936 -2.3977 -1.1784  2.2536
 8656SOL    HW237602   2.337   3.786   8.814 -1.6462  0.5985  0.6993
 8657SOL     OW37603   1.454   4.580   0.693 -0.5628 -0.2179 -0.4558
 8657SOL    HW137604   1.415   4.494   0.712  0.9696 -1.0126 -0.9470
 8657SOL    HW237605   1.514   4.594   0.766 -2.3672 -0.7593  1.1505
 8658SOL     OW37606   3.294   4.140  10.861 -0.0403 -0.1212  0.6006
 8658SOL    HW137607   3.329   4.079  10.796  0.0243  1.9137 -1.2826
 8658SOL    HW237608   3.283   4.219  10.808  0.1867 -0.1093  0.5711
 8659SOL     OW37609   1.587   1.972   7.571  0.6595  0.0132  0.5121
 8659SOL    HW137610   1.666   1.988   7.623  1.5618 -1.8668 -0.2806
 8659SOL    HW237611   1.623   1.952   7.485  1.5006  0.7938  0.6888
 8660SOL     OW37612   1.174   3.103   3.488 -0.8896 -0.3827  0.0459
 8660SOL    HW137613   1.148   3.034   3.550  1.2819 -0.3179  1.0475
 8660SOL    HW237614   1.085   3.131   3.467 -0.8053 -0.5907 -0.5708
 8661SOL     OW37615   0.990   2.820  12.848 -0.2893 -0.2884  1.1264
 8661SOL    HW137616   1.057   2.860  12.904  0.6370  0.3861 -0.4839
 8661SOL    HW237617   0.946   2.900  12.818 -1.1876 -0.9070  0.7744
 8662SOL     OW37618   4.629   1.728  15.963 -0.0475 -0.3042 -0.1609
 8662SOL    HW137619   4.684   1.795  16.004  0.1259 -1.6687  1.8104
 8662SOL    HW237620   4.557   1.781  15.928  2.3419  2.4806 -0.9236
 8663SOL     OW37621   3.017   4.253   8.803 -0.4080  0.3758  0.0186
 8663SOL    HW137622   2.997   4.347   8.794 -0.8604  0.2720 -0.0448
 8663SOL    HW237623   2.955   4.224   8.869  1.2644  1.1525  1.9519
 8664SOL     OW37624   2.058   4.441   4.344  0.0491 -0.2688  0.4185
 8664SOL    HW137625   1.984   4.396   4.303  1.3335 -1.0615 -1.0509
 8664SOL    HW237626   2.080   4.506   4.277  1.0288  0.4728  1.4577
 8665SOL     OW37627   1.533   0.516  11.032  0.2492  0.1070 -0.2372
 8665SOL    HW137628   1.570   0.437  10.992 -0.4818 -0.7165  0.7354
 8665SOL    HW237629   1.500   0.566  10.957  2.3489  0.3173 -1.0331
 8666SOL     OW37630   0.728   3.143   3.028  0.5008  0.2071 -0.4222
 8666SOL    HW137631   0.821   3.120   3.029 -0.2085 -2.7215 -1.0617
 8666SOL    HW237632   0.698   3.072   2.970 -0.5733  0.3271 -0.0167
 8667SOL     OW37633   1.169   2.574   3.902 -0.9286  0.1139 -0.2076
 8667SOL    HW137634   1.143   2.574   3.994  0.4410 -3.6640  0.2149
 8667SOL    HW237635   1.219   2.655   3.896 -0.2315 -0.2026  1.3474
 8668SOL     OW37636   4.445   3.090   1.514 -0.6588  0.1626  0.0835
 8668SOL    HW137637   4.412   3.143   1.587  2.6468  1.7465  0.4474
 8668SOL    HW237638   4.493   3.017   1.553  0.6373  0.5325 -0.8182
 8669SOL     OW37639   4.335   1.909   6.576 -0.0753 -0.0457 -0.0348
 8669SOL    HW137640   4.416   1.959   6.563 -0.1874  0.5908  1.7763
 8669SOL    HW237641   4.363   1.825   6.611 -0.6010 -0.8098 -1.4443
 8670SOL     OW37642   1.610   4.175   3.130 -0.9084 -0.4177 -0.0253
 8670SOL    HW137643   1.581   4.166   3.039  0.9864  0.0020 -0.6696
 8670SOL    HW237644   1.540   4.231   3.163 -0.1975 -0.5360  1.6937
 8671SOL     OW37645   1.787   4.420   3.307 -0.2569  0.0782 -0.3386
 8671SOL    HW137646   1.858   4.404   3.369 -0.5671 -0.2766 -0.0794
 8671SOL    HW237647   1.777   4.332   3.270 -0.4903  0.7168 -1.8001
 8672SOL     OW37648   3.151   4.138   2.422 -0.4145 -0.5256 -0.3611
 8672SOL    HW137649   3.145   4.231   2.446  0.1257 -0.1442 -1.7049
 8672SOL    HW237650   3.216   4.104   2.483  0.7641  3.5830  0.7147
 8673SOL     OW37651   1.611   1.217   6.029 -0.2266 -0.3906 -0.4532
 8673SOL    HW137652   1.637   1.281   6.095  2.5265  0.1416 -2.0688
 8673SOL    HW237653   1.677   1.227   5.960 -0.0425  1.7832  0.0316
 8674SOL     OW37654   4.024   2.372   3.720  0.4755  0.3126  0.2074
 8674SOL    HW137655   3.941   2.336   3.689  1.7830 -0.9456 -1.8161
 8674SOL    HW237656   4.040   2.447   3.663 -0.4827  0.0660 -0.3807
 8675SOL     OW37657   0.275   1.760   3.413  0.7944  0.9466  0.1680
 8675SOL    HW137658   0.334   1.758   3.338  0.3475  0.0410 -0.1527
 8675SOL    HW237659   0.204   1.811   3.374  0.0600 -0.2352 -0.0373
 8676SOL     OW37660   0.575   3.604  15.981 -0.1668  0.3197  0.2875
 8676SOL    HW137661   0.484   3.605  15.949 -0.2942  1.3554  0.7068
 8676SOL    HW237662   0.583   3.514  16.013  0.5036  1.0148  2.0720
 8677SOL     OW37663   0.725   1.208   5.914  0.7759 -0.1879 -0.0196
 8677SOL    HW137664   0.706   1.213   5.820 -0.3288 -1.8077  0.1218
 8677SOL    HW237665   0.812   1.170   5.921 -0.4282 -3.0381 -0.4220
 8678SOL     OW37666   1.556   3.522   5.294  0.2782  0.0765  0.8596
 8678SOL    HW137667   1.616   3.596   5.296  0.0261  0.3416 -2.1497
 8678SOL    HW237668   1.476   3.574   5.301 -0.8953 -1.8031  1.3332
 8679SOL     OW37669   4.188   4.681  17.270  0.4171 -0.4720  0.0216
 8679SOL    HW137670   4.219   0.031  17.248 -1.6419  0.4788  0.8418
 8679SOL    HW237671   4.263   4.661  17.326 -0.5486 -0.4411  1.3346
 8680SOL     OW37672   3.636   2.444   0.794  0.1715  0.2288 -0.3260
 8680SOL    HW137673   3.681   2.373   0.748 -1.0808 -0.6781 -0.1338
 8680SOL    HW237674   3.588   2.493   0.727  1.1083 -0.5087 -1.5341
 8681SOL     OW37675   0.556   2.362   3.331  0.2974  0.5907  0.0603
 8681SOL    HW137676   0.616   2.294   3.362  0.8308  1.0704  0.0762
 8681SOL    HW237677   0.537   2.402   3.416  0.5110 -2.6148  1.6084
 8682SOL     OW37678   4.158   4.654   4.319  0.0988 -0.3260  0.0968
 8682SOL    HW137679   4.079   4.689   4.360  0.6546  0.4900  0.4653
 8682SOL    HW237680   4.158   4.562   4.348 -1.2439  0.0147  1.1849
 8683SOL     OW37681   0.134   2.023   5.318 -0.4123  0.2190  0.2960
 8683SOL    HW137682   0.217   1.981   5.298 -0.2943  1.2981 -1.4416
 8683SOL    HW237683   0.079   1.987   5.248 -2.2816  1.0257  1.3512
 8684SOL     OW37684   0.710   3.647   2.589 -0.1683 -0.2818  0.3954
 8684SOL    HW137685   0.748   3.676   2.672  0.6234 -1.2412  0.3710
 8684SOL    HW237686   0.655   3.720   2.563 -0.4082 -1.4833 -2.4890
 8685SOL     OW37687   3.256   1.717   0.568  0.5399  0.0142 -0.3032
 8685SOL    HW137688   3.168   1.755   0.564  0.0161 -0.9708  1.8751
 8685SOL    HW237689   3.265   1.699   0.662  1.8558  1.5217 -0.1445
 8686SOL     OW37690   0.332   0.383   2.594  0.2719  0.0659 -0.5031
 8686SOL    HW137691   0.423   0.409   2.610  0.7452 -1.1325 -1.2176
 8686SOL    HW237692   0.350   0.313   2.531 -1.8677 -0.6575 -0.3089
 8687SOL     OW37693   1.116   1.926   4.868  0.7586 -0.1903 -0.4283
 8687SOL    HW137694   1.083   1.837   4.853  2.1436 -0.9631  1.0982
 8687SOL    HW237695   1.055   1.981   4.820  0.1675  0.2554  0.8328
 8688SOL     OW37696   3.763   0.781   7.596  0.9099 -0.8276 -0.1044
 8688SOL    HW137697   3.750   0.687   7.608 -1.2689 -0.1391  2.9009
 8688SOL    HW237698   3.736   0.806   7.508 -1.3791  1.2868  1.2010
 8689SOL     OW37699   2.991   3.672   0.254  0.6410  0.1020  0.4793
 8689SOL    HW137700   2.997   3.688   0.348  1.3984  0.5269  0.3615
 8689SOL    HW237701   2.967   3.580   0.265  0.5416  0.0308 -0.3429
 8690SOL     OW37702   4.626   3.975  15.406  0.3415 -0.1879 -0.4132
 8690SOL    HW137703   4.704   4.023  15.379  0.8197 -0.6525  0.1451
 8690SOL    HW237704   4.586   4.024  15.478  0.1599 -2.1201  0.7976
 8691SOL     OW37705   4.516   4.133  15.611 -0.3874  0.0422  0.5183
 8691SOL    HW137706   4.498   4.199  15.544  1.5095 -0.0299 -0.0707
 8691SOL    HW237707   4.470   4.172  15.685 -0.6341 -1.2124  1.0250
 8692SOL     OW37708   2.481   3.516   6.698 -0.2747 -0.1366  0.0246
 8692SOL    HW137709   2.522   3.433   6.722 -0.3805 -0.8892 -2.4284
 8692SOL    HW237710   2.430   3.528   6.779  0.6889  1.0044  0.4585
 8693SOL     OW37711   3.071   2.812   2.601  0.0165  0.0115  0.7799
 8693SOL    HW137712   3.010   2.871   2.645  1.8908  2.1445  0.5432
 8693SOL    HW237713   3.130   2.816   2.676 -2.9548 -0.6440  3.1227
 8694SOL     OW37714   2.607   4.714   3.482  0.3449 -0.0634  0.3266
 8694SOL    HW137715   2.565   4.686   3.401  0.9432 -2.4011  0.8277
 8694SOL    HW237716   2.589   0.071   3.481 -1.5075 -0.3817  2.7583
 8695SOL     OW37717   0.100   3.632  13.701  0.6927  0.0141 -0.5167
 8695SOL    HW137718   0.107   3.578  13.622  0.2213 -1.7675  0.6575
 8695SOL    HW237719   0.057   3.572  13.761  0.5494  2.2275  1.5856
 8696SOL     OW37720   3.442   4.422   7.215 -0.6255 -0.1178  0.3687
 8696SOL    HW137721   3.387   4.443   7.140 -0.4616 -1.3278 -0.0806
 8696SOL    HW237722   3.451   4.507   7.259 -0.5239  0.4162 -0.6817
 8697SOL     OW37723   4.718   0.553   6.867 -0.0968 -0.4929  0.2939
 8697SOL    HW137724   4.735   0.474   6.816 -0.5272 -0.1449 -0.3947
 8697SOL    HW237725   4.705   0.511   6.952 -0.6013  0.8197  0.8616
 8698SOL     OW37726   3.055   4.042   2.753  0.0374  0.1346 -0.2426
 8698SOL    HW137727   3.055   3.977   2.824 -1.7956  0.3276 -0.0534
 8698SOL    HW237728   3.137   4.089   2.769 -0.7434  0.8369  1.6799
 8699SOL     OW37729   0.792   0.836   8.775 -0.0996  0.7969  0.0378
 8699SOL    HW137730   0.860   0.862   8.837  0.2224 -1.3791  0.5901
 8699SOL    HW237731   0.835   0.807   8.694 -0.2142  0.9413 -0.0762
 8700SOL     OW37732   3.405   3.912  16.819 -0.1641 -0.1401  0.1097
 8700SOL    HW137733   3.444   3.940  16.737 -3.3949 -1.8616 -1.9948
 8700SOL    HW237734   3.337   3.855  16.783 -1.3403  0.8213  0.7985
 8701SOL     OW37735   3.517   2.114   2.270 -0.1405 -0.1294 -0.1762
 8701SOL    HW137736   3.425   2.090   2.255  0.3731 -3.5208  2.0489
 8701SOL    HW237737   3.525   2.092   2.363  0.6259 -1.5516 -0.5906
 8702SOL     OW37738   3.807   4.170   9.856 -0.0686  0.3099 -0.0960
 8702SOL    HW137739   3.853   4.249   9.885 -0.5706 -0.5093  2.9584
 8702SOL    HW237740   3.719   4.204   9.868 -0.2267 -0.7061  1.7129
 8703SOL     OW37741   1.401   2.593  17.571 -0.6158  0.2992  0.4093
 8703SOL    HW137742   1.475   2.652  17.588 -0.8986  0.5280  0.8764
 8703SOL    HW237743   1.382   2.570  17.662  2.9551 -0.1378  1.0475
 8704SOL     OW37744   2.632   4.410   3.807  0.2823 -0.1585 -0.0837
 8704SOL    HW137745   2.580   4.454   3.740 -0.4277 -2.8200 -1.2911
 8704SOL    HW237746   2.561   4.356   3.843  0.3186  0.0598  0.3184
 8705SOL     OW37747   1.367   1.002   8.594 -0.1142  0.1114  0.3144
 8705SOL    HW137748   1.314   1.039   8.664  0.5975  1.0420  0.3648
 8705SOL    HW237749   1.317   0.924   8.571  1.5232 -1.3303  1.6285
 8706SOL     OW37750   3.112   2.508   4.014  0.0641  0.4411  0.3261
 8706SOL    HW137751   3.126   2.426   4.062 -0.1536  1.0423  1.4079
 8706SOL    HW237752   3.070   2.559   4.083 -0.7723  1.2243 -0.7637
 8707SOL     OW37753   4.027   3.084   3.328  0.0254  0.4516  0.1325
 8707SOL    HW137754   4.022   3.003   3.277  2.9791  0.4362 -0.1537
 8707SOL    HW237755   4.109   3.116   3.288 -0.3531  1.5419  0.2494
 8708SOL     OW37756   0.782   2.839   3.361 -0.0407  0.1150 -0.2039
 8708SOL    HW137757   0.794   2.748   3.335 -0.4601  0.4951 -1.7331
 8708SOL    HW237758   0.742   2.816   3.445  0.8983 -2.8304 -0.5494
 8709SOL     OW37759   4.325   2.493   5.158 -0.4848  0.3804 -0.1222
 8709SOL    HW137760   4.368   2.414   5.126  2.7778  1.2892  2.0058
 8709SOL    HW237761   4.393   2.524   5.219 -1.1427 -1.9130  1.7777
 8710SOL     OW37762   1.702   3.702  17.231  0.3217 -0.0239 -0.7172
 8710SOL    HW137763   1.687   3.609  17.217  0.9220 -0.6002  2.5487
 8710SOL    HW237764   1.640   3.708  17.304  1.1653  0.7535 -0.0680
 8711SOL     OW37765   0.513   0.472   2.010  0.2984  0.3281  0.0480
 8711SOL    HW137766   0.456   0.538   1.970 -0.7664  1.2517  3.1014
 8711SOL    HW237767   0.458   0.396   2.030  0.7187 -0.1118 -0.4427
 8712SOL     OW37768   3.457   2.027   5.896 -0.6589 -0.4834 -0.0460
 8712SOL    HW137769   3.396   2.030   5.969 -1.1856  2.0898 -0.5748
 8712SOL    HW237770   3.491   2.116   5.884 -0.9500  0.0474  2.9809
 8713SOL     OW37771   3.090   0.589   8.982  0.2763 -0.9485 -0.0889
 8713SOL    HW137772   3.052   0.649   8.917  0.7130 -0.3487  0.2148
 8713SOL    HW237773   3.011   0.576   9.034  2.1130  1.6636  3.3441
 8714SOL     OW37774   0.193   2.461   8.644  0.3229  0.2833 -0.2296
 8714SOL    HW137775   0.242   2.419   8.573  0.6946  2.1799 -1.0979
 8714SOL    HW237776   0.184   2.549   8.608 -1.6522  1.1496  2.4160
 8715SOL     OW37777   4.514   3.650   3.053 -0.7239  0.0782  0.1115
 8715SOL    HW137778   4.532   3.568   3.007  1.3021  0.9948 -0.7206
 8715SOL    HW237779   4.578   3.705   3.009 -1.2685  0.0776 -0.6897
 8716SOL     OW37780   2.015   1.080   8.648  0.0919  0.1296 -0.1767
 8716SOL    HW137781   1.933   1.103   8.605 -1.0093  0.1979  1.9393
 8716SOL    HW237782   1.982   1.012   8.707 -1.4191  1.4471  0.5083
 8717SOL     OW37783   3.516   1.735   0.284 -0.6604  0.3539 -0.7490
 8717SOL    HW137784   3.497   1.641   0.278 -1.9864  0.5939 -0.2259
 8717SOL    HW237785   3.532   1.761   0.193 -3.5147 -1.2113 -1.6992
 8718SOL     OW37786   3.422   3.689  14.121  0.5220  0.2886  0.4131
 8718SOL    HW137787   3.478   3.624  14.163  1.5147  1.2439  0.5496
 8718SOL    HW237788   3.337   3.654  14.149  0.7753 -0.9554 -0.3955
 8719SOL     OW37789   4.398   0.439   9.323  0.3188 -0.3730 -0.3618
 8719SOL    HW137790   4.394   0.412   9.415  0.4346 -1.0923 -0.5638
 8719SOL    HW237791   4.307   0.447   9.293 -0.9896 -2.2917  3.1336
 8720SOL     OW37792   2.032   3.044   8.426  0.2371  0.5282 -0.0785
 8720SOL    HW137793   2.106   3.061   8.484 -0.6073  1.8055  0.6234
 8720SOL    HW237794   2.032   3.126   8.378 -3.2880  0.1279 -0.7799
 8721SOL     OW37795   3.465   0.362   8.980  0.2502 -0.1213  0.2081
 8721SOL    HW137796   3.431   0.322   8.900  1.7081  2.7525 -1.8299
 8721SOL    HW237797   3.459   0.456   8.964 -2.7441 -0.0509  1.7831
 8722SOL     OW37798   3.974   0.510  14.701  0.1847 -0.0623 -0.0719
 8722SOL    HW137799   3.995   0.423  14.667  0.7648  0.3267 -0.7022
 8722SOL    HW237800   3.879   0.516  14.685  0.4849  1.6018 -1.2883
 8723SOL     OW37801   3.654   0.705   3.428  0.1502 -0.5360  0.2080
 8723SOL    HW137802   3.664   0.652   3.349  0.6463  1.8961 -1.3772
 8723SOL    HW237803   3.607   0.782   3.396  3.0227  0.3360 -1.9125
 8724SOL     OW37804   0.758   4.600  16.927  0.2036 -0.0580  0.2000
 8724SOL    HW137805   0.812   4.642  16.860 -0.1837  0.6155  0.3071
 8724SOL    HW237806   0.693   4.669  16.942 -0.9092 -1.3632  1.4089
 8725SOL     OW37807   4.296   4.639   1.179  0.6365  0.3242 -0.9018
 8725SOL    HW137808   4.331   4.570   1.235 -0.5387  2.3492  2.3096
 8725SOL    HW237809   4.373   4.663   1.128  1.0329 -0.5554 -0.7132
 8726SOL     OW37810   2.881   3.555  17.717 -0.0436 -0.1044  0.1221
 8726SOL    HW137811   2.861   3.635   0.016 -0.9454 -0.3110  0.1011
 8726SOL    HW237812   2.845   3.586  17.634 -1.6439 -1.1854  0.4040
 8727SOL     OW37813   2.545   2.751  12.678  0.5647 -0.3860 -0.1065
 8727SOL    HW137814   2.604   2.680  12.652 -0.2012 -1.6325  1.5873
 8727SOL    HW237815   2.476   2.746  12.611  0.4002 -3.3677  0.2688
 8728SOL     OW37816   3.727   3.522   4.812 -0.3672 -0.6089 -0.6654
 8728SOL    HW137817   3.795   3.463   4.780 -0.6775 -0.0421 -2.3612
 8728SOL    HW237818   3.779   3.567   4.878  0.0514  0.5531 -1.7685
 8729SOL     OW37819   4.118   1.642   0.580 -0.9048 -0.0033 -0.4807
 8729SOL    HW137820   4.192   1.593   0.614 -2.2008 -2.7104 -1.5877
 8729SOL    HW237821   4.157   1.686   0.505  0.9280 -0.2133  0.3434
 8730SOL     OW37822   0.628   2.673   6.245 -0.1192 -0.4990  0.6630
 8730SOL    HW137823   0.582   2.708   6.168 -0.1779  0.6767  1.2345
 8730SOL    HW237824   0.629   2.578   6.235 -0.4074 -0.1589 -2.5945
 8731SOL     OW37825   2.012   2.418   4.737 -0.3627 -0.0397 -0.6505
 8731SOL    HW137826   2.094   2.464   4.752 -1.0558  1.5502 -1.6087
 8731SOL    HW237827   1.961   2.477   4.793  2.3683  1.9559 -0.2522
 8732SOL     OW37828   3.875   3.787   9.238  0.0354 -0.3846 -0.2764
 8732SOL    HW137829   3.834   3.872   9.223  4.0914  1.4382 -1.0249
 8732SOL    HW237830   3.836   3.756   9.320  0.5091 -0.2288  0.0063
 8733SOL     OW37831   1.679   1.724  14.259 -0.4582  0.0408  0.5726
 8733SOL    HW137832   1.710   1.677  14.337  0.7096  0.3612  0.3099
 8733SOL    HW237833   1.585   1.718  14.270 -0.5247 -0.6551 -0.3705
 8734SOL     OW37834   0.620   3.264   5.051 -0.3068  0.2131 -0.0379
 8734SOL    HW137835   0.663   3.182   5.075  1.7495  1.5927  0.9308
 8734SOL    HW237836   0.681   3.321   5.097  0.2184 -0.7212  0.4302
 8735SOL     OW37837   4.098   4.125   2.610 -0.4836 -0.0566  0.9927
 8735SOL    HW137838   4.175   4.080   2.574 -0.2902  0.7880  0.3451
 8735SOL    HW237839   4.071   4.067   2.681 -5.0630 -1.1573 -1.5903
 8736SOL     OW37840   4.248   1.732   0.363 -0.0054 -0.0050  0.1507
 8736SOL    HW137841   4.203   1.724   0.279 -0.0982  0.0304  0.1978
 8736SOL    HW237842   4.330   1.775   0.335  0.9953 -2.9691 -1.4113
 8737SOL     OW37843   3.418   0.158  13.295  0.4853  0.1101 -0.2654
 8737SOL    HW137844   3.424   0.217  13.370 -0.8817  1.1631 -0.9661
 8737SOL    HW237845   3.385   0.218  13.228 -0.0694 -0.8622 -0.8597
 8738SOL     OW37846   2.177   2.152  14.724  0.6675 -0.5860 -0.8239
 8738SOL    HW137847   2.156   2.242  14.698  0.1430 -0.1551  1.0673
 8738SOL    HW237848   2.107   2.108  14.675 -0.5536 -0.3500  0.6971
 8739SOL     OW37849   3.572   2.027   1.712  0.0985 -0.2273  0.3793
 8739SOL    HW137850   3.557   2.120   1.693 -1.8497 -0.2425  1.9556
 8739SOL    HW237851   3.587   2.045   1.804  2.9430  0.7629 -0.2771
 8740SOL     OW37852   0.660   2.057   1.949 -0.1078  0.3628  0.7253
 8740SOL    HW137853   0.681   1.969   1.979 -1.0556 -0.3033 -0.6081
 8740SOL    HW237854   0.751   2.083   1.932 -0.3169  0.0668 -0.7826
 8741SOL     OW37855   0.497   2.529  10.353  0.4139  0.2728 -0.3862
 8741SOL    HW137856   0.484   2.605  10.297 -2.0072 -0.1715 -0.4058
 8741SOL    HW237857   0.589   2.542  10.377 -0.3432 -0.2262  2.8430
 8742SOL     OW37858   3.235   2.665   6.983 -0.5654  0.2928 -0.5060
 8742SOL    HW137859   3.209   2.757   6.987  1.2144  0.7818  0.0042
 8742SOL    HW237860   3.152   2.622   7.002 -0.3782  0.0621 -0.1990
 8743SOL     OW37861   3.794   1.811  12.399  0.6203 -0.9230  0.6291
 8743SOL    HW137862   3.861   1.764  12.349 -0.2279 -1.3570 -0.0949
 8743SOL    HW237863   3.719   1.808  12.339  0.9047  1.4788  0.1540
 8744SOL     OW37864   3.350   0.280  12.334  0.3372  0.1275 -0.4350
 8744SOL    HW137865   3.281   0.245  12.391  0.7073  1.8914  1.1262
 8744SOL    HW237866   3.304   0.343  12.280 -0.8396  0.3438  0.8119
 8745SOL     OW37867   1.027   0.329   7.165 -0.4753  0.2032 -0.1894
 8745SOL    HW137868   1.053   0.264   7.230  0.1632  0.3988 -0.2471
 8745SOL    HW237869   0.987   0.275   7.097  1.0632 -0.1966 -0.7750
 8746SOL     OW37870   2.136   2.423  10.899 -0.2443 -0.2165 -0.1331
 8746SOL    HW137871   2.121   2.428  10.993 -1.4949  2.8032 -0.4545
 8746SOL    HW237872   2.157   2.330  10.896 -1.4417 -0.4871 -0.3776
 8747SOL     OW37873   2.968   2.751   5.691  0.3052  0.0763  0.0727
 8747SOL    HW137874   2.953   2.738   5.785  0.8328  2.3615  0.4806
 8747SOL    HW237875   2.967   2.658   5.668  1.2838  0.4053 -1.2853
 8748SOL     OW37876   2.723   0.150   5.376 -0.4383  0.3219  0.1006
 8748SOL    HW137877   2.760   0.194   5.453  0.9531  0.3309 -0.5839
 8748SOL    HW237878   2.653   0.113   5.431 -0.3791  0.5128  0.3035
 8749SOL     OW37879   0.879   3.249   5.523  0.1401  0.5863  0.0040
 8749SOL    HW137880   0.834   3.333   5.515 -1.9986 -0.6262 -0.7391
 8749SOL    HW237881   0.846   3.214   5.606  1.3446  0.4524  0.4233
 8750SOL     OW37882   2.201   3.965   1.662  0.5607 -0.1412  0.0458
 8750SOL    HW137883   2.196   3.960   1.566 -0.9153  1.3274  0.0354
 8750SOL    HW237884   2.115   3.928   1.684  1.4769 -2.2422  0.0759
 8751SOL     OW37885   2.436   2.944   9.553  0.1502  0.1949 -0.5450
 8751SOL    HW137886   2.383   2.992   9.617 -0.7139  0.2995 -1.3490
 8751SOL    HW237887   2.366   2.925   9.491  0.5990 -1.5863 -0.4910
 8752SOL     OW37888   1.207   3.491   7.291 -0.4259 -0.2536 -0.5457
 8752SOL    HW137889   1.152   3.567   7.306  0.3724  0.0053  1.1437
 8752SOL    HW237890   1.205   3.479   7.196  2.3270 -1.4743 -0.4544
 8753SOL     OW37891   1.488   4.672  12.525  0.3581 -0.0217 -0.1004
 8753SOL    HW137892   1.520   0.006  12.471  1.4210 -0.8148 -0.5263
 8753SOL    HW237893   1.555   4.609  12.496  0.7518 -0.4324  1.6522
 8754SOL     OW37894   2.211   2.561  11.609  0.4522  0.4653 -0.0913
 8754SOL    HW137895   2.189   2.654  11.603 -0.5639  0.1954 -0.5688
 8754SOL    HW237896   2.195   2.541  11.702  0.2250  1.6757  0.1294
 8755SOL     OW37897   4.241   4.594   4.925 -0.4037  0.5316  0.1282
 8755SOL    HW137898   4.280   4.594   5.012 -0.1649  0.0888  0.0263
 8755SOL    HW237899   4.315   4.593   4.864 -1.3162 -1.0880 -0.9596
 8756SOL     OW37900   0.118   3.544   6.542  0.6260  0.2367  0.8426
 8756SOL    HW137901   0.095   3.603   6.614 -0.2702 -0.0104  0.7573
 8756SOL    HW237902   0.098   3.465   6.591 -1.4828  0.0364 -0.3473
 8757SOL     OW37903   0.935   1.372   5.291  0.3252  0.0092 -0.5205
 8757SOL    HW137904   0.962   1.310   5.223  0.5095  0.5912 -0.9844
 8757SOL    HW237905   0.983   1.342   5.368 -0.2358 -0.6619 -0.4304
 8758SOL     OW37906   3.225   2.464   4.572 -0.3064 -0.1856 -0.1709
 8758SOL    HW137907   3.291   2.440   4.637  0.1715  2.6068  0.4061
 8758SOL    HW237908   3.246   2.398   4.505 -0.1277 -1.0707  0.7631
 8759SOL     OW37909   3.606   3.041   0.078  0.1149  0.0099 -0.2783
 8759SOL    HW137910   3.639   2.956   0.109  0.9718 -0.1604 -1.6623
 8759SOL    HW237911   3.605   3.088   0.162 -1.5129 -1.1464  0.3626
 8760SOL     OW37912   1.133   3.755   3.468  0.2106 -0.2040 -0.0512
 8760SOL    HW137913   1.206   3.776   3.409  0.7826 -0.6748  0.4849
 8760SOL    HW237914   1.099   3.674   3.430  3.9119 -0.8889 -1.9646
 8761SOL     OW37915   3.663   4.005   7.099 -0.3136 -0.0978 -0.5160
 8761SOL    HW137916   3.648   4.037   7.010  0.8784 -1.7757 -1.3389
 8761SOL    HW237917   3.695   4.087   7.135 -2.0766  1.1719 -1.8855
 8762SOL     OW37918   0.142   3.418   5.289 -0.1330 -0.3389 -0.3401
 8762SOL    HW137919   0.108   3.479   5.223 -0.6314 -0.1031  0.1377
 8762SOL    HW237920   0.072   3.433   5.352  1.4644  0.8454  1.1700
 8763SOL     OW37921   4.145   3.664   5.995  0.0442  0.0349  0.3025
 8763SOL    HW137922   4.057   3.634   6.018  0.3369 -0.1470  1.1645
 8763SOL    HW237923   4.198   3.585   6.006  1.3725  0.8369 -0.4225
 8764SOL     OW37924   3.343   4.064  12.259 -0.1504 -0.5842 -0.2511
 8764SOL    HW137925   3.269   4.036  12.204 -1.0109  1.3968 -0.0985
 8764SOL    HW237926   3.416   4.083  12.200  0.7462  2.5605  1.8546
 8765SOL     OW37927   3.213   0.556   4.091 -0.6064 -0.2306  0.4960
 8765SOL    HW137928   3.214   0.537   4.185  1.0688 -0.3178  0.4588
 8765SOL    HW237929   3.298   0.599   4.081 -0.5224 -0.0029  2.1947
 8766SOL     OW37930   0.487   3.207   8.105  0.0194 -0.4176 -0.0310
 8766SOL    HW137931   0.503   3.138   8.170 -1.3346 -0.9662 -0.2592
 8766SOL    HW237932   0.458   3.267   8.173 -1.0645 -0.6198 -0.3014
 8767SOL     OW37933   2.227   0.850   3.408  0.4284  0.1571  0.7365
 8767SOL    HW137934   2.137   0.819   3.415  0.6908 -0.1616  2.9275
 8767SOL    HW237935   2.262   0.808   3.487  0.4759  0.9098  1.1212
 8768SOL     OW37936   3.873   0.573   1.985 -0.0415 -0.3881  0.5278
 8768SOL    HW137937   3.917   0.575   1.901  0.3701  0.6182  0.7679
 8768SOL    HW237938   3.897   0.664   2.005 -0.9007 -0.4944  2.0538
 8769SOL     OW37939   1.530   2.801   2.315 -0.0420 -0.2984  0.3377
 8769SOL    HW137940   1.478   2.733   2.358  1.1213  0.5722  3.1165
 8769SOL    HW237941   1.576   2.752   2.246  2.2263  1.6010  0.5082
 8770SOL     OW37942   3.763   2.654  14.098  0.1283  0.1823  1.0186
 8770SOL    HW137943   3.801   2.678  14.183  0.2102  2.7835  0.2718
 8770SOL    HW237944   3.826   2.700  14.042 -0.7479  0.0755 -0.0506
 8771SOL     OW37945   4.364   1.621  11.810 -0.3373  0.6946  0.6324
 8771SOL    HW137946   4.404   1.536  11.790  1.0932  1.0427  1.9676
 8771SOL    HW237947   4.431   1.680  11.775 -0.9268  1.2430  0.4226
 8772SOL     OW37948   1.006   3.538   2.637  0.8477 -0.0951  0.3876
 8772SOL    HW137949   0.946   3.546   2.563 -1.2521 -0.8195  2.0442
 8772SOL    HW237950   1.082   3.499   2.593 -0.4117 -0.1169 -1.7874
 8773SOL     OW37951   0.863   3.893  14.976  0.0985  0.1151 -0.3002
 8773SOL    HW137952   0.911   3.841  15.040 -0.1491 -0.4867 -0.5898
 8773SOL    HW237953   0.937   3.936  14.933  0.4926 -1.5141 -1.2967
 8774SOL     OW37954   3.896   1.351   9.202 -0.0633 -0.2613 -0.1965
 8774SOL    HW137955   3.820   1.370   9.147 -0.5863 -0.3221  0.5141
 8774SOL    HW237956   3.962   1.417   9.181 -0.8361  0.2387 -1.0423
 8775SOL     OW37957   2.680   3.904   2.431 -0.0963  0.5796  0.0399
 8775SOL    HW137958   2.674   3.949   2.346  3.0322 -1.8525 -1.4370
 8775SOL    HW237959   2.764   3.936   2.463  0.0473  1.2181 -0.9651
 8776SOL     OW37960   3.577   0.906   9.712 -1.1308 -0.2841  0.0619
 8776SOL    HW137961   3.583   0.886   9.806  1.3537  2.1858  0.4363
 8776SOL    HW237962   3.669   0.921   9.689 -1.4333  0.6741 -0.5033
 8777SOL     OW37963   1.588   0.309  10.672 -0.2421 -0.1990  0.0417
 8777SOL    HW137964   1.595   0.374  10.603  0.3357 -2.1183 -1.6879
 8777SOL    HW237965   1.681   0.302  10.694  0.3443 -0.1024 -2.5041
 8778SOL     OW37966   3.697   3.299   8.958  0.0098 -0.1612  0.0775
 8778SOL    HW137967   3.774   3.334   9.003  0.7360 -1.9516  0.2054
 8778SOL    HW237968   3.663   3.251   9.034 -0.7850 -0.5705 -0.5342
 8779SOL     OW37969   3.194   2.026   8.632  0.4203  0.5297 -0.0817
 8779SOL    HW137970   3.252   2.098   8.657  0.1269  0.0624  1.9707
 8779SOL    HW237971   3.252   1.951   8.619  0.0648  0.3342 -0.5256
 8780SOL     OW37972   1.966   0.173   8.743 -0.5434 -0.4349 -0.1619
 8780SOL    HW137973   2.033   0.194   8.678  0.0209  0.3661  0.6794
 8780SOL    HW237974   2.023   0.121   8.800  0.6130  1.0371  0.0218
 8781SOL     OW37975   2.864   3.128   4.052 -0.5277  0.1202  0.0194
 8781SOL    HW137976   2.823   3.203   4.096  0.2569  0.3212  0.4066
 8781SOL    HW237977   2.881   3.168   3.967  0.3240  0.7148  0.4632
 8782SOL     OW37978   2.405   1.491   5.796 -0.1538 -0.2649  0.0796
 8782SOL    HW137979   2.426   1.506   5.704 -1.9150 -1.7269 -0.5713
 8782SOL    HW237980   2.407   1.395   5.797 -0.2522 -0.2641  0.6984
 8783SOL     OW37981   1.634   0.806  10.452 -0.5982  0.0856 -0.0236
 8783SOL    HW137982   1.644   0.898  10.429 -0.0115 -0.1861 -0.8638
 8783SOL    HW237983   1.543   0.785  10.431 -0.5054 -2.0254  1.7361
 8784SOL     OW37984   1.914   1.165   6.002  0.4797  0.6062  0.4000
 8784SOL    HW137985   1.871   1.081   5.983 -0.3811  0.8415  1.3127
 8784SOL    HW237986   1.867   1.220   5.939  1.7600 -0.1743 -1.2332
 8785SOL     OW37987   0.742   0.470   6.783  1.1173 -0.3884  0.1595
 8785SOL    HW137988   0.818   0.466   6.724  0.5604  0.1273 -0.5833
 8785SOL    HW237989   0.730   0.376   6.797 -0.6510  0.1052  1.8979
 8786SOL     OW37990   1.302   0.290   1.491 -0.3521 -0.3410 -0.1402
 8786SOL    HW137991   1.224   0.310   1.440 -0.9720 -0.4348  0.7815
 8786SOL    HW237992   1.296   0.195   1.498  0.4482 -0.4649 -1.1214
 8787SOL     OW37993   0.233   1.615   5.278  0.0614 -0.0265  0.1360
 8787SOL    HW137994   0.286   1.543   5.243  2.0378  1.4049  0.2024
 8787SOL    HW237995   0.169   1.623   5.207  0.3568 -1.3226 -0.2798
 8788SOL     OW37996   0.009   1.354   4.398 -0.3299 -0.0641  1.0646
 8788SOL    HW137997   0.079   1.349   4.463  0.1177  2.5185  0.7786
 8788SOL    HW237998   0.002   1.449   4.383  2.3669 -0.1254 -0.6117
 8789SOL     OW37999   4.577   0.273   5.991 -0.6959 -0.1070 -0.6334
 8789SOL    HW138000   4.591   0.365   6.013  1.3478 -0.5500 -0.0578
 8789SOL    HW238001   4.662   0.241   5.959 -0.0990 -1.2016  2.0877
 8790SOL     OW38002   2.334   0.561   2.428  0.1203  0.3197 -0.5761
 8790SOL    HW138003   2.259   0.513   2.392  0.6770  0.4216 -1.8403
 8790SOL    HW238004   2.351   0.625   2.359  1.0344 -0.0471 -0.6883
 8791SOL     OW38005   0.178   1.226   5.407 -0.3244  0.0628  0.1141
 8791SOL    HW138006   0.143   1.278   5.479 -0.0237  1.3848 -0.6845
 8791SOL    HW238007   0.100   1.184   5.372 -0.2346 -0.5754  0.6804
 8792SOL     OW38008   2.850   1.040   1.737  0.1340 -0.1086  0.0107
 8792SOL    HW138009   2.817   0.997   1.815 -1.0252 -0.3551 -0.6221
 8792SOL    HW238010   2.771   1.087   1.710 -1.3410 -1.7566  1.4582
 8793SOL     OW38011   4.199   2.220   9.085 -0.1072  0.2056 -0.3636
 8793SOL    HW138012   4.228   2.192   8.999 -0.4331 -0.6346 -0.1938
 8793SOL    HW238013   4.156   2.304   9.066  2.3968  1.7264  0.7418
 8794SOL     OW38014   1.207   4.400   2.307 -0.4367 -0.2479 -0.2055
 8794SOL    HW138015   1.214   4.332   2.240  0.3080  0.2130 -0.6053
 8794SOL    HW238016   1.134   4.449   2.270 -1.2189 -0.4345  1.0918
 8795SOL     OW38017   3.530   0.600   7.961 -0.7455  0.4644 -0.5132
 8795SOL    HW138018   3.549   0.693   7.956 -2.0244  0.8131  1.1631
 8795SOL    HW238019   3.457   0.589   8.021  0.4964  1.5181  1.1881
 8796SOL     OW38020   3.589   2.705  17.358 -0.2429  0.1289  0.1743
 8796SOL    HW138021   3.591   2.770  17.428  0.8703 -1.1647  1.3546
 8796SOL    HW238022   3.496   2.692  17.342  0.2628 -2.1438 -0.8631
 8797SOL     OW38023   3.326   2.433   2.873  0.2154  1.0614 -0.2963
 8797SOL    HW138024   3.278   2.497   2.820  1.0386  0.7966 -1.3529
 8797SOL    HW238025   3.292   2.459   2.959  1.5913 -1.0479  0.8899
 8798SOL     OW38026   1.662   2.870   3.224 -0.4175  0.2327 -0.2588
 8798SOL    HW138027   1.623   2.839   3.305 -2.0537  0.5079 -0.9425
 8798SOL    HW238028   1.625   2.808   3.161 -0.1343 -0.4474  0.2447
 8799SOL     OW38029   0.096   4.526  11.155 -0.1773  0.2779  0.0766
 8799SOL    HW138030   0.155   4.454  11.176  0.8408  0.7656 -1.1296
 8799SOL    HW238031   0.148   4.604  11.173  3.2049 -1.8479 -0.6773
 8800SOL     OW38032   1.659   0.246   5.992 -0.0579 -0.2659  0.1998
 8800SOL    HW138033   1.567   0.272   5.992 -0.0066 -0.0903 -1.6870
 8800SOL    HW238034   1.681   0.207   5.908 -1.3316  0.9153 -0.6652
 8801SOL     OW38035   2.723   3.651   8.366 -0.5097 -0.0402  0.7009
 8801SOL    HW138036   2.735   3.717   8.434 -0.3849  0.1632  0.4807
 8801SOL    HW238037   2.751   3.691   8.284  0.4121 -1.0206  0.5396
 8802SOL     OW38038   1.446   0.799  17.227  0.5406 -0.1654  0.0407
 8802SOL    HW138039   1.392   0.743  17.283  0.5742  0.9812  1.2113
 8802SOL    HW238040   1.451   0.738  17.153 -0.1127  0.1337 -0.2441
 8803SOL     OW38041   0.101   1.351   9.223  0.2804  0.2496 -0.2747
 8803SOL    HW138042   0.052   1.379   9.300  2.0870  3.6546 -0.3699
 8803SOL    HW238043   0.055   1.402   9.156  1.7216  0.2943 -1.2474
 8804SOL     OW38044   4.401   1.521  10.411 -0.0894 -0.5963 -0.7799
 8804SOL    HW138045   4.409   1.442  10.465 -0.8101 -0.3752 -0.3413
 8804SOL    HW238046   4.471   1.561  10.463 -1.3330 -1.0359  1.2491
 8805SOL     OW38047   4.231   4.730   2.807  0.7983  0.0513 -0.2600
 8805SOL    HW138048   4.186   4.686   2.879 -0.9159 -1.2998 -2.1794
 8805SOL    HW238049   4.165   0.059   2.789 -0.3830 -1.1332 -0.2902
 8806SOL     OW38050   3.023   0.890   7.055  0.4792  0.2484  0.0632
 8806SOL    HW138051   3.115   0.864   7.054 -0.0899 -1.6539 -1.3185
 8806SOL    HW238052   2.979   0.805   7.047  1.2299 -0.1347  0.0474
 8807SOL     OW38053   1.317   3.679  10.686  0.1192 -0.2453 -0.5376
 8807SOL    HW138054   1.309   3.595  10.730 -0.5011  0.2605  0.3186
 8807SOL    HW238055   1.337   3.646  10.598 -1.2093 -0.0889 -0.9032
 8808SOL     OW38056   1.238   1.773   1.757 -0.4234  0.2294 -0.4462
 8808SOL    HW138057   1.230   1.697   1.815  1.0770  0.7967  0.4966
 8808SOL    HW238058   1.331   1.795   1.750 -0.3530 -0.1201 -0.6151
 8809SOL     OW38059   1.776   1.304  14.562  0.1685  0.2799  0.2194
 8809SOL    HW138060   1.752   1.313  14.654  1.0348  2.8581  0.2027
 8809SOL    HW238061   1.719   1.230  14.542 -1.2945  1.5952 -0.5311
 8810SOL     OW38062   4.183   3.785   4.222  0.8764 -0.2093 -0.2319
 8810SOL    HW138063   4.160   3.858   4.281  1.6147  0.6993 -1.0737
 8810SOL    HW238064   4.179   3.716   4.289  0.3348 -0.3366 -0.3939
 8811SOL     OW38065   4.689   0.538   7.871  0.5456  0.3082 -0.5753
 8811SOL    HW138066   4.675   0.631   7.857  1.4833  0.7659  1.5040
 8811SOL    HW238067   4.658   0.503   7.788  0.5497 -0.2638 -0.3369
 8812SOL     OW38068   0.567   2.640   3.235  0.2727 -0.2027 -0.6496
 8812SOL    HW138069   0.521   2.556   3.231 -0.6076  0.3026 -1.2771
 8812SOL    HW238070   0.656   2.605   3.241  0.8588  1.6893  2.1398
 8813SOL     OW38071   3.330   0.072   9.825  0.1369  0.4389  0.2155
 8813SOL    HW138072   3.360   4.732   9.778 -2.9509 -0.4578 -0.3001
 8813SOL    HW238073   3.305   0.036   9.910  0.1226  1.2264  0.5431
 8814SOL     OW38074   1.193   4.416   7.315 -0.4879  0.2006  0.0069
 8814SOL    HW138075   1.222   4.473   7.386  2.0728  1.4226 -1.9960
 8814SOL    HW238076   1.230   4.469   7.244 -1.5287  0.1978 -0.5305
 8815SOL     OW38077   2.262   0.072  13.168 -0.0827 -0.0584  0.7150
 8815SOL    HW138078   2.331   0.137  13.151  2.6074 -3.1502 -0.1350
 8815SOL    HW238079   2.186   0.122  13.137 -0.8142 -1.8740 -0.3997
 8816SOL     OW38080   3.385   0.120   1.694 -0.1417 -0.2963  0.3569
 8816SOL    HW138081   3.314   0.080   1.643  0.1935 -0.2463 -0.1444
 8816SOL    HW238082   3.345   0.127   1.781  1.1502 -0.8826  0.9984
 8817SOL     OW38083   0.306   4.515  14.652 -0.1309 -0.1461  0.0313
 8817SOL    HW138084   0.244   4.473  14.592  1.2259 -2.9100  0.5747
 8817SOL    HW238085   0.263   4.599  14.667  0.1401 -0.0293  0.1503
 8818SOL     OW38086   1.653   3.333   5.449  0.1248  0.0821  0.1230
 8818SOL    HW138087   1.735   3.363   5.489 -1.1335 -0.1700  2.9018
 8818SOL    HW238088   1.635   3.409   5.394 -2.3561 -1.2529 -0.9190
 8819SOL     OW38089   2.634   4.619   2.828  0.3817  0.3783  0.1589
 8819SOL    HW138090   2.589   4.635   2.745 -1.2215 -0.8220  0.8089
 8819SOL    HW238091   2.717   4.663   2.805  1.2689 -0.8829  0.9692
 8820SOL     OW38092   2.906   3.121  11.160 -0.3418  0.4762 -0.1513
 8820SOL    HW138093   2.995   3.133  11.127  0.9008 -1.9833  2.3514
 8820SOL    HW238094   2.917   3.048  11.220 -1.1976  0.2516 -0.2718
 8821SOL     OW38095   0.852   1.942  10.556  0.4193 -0.3308  0.4008
 8821SOL    HW138096   0.913   2.000  10.510 -0.6296  0.1777 -0.3464
 8821SOL    HW238097   0.878   1.957  10.646 -2.6280  0.2575  1.1744
 8822SOL     OW38098   4.489   0.302  16.417 -0.3142  0.3850  0.6397
 8822SOL    HW138099   4.535   0.262  16.491 -0.3381  1.2251  1.1089
 8822SOL    HW238100   4.398   0.302  16.448 -0.2642  1.7635  0.7823
 8823SOL     OW38101   1.668   4.051   9.003  0.3578  0.2027  0.0297
 8823SOL    HW138102   1.649   4.001   8.923  0.8103  1.5675 -0.9180
 8823SOL    HW238103   1.601   4.118   8.996 -0.4130 -0.4041  1.6713
 8824SOL     OW38104   3.961   0.109   9.420  0.8800  0.2423 -0.3314
 8824SOL    HW138105   3.886   0.168   9.422  1.1168  0.5428 -0.2749
 8824SOL    HW238106   3.941   0.039   9.482  0.7442  0.2680 -0.3474
 8825SOL     OW38107   2.959   0.884   8.763 -0.6455  0.0522 -0.1220
 8825SOL    HW138108   3.020   0.945   8.805 -3.6009  1.7585  1.6833
 8825SOL    HW238109   3.007   0.858   8.685 -0.4404 -0.7102  0.2590
 8826SOL     OW38110   2.287   1.448   3.718  0.1407  0.1683 -0.1840
 8826SOL    HW138111   2.200   1.449   3.758 -0.0036  3.4140 -0.5130
 8826SOL    HW238112   2.319   1.537   3.738  3.1133 -1.0531  0.4812
 8827SOL     OW38113   2.069   0.155   3.732  0.3496 -0.5070  0.4790
 8827SOL    HW138114   2.114   0.239   3.742 -2.3735  0.9698  0.1462
 8827SOL    HW238115   2.047   0.125   3.820 -0.5556  1.2981  0.8700
 8828SOL     OW38116   2.597   2.489   8.750 -0.3925 -0.1099 -0.0306
 8828SOL    HW138117   2.536   2.454   8.815 -0.7239  2.0934  0.8548
 8828SOL    HW238118   2.571   2.581   8.758 -0.9848 -0.1784 -1.1504
 8829SOL     OW38119   3.169   0.938  10.248  1.0058  0.4282  0.4384
 8829SOL    HW138120   3.234   0.902  10.188 -0.7053 -0.6180 -0.8040
 8829SOL    HW238121   3.103   0.868  10.250  0.6032  0.7935  0.1757
 8830SOL     OW38122   4.040   2.194   1.287 -0.1627  0.0985 -0.4510
 8830SOL    HW138123   3.965   2.246   1.261  0.9011  1.0128 -1.6900
 8830SOL    HW238124   4.001   2.107   1.297  0.5477 -0.1631  0.0527
 8831SOL     OW38125   0.229   3.004  12.845 -0.0522  0.5825  0.1261
 8831SOL    HW138126   0.323   3.019  12.855  0.1231  0.0699 -0.7444
 8831SOL    HW238127   0.230   2.943  12.772  0.3530  0.8198 -0.0685
 8832SOL     OW38128   1.840   3.974  17.199  0.0700  0.2232  0.6433
 8832SOL    HW138129   1.829   4.026  17.119  2.0785  0.5528  0.5766
 8832SOL    HW238130   1.763   3.917  17.197  1.1893 -1.3126  1.5306
 8833SOL     OW38131   0.021   3.160  17.645  0.3516  0.4887 -0.3710
 8833SOL    HW138132   0.052   3.248  17.626 -0.2317  1.0187  1.0852
 8833SOL    HW238133   0.037   3.113  17.563 -0.0172  0.1098 -0.2258
 8834SOL     OW38134   1.167   0.073   6.145 -0.6745 -0.4817  0.5890
 8834SOL    HW138135   1.208   0.019   6.078 -1.1549  0.8563 -0.7999
 8834SOL    HW238136   1.086   0.023   6.152 -0.7701 -0.3167  0.6550
 8835SOL     OW38137   0.624   3.153   2.738 -0.0816  0.0695  0.3192
 8835SOL    HW138138   0.657   3.204   2.665 -0.2131  0.3803  0.4762
 8835SOL    HW238139   0.549   3.111   2.694  0.6027 -1.3722  0.5290
 8836SOL     OW38140   0.156   2.551   3.709  0.8629 -0.0466 -0.4138
 8836SOL    HW138141   0.077   2.596   3.739  1.4633  0.2781  0.6673
 8836SOL    HW238142   0.201   2.542   3.793  1.4904 -0.0822 -0.7572
 8837SOL     OW38143   2.580   3.001   7.963  0.0634 -0.1579  0.7099
 8837SOL    HW138144   2.544   2.923   7.922  0.9831  1.1876 -2.5985
 8837SOL    HW238145   2.499   3.051   7.977 -1.3674 -2.6398  1.2595
 8838SOL     OW38146   2.805   1.640   4.595 -0.3279 -0.2340 -0.1474
 8838SOL    HW138147   2.731   1.655   4.537  1.3536  3.5415 -1.2734
 8838SOL    HW238148   2.871   1.655   4.528  0.9674  0.9919  1.4131
 8839SOL     OW38149   3.959   0.778  16.359  0.4919 -0.2167 -0.3163
 8839SOL    HW138150   3.938   0.862  16.318  0.0858  1.4039  3.2322
 8839SOL    HW238151   3.868   0.749  16.356  0.0748  0.8249  2.3923
 8840SOL     OW38152   3.588   1.326   5.024  0.3447  0.0939  0.5762
 8840SOL    HW138153   3.648   1.276   5.079 -2.9066 -1.1393  3.0455
 8840SOL    HW238154   3.654   1.326   4.955 -1.8244 -0.9762 -1.5241
 8841SOL     OW38155   4.660   0.513   2.994  0.0472 -0.4534  0.1919
 8841SOL    HW138156   4.654   0.433   2.941 -0.4242 -0.5996  0.4614
 8841SOL    HW238157   4.631   0.490   3.082  0.1179  1.1468  0.6279
 8842SOL     OW38158   1.435   1.484  12.912  0.0468 -0.0907 -0.5209
 8842SOL    HW138159   1.346   1.515  12.927  0.7733  2.0679 -0.6652
 8842SOL    HW238160   1.436   1.477  12.817  0.3219  3.2821 -0.7721
 8843SOL     OW38161   4.050   4.698   7.685 -0.3679  0.3108  0.4939
 8843SOL    HW138162   4.067   4.604   7.682 -1.0749  0.2187 -0.4293
 8843SOL    HW238163   4.030   4.713   7.593 -0.8598 -0.9756  0.3960
 8844SOL     OW38164   0.453   1.193   3.619  0.0059 -0.0602  0.5491
 8844SOL    HW138165   0.361   1.220   3.624 -0.1020 -0.2745 -0.3237
 8844SOL    HW238166   0.495   1.244   3.549 -0.3576 -1.9957 -1.0863
 8845SOL     OW38167   2.372   2.161   8.182  0.1580  0.5174  0.1312
 8845SOL    HW138168   2.340   2.082   8.138 -5.2452  1.9956  1.3666
 8845SOL    HW238169   2.388   2.140   8.274  3.8568  1.1335 -0.3660
 8846SOL     OW38170   3.378   2.074  10.666 -0.8958 -0.4039 -0.3766
 8846SOL    HW138171   3.416   2.161  10.673  1.7694 -1.6716  0.8174
 8846SOL    HW238172   3.383   2.038  10.755  1.4972  3.8547  1.2093
 8847SOL     OW38173   2.230   0.164   6.105  0.6015 -0.0462  0.3949
 8847SOL    HW138174   2.251   0.255   6.085  2.3288  0.0219  2.5160
 8847SOL    HW238175   2.134   0.167   6.107  0.6315 -0.0852  1.7389
 8848SOL     OW38176   2.792   1.865   0.724 -0.7733 -0.2841  0.6227
 8848SOL    HW138177   2.790   1.932   0.793  0.7095  2.2917 -1.8049
 8848SOL    HW238178   2.698   1.856   0.713 -0.4754 -3.3699  0.7758
 8849SOL     OW38179   4.288   2.413   2.591 -0.6100 -0.7359  0.1686
 8849SOL    HW138180   4.207   2.421   2.541 -0.3167  1.4440  0.0081
 8849SOL    HW238181   4.359   2.431   2.528 -0.8003  1.2050  0.5010
 8850SOL     OW38182   4.734   1.359   3.202  0.3157 -0.6140 -0.3244
 8850SOL    HW138183   4.692   1.444   3.213  0.5145 -0.5286 -0.2290
 8850SOL    HW238184   4.662   1.308   3.163 -0.8121 -1.0996  2.3728
 8851SOL     OW38185   4.084   1.169   3.027 -0.2521  0.7962 -0.8833
 8851SOL    HW138186   4.078   1.074   3.037  3.0265  0.6699  0.1290
 8851SOL    HW238187   3.996   1.205   3.028 -0.9932 -1.0005 -1.7130
 8852SOL     OW38188   4.527   2.351   2.467 -0.5351  0.7484 -0.0381
 8852SOL    HW138189   4.579   2.278   2.500 -1.3583  0.0393 -0.3238
 8852SOL    HW238190   4.513   2.320   2.378  0.7795  0.8925 -0.2900
 8853SOL     OW38191   2.535   3.877   3.975 -0.5516  0.2708 -0.4017
 8853SOL    HW138192   2.583   3.802   4.009  2.9534  3.3399  1.3164
 8853SOL    HW238193   2.600   3.941   3.947 -0.9070  0.9960  0.4272
 8854SOL     OW38194   3.998   4.011  10.244  0.4094 -0.7738 -0.0175
 8854SOL    HW138195   3.919   3.958  10.258  0.0337 -0.2184 -0.0545
 8854SOL    HW238196   4.046   3.935  10.211  0.7954  0.4122 -2.1595
 8855SOL     OW38197   2.457   1.326   9.160  0.2718  0.8821 -0.3794
 8855SOL    HW138198   2.544   1.321   9.122  0.2597  0.3735 -0.3411
 8855SOL    HW238199   2.471   1.317   9.254  3.0864  1.4408 -0.7547
 8856SOL     OW38200   0.717   1.389   8.730 -0.3898 -0.0055  0.5802
 8856SOL    HW138201   0.651   1.411   8.796 -2.0343  1.6414 -1.5803
 8856SOL    HW238202   0.676   1.318   8.681 -2.2458 -0.7015  3.1635
 8857SOL     OW38203   1.257   1.391   0.725  0.2139 -0.2706 -0.2735
 8857SOL    HW138204   1.291   1.303   0.742  1.0886 -0.0594 -0.9571
 8857SOL    HW238205   1.163   1.375   0.713 -0.2005  1.6209  0.5776
 8858SOL     OW38206   4.076   2.111  10.866  0.4666  0.7085  0.0296
 8858SOL    HW138207   4.135   2.041  10.839  1.5277  1.4384  0.4647
 8858SOL    HW238208   4.126   2.190  10.845  1.0422  0.6596  1.2090
 8859SOL     OW38209   2.848   0.945   8.001 -0.2697 -0.6763 -0.4818
 8859SOL    HW138210   2.863   0.857   8.036  2.8911 -0.7994 -2.2222
 8859SOL    HW238211   2.753   0.957   7.998 -0.1568 -0.3782 -2.6026
 8860SOL     OW38212   4.615   3.810   7.192  0.2290 -0.7092 -0.0138
 8860SOL    HW138213   4.549   3.828   7.125  0.7690  1.2611 -0.0300
 8860SOL    HW238214   4.699   3.839   7.157 -0.8542  3.0358  0.4769
 8861SOL     OW38215   3.829   1.939   3.540  0.4954  0.3695  0.0138
 8861SOL    HW138216   3.836   2.012   3.603  0.8633 -2.2929  3.0441
 8861SOL    HW238217   3.870   1.975   3.461  3.6468  0.3922  1.6606
 8862SOL     OW38218   0.103   2.355  10.569 -0.4540 -0.2820  0.5281
 8862SOL    HW138219   0.039   2.377  10.502  0.8661 -1.5970 -1.1777
 8862SOL    HW238220   0.179   2.333  10.515 -0.5018  2.0041 -0.4681
 8863SOL     OW38221   1.064   2.831   2.042 -0.3409  0.0709  0.0367
 8863SOL    HW138222   1.089   2.875   2.124  2.0747 -1.9878  0.4049
 8863SOL    HW238223   1.034   2.910   1.997 -0.3035  0.5210  0.7811
 8864SOL     OW38224   1.377   2.750   1.913  0.0555 -0.2230 -0.2196
 8864SOL    HW138225   1.404   2.785   1.827 -1.0651 -0.1872 -0.5582
 8864SOL    HW238226   1.448   2.794   1.959  1.2439 -0.0508 -2.2202
 8865SOL     OW38227   1.550   0.590   8.435 -0.4984 -0.1012  0.1950
 8865SOL    HW138228   1.604   0.550   8.367 -1.4063 -2.0497  0.6225
 8865SOL    HW238229   1.491   0.639   8.378 -0.7415  0.2656  0.7557
 8866SOL     OW38230   0.102   0.395   9.191 -0.2536  0.7782 -0.0035
 8866SOL    HW138231   0.155   0.422   9.267 -2.2135 -0.2274  1.7360
 8866SOL    HW238232   0.096   0.484   9.158  0.0011  0.6887 -0.2902
 8867SOL     OW38233   1.472   4.649  17.475 -0.3787 -0.0523  0.3179
 8867SOL    HW138234   1.427   4.727  17.443 -0.9546  0.4848  2.4118
 8867SOL    HW238235   1.556   4.676  17.438 -1.0912 -0.4107 -1.5570
 8868SOL     OW38236   3.137   0.900   5.362 -0.4808  0.0969  0.2223
 8868SOL    HW138237   3.222   0.913   5.320 -0.8775  0.7122 -0.3918
 8868SOL    HW238238   3.136   0.961   5.436  0.7979  0.7187 -0.2589
 8869SOL     OW38239   1.268   1.344   8.481 -0.0543  0.0837  0.4558
 8869SOL    HW138240   1.281   1.251   8.500 -2.6863  0.0439  1.9640
 8869SOL    HW238241   1.180   1.350   8.445  0.5437  0.7758 -0.9378
 8870SOL     OW38242   2.907   4.680   4.260 -0.6782 -0.0737  0.0906
 8870SOL    HW138243   2.847   0.013   4.237 -1.1163 -0.4453  0.0856
 8870SOL    HW238244   2.989   4.709   4.219 -0.3444  0.2418  0.9682
 8871SOL     OW38245   0.008   2.527   7.483  0.2628  0.4448  0.2262
 8871SOL    HW138246   4.652   2.533   7.463 -0.1266 -1.6375  1.4279
 8871SOL    HW238247   0.026   2.619   7.503 -1.8386  0.2910  2.8247
 8872SOL     OW38248   0.735   0.908  16.382  0.1268  0.6050  0.1349
 8872SOL    HW138249   0.666   0.891  16.317  0.2885 -0.9540  0.3684
 8872SOL    HW238250   0.726   0.830  16.437 -0.4443 -0.4958 -1.5192
 8873SOL     OW38251   0.843   1.318  14.508 -0.1848 -0.2284  0.2484
 8873SOL    HW138252   0.872   1.287  14.594  0.1324  1.4401  0.7389
 8873SOL    HW238253   0.898   1.257  14.457 -0.8447 -0.8545  0.2936
 8874SOL     OW38254   4.431   3.475   4.385  0.3300  0.1483  0.6187
 8874SOL    HW138255   4.464   3.551   4.432  0.1872 -0.6271  1.9796
 8874SOL    HW238256   4.340   3.504   4.381  0.3976  0.5200  1.7369
 8875SOL     OW38257   4.262   0.120   0.778  0.8703 -0.0513  0.0580
 8875SOL    HW138258   4.319   0.174   0.832  1.6931 -0.9425  0.0712
 8875SOL    HW238259   4.237   0.185   0.712  0.1959 -1.9979 -1.6252
 8876SOL     OW38260   2.671   2.452   7.418 -0.4557  0.2047  0.3403
 8876SOL    HW138261   2.647   2.371   7.463 -1.2269  1.5662  2.3936
 8876SOL    HW238262   2.766   2.435   7.413 -0.7507 -1.1858 -0.4897
 8877SOL     OW38263   4.065   3.246   2.624 -0.1829 -0.4322  0.1331
 8877SOL    HW138264   3.974   3.254   2.655 -0.3587 -0.4444 -0.3773
 8877SOL    HW238265   4.049   3.280   2.536 -0.9237 -0.2069  0.3490
 8878SOL     OW38266   0.704   3.402   2.837 -0.3942 -0.4015 -0.6092
 8878SOL    HW138267   0.678   3.310   2.835 -0.2766 -0.4533  0.4703
 8878SOL    HW238268   0.622   3.446   2.813 -2.2456 -2.0197  2.7880
 8879SOL     OW38269   2.404   3.747   3.759 -1.2714 -0.3130 -0.1856
 8879SOL    HW138270   2.459   3.800   3.816  1.1069 -1.3955 -1.4782
 8879SOL    HW238271   2.464   3.692   3.709  0.5023  0.8277  0.6882
 8880SOL     OW38272   2.025   4.114  10.752 -0.2301  0.1970 -0.2998
 8880SOL    HW138273   2.025   4.038  10.810 -0.1681  1.2535  1.0682
 8880SOL    HW238274   1.980   4.075  10.677 -1.2817 -0.7144  0.8064
 8881SOL     OW38275   2.370   3.065   4.852  0.1226  0.7333  0.3426
 8881SOL    HW138276   2.409   3.096   4.934  1.1767  0.8966 -0.2165
 8881SOL    HW238277   2.432   3.092   4.784 -1.8466  0.3615 -1.6043
 8882SOL     OW38278   1.273   4.607   3.397 -0.3691 -0.0704 -0.0058
 8882SOL    HW138279   1.351   4.552   3.390 -1.2180 -1.1681 -0.7949
 8882SOL    HW238280   1.252   4.618   3.304 -0.0021 -0.5186 -0.1421
 8883SOL     OW38281   0.724   3.240  12.537 -0.6678 -0.0648  0.4100
 8883SOL    HW138282   0.748   3.163  12.589  0.6035 -0.6264 -1.0219
 8883SOL    HW238283   0.804   3.293  12.534 -0.7553  0.0723  0.5149
 8884SOL     OW38284   4.165   2.669   7.916  0.0907  0.4660  0.5472
 8884SOL    HW138285   4.157   2.709   7.829  0.6666 -1.2589 -0.3014
 8884SOL    HW238286   4.241   2.720   7.946 -0.0306  0.2814  1.1556
 8885SOL     OW38287   0.029   1.663   5.091  0.0545  0.3369 -0.6140
 8885SOL    HW138288   0.015   1.753   5.064 -1.6830  0.7576  1.7661
 8885SOL    HW238289   4.695   1.661   5.155  1.5215 -1.0229  0.9965
 8886SOL     OW38290   1.465   0.127   4.701 -0.4292  0.5190  0.3952
 8886SOL    HW138291   1.427   0.057   4.648  0.1015  0.8832 -0.4572
 8886SOL    HW238292   1.449   0.201   4.642  0.6907  1.5353  1.3627
 8887SOL     OW38293   1.952   4.350  16.772 -0.8912 -0.0496 -0.3548
 8887SOL    HW138294   2.011   4.287  16.813  1.0041  0.1258 -2.7987
 8887SOL    HW238295   2.000   4.428  16.799  0.9210 -1.2861 -0.0184
 8888SOL     OW38296   1.470   2.200  12.845  0.5461 -0.3858  0.3941
 8888SOL    HW138297   1.489   2.126  12.786  0.1139 -0.7080  0.6593
 8888SOL    HW238298   1.475   2.165  12.934 -1.1850 -0.1709  0.5688
 8889SOL     OW38299   2.006   0.217   0.219  0.2069 -0.4561 -0.0117
 8889SOL    HW138300   2.030   0.127   0.198  2.5358  0.4027 -1.0457
 8889SOL    HW238301   2.084   0.263   0.190  0.6217 -1.3445 -0.3001
 8890SOL     OW38302   4.207   1.519  10.750 -0.2114  0.0780 -0.1492
 8890SOL    HW138303   4.294   1.556  10.766 -0.5646  0.4634  0.8869
 8890SOL    HW238304   4.144   1.580  10.789  1.2110  1.8385 -0.6016
 8891SOL     OW38305   0.614   0.125  16.709 -0.0926  0.1238  0.2874
 8891SOL    HW138306   0.606   0.035  16.741  4.2249 -0.1104  0.7713
 8891SOL    HW238307   0.598   0.114  16.615  1.1513  0.0422  0.0737
 8892SOL     OW38308   2.657   3.376   7.611 -0.1956  0.0085 -0.9078
 8892SOL    HW138309   2.709   3.453   7.587  2.1223 -0.5191  2.4740
 8892SOL    HW238310   2.708   3.323   7.672 -2.8484  0.4666  1.6801
 8893SOL     OW38311   3.446   2.787   2.641 -0.0248 -0.4751  0.4150
 8893SOL    HW138312   3.446   2.839   2.721 -1.7020  0.5353 -0.2334
 8893SOL    HW238313   3.424   2.856   2.578  2.4426 -1.2714 -1.3401
 8894SOL     OW38314   2.194   1.683   3.467  0.3960 -0.3508 -0.0968
 8894SOL    HW138315   2.103   1.696   3.495  0.6733  1.5570 -0.0537
 8894SOL    HW238316   2.200   1.588   3.464  2.0874 -0.3124  1.7616
 8895SOL     OW38317   0.952   1.692  11.068  0.6834 -0.2181  0.0378
 8895SOL    HW138318   0.941   1.621  11.131  1.2303 -1.7841 -1.6118
 8895SOL    HW238319   1.043   1.672  11.044  0.2893 -1.3546 -0.5148
 8896SOL     OW38320   3.487   0.816   4.139  0.0744 -0.2743 -0.8107
 8896SOL    HW138321   3.427   0.844   4.070  0.5500 -0.3567 -1.2596
 8896SOL    HW238322   3.483   0.898   4.188  1.2444  0.3441 -1.7425
 8897SOL     OW38323   0.220   4.307   4.526 -0.3777  0.5597  0.2748
 8897SOL    HW138324   0.131   4.341   4.517 -0.8380 -0.4756  0.9711
 8897SOL    HW238325   0.229   4.274   4.615 -0.8974 -0.2709  0.0129
 8898SOL     OW38326   4.372   3.308   7.490  0.0919 -0.1615 -0.3892
 8898SOL    HW138327   4.449   3.349   7.530 -0.6402 -2.1966  3.0939
 8898SOL    HW238328   4.405   3.271   7.408 -1.1242  1.3221 -1.5383
 8899SOL     OW38329   0.147   2.085   1.894 -0.0626  0.1872  0.1013
 8899SOL    HW138330   0.241   2.076   1.878 -0.5022 -3.2249 -0.4939
 8899SOL    HW238331   0.118   2.162   1.845  1.9667 -0.6958 -2.4964
 8900SOL     OW38332   0.750   4.612  15.246 -0.1962 -0.5394 -0.3776
 8900SOL    HW138333   0.712   4.563  15.319  0.5899  0.1636  0.5029
 8900SOL    HW238334   0.840   4.614  15.279  0.2693 -0.0776 -1.6694
 8901SOL     OW38335   4.165   1.316   4.216  0.2497  0.1614  0.3841
 8901SOL    HW138336   4.177   1.281   4.128  0.5808  1.3456 -0.0412
 8901SOL    HW238337   4.253   1.341   4.246  1.0438 -0.5508 -1.3464
 8902SOL     OW38338   1.779   4.108  13.098 -0.5456 -0.4327  0.4770
 8902SOL    HW138339   1.798   4.148  13.182  2.6117 -1.9257  0.4691
 8902SOL    HW238340   1.859   4.134  13.053 -0.7434 -0.0403  0.3476
 8903SOL     OW38341   4.070   1.519   0.896  0.6831 -0.3253 -0.3822
 8903SOL    HW138342   4.027   1.592   0.853  1.7484  0.7860  0.4340
 8903SOL    HW238343   4.146   1.499   0.841  1.7951  2.6280  0.0813
 8904SOL     OW38344   0.563   3.721   5.698 -0.5340  0.8611 -0.6730
 8904SOL    HW138345   0.639   3.681   5.739 -0.9472 -2.2201 -2.8850
 8904SOL    HW238346   0.486   3.678   5.737 -0.7726  0.6430 -1.3799
 8905SOL     OW38347   0.104   1.210   8.071 -0.6276  0.0182  0.9423
 8905SOL    HW138348   0.066   1.249   8.150  0.8067 -2.2530  2.7430
 8905SOL    HW238349   0.163   1.278   8.038  1.1263 -1.1118  1.7805
 8906SOL     OW38350   4.476   2.540   7.473 -0.4424  0.2374  0.2243
 8906SOL    HW138351   4.413   2.592   7.424 -0.7092 -1.5074 -1.2623
 8906SOL    HW238352   4.441   2.451   7.468 -0.0073  0.0104  1.1829
 8907SOL     OW38353   2.034   0.061  17.672 -0.1582  1.0559  0.8312
 8907SOL    HW138354   2.091   4.736  17.627  2.3851  4.5691 -0.8904
 8907SOL    HW238355   1.951   0.014  17.676 -1.5666  3.4961 -0.0034
 8908SOL     OW38356   0.521   1.055  16.521  0.3273  0.3686  0.0350
 8908SOL    HW138357   0.581   1.018  16.457  0.1977  0.9357 -0.4171
 8908SOL    HW238358   0.515   0.980  16.580  1.9588 -0.9003 -1.3851
 8909SOL     OW38359   1.101   3.674   2.865 -0.0169 -0.8347  0.0245
 8909SOL    HW138360   1.179   3.726   2.848  0.1524 -0.6089  1.4868
 8909SOL    HW238361   1.087   3.634   2.779  0.8216  0.3069 -0.6518
 8910SOL     OW38362   3.202   1.012   2.204  0.3059 -0.1083 -0.2315
 8910SOL    HW138363   3.179   1.104   2.195  0.0876 -0.1979 -0.6410
 8910SOL    HW238364   3.154   0.977   2.128  1.6539  0.5686 -1.3934
 8911SOL     OW38365   3.180   4.311   5.858 -0.3944 -0.2987 -0.6120
 8911SOL    HW138366   3.117   4.374   5.824  0.3319  0.7004 -0.1193
 8911SOL    HW238367   3.260   4.361   5.876 -0.7860  0.0744  0.1325
 8912SOL     OW38368   3.918   4.457  12.216 -0.1275 -0.1753  0.3081
 8912SOL    HW138369   3.988   4.393  12.225  0.3999  0.6316  1.8667
 8912SOL    HW238370   3.850   4.433  12.279 -1.2186 -0.5595 -1.0126
 8913SOL     OW38371   2.456   3.974  14.292  0.3333 -0.0077 -0.2333
 8913SOL    HW138372   2.398   4.050  14.296  0.9167  0.3608  0.9912
 8913SOL    HW238373   2.535   4.008  14.250  1.2634 -1.1618  0.5809
 8914SOL     OW38374   4.248   2.494   1.891 -0.2265  0.1688 -0.2190
 8914SOL    HW138375   4.216   2.516   1.978 -3.2014 -0.7763 -1.0871
 8914SOL    HW238376   4.167   2.500   1.840  0.0723  3.6673 -0.2769
 8915SOL     OW38377   3.917   0.006  16.859  0.2453  0.3916 -1.1726
 8915SOL    HW138378   3.949   4.696  16.936 -1.7574 -0.5869 -0.9465
 8915SOL    HW238379   3.999   0.004  16.810  1.5453 -4.1756  1.0969
 8916SOL     OW38380   3.647   1.009   7.714  0.0747 -0.1132  0.0926
 8916SOL    HW138381   3.627   0.974   7.801 -0.7211 -1.0664 -0.4690
 8916SOL    HW238382   3.677   0.927   7.673  2.1747  1.1257 -0.8264
 8917SOL     OW38383   1.577   1.266  16.380  0.2103  0.2548  0.0854
 8917SOL    HW138384   1.520   1.315  16.439 -0.8663 -1.4120  0.4103
 8917SOL    HW238385   1.512   1.251  16.311 -2.5297  0.3299  2.6804
 8918SOL     OW38386   4.169   3.029   7.840 -0.1350  0.4029 -0.0992
 8918SOL    HW138387   4.144   3.067   7.756 -0.3292 -0.8660 -0.6115
 8918SOL    HW238388   4.257   3.066   7.847  0.2344 -0.6652  0.8379
 8919SOL     OW38389   3.042   3.377   3.593  0.4223  0.2408 -0.3261
 8919SOL    HW138390   2.985   3.329   3.532 -0.4931  0.5196  0.3011
 8919SOL    HW238391   3.128   3.340   3.575 -0.4343 -1.3764 -1.0320
 8920SOL     OW38392   2.084   1.743   2.647  0.1824 -0.3712 -0.0111
 8920SOL    HW138393   2.171   1.731   2.610 -0.8077 -3.5907 -1.3031
 8920SOL    HW238394   2.105   1.709   2.735  1.8081 -0.5602 -0.4668
 8921SOL     OW38395   3.161   1.759   6.773  0.2667  0.1706 -0.4242
 8921SOL    HW138396   3.152   1.707   6.693 -0.6258  2.2865 -1.6997
 8921SOL    HW238397   3.173   1.689   6.837  0.3274  0.8659  0.3230
 8922SOL     OW38398   2.603   0.479   2.947 -0.6650  0.0067  0.2075
 8922SOL    HW138399   2.545   0.534   3.000  0.1496  0.7542  0.3283
 8922SOL    HW238400   2.669   0.442   3.006  1.1236  1.1898 -1.0704
 8923SOL     OW38401   2.136   1.286   7.796  0.8036  0.4250  0.2856
 8923SOL    HW138402   2.083   1.220   7.750  2.0202 -1.2879  1.3470
 8923SOL    HW238403   2.221   1.279   7.753  0.5194  0.8132 -0.3327
 8924SOL     OW38404   3.982   3.339   2.380  0.2135  0.4938 -0.0504
 8924SOL    HW138405   4.009   3.431   2.387 -1.6269  1.1227 -1.2948
 8924SOL    HW238406   3.991   3.322   2.286 -0.5267  2.8628 -0.5399
 8925SOL     OW38407   4.512   1.463   2.460  0.1816 -0.7437  0.3497
 8925SOL    HW138408   4.529   1.468   2.554  0.6622 -1.2678  0.2903
 8925SOL    HW238409   4.591   1.431   2.417  0.7125  0.2954  0.5444
 8926SOL     OW38410   2.985   3.236   1.482  0.3438  0.1272 -0.1734
 8926SOL    HW138411   2.916   3.194   1.532 -0.4152 -0.7007 -1.9135
 8926SOL    HW238412   3.057   3.175   1.500 -0.2186 -0.1965  0.9622
 8927SOL     OW38413   2.164   3.653   9.221 -0.1160  0.0856 -0.0926
 8927SOL    HW138414   2.110   3.687   9.292 -0.4753 -1.4216  0.3435
 8927SOL    HW238415   2.191   3.732   9.174  0.0067 -0.6163 -1.2001
 8928SOL     OW38416   4.184   2.606   8.788 -0.3394 -0.0959  0.4092
 8928SOL    HW138417   4.247   2.677   8.772  0.8941 -1.3683 -0.3977
 8928SOL    HW238418   4.253   2.543   8.811 -2.4644 -2.3448  0.5826
 8929SOL     OW38419   3.544   2.027   6.298 -0.2005  0.7610 -0.8294
 8929SOL    HW138420   3.462   2.013   6.251 -0.6158 -2.2089  0.7629
 8929SOL    HW238421   3.535   2.121   6.311  2.8505  1.1198 -1.1696
 8930SOL     OW38422   0.093   4.088  16.994  0.9844  0.4283 -0.0218
 8930SOL    HW138423   0.001   4.084  16.968  1.5361  0.0632 -1.9372
 8930SOL    HW238424   0.114   3.995  16.983 -2.6552 -0.2663 -0.9130
 8931SOL     OW38425   1.048   4.501   0.066 -0.0904  0.7231 -0.0524
 8931SOL    HW138426   1.077   4.588   0.094 -0.3983  0.3416  1.4452
 8931SOL    HW238427   0.953   4.499   0.080 -0.0497  1.6458  0.3253
 8932SOL     OW38428   3.906   0.223  14.246  0.3721  0.0236 -0.0296
 8932SOL    HW138429   3.992   0.205  14.209  0.3745  2.1554 -1.0731
 8932SOL    HW238430   3.902   0.167  14.324  0.6708  0.4727  0.3023
 8933SOL     OW38431   1.421   1.283   7.401 -0.2175  0.1368  0.1928
 8933SOL    HW138432   1.452   1.253   7.316 -0.3510  2.6466 -0.7434
 8933SOL    HW238433   1.341   1.324   7.368  0.3632  0.1175 -1.2303
 8934SOL     OW38434   2.015   0.571   8.915  0.3050  0.2203 -0.0073
 8934SOL    HW138435   2.057   0.523   8.843 -0.8381  1.7157 -1.6770
 8934SOL    HW238436   2.016   0.665   8.894  0.3622  0.3755  0.7023
 8935SOL     OW38437   1.574   2.774  17.669 -0.2275 -0.2520  0.9991
 8935SOL    HW138438   1.578   2.842  17.602  2.4199  0.0036  1.4539
 8935SOL    HW238439   1.595   2.817   0.002 -0.6630  1.6642  0.0930
 8936SOL     OW38440   1.041   2.429   8.998  0.0233 -0.1605  0.1507
 8936SOL    HW138441   0.973   2.496   8.995 -0.7225 -0.8267  1.7563
 8936SOL    HW238442   0.986   2.352   8.987  1.7067 -1.3182 -0.2572
 8937SOL     OW38443   2.205   4.648  17.558  0.4627 -0.1726  0.2255
 8937SOL    HW138444   2.232   4.566  17.517 -0.3206  0.7695 -2.1970
 8937SOL    HW238445   2.251   4.640  17.641  0.6513  3.1755  0.4425
 8938SOL     OW38446   3.102   3.396   6.347  0.0496  0.1733  0.1986
 8938SOL    HW138447   3.183   3.442   6.324  0.7337 -1.1038  0.0191
 8938SOL    HW238448   3.085   3.440   6.431  1.0260 -0.3860  0.7008
 8939SOL     OW38449   0.275   4.155   7.779 -0.1991 -0.5397 -0.8113
 8939SOL    HW138450   0.365   4.168   7.811  0.1135 -1.6124 -1.2778
 8939SOL    HW238451   0.230   4.168   7.862 -1.2057 -1.2280 -1.2613
 8940SOL     OW38452   2.101   3.642   5.739  0.2445 -0.2308 -0.4637
 8940SOL    HW138453   2.168   3.677   5.798  1.1329 -2.8185  0.0665
 8940SOL    HW238454   2.046   3.585   5.793 -0.0827  0.7547  0.2351
 8941SOL     OW38455   1.882   3.767   4.877 -0.0170  0.0512 -0.0539
 8941SOL    HW138456   1.963   3.739   4.835 -0.0492  0.2105 -0.2221
 8941SOL    HW238457   1.883   3.859   4.850 -1.8450  0.0699 -0.0365
 8942SOL     OW38458   3.247   3.497   4.081 -0.3567 -0.1839  0.5849
 8942SOL    HW138459   3.259   3.589   4.105  2.0767 -0.7181  1.3808
 8942SOL    HW238460   3.258   3.463   4.170  1.2860 -2.4197 -0.4888
 8943SOL     OW38461   0.723   0.527   4.412 -0.2347  0.0128  0.7291
 8943SOL    HW138462   0.659   0.473   4.461  1.3307 -1.0206  1.6424
 8943SOL    HW238463   0.760   0.588   4.476  0.7891 -0.2297  0.3606
 8944SOL     OW38464   3.360   0.608   5.087  0.4374 -0.1286 -0.1653
 8944SOL    HW138465   3.397   0.547   5.022 -1.4020  0.4570 -1.7753
 8944SOL    HW238466   3.421   0.593   5.159 -0.9154 -0.9268  0.7877
 8945SOL     OW38467   3.849   4.164   8.930  0.0549  0.2483 -0.6095
 8945SOL    HW138468   3.787   4.238   8.936 -0.6084 -0.3413 -0.1790
 8945SOL    HW238469   3.893   4.171   8.845  0.7370  1.7455 -0.1333
 8946SOL     OW38470   2.674   3.091   3.798 -0.0397 -0.2420  0.1189
 8946SOL    HW138471   2.630   3.014   3.834  1.3010 -0.0367  2.2127
 8946SOL    HW238472   2.764   3.062   3.805 -0.3012 -1.3589 -1.1578
 8947SOL     OW38473   0.641   1.583   7.361 -0.4297 -0.4202 -0.1817
 8947SOL    HW138474   0.688   1.590   7.278  0.0358 -0.5204  0.0744
 8947SOL    HW238475   0.692   1.641   7.418 -0.5736  0.8886 -1.3816
 8948SOL     OW38476   4.630   2.592  16.402  0.0456 -0.5572  0.2164
 8948SOL    HW138477   4.702   2.565  16.460  0.4272 -0.5365 -0.2491
 8948SOL    HW238478   4.659   2.681  16.382 -0.6993 -0.2799  0.3704
 8949SOL     OW38479   1.029   1.665  14.660  0.1028  0.2333 -0.2322
 8949SOL    HW138480   1.089   1.723  14.615  0.1704  0.2490 -0.1198
 8949SOL    HW238481   1.082   1.585  14.658  1.1314  0.9443 -0.8162
 8950SOL     OW38482   2.344   2.652  16.747  0.0732 -0.2726 -0.0271
 8950SOL    HW138483   2.254   2.674  16.773  0.1587 -1.1411  1.0438
 8950SOL    HW238484   2.381   2.724  16.797 -1.9631 -0.3647  1.6590
 8951SOL     OW38485   0.401   1.525   8.734  0.4969 -0.3818 -0.0742
 8951SOL    HW138486   0.460   1.464   8.779  2.1495  0.8681 -0.5501
 8951SOL    HW238487   0.376   1.474   8.657 -1.4078  1.5372 -0.7106
 8952SOL     OW38488   1.346   2.545   5.407  0.2684  0.2296  0.1203
 8952SOL    HW138489   1.425   2.595   5.427  0.4277 -0.5147  1.3212
 8952SOL    HW238490   1.291   2.618   5.377  3.1245  1.2951 -2.4512
 8953SOL     OW38491   1.202   1.615  12.920  0.8336 -0.3435 -0.1820
 8953SOL    HW138492   1.161   1.675  12.983 -1.2794 -1.4748 -0.4815
 8953SOL    HW238493   1.164   1.650  12.839 -0.2002  0.4006  0.6180
 8954SOL     OW38494   3.237   0.555   2.679  0.0473 -0.4169 -0.3677
 8954SOL    HW138495   3.142   0.559   2.677  0.1026  0.5059 -1.2885
 8954SOL    HW238496   3.251   0.566   2.773  0.1766  1.6901 -0.6387
 8955SOL     OW38497   1.604   0.144   8.257  0.4414  0.8036  0.0510
 8955SOL    HW138498   1.560   0.175   8.336  1.8105 -1.0758  1.5564
 8955SOL    HW238499   1.693   0.177   8.269  0.6885  0.9006 -2.0150
 8956SOL     OW38500   2.828   3.650  17.463  0.4025 -0.1749 -0.1791
 8956SOL    HW138501   2.832   3.626  17.370  1.2602  0.1236 -0.2140
 8956SOL    HW238502   2.869   3.736  17.466  1.3127 -0.5798 -0.9260
 8957SOL     OW38503   0.678   0.480   3.184  0.3811 -0.1592 -0.5376
 8957SOL    HW138504   0.740   0.510   3.118 -0.2029 -0.2097 -1.1071
 8957SOL    HW238505   0.669   0.386   3.167  0.5077  0.0979 -2.0115
 8958SOL     OW38506   4.058   1.867  15.488 -0.1944  0.3956 -0.0682
 8958SOL    HW138507   4.108   1.810  15.428  1.0909  1.1338  0.3026
 8958SOL    HW238508   4.113   1.945  15.495  0.0209  0.4139 -1.9253
 8959SOL     OW38509   0.149   4.649   2.307  0.1848  0.1984 -0.4653
 8959SOL    HW138510   0.170   4.576   2.365 -1.1029 -1.8071 -2.5270
 8959SOL    HW238511   0.084   4.598   2.257 -0.0468 -0.9115  0.9675
 8960SOL     OW38512   0.417   4.163   6.921 -0.2817 -0.1039 -0.1987
 8960SOL    HW138513   0.383   4.156   7.011 -0.8740 -1.6586 -0.5586
 8960SOL    HW238514   0.333   4.161   6.874 -0.9842  0.0973  1.0311
 8961SOL     OW38515   2.723   0.760   6.429 -0.2596  0.1360  0.5536
 8961SOL    HW138516   2.714   0.705   6.507 -2.2716  2.0794  1.6926
 8961SOL    HW238517   2.635   0.750   6.393 -0.3319  0.4814  0.6447
 8962SOL     OW38518   0.140   0.880   2.568  0.1746 -0.2271 -0.2746
 8962SOL    HW138519   0.060   0.860   2.519 -0.5338 -0.4696  0.9780
 8962SOL    HW238520   0.168   0.799   2.610  1.3781  0.5954  0.4774
 8963SOL     OW38521   1.958   3.059   0.858 -0.1905  0.0636  0.4404
 8963SOL    HW138522   1.927   3.077   0.769 -1.0312 -1.2348  0.4765
 8963SOL    HW238523   2.053   3.065   0.843 -0.5709  1.4878 -1.3588
 8964SOL     OW38524   0.964   1.982  17.028 -0.9647 -0.8671  0.8516
 8964SOL    HW138525   1.011   1.919  17.082  1.0245 -0.6309 -0.6001
 8964SOL    HW238526   1.023   2.055  17.012  0.2447 -2.1254 -0.4718
 8965SOL     OW38527   1.487   1.995  14.639 -0.2629 -0.3869  0.6894
 8965SOL    HW138528   1.555   2.056  14.667 -0.7321 -0.0704  1.1519
 8965SOL    HW238529   1.513   1.986  14.548  0.5696  1.4585  0.7460
 8966SOL     OW38530   1.647   4.460  12.407 -0.0239  0.3477 -0.3086
 8966SOL    HW138531   1.739   4.468  12.383  0.1258 -0.9401 -0.1374
 8966SOL    HW238532   1.602   4.477  12.324 -0.3135 -1.3219 -0.4825
 8967SOL     OW38533   3.988   2.174   4.075 -0.0079  0.1858  0.0920
 8967SOL    HW138534   3.997   2.267   4.056  1.7245  0.0912  0.4248
 8967SOL    HW238535   3.978   2.182   4.170 -0.7707 -1.9050  0.1916
 8968SOL     OW38536   1.568   4.290   7.651 -0.4141 -0.6735  0.1938
 8968SOL    HW138537   1.501   4.281   7.718 -0.0947 -2.0178  0.3410
 8968SOL    HW238538   1.510   4.284   7.575  1.8353 -0.0391 -1.5912
 8969SOL     OW38539   1.975   1.908   5.281  0.0431 -0.1063  0.1647
 8969SOL    HW138540   1.982   2.004   5.279  0.1276 -0.0642  2.2180
 8969SOL    HW238541   1.903   1.902   5.344  0.8204  0.4557  1.1189
 8970SOL     OW38542   2.819   1.157  12.007 -0.3189 -0.0864 -0.1776
 8970SOL    HW138543   2.742   1.141  11.953 -0.0712  1.8495 -1.1014
 8970SOL    HW238544   2.840   1.240  11.964 -1.0910 -0.0939 -0.5687
 8971SOL     OW38545   2.014   3.567   5.096 -0.1108  0.3330 -0.0286
 8971SOL    HW138546   1.990   3.511   5.169 -2.4671  0.0343 -1.0371
 8971SOL    HW238547   1.936   3.576   5.041  0.7418  1.3829 -1.0778
 8972SOL     OW38548   3.826   2.084   4.854  0.5388 -0.4289 -0.1354
 8972SOL    HW138549   3.885   2.083   4.930  0.2050 -0.7565  0.1204
 8972SOL    HW238550   3.876   2.031   4.792  1.6747 -0.7662  1.0485
 8973SOL     OW38551   3.532   3.144  12.027  0.3809 -0.0313  0.0528
 8973SOL    HW138552   3.485   3.212  12.075 -0.7085 -0.5852 -0.2549
 8973SOL    HW238553   3.600   3.197  11.985  1.3235 -0.3000  1.2008
 8974SOL     OW38554   1.900   4.309  16.501  1.1654 -1.2209  0.0146
 8974SOL    HW138555   1.891   4.214  16.509  1.0095 -1.1228  0.9903
 8974SOL    HW238556   1.907   4.335  16.593  1.8751  0.9800 -0.6493
 8975SOL     OW38557   4.152   3.607   3.924  0.6799  0.3396  0.0524
 8975SOL    HW138558   4.123   3.526   3.883  2.5753 -0.1916 -0.2459
 8975SOL    HW238559   4.093   3.607   3.999 -1.4940 -1.2750 -1.6677
 8976SOL     OW38560   2.211   2.194   4.734  0.2122 -0.1949  0.6666
 8976SOL    HW138561   2.152   2.158   4.800 -2.3487 -0.2456 -1.6274
 8976SOL    HW238562   2.151   2.241   4.676  0.9106 -0.2406 -0.0941
 8977SOL     OW38563   4.151   1.889   7.248  0.2168 -0.2374 -0.0599
 8977SOL    HW138564   4.214   1.903   7.319  0.1132  0.8636 -0.1926
 8977SOL    HW238565   4.118   1.800   7.262 -1.7672  0.5651  0.3244
 8978SOL     OW38566   2.879   4.083   7.632 -0.0601  0.2129 -0.2236
 8978SOL    HW138567   2.801   4.078   7.687  0.0394  0.3626 -0.0709
 8978SOL    HW238568   2.842   4.115   7.550 -0.9101 -2.3101 -0.8037
 8979SOL     OW38569   2.186   3.459   7.157  0.2410  0.2473 -0.1574
 8979SOL    HW138570   2.155   3.379   7.199 -1.8795  2.0717  1.7387
 8979SOL    HW238571   2.111   3.489   7.106 -0.1998 -0.1929  0.2360
 8980SOL     OW38572   4.465   1.655   6.651 -0.1805  0.4376  0.3836
 8980SOL    HW138573   4.497   1.682   6.564 -0.8006  3.7357  1.1664
 8980SOL    HW238574   4.546   1.665   6.700  0.6257 -1.5637 -0.5501
 8981SOL     OW38575   3.947   3.929   6.484 -0.2879 -0.0588  0.0491
 8981SOL    HW138576   3.890   3.985   6.536 -3.0338 -2.3232 -0.5166
 8981SOL    HW238577   4.033   3.959   6.512 -1.0107 -0.6643  2.8645
 8982SOL     OW38578   2.293   2.596   7.823 -0.1241  0.0450  0.3834
 8982SOL    HW138579   2.279   2.677   7.872  2.0995 -0.0881  1.2240
 8982SOL    HW238580   2.341   2.555   7.895  1.6777  1.1059 -0.2274
 8983SOL     OW38581   3.163   4.230   3.794  0.3550 -0.4138 -0.2910
 8983SOL    HW138582   3.107   4.254   3.721 -0.2717  0.2710  0.4153
 8983SOL    HW238583   3.210   4.311   3.812 -1.7247  0.4247  1.3785
 8984SOL     OW38584   2.059   0.547   1.788  0.7155  0.3894  0.0655
 8984SOL    HW138585   1.992   0.489   1.823  2.7657 -1.0965  1.5353
 8984SOL    HW238586   2.026   0.563   1.700  2.5649 -4.1929 -1.4348
 8985SOL     OW38587   1.689   3.675   0.014 -0.3107  0.7066  0.0884
 8985SOL    HW138588   1.692   3.765   0.048  0.3119 -0.2355  2.5699
 8985SOL    HW238589   1.706   3.633   0.099  0.0953 -0.5830 -0.6366
 8986SOL     OW38590   0.702   0.192   3.351  0.2538 -0.0038 -0.1484
 8986SOL    HW138591   0.612   0.206   3.379 -0.0623 -1.2086 -0.5500
 8986SOL    HW238592   0.707   0.108   3.397  0.3067 -0.1141 -0.3547
 8987SOL     OW38593   4.529   4.120  12.267  0.2622  0.0655  0.6225
 8987SOL    HW138594   4.460   4.070  12.223  1.0943 -0.5366  0.0135
 8987SOL    HW238595   4.537   4.055  12.338  0.0349 -0.6020  0.0357
 8988SOL     OW38596   3.008   0.118   3.995 -0.3529  0.2588  0.0094
 8988SOL    HW138597   3.080   0.087   4.050 -0.0036 -1.5288 -1.4629
 8988SOL    HW238598   3.019   0.065   3.917  2.9081  1.6328 -0.4704
 8989SOL     OW38599   2.484   2.046  16.090 -0.1567  0.2736  0.0543
 8989SOL    HW138600   2.408   1.991  16.104  0.1450 -0.1781 -0.0831
 8989SOL    HW238601   2.436   2.128  16.103 -0.0919  0.1262  1.2097
 8990SOL     OW38602   3.481   4.663   0.859  0.0792 -0.0860  0.1368
 8990SOL    HW138603   3.560   4.611   0.867 -0.5713 -1.2655 -1.2170
 8990SOL    HW238604   3.453   4.667   0.951  1.3719 -1.1960  0.5704
 8991SOL     OW38605   0.152   2.954   1.890 -0.8831  0.0053 -0.2958
 8991SOL    HW138606   0.210   2.984   1.959  1.4571 -2.0891 -1.3479
 8991SOL    HW238607   0.204   2.971   1.811  0.2058 -1.2244  0.1540
 8992SOL     OW38608   3.050   0.337   9.644 -0.5301  0.5013  0.1161
 8992SOL    HW138609   3.088   0.375   9.723 -1.0507 -0.7200  0.9445
 8992SOL    HW238610   3.049   0.243   9.661  0.6568  0.8174  1.9536
 8993SOL     OW38611   2.228   0.405   0.283 -0.2456 -0.4105  0.1953
 8993SOL    HW138612   2.237   0.344   0.357  4.0124 -0.7879 -0.6788
 8993SOL    HW238613   2.270   0.486   0.310 -0.2266 -0.4763  0.3615
 8994SOL     OW38614   2.593   4.498  16.304  0.1242 -0.7480  0.1195
 8994SOL    HW138615   2.534   4.441  16.255 -1.0101  2.4255 -2.1507
 8994SOL    HW238616   2.647   4.525  16.230 -1.5948 -1.3370 -1.3254
 8995SOL     OW38617   2.709   3.037   6.824 -0.0097 -0.3598  0.2851
 8995SOL    HW138618   2.627   3.046   6.872  0.2154  0.6462  0.4716
 8995SOL    HW238619   2.758   3.114   6.855  0.1943  0.0778 -1.1288
 8996SOL     OW38620   1.562   3.084   8.317  0.0622  0.0313  0.3725
 8996SOL    HW138621   1.605   3.018   8.371 -0.4136 -0.1552  0.5313
 8996SOL    HW238622   1.497   3.038   8.264  0.6917 -1.2720  0.7463
 8997SOL     OW38623   2.742   4.283  11.423 -0.6979  0.3289  0.1189
 8997SOL    HW138624   2.697   4.367  11.435 -0.2145  0.5667  0.2679
 8997SOL    HW238625   2.765   4.299  11.332  0.7745  0.6360  0.5421
 8998SOL     OW38626   2.803   0.680   8.877 -0.1969  0.2773  0.5577
 8998SOL    HW138627   2.834   0.764   8.842  0.6024  0.2830  1.2715
 8998SOL    HW238628   2.829   0.620   8.808 -1.9463 -0.8920  0.9100
 8999SOL     OW38629   0.939   2.984   7.556 -0.6909 -0.1260 -0.1877
 8999SOL    HW138630   0.992   2.906   7.575  1.0620  0.6228 -1.9170
 8999SOL    HW238631   0.859   2.942   7.524 -0.0332  0.8590 -3.1475
 9000SOL     OW38632   4.031   1.329   1.895 -0.2766 -0.3197  0.2390
 9000SOL    HW138633   3.969   1.317   1.967  1.1376 -1.8372  1.2002
 9000SOL    HW238634   4.004   1.410   1.851 -0.1673 -0.3632  0.0916
 9001SOL     OW38635   2.063   2.976  14.316  0.3889  0.1455 -0.2100
 9001SOL    HW138636   2.092   2.918  14.387 -0.3912 -0.6253 -0.5154
 9001SOL    HW238637   1.967   2.970  14.318  0.3050  1.5593  0.1422
 9002SOL     OW38638   0.253   2.321   7.510 -0.3458  0.3935  0.0010
 9002SOL    HW138639   0.314   2.390   7.483  0.3819 -0.4077 -0.3984
 9002SOL    HW238640   0.183   2.377   7.543 -1.2825 -0.5814 -0.2880
 9003SOL     OW38641   2.526   4.525   7.372  0.0662 -0.1563 -0.1137
 9003SOL    HW138642   2.512   4.494   7.462  1.6551  3.8468  1.5252
 9003SOL    HW238643   2.561   4.612   7.394 -0.1325  0.1405 -0.9768
 9004SOL     OW38644   3.671   2.345   1.756  0.2120 -0.0712  0.0481
 9004SOL    HW138645   3.733   2.299   1.814  0.5441  1.6662  1.0804
 9004SOL    HW238646   3.656   2.421   1.813 -2.7991 -0.7422  0.1248
 9005SOL     OW38647   2.633   1.796   7.680  0.2166 -0.0176 -0.2838
 9005SOL    HW138648   2.658   1.745   7.603 -0.6840  0.7492 -1.0921
 9005SOL    HW238649   2.666   1.748   7.755 -2.0140 -1.1547 -0.0251
 9006SOL     OW38650   3.113   2.288   5.518  0.2248 -0.5214  0.1698
 9006SOL    HW138651   3.186   2.343   5.490  2.1095 -1.5301  3.1670
 9006SOL    HW238652   3.141   2.269   5.608 -0.2080  0.6463  0.5442
 9007SOL     OW38653   1.513   1.982  12.686 -0.1654  0.1176 -0.2268
 9007SOL    HW138654   1.596   2.017  12.654 -1.2704  2.1302 -0.8790
 9007SOL    HW238655   1.500   1.904  12.632 -0.8971 -0.6668  1.0698
 9008SOL     OW38656   4.696   0.898   5.513 -0.2228  0.2469 -0.0715
 9008SOL    HW138657   4.692   0.977   5.458  3.9641  0.7555  0.4022
 9008SOL    HW238658   4.702   0.832   5.444  1.3781 -1.2112  1.4654
 9009SOL     OW38659   4.119   2.783   7.131 -0.1448 -0.0946  0.2337
 9009SOL    HW138660   4.027   2.772   7.105  0.4071 -3.9212 -0.1670
 9009SOL    HW238661   4.163   2.705   7.097 -1.7096 -2.4896  3.7345
 9010SOL     OW38662   2.164   2.461  16.874  0.4563  0.3672  0.0449
 9010SOL    HW138663   2.235   2.411  16.836 -0.0137  1.8386 -2.7475
 9010SOL    HW238664   2.103   2.470  16.801  0.8652  2.8708 -0.0081
 9011SOL     OW38665   1.736   0.719   1.250 -0.2966  0.6275  0.5774
 9011SOL    HW138666   1.683   0.781   1.300  1.0692  2.2342  0.0199
 9011SOL    HW238667   1.719   0.744   1.159  2.4535 -0.0717 -0.1223
 9012SOL     OW38668   1.640   3.524   8.586 -0.3545 -0.3590  0.5076
 9012SOL    HW138669   1.684   3.512   8.670 -1.2746  0.9513  1.1701
 9012SOL    HW238670   1.574   3.455   8.589  0.5275 -1.1424  2.0206
 9013SOL     OW38671   0.104   0.544   7.164  0.5274 -0.1404  0.3915
 9013SOL    HW138672   0.190   0.583   7.176  0.2270  0.0973  1.8329
 9013SOL    HW238673   0.123   0.470   7.107 -0.6012 -0.3701  0.3021
 9014SOL     OW38674   3.265   2.675   7.806  0.5327  0.0454  0.0226
 9014SOL    HW138675   3.223   2.749   7.850 -0.3457  0.2425 -1.1490
 9014SOL    HW238676   3.246   2.694   7.714 -1.0257 -3.0944 -0.2825
 9015SOL     OW38677   1.828   3.644  16.535 -0.4950  0.1924 -0.1358
 9015SOL    HW138678   1.797   3.566  16.491 -2.2336  1.0824 -0.5056
 9015SOL    HW238679   1.891   3.607  16.597  0.5708  0.7956 -0.8556
 9016SOL     OW38680   0.458   3.786   2.626 -0.0438 -0.2028 -0.2339
 9016SOL    HW138681   0.485   3.824   2.542  0.4906  1.1621  0.5752
 9016SOL    HW238682   0.363   3.782   2.609  0.5041 -2.9263 -2.7474
 9017SOL     OW38683   1.330   0.360  10.885  0.5027  0.6092  0.1230
 9017SOL    HW138684   1.279   0.433  10.918  0.7427  0.7248  0.2414
 9017SOL    HW238685   1.333   0.300  10.960 -1.2507 -1.0520 -1.1536
 9018SOL     OW38686   2.189   3.992   3.358  0.3119  0.3670 -0.2442
 9018SOL    HW138687   2.122   4.061   3.354 -0.6417 -0.5430  0.0921
 9018SOL    HW238688   2.247   4.014   3.430 -1.8093  2.2637  0.8842
 9019SOL     OW38689   2.735   2.254   8.982 -0.4386 -0.1794 -0.1110
 9019SOL    HW138690   2.734   2.172   9.030 -0.2408  1.1435  2.1306
 9019SOL    HW238691   2.640   2.264   8.987 -0.1072  2.4391  1.3257
 9020SOL     OW38692   0.188   3.197   2.650  0.0878  0.0151 -0.5591
 9020SOL    HW138693   0.199   3.270   2.711  0.5935  1.0792 -1.9382
 9020SOL    HW238694   0.189   3.239   2.564 -0.8390 -0.0615 -0.6045
 9021SOL     OW38695   0.911   0.380  11.835 -0.3581  0.4031  0.2134
 9021SOL    HW138696   0.912   0.476  11.834 -2.0538  0.4163 -1.9227
 9021SOL    HW238697   0.983   0.369  11.773 -0.0086 -0.4531  0.7731
 9022SOL     OW38698   0.678   4.733   6.623 -0.1851 -0.3190  0.1559
 9022SOL    HW138699   0.674   4.657   6.682  0.0498 -0.1586  0.3788
 9022SOL    HW238700   0.585   0.004   6.601 -0.5065  1.1423  2.0869
 9023SOL     OW38701   2.523   2.163   5.834  0.5077 -0.0379 -0.2370
 9023SOL    HW138702   2.470   2.239   5.812  1.4728  1.1348  1.4896
 9023SOL    HW238703   2.466   2.087   5.821  1.6419 -1.0085  0.4138
 9024SOL     OW38704   0.373   2.555   8.109  0.5312  0.3022 -0.1774
 9024SOL    HW138705   0.354   2.645   8.080 -2.8171 -0.9319 -1.8064
 9024SOL    HW238706   0.463   2.542   8.080  0.8436  1.2784  0.3448
 9025SOL     OW38707   4.564   0.287   8.236  0.6180 -0.0451 -0.0369
 9025SOL    HW138708   4.517   0.238   8.168  0.6101 -0.9093  0.5875
 9025SOL    HW238709   4.506   0.276   8.311  0.1997 -3.6218 -0.8782
 9026SOL     OW38710   2.844   2.257   8.731  0.7181 -0.2790 -0.1079
 9026SOL    HW138711   2.787   2.307   8.673  2.1384  0.0906 -1.1767
 9026SOL    HW238712   2.786   2.250   8.807 -0.0415  4.4811 -0.2373
 9027SOL     OW38713   0.717   3.813   8.659  0.2142  0.4615 -0.0159
 9027SOL    HW138714   0.800   3.851   8.629 -0.3473  1.3279 -0.4898
 9027SOL    HW238715   0.714   3.729   8.613 -2.6123  0.8760 -0.5654
 9028SOL     OW38716   0.439   1.210   3.888  0.2481  0.5542 -0.1209
 9028SOL    HW138717   0.392   1.293   3.879  1.1373  1.0420 -0.2178
 9028SOL    HW238718   0.452   1.188   3.796 -0.2676  0.2603 -0.1228
 9029SOL     OW38719   3.126   2.879  11.074  0.6009 -0.2538  0.2432
 9029SOL    HW138720   3.218   2.869  11.049  1.1597 -0.6760  2.4583
 9029SOL    HW238721   3.129   2.864  11.168  0.3685 -0.2376  0.2528
 9030SOL     OW38722   4.079   0.949   2.367  0.5577  0.3977 -0.1014
 9030SOL    HW138723   4.118   1.036   2.379  1.7863 -0.3516  1.3730
 9030SOL    HW238724   3.992   0.955   2.406  0.5327 -0.9250  0.0132
 9031SOL     OW38725   0.506   2.825   5.442  0.0160 -0.0208 -0.1354
 9031SOL    HW138726   0.446   2.834   5.368  0.5577  0.5170 -0.5089
 9031SOL    HW238727   0.541   2.737   5.427  0.5143 -0.1658  1.8612
 9032SOL     OW38728   0.563   1.888   5.616 -0.0082 -0.4146  0.2937
 9032SOL    HW138729   0.482   1.900   5.565 -0.2373 -0.4252  0.6583
 9032SOL    HW238730   0.537   1.908   5.706  1.6327  0.2864  0.6032
 9033SOL     OW38731   1.612   0.422  15.301 -0.7586 -0.0017 -0.0052
 9033SOL    HW138732   1.672   0.347  15.300  0.4557  0.9899 -2.0050
 9033SOL    HW238733   1.536   0.386  15.255  0.0639 -1.9252  0.1553
 9034SOL     OW38734   2.104   0.771   9.452 -0.3493 -0.7182 -0.2968
 9034SOL    HW138735   2.091   0.827   9.529  0.2373 -0.6945 -0.2127
 9034SOL    HW238736   2.063   0.825   9.384 -0.5775 -1.8613 -1.0617
 9035SOL     OW38737   0.239   4.250  17.168  0.9205 -0.7896 -0.0415
 9035SOL    HW138738   0.194   4.229  17.249 -0.2110  0.0085 -0.4743
 9035SOL    HW238739   0.177   4.212  17.106 -0.1484 -0.4268  0.8210
 9036SOL     OW38740   1.405   1.761  14.298  0.0419 -0.0781  0.1279
 9036SOL    HW138741   1.340   1.714  14.351  1.4055 -0.0078  1.8564
 9036SOL    HW238742   1.356   1.809  14.232 -0.3830 -1.5098 -0.6009
 9037SOL     OW38743   3.907   1.429   1.361 -0.0255 -0.3229  0.0785
 9037SOL    HW138744   3.853   1.507   1.345  2.2598  1.2495  0.0445
 9037SOL    HW238745   3.938   1.406   1.274  0.0519 -2.7149  0.7444
 9038SOL     OW38746   4.488   0.951   5.746  0.5581 -0.1628 -0.5385
 9038SOL    HW138747   4.564   0.920   5.696 -0.4089 -1.3052 -1.2792
 9038SOL    HW238748   4.429   0.881   5.720 -1.5844  1.3046  0.3807
 9039SOL     OW38749   0.754   4.162   6.494  0.3134 -0.2624 -0.5112
 9039SOL    HW138750   0.797   4.168   6.580 -0.3137 -1.1987 -0.1375
 9039SOL    HW238751   0.826   4.160   6.431  1.0410 -0.3007  0.3253
 9040SOL     OW38752   0.501   1.857   5.205  0.2766 -0.0302 -0.1616
 9040SOL    HW138753   0.530   1.774   5.167  1.0600  0.6901 -1.1554
 9040SOL    HW238754   0.468   1.825   5.289 -0.4858  0.8531 -0.1327
 9041SOL     OW38755   1.852   3.414   7.388  0.1575  0.4723  0.2454
 9041SOL    HW138756   1.840   3.436   7.480 -1.8948 -0.1904  0.1391
 9041SOL    HW238757   1.817   3.489   7.340  0.7671  1.7483  1.7954
 9042SOL     OW38758   3.825   0.207   3.390  0.6322  0.0497 -0.6822
 9042SOL    HW138759   3.854   0.295   3.413 -2.1634  0.9978 -0.8597
 9042SOL    HW238760   3.909   0.162   3.404  0.6305 -0.1814 -1.4118
 9043SOL     OW38761   2.653   1.957   1.869  0.3869 -0.4337 -0.2603
 9043SOL    HW138762   2.614   1.888   1.815 -0.1288 -1.4504  1.3820
 9043SOL    HW238763   2.646   1.898   1.945  1.7770 -0.0495  0.1595
 9044SOL     OW38764   0.369   1.442   8.282 -0.2469  0.1313  0.0126
 9044SOL    HW138765   0.417   1.481   8.209 -3.4872 -0.6869 -2.5442
 9044SOL    HW238766   0.279   1.438   8.250  0.0649 -0.7147 -0.7610
 9045SOL     OW38767   2.708   0.570  16.354  0.2454 -0.3854 -0.1412
 9045SOL    HW138768   2.635   0.623  16.386 -1.1017 -1.8049 -0.8811
 9045SOL    HW238769   2.724   0.520  16.434  1.8867  0.2597 -0.0790
 9046SOL     OW38770   2.331   0.165  17.060 -0.5551 -0.1990 -0.0943
 9046SOL    HW138771   2.304   0.118  17.139  0.3689 -1.8501 -0.7501
 9046SOL    HW238772   2.414   0.204  17.089 -0.0215 -1.8825  0.6619
 9047SOL     OW38773   4.696   4.218   3.104 -0.3458 -0.0331  0.5807
 9047SOL    HW138774   4.708   4.200   3.010 -0.9251 -2.0769  0.8852
 9047SOL    HW238775   0.008   4.145   3.141  1.7110  1.3127  0.4862
 9048SOL     OW38776   3.188   0.314   3.556  0.4537  0.4623 -0.4462
 9048SOL    HW138777   3.223   0.234   3.596 -2.0037 -0.6569 -0.5439
 9048SOL    HW238778   3.155   0.367   3.628 -0.9468 -0.4777 -0.3969
 9049SOL     OW38779   1.712   3.634   7.264 -0.1028 -0.0071  0.1552
 9049SOL    HW138780   1.766   3.698   7.311 -1.7115  0.2698  1.6260
 9049SOL    HW238781   1.644   3.687   7.222  1.0583  1.0506 -0.4004
 9050SOL     OW38782   2.484   0.241  13.131  0.2032 -0.4537 -0.0903
 9050SOL    HW138783   2.551   0.227  13.198  1.6974  3.7036 -0.7102
 9050SOL    HW238784   2.535   0.279  13.059 -0.1323  1.5205  0.7140
 9051SOL     OW38785   3.711   0.746   8.929  0.2925  0.3452 -0.2619
 9051SOL    HW138786   3.730   0.687   8.856 -1.1744  1.8016 -1.8176
 9051SOL    HW238787   3.732   0.835   8.899 -0.0473  0.9159  1.2196
 9052SOL     OW38788   4.162   4.288  10.649  0.0233  0.3864 -0.0127
 9052SOL    HW138789   4.112   4.347  10.592  0.9765  1.2071  0.0187
 9052SOL    HW238790   4.105   4.213  10.635  1.3161 -0.3159 -1.5272
 9053SOL     OW38791   3.911   1.939   0.543 -1.1042  1.1674  0.1647
 9053SOL    HW138792   3.834   1.969   0.590 -0.5811  1.6887  0.6883
 9053SOL    HW238793   3.878   1.916   0.455 -1.3245  0.7516  0.3533
 9054SOL     OW38794   1.207   0.958   1.788 -0.3483 -0.1142  0.1990
 9054SOL    HW138795   1.284   0.979   1.841 -0.3974  0.2884  0.1114
 9054SOL    HW238796   1.229   0.866   1.774  0.6716  0.3879 -1.4851
 9055SOL     OW38797   1.251   0.877   7.665  0.0392 -0.3242 -0.2464
 9055SOL    HW138798   1.205   0.901   7.584  0.1569 -1.1597 -0.5564
 9055SOL    HW238799   1.337   0.914   7.645  0.4768 -1.1003  0.2168
 9056SOL     OW38800   0.665   1.937   6.621  0.1691 -0.5344  0.2747
 9056SOL    HW138801   0.660   2.027   6.652 -0.4531 -0.0152 -1.3366
 9056SOL    HW238802   0.621   1.944   6.536 -1.8708 -1.5083  1.2452
 9057SOL     OW38803   0.971   1.644   0.871  0.6293  0.2034  0.4591
 9057SOL    HW138804   1.008   1.560   0.898 -1.9987 -0.8517  0.7803
 9057SOL    HW238805   0.887   1.648   0.916 -0.6236 -2.2721 -1.6441
 9058SOL     OW38806   0.901   4.411   6.623  0.0583 -0.0378  0.5160
 9058SOL    HW138807   0.841   4.412   6.697  0.7858 -0.4596  1.1037
 9058SOL    HW238808   0.986   4.378   6.650  0.8655 -0.8340 -2.9459
 9059SOL     OW38809   0.974   0.169   3.322 -0.0538 -0.0075 -0.3374
 9059SOL    HW138810   0.895   0.216   3.348  0.4149 -0.1761  1.3720
 9059SOL    HW238811   0.937   0.085   3.294 -1.3804  0.2051  0.7924
 9060SOL     OW38812   3.492   1.758   0.742 -0.2252  1.0822 -0.0795
 9060SOL    HW138813   3.452   1.841   0.769 -0.9233  0.8479 -0.3758
 9060SOL    HW238814   3.432   1.695   0.783  0.8430 -0.2022 -0.4979
 9061SOL     OW38815   0.913   3.578   5.435  0.3618 -0.2555 -1.0616
 9061SOL    HW138816   0.897   3.633   5.511 -1.7795 -1.1338 -0.8778
 9061SOL    HW238817   0.929   3.647   5.370  2.0874  0.9255  0.6145
 9062SOL     OW38818   4.172   0.766  16.166 -0.1458 -0.2336 -0.4294
 9062SOL    HW138819   4.227   0.704  16.215 -2.4975 -4.0813 -2.6511
 9062SOL    HW238820   4.095   0.776  16.221 -0.4450 -2.9175 -0.3628
 9063SOL     OW38821   3.634   4.119   6.863  0.1123  0.2257 -0.1054
 9063SOL    HW138822   3.547   4.110   6.823  0.1501 -0.1675 -0.0930
 9063SOL    HW238823   3.645   4.214   6.855 -2.1908  0.6989  2.2082
 9064SOL     OW38824   1.030   1.312   5.539 -0.4487 -0.1632 -0.3725
 9064SOL    HW138825   1.096   1.381   5.531 -0.2909 -0.1264  1.2682
 9064SOL    HW238826   0.989   1.345   5.619  3.4396  1.0626  1.1102
 9065SOL     OW38827   0.043   3.781  16.354  0.1226 -0.0826  0.3971
 9065SOL    HW138828   4.702   3.753  16.308  0.5897 -0.4961 -0.1335
 9065SOL    HW238829   0.120   3.740  16.314  1.0796  1.5223  0.5795
 9066SOL     OW38830   1.612   1.172   4.393  0.5249  0.2917 -0.2575
 9066SOL    HW138831   1.583   1.235   4.459  0.3487  0.1013 -0.1516
 9066SOL    HW238832   1.639   1.228   4.321 -0.2165 -0.5795 -1.2101
 9067SOL     OW38833   1.278   3.477   2.499  0.3358 -0.3273  0.2474
 9067SOL    HW138834   1.302   3.391   2.533  1.1337 -0.6261 -1.0663
 9067SOL    HW238835   1.337   3.536   2.544  1.6057 -0.8393 -0.7321
 9068SOL     OW38836   3.271   4.142   2.884  0.3687 -0.2281 -0.1687
 9068SOL    HW138837   3.299   4.228   2.852 -0.5295  0.1455  0.0413
 9068SOL    HW238838   3.292   4.147   2.977  2.1407  0.2095 -0.5951
 9069SOL     OW38839   3.982   2.115   8.196  0.8026 -0.0028 -0.6290
 9069SOL    HW138840   4.078   2.117   8.195  0.7893  0.7143 -0.0565
 9069SOL    HW238841   3.951   2.204   8.211 -1.9760 -0.8183 -1.6146
 9070SOL     OW38842   3.738   2.765   0.604 -0.3683 -0.2721  0.1919
 9070SOL    HW138843   3.651   2.727   0.613 -0.3099 -0.5281 -0.3137
 9070SOL    HW238844   3.719   2.840   0.659  0.2286  0.4000 -0.5258
 9071SOL     OW38845   0.849   2.286   2.349 -0.6228 -0.5672 -0.7033
 9071SOL    HW138846   0.820   2.309   2.261 -0.1550  1.4397 -0.3389
 9071SOL    HW238847   0.815   2.364   2.394  0.7570  0.2458 -1.0704
 9072SOL     OW38848   1.618   2.224   3.658 -0.1195 -0.1430 -0.0519
 9072SOL    HW138849   1.533   2.183   3.667 -0.6030  0.6266 -1.0707
 9072SOL    HW238850   1.603   2.301   3.713  0.1288 -0.5811  0.6227
 9073SOL     OW38851   3.506   3.446  10.000 -0.4337  0.3663  0.1944
 9073SOL    HW138852   3.465   3.375   9.950  3.3907 -2.2310  0.7080
 9073SOL    HW238853   3.560   3.391  10.057 -1.2096 -0.5887  0.0141
 9074SOL     OW38854   1.079   1.754   9.088  0.3056  0.2784  0.5174
 9074SOL    HW138855   1.136   1.817   9.131  2.4705 -0.6102 -1.0677
 9074SOL    HW238856   1.128   1.735   9.008 -1.0251  0.3062 -0.3046
 9075SOL     OW38857   3.409   1.855  14.596  0.1466  0.9800 -0.6106
 9075SOL    HW138858   3.419   1.948  14.613  0.1377  1.0140 -0.8027
 9075SOL    HW238859   3.501   1.828  14.592 -0.8926 -2.2647 -2.6124
 9076SOL     OW38860   2.595   0.227  10.721  0.1309 -0.1851  0.0950
 9076SOL    HW138861   2.634   0.313  10.739 -2.3292  1.2311 -1.4094
 9076SOL    HW238862   2.517   0.245  10.670 -0.4479  0.6839  1.2854
 9077SOL     OW38863   4.708   0.736   2.127 -0.4595  0.5266 -0.1723
 9077SOL    HW138864   4.678   0.664   2.072 -0.0585 -0.3366  0.7428
 9077SOL    HW238865   0.060   0.712   2.150 -0.8866 -1.0770 -0.2217
 9078SOL     OW38866   3.735   1.547  17.223  0.3249 -0.7868  0.3029
 9078SOL    HW138867   3.803   1.563  17.288 -0.1915  1.3961  0.3272
 9078SOL    HW238868   3.782   1.481  17.173 -2.5197 -1.2907 -1.7399
 9079SOL     OW38869   3.597   2.522   1.354 -0.1136  0.3541 -0.0576
 9079SOL    HW138870   3.612   2.610   1.319 -1.6065 -0.1134 -1.8950
 9079SOL    HW238871   3.527   2.553   1.412 -0.3006  0.3374 -0.2720
 9080SOL     OW38872   2.755   4.423   3.007  0.2083 -0.3017  0.2769
 9080SOL    HW138873   2.714   4.469   2.934 -0.9397  0.6627  1.5127
 9080SOL    HW238874   2.846   4.449   2.995 -0.3307  1.4694  0.0510
 9081SOL     OW38875   1.367   1.346   6.365  0.0167 -0.7226  0.0213
 9081SOL    HW138876   1.462   1.351   6.352 -0.0998 -4.2834 -2.1679
 9081SOL    HW238877   1.339   1.388   6.284 -1.5847 -2.4599 -0.3316
 9082SOL     OW38878   3.893   4.372   6.573  0.3084  0.0320 -0.0745
 9082SOL    HW138879   3.904   4.459   6.612  0.7603  0.7289 -1.7618
 9082SOL    HW238880   3.982   4.340   6.557  1.1418  2.1059  0.3498
 9083SOL     OW38881   0.243   1.863   4.168  0.0138 -0.3046  0.3303
 9083SOL    HW138882   0.229   1.899   4.081  1.4043 -0.8228 -0.1082
 9083SOL    HW238883   0.288   1.784   4.139  1.6135  0.3078  1.1310
 9084SOL     OW38884   1.705   1.511  11.211  0.4367  0.0017 -0.1347
 9084SOL    HW138885   1.772   1.531  11.145  1.3459  0.3194  0.8785
 9084SOL    HW238886   1.700   1.415  11.217 -0.3410  0.0805  0.4658
 9085SOL     OW38887   2.655   1.507   4.134  0.0339 -0.5779  0.4658
 9085SOL    HW138888   2.614   1.437   4.185  0.6973 -1.6337 -0.4620
 9085SOL    HW238889   2.594   1.581   4.141  1.3174  0.7552 -2.2804
 9086SOL     OW38890   3.287   1.924   5.696 -0.8244 -0.0996  0.5444
 9086SOL    HW138891   3.293   2.000   5.638 -0.4891  1.0665  2.1076
 9086SOL    HW238892   3.348   1.961   5.760  0.1414 -0.6068 -0.0839
 9087SOL     OW38893   0.704   2.684  16.505  0.3300 -0.1409  0.3101
 9087SOL    HW138894   0.735   2.643  16.586  0.6879  1.1525  0.8274
 9087SOL    HW238895   0.616   2.706  16.533 -0.3696  1.8436 -3.3672
 9088SOL     OW38896   4.186   3.661   3.554 -0.7184 -0.4361 -0.4689
 9088SOL    HW138897   4.185   3.633   3.646  1.5301 -0.9910 -0.6308
 9088SOL    HW238898   4.195   3.577   3.509  0.1446  0.4169 -1.8843
 9089SOL     OW38899   1.733   0.134   0.663 -0.2444  0.3287  0.8378
 9089SOL    HW138900   1.674   0.175   0.601  0.0320 -0.3662  0.1135
 9089SOL    HW238901   1.807   0.134   0.602 -2.0378  0.3979 -1.3348
 9090SOL     OW38902   0.508   3.406   9.031 -0.3239 -0.0630 -0.4887
 9090SOL    HW138903   0.425   3.415   9.079  0.5864 -2.0883  1.4685
 9090SOL    HW238904   0.523   3.311   9.038  0.0508 -0.0842 -1.5914
 9091SOL     OW38905   0.544   0.381   4.865 -0.6473  0.3431  0.1640
 9091SOL    HW138906   0.540   0.427   4.949  1.2039  0.8200 -0.0270
 9091SOL    HW238907   0.564   0.292   4.894  0.2560 -0.0626 -1.7421
 9092SOL     OW38908   3.666   2.005   0.640 -0.2359  0.5098  0.1089
 9092SOL    HW138909   3.633   2.069   0.704 -2.5927 -0.9671  0.3623
 9092SOL    HW238910   3.591   1.974   0.590  1.0148  1.2936 -2.2779
 9093SOL     OW38911   1.365   3.423   4.544  0.4210  0.9086 -0.1295
 9093SOL    HW138912   1.449   3.419   4.497 -0.1682 -0.2123 -1.0897
 9093SOL    HW238913   1.361   3.332   4.572 -0.1929  1.1715  0.6096
 9094SOL     OW38914   1.390   1.917   4.146  0.5655  0.5005 -0.1843
 9094SOL    HW138915   1.299   1.892   4.157  0.9167 -1.5701 -1.8858
 9094SOL    HW238916   1.437   1.857   4.204 -3.1298 -1.8733  0.3175
 9095SOL     OW38917   2.061   4.532   0.615 -0.0785 -0.2636 -0.7987
 9095SOL    HW138918   2.108   4.452   0.589  1.2953 -0.3142  1.8412
 9095SOL    HW238919   1.988   4.500   0.667  2.2385 -0.7996  2.1250
 9096SOL     OW38920   1.912   2.647   6.587  0.4005  0.0411  0.4586
 9096SOL    HW138921   1.995   2.632   6.632  0.9491  0.2267 -0.4787
 9096SOL    HW238922   1.890   2.736   6.611  1.0638 -0.4888  2.9577
 9097SOL     OW38923   1.600   1.348   7.094 -0.7019  0.4638  0.3236
 9097SOL    HW138924   1.598   1.358   6.999  1.7345 -1.6434  0.0465
 9097SOL    HW238925   1.542   1.415   7.128 -0.5621  0.7773 -0.0521
 9098SOL     OW38926   2.394   3.254   3.555  0.6064  0.5751 -0.2650
 9098SOL    HW138927   2.379   3.160   3.544  0.9236  0.3508  1.2333
 9098SOL    HW238928   2.392   3.273   3.462 -0.6167  0.6667 -0.2202
 9099SOL     OW38929   3.947   1.509  14.669 -0.3010 -0.0164 -0.1842
 9099SOL    HW138930   4.027   1.456  14.681  1.5554  2.9882  0.7158
 9099SOL    HW238931   3.978   1.596  14.696 -1.6490  0.1615  0.7974
 9100SOL     OW38932   0.675   1.436  17.429 -0.2423  0.0444 -0.4047
 9100SOL    HW138933   0.691   1.458  17.337 -0.2091  1.1307 -0.1380
 9100SOL    HW238934   0.763   1.436  17.466 -1.2955 -0.5589  2.0471
 9101SOL     OW38935   0.644   3.814   4.074  0.0692  0.0957  0.3245
 9101SOL    HW138936   0.723   3.783   4.119 -1.5850 -0.8251  2.6127
 9101SOL    HW238937   0.684   3.880   4.017 -0.1045 -2.4151 -2.7358
 9102SOL     OW38938   0.634   4.373  16.533  0.1873  0.2248 -0.6824
 9102SOL    HW138939   0.587   4.384  16.616 -0.5196  0.7071 -1.1425
 9102SOL    HW238940   0.583   4.432  16.478  0.1459  0.2921 -0.5709
 9103SOL     OW38941   0.253   2.369   5.695  0.0403 -0.0862  0.1921
 9103SOL    HW138942   0.208   2.439   5.742  0.2602 -0.4365  0.9304
 9103SOL    HW238943   0.228   2.296   5.752 -1.8629 -0.1364 -0.7194
 9104SOL     OW38944   1.747   1.765   8.871  0.6377 -0.5666 -0.5060
 9104SOL    HW138945   1.769   1.679   8.907 -1.2786 -1.1743 -0.8134
 9104SOL    HW238946   1.663   1.789   8.910  0.5524 -0.4097 -0.7879
 9105SOL     OW38947   2.138   2.679  17.519  0.0874  0.1184 -0.0184
 9105SOL    HW138948   2.057   2.679  17.469  0.8708 -2.7676 -1.2651
 9105SOL    HW238949   2.180   2.593  17.517  1.1361  0.6611 -1.8116
 9106SOL     OW38950   0.678   1.509   8.137  0.3542 -0.4604  0.3725
 9106SOL    HW138951   0.758   1.561   8.124  0.9200 -1.6378 -0.8568
 9106SOL    HW238952   0.704   1.419   8.116 -0.8132 -0.5023 -0.8871
 9107SOL     OW38953   2.932   4.648  10.460  0.2558  0.6521  0.4687
 9107SOL    HW138954   2.885   4.702  10.523  0.8346  1.5896  0.0934
 9107SOL    HW238955   2.987   4.600  10.523  0.8646 -0.4609 -0.9072
 9108SOL     OW38956   0.866   4.108   6.744  0.1903 -0.1914 -0.4088
 9108SOL    HW138957   0.841   4.165   6.817 -0.3725  1.5826 -1.9782
 9108SOL    HW238958   0.868   4.025   6.792  1.2280 -0.9896 -1.8294
 9109SOL     OW38959   4.201   1.620   2.814  0.2580  0.3014  0.2206
 9109SOL    HW138960   4.137   1.555   2.842  1.1192 -0.9370 -0.7129
 9109SOL    HW238961   4.139   1.686   2.782 -0.4852  1.0870  3.3303
 9110SOL     OW38962   0.154   3.361  17.513 -0.2295 -0.0215 -0.0729
 9110SOL    HW138963   0.164   3.432  17.576  1.0419 -1.1810  1.0154
 9110SOL    HW238964   0.130   3.412  17.435  0.5206 -1.2177 -1.0887
 9111SOL     OW38965   1.653   4.599  16.519  0.0009 -0.4511  0.0099
 9111SOL    HW138966   1.706   4.547  16.579  0.6565  1.2967  0.9230
 9111SOL    HW238967   1.633   4.543  16.444 -2.2695  1.5076 -0.8476
 9112SOL     OW38968   0.188   2.714   1.575  0.3960  0.5105 -0.2975
 9112SOL    HW138969   0.242   2.742   1.649  0.8541  0.1233 -0.4872
 9112SOL    HW238970   0.253   2.723   1.505  0.2292  4.7005  0.0707
 9113SOL     OW38971   3.033   1.478   5.091  0.2803 -0.2279  0.3803
 9113SOL    HW138972   3.095   1.536   5.048 -1.3687  0.4305 -1.0971
 9113SOL    HW238973   2.968   1.482   5.021 -1.0170  1.9720  1.7363
 9114SOL     OW38974   0.165   1.106   6.463 -0.0751 -0.4421  0.1826
 9114SOL    HW138975   0.110   1.099   6.540  0.9390 -0.4267  0.9122
 9114SOL    HW238976   0.162   1.200   6.445  0.6604 -0.7035 -1.3411
 9115SOL     OW38977   4.411   3.285   2.686  0.3043  0.7259  0.0521
 9115SOL    HW138978   4.478   3.335   2.731  0.2387  0.0507  0.8935
 9115SOL    HW238979   4.330   3.306   2.733 -0.0456 -0.9600  0.1930
 9116SOL     OW38980   3.607   4.657  11.922  0.0598  0.0174 -0.5670
 9116SOL    HW138981   3.657   4.730  11.888 -0.9974  0.0702 -2.0364
 9116SOL    HW238982   3.566   4.623  11.842  1.8884  0.0033 -1.4911
 9117SOL     OW38983   2.946   3.903  11.542  0.1329  0.1165 -0.2598
 9117SOL    HW138984   2.875   3.934  11.485  0.8109  0.2844 -1.0141
 9117SOL    HW238985   2.918   3.950  11.622 -0.2050 -0.1108 -0.2450
 9118SOL     OW38986   1.808   3.103   0.255 -0.0129 -0.6547 -0.1178
 9118SOL    HW138987   1.829   3.096   0.162 -0.2103  1.2202 -0.3164
 9118SOL    HW238988   1.851   3.025   0.289 -1.6068 -2.8700 -3.2607
 9119SOL     OW38989   0.060   2.472   8.118 -0.6268  0.1146  0.0778
 9119SOL    HW138990   4.713   2.508   8.094  0.2295  1.6798 -0.5973
 9119SOL    HW238991   0.106   2.468   8.034 -1.1341  2.3092 -0.3017
 9120SOL     OW38992   1.121   3.621   3.835 -0.1024 -0.1096 -0.0132
 9120SOL    HW138993   1.120   3.544   3.779  1.8298 -1.1311  1.3687
 9120SOL    HW238994   1.030   3.607   3.860  0.9003 -0.6819  3.2996
 9121SOL     OW38995   4.604   3.923  11.302  0.2105  0.8639 -0.4649
 9121SOL    HW138996   4.532   3.864  11.326  1.8651 -0.6415  0.8169
 9121SOL    HW238997   4.632   3.970  11.380 -1.3541  0.7644  0.1563
 9122SOL     OW38998   0.913   4.284   1.979 -0.3812 -0.2321 -0.5615
 9122SOL    HW138999   0.883   4.236   2.056 -1.9394 -0.1650 -1.1198
 9122SOL    HW239000   0.874   4.371   1.986 -0.1589 -0.1585 -0.2415
 9123SOL     OW39001   3.566   2.045  14.797  0.7860  0.0885  0.4827
 9123SOL    HW139002   3.653   2.008  14.810  0.2402 -0.2711  3.0350
 9123SOL    HW239003   3.542   2.057  14.889 -2.0345 -0.6845 -0.1721
 9124SOL     OW39004   1.758   3.093   3.083  0.5921  0.1687 -0.0191
 9124SOL    HW139005   1.701   3.020   3.105 -0.1081  0.1266 -1.9293
 9124SOL    HW239006   1.734   3.157   3.150  0.8067 -0.2018  0.4117
 9125SOL     OW39007   2.168   2.508  16.539  0.3180 -0.1374 -0.5991
 9125SOL    HW139008   2.213   2.461  16.468 -0.5871  2.0891 -2.6451
 9125SOL    HW239009   2.239   2.568  16.563  1.5464 -2.1756  0.9029
 9126SOL     OW39010   3.966   2.369   4.577  0.2800 -0.0910 -0.0636
 9126SOL    HW139011   3.967   2.442   4.638  1.5979 -3.5229  4.0325
 9126SOL    HW239012   3.872   2.350   4.572  0.5265 -1.2492 -0.3226
 9127SOL     OW39013   1.115   0.388   9.663  0.4250 -0.6865 -0.3644
 9127SOL    HW139014   1.069   0.436   9.731  2.5082 -0.3039  0.7563
 9127SOL    HW239015   1.067   0.305   9.656  2.5976 -2.0814  1.3430
 9128SOL     OW39016   0.037   4.038  16.246 -0.2010 -0.0857  0.1956
 9128SOL    HW139017   0.022   3.984  16.168  0.4076 -0.3671  0.2680
 9128SOL    HW239018   0.040   3.964  16.307 -0.1975 -0.7466 -0.6037
 9129SOL     OW39019   4.193   0.645  14.997  0.0442 -0.0869 -0.5525
 9129SOL    HW139020   4.237   0.716  15.044  0.0637 -0.2936 -0.2571
 9129SOL    HW239021   4.270   0.588  14.990  0.6412  0.9326 -2.2928
 9130SOL     OW39022   3.937   1.953   1.390 -0.1614 -0.0702 -0.4306
 9130SOL    HW139023   4.011   1.892   1.396  0.0552  0.3092  0.7365
 9130SOL    HW239024   3.905   1.938   1.479  0.1217 -0.6596 -0.4241
 9131SOL     OW39025   0.634   2.891   2.938 -0.1670 -0.1728  0.0196
 9131SOL    HW139026   0.609   2.923   3.025 -1.1861 -0.7215 -0.0648
 9131SOL    HW239027   0.558   2.834   2.923 -0.0718  0.0707 -1.3398
 9132SOL     OW39028   2.547   1.952   3.803 -0.0397 -0.2639  0.1015
 9132SOL    HW139029   2.637   1.970   3.775 -0.6208 -1.4565 -2.5373
 9132SOL    HW239030   2.523   1.891   3.733  0.3285  1.0298 -1.1335
 9133SOL     OW39031   3.351   1.314   8.986 -0.6240 -0.1122 -0.2806
 9133SOL    HW139032   3.353   1.377   8.913  0.2823 -0.4844 -0.5727
 9133SOL    HW239033   3.364   1.374   9.059 -2.0333 -0.2723  0.1021
 9134SOL     OW39034   3.339   2.753  11.627  0.1460  0.5345 -0.0403
 9134SOL    HW139035   3.339   2.685  11.560  1.0606  0.9084 -0.4165
 9134SOL    HW239036   3.428   2.789  11.628  1.9485 -3.9421  3.0645
 9135SOL     OW39037   1.584   1.822   4.523 -0.4073  0.5722  0.2374
 9135SOL    HW139038   1.671   1.859   4.536 -0.1775 -0.5239  1.9000
 9135SOL    HW239039   1.581   1.752   4.589 -1.9713 -1.2363 -1.7369
 9136SOL     OW39040   3.813   2.120  10.945 -0.0743 -0.0011 -0.3077
 9136SOL    HW139041   3.824   2.214  10.961  2.6293 -0.6720  1.8416
 9136SOL    HW239042   3.903   2.104  10.915  0.9058 -1.2967  3.3378
 9137SOL     OW39043   0.540   1.772   4.284 -0.9046 -0.1696 -0.4738
 9137SOL    HW139044   0.499   1.836   4.226 -0.3856 -0.6325 -1.3487
 9137SOL    HW239045   0.528   1.700   4.223 -0.8979 -0.4540 -0.1396
 9138SOL     OW39046   1.436   0.753   3.218  0.0633  0.2114  0.5537
 9138SOL    HW139047   1.375   0.815   3.258 -2.4856 -0.0466 -2.9540
 9138SOL    HW239048   1.374   0.700   3.166  0.8435 -1.5028  1.3598
 9139SOL     OW39049   4.410   1.354   7.560 -0.2338  0.0527  0.5567
 9139SOL    HW139050   4.394   1.322   7.648  5.1302 -1.8788  0.7896
 9139SOL    HW239051   4.459   1.433   7.582 -0.4945 -0.3736  2.6013
 9140SOL     OW39052   3.973   4.677  10.145 -0.0463  0.2618 -0.2255
 9140SOL    HW139053   3.883   4.669  10.179  0.2304  0.8448  0.6440
 9140SOL    HW239054   3.961   0.022  10.099  1.6063 -0.1443 -1.3610
 9141SOL     OW39055   3.930   0.654   6.652 -0.5354 -0.7509  0.1520
 9141SOL    HW139056   3.986   0.673   6.727  1.5789 -1.6652 -1.2133
 9141SOL    HW239057   3.966   0.575   6.612  0.5620 -0.9796  1.6120
 9142SOL     OW39058   3.974   1.294  16.510  0.1093 -0.8673  0.4108
 9142SOL    HW139059   4.052   1.240  16.528  0.0142 -1.0687  0.2170
 9142SOL    HW239060   3.919   1.222  16.478  0.8048 -0.7979 -0.9063
 9143SOL     OW39061   1.643   1.400   6.238  0.0817 -0.2683 -0.5341
 9143SOL    HW139062   1.720   1.421   6.291 -3.5562  2.1283  3.8465
 9143SOL    HW239063   1.631   1.480   6.189  1.7725 -0.1401 -0.7330
 9144SOL     OW39064   1.098   2.295  15.609 -0.0847 -0.0456 -0.2577
 9144SOL    HW139065   1.129   2.376  15.569 -0.4192 -0.8241 -2.0607
 9144SOL    HW239066   1.181   2.249  15.622  0.8468  1.7023 -0.1439
 9145SOL     OW39067   0.578   1.269  14.552  0.2176  0.0498  0.2507
 9145SOL    HW139068   0.559   1.355  14.591  0.2639  0.6512 -1.0310
 9145SOL    HW239069   0.668   1.289  14.526  0.0696 -0.5747 -0.7213
 9146SOL     OW39070   2.072   0.868   8.428 -0.5020 -0.0841  0.0025
 9146SOL    HW139071   2.119   0.785   8.429  2.0306  1.3459 -3.0692
 9146SOL    HW239072   2.066   0.878   8.523  0.2075 -1.4059  0.1838
 9147SOL     OW39073   0.034   4.024   4.694  0.4900 -0.0485  0.3460
 9147SOL    HW139074   0.006   3.934   4.679  1.2848 -0.7931  3.2705
 9147SOL    HW239075   0.119   4.033   4.652  1.2531 -1.2340  1.6491
 9148SOL     OW39076   4.318   4.112   8.644 -0.2851 -0.4143 -0.2624
 9148SOL    HW139077   4.390   4.146   8.697  0.1902  1.9509 -2.4278
 9148SOL    HW239078   4.295   4.193   8.599  1.1140 -0.4671 -1.0842
 9149SOL     OW39079   0.491   4.701  17.493 -0.2211 -0.1188 -0.5517
 9149SOL    HW139080   0.478   4.607  17.505 -2.1116  0.5351  2.3940
 9149SOL    HW239081   0.403   4.725  17.464 -0.5570 -0.2865  0.3278
 9150SOL     OW39082   4.470   3.769   1.073  0.2658  0.3218  0.1351
 9150SOL    HW139083   4.428   3.812   0.999  0.2257 -0.6964 -0.4461
 9150SOL    HW239084   4.425   3.797   1.153 -0.5360 -2.1664  0.5767
 9151SOL     OW39085   1.742   4.015  17.505 -0.0722 -0.1376 -0.7186
 9151SOL    HW139086   1.726   4.109  17.504 -1.0886 -0.2888  0.9693
 9151SOL    HW239087   1.822   4.000  17.456  0.5752  1.8505 -0.2454
 9152SOL     OW39088   0.898   0.377  12.219 -0.3247 -0.0292 -0.5538
 9152SOL    HW139089   0.854   0.378  12.304 -0.4285 -1.6549 -0.5787
 9152SOL    HW239090   0.825   0.340  12.168 -1.4850 -0.1703  1.2234
 9153SOL     OW39091   1.719   2.379   4.873  0.5148 -0.3439  0.5684
 9153SOL    HW139092   1.758   2.465   4.891  0.2295 -0.2955  0.9408
 9153SOL    HW239093   1.711   2.346   4.962  2.5499  1.5845  1.4750
 9154SOL     OW39094   2.170   1.203   5.358  0.1725 -0.1968  0.0099
 9154SOL    HW139095   2.138   1.293   5.350 -1.9570 -1.0177 -0.5911
 9154SOL    HW239096   2.183   1.184   5.451  0.4419  1.5895  0.3501
 9155SOL     OW39097   2.498   0.413  12.062  0.5226  0.5843 -0.5304
 9155SOL    HW139098   2.543   0.364  12.131 -1.2553  0.6106  0.6687
 9155SOL    HW239099   2.495   0.501  12.100  1.4676  1.2468 -1.9951
 9156SOL     OW39100   4.296   4.633   8.988 -0.1172  0.7073  0.0462
 9156SOL    HW139101   4.368   4.681   9.028 -0.9630  0.2611  2.1293
 9156SOL    HW239102   4.237   4.631   9.063 -0.5145 -1.8157 -0.3284
 9157SOL     OW39103   1.028   1.859  17.270  0.0080  0.5354 -0.0923
 9157SOL    HW139104   0.966   1.884  17.338 -0.3380 -1.3521  0.2733
 9157SOL    HW239105   1.026   1.765  17.290  2.7014 -0.0083 -2.2972
 9158SOL     OW39106   4.368   1.562   1.546  0.1415 -0.3600 -0.5398
 9158SOL    HW139107   4.368   1.636   1.484  2.6534  1.1432  1.2591
 9158SOL    HW239108   4.274   1.553   1.563 -0.4219  3.0992 -1.6985
 9159SOL     OW39109   1.301   3.820   2.373 -0.1337  0.2289 -0.2927
 9159SOL    HW139110   1.267   3.766   2.303 -1.5125  1.2722 -0.4241
 9159SOL    HW239111   1.390   3.818   2.337 -1.0176  0.6857 -2.4727
 9160SOL     OW39112   4.555   0.690   3.421 -0.2655 -0.3212 -0.0748
 9160SOL    HW139113   4.612   0.691   3.344 -1.8714 -1.1876 -1.2521
 9160SOL    HW239114   4.577   0.607   3.464  2.8588  1.2130  1.3072
 9161SOL     OW39115   3.286   2.550   2.594 -0.1827  0.2879  0.4642
 9161SOL    HW139116   3.334   2.631   2.610 -2.8326  2.0458 -0.5443
 9161SOL    HW239117   3.363   2.494   2.582  0.2280  1.4495 -2.2315
 9162SOL     OW39118   0.698   3.021   6.468  0.6632 -0.4981  0.7630
 9162SOL    HW139119   0.697   3.061   6.555 -2.6351  3.4604 -1.1094
 9162SOL    HW239120   0.656   2.936   6.483  1.1639 -0.9789 -0.5769
 9163SOL     OW39121   0.135   2.463   7.837  0.1531  0.0557 -0.2394
 9163SOL    HW139122   0.214   2.410   7.830  1.5278  2.0762 -0.2736
 9163SOL    HW239123   0.167   2.537   7.785 -1.8791  1.1367  0.0585
 9164SOL     OW39124   1.890   4.255  15.857 -0.2974  0.8543 -0.2108
 9164SOL    HW139125   1.835   4.312  15.802 -2.3778  0.3364  1.3092
 9164SOL    HW239126   1.942   4.321  15.903  0.2800  1.6239 -1.9775
 9165SOL     OW39127   1.222   2.942   2.288  0.1648  0.3663  0.0750
 9165SOL    HW139128   1.279   2.982   2.222 -1.1493  0.3580 -1.0702
 9165SOL    HW239129   1.278   2.921   2.363 -2.0994  1.0139  1.9361
 9166SOL     OW39130   3.895   1.185   1.697 -0.0338 -0.2715 -0.1598
 9166SOL    HW139131   3.968   1.190   1.758 -0.2154  0.3553  0.0112
 9166SOL    HW239132   3.818   1.211   1.748  0.3161  0.5628 -0.0564
 9167SOL     OW39133   3.132   1.050   8.898  0.3566 -0.3433  0.0108
 9167SOL    HW139134   3.135   1.040   8.993 -1.3812  0.6127  0.1665
 9167SOL    HW239135   3.226   1.039   8.884  0.4841  2.3740 -1.2522
 9168SOL     OW39136   0.099   2.269   1.694 -0.0768  0.2854  0.2935
 9168SOL    HW139137   0.041   2.345   1.684 -0.8399 -0.5244 -1.6031
 9168SOL    HW239138   0.100   2.227   1.607 -1.2585  2.0371 -0.5613
 9169SOL     OW39139   3.767   0.732   9.477  0.0172 -0.0219 -0.1291
 9169SOL    HW139140   3.794   0.736   9.385 -0.0274 -0.4268 -0.1590
 9169SOL    HW239141   3.728   0.819   9.482  0.2939  0.0636  0.5194
 9170SOL     OW39142   1.979   0.622   1.283 -0.5959  0.7123  0.4996
 9170SOL    HW139143   1.892   0.663   1.289  0.0369  2.0945  0.3204
 9170SOL    HW239144   1.962   0.549   1.341 -1.3423  0.9957  0.6407
 9171SOL     OW39145   3.654   2.319   4.571 -0.0277 -0.2231  0.1169
 9171SOL    HW139146   3.612   2.321   4.657 -1.9277  2.1433 -0.8349
 9171SOL    HW239147   3.638   2.408   4.539  1.0634  0.2518  0.8911
 9172SOL     OW39148   3.873   1.983   1.682  0.1098 -0.3922  0.1556
 9172SOL    HW139149   3.783   2.013   1.691 -0.0627 -0.9036  0.1463
 9172SOL    HW239150   3.928   2.026   1.747  2.0747 -1.1107 -1.0324
 9173SOL     OW39151   1.044   4.276   5.965  0.0947 -0.4816 -0.2099
 9173SOL    HW139152   1.129   4.304   5.928 -0.2258  1.5848  0.6314
 9173SOL    HW239153   0.987   4.311   5.897  1.5433 -0.1453 -1.2679
 9174SOL     OW39154   1.506   2.245   6.563  0.2920  0.0259  0.0573
 9174SOL    HW139155   1.598   2.222   6.578 -0.1815 -0.7268  1.8158
 9174SOL    HW239156   1.522   2.321   6.508 -0.4682  0.6747  0.7488
 9175SOL     OW39157   1.589   0.968   1.710  0.2210 -0.0383 -0.1454
 9175SOL    HW139158   1.597   1.031   1.782  2.9873  0.4197 -0.8725
 9175SOL    HW239159   1.597   1.028   1.637 -1.1688 -1.4225 -1.4322
 9176SOL     OW39160   3.407   2.296   1.705  0.1142 -0.0992  0.2678
 9176SOL    HW139161   3.406   2.346   1.624  2.0706  0.8689  0.8517
 9176SOL    HW239162   3.493   2.313   1.741 -0.4891  1.2025  1.0721
 9177SOL     OW39163   0.275   0.618   2.771 -0.5360 -0.4225  0.5916
 9177SOL    HW139164   0.269   0.543   2.712  3.7725 -0.3482  0.0580
 9177SOL    HW239165   0.188   0.625   2.811 -0.7141  2.6454 -0.2845
 9178SOL     OW39166   1.971   0.665   2.405  0.4241 -0.4080  0.0156
 9178SOL    HW139167   2.033   0.725   2.447  1.8793 -1.8441 -0.0665
 9178SOL    HW239168   1.982   0.692   2.314  1.3610  0.5192  0.4012
 9179SOL     OW39169   1.284   0.375   6.771  0.1703  0.2999  0.2912
 9179SOL    HW139170   1.225   0.447   6.793  0.1184  0.3484 -0.0013
 9179SOL    HW239171   1.316   0.396   6.683 -1.9089 -0.1012 -0.5615
 9180SOL     OW39172   2.144   2.390   6.693  0.0551 -0.0311  0.3277
 9180SOL    HW139173   2.214   2.328   6.676  0.8531  0.6890  0.9841
 9180SOL    HW239174   2.074   2.328   6.716 -1.0688  0.6235 -1.3150
 9181SOL     OW39175   2.848   1.550   6.592 -0.1926  0.1625 -0.5083
 9181SOL    HW139176   2.843   1.635   6.636 -2.0474  0.5465 -1.4751
 9181SOL    HW239177   2.855   1.488   6.665  2.8931 -0.9277 -1.7348
 9182SOL     OW39178   0.601   3.904   2.412  0.4863 -0.0068  0.0853
 9182SOL    HW139179   0.691   3.933   2.402  0.5310  0.6974  2.4721
 9182SOL    HW239180   0.560   3.987   2.437  0.0158 -0.1688 -0.1510
 9183SOL     OW39181   0.017   3.555   5.034  0.5169 -0.1550  0.5553
 9183SOL    HW139182   0.091   3.610   5.059 -1.1918  1.2861  2.4732
 9183SOL    HW239183   0.021   3.559   4.939 -1.3107  1.5062  0.5431
 9184SOL     OW39184   2.815   1.557  15.415 -0.1614 -0.0310 -0.0668
 9184SOL    HW139185   2.735   1.603  15.391 -0.6374 -1.1650 -0.6485
 9184SOL    HW239186   2.782   1.470  15.392  0.6411 -0.0500 -1.1398
 9185SOL     OW39187   0.205   3.351   7.405 -0.0762 -0.0481 -0.4894
 9185SOL    HW139188   0.163   3.285   7.350 -0.4006 -1.4441  1.4081
 9185SOL    HW239189   0.287   3.363   7.357  1.2437  1.0137  2.0330
 9186SOL     OW39190   1.098   1.428   1.080 -0.4495 -0.0131  0.3133
 9186SOL    HW139191   1.004   1.441   1.091 -0.2801  0.3626  1.2289
 9186SOL    HW239192   1.122   1.449   1.170 -0.3186 -1.3289  0.5943
 9187SOL     OW39193   4.226   3.559  17.744  0.1481  0.1383  0.4566
 9187SOL    HW139194   4.293   3.519   0.049  0.7562  2.3510  1.3577
 9187SOL    HW239195   4.270   3.574  17.660 -0.4981  0.0149  0.0954
 9188SOL     OW39196   1.862   4.458   7.268 -0.3575  0.4597 -0.1071
 9188SOL    HW139197   1.780   4.493   7.302 -1.1544 -0.4621 -1.0368
 9188SOL    HW239198   1.922   4.527   7.294 -0.8660 -0.0043  2.2930
 9189SOL     OW39199   3.085   1.891   6.483  0.4448 -0.2027 -0.1781
 9189SOL    HW139200   3.160   1.936   6.522 -0.1418  1.5950 -1.1125
 9189SOL    HW239201   3.103   1.798   6.498  3.7221  1.0361  3.5221
 9190SOL     OW39202   3.563   4.477   5.513 -0.0002  0.0322 -0.1942
 9190SOL    HW139203   3.559   4.388   5.549 -0.3730  0.9794  2.0912
 9190SOL    HW239204   3.491   4.518   5.562  0.1209 -2.4532  2.0868
 9191SOL     OW39205   3.296   2.801   3.604 -0.2125  0.0830 -0.5681
 9191SOL    HW139206   3.275   2.719   3.650  0.3812  0.4576  0.3692
 9191SOL    HW239207   3.229   2.865   3.625 -0.6299  0.5141 -3.2627
 9192SOL     OW39208   0.884   4.625   8.173 -0.5722  0.0229  0.5482
 9192SOL    HW139209   0.820   4.605   8.241  0.1220 -1.5340  0.7232
 9192SOL    HW239210   0.846   4.706   8.138 -0.8790  0.2847  1.4753
 9193SOL     OW39211   3.607   3.937   2.668 -0.6383  0.3062 -0.6503
 9193SOL    HW139212   3.694   3.961   2.636 -0.0064 -1.0816  0.0273
 9193SOL    HW239213   3.604   3.842   2.651 -2.3477  0.4321 -1.0232
 9194SOL     OW39214   1.662   3.695   7.778  0.3394 -0.0395 -0.1648
 9194SOL    HW139215   1.593   3.745   7.822 -0.0827 -1.6303  0.9754
 9194SOL    HW239216   1.624   3.609   7.796  3.2735 -1.3969 -0.4647
 9195SOL     OW39217   3.609   2.992   7.141 -0.0365 -0.2318  0.1109
 9195SOL    HW139218   3.631   2.941   7.219  4.7488 -1.9576 -2.4117
 9195SOL    HW239219   3.633   2.941   7.064 -0.9718  1.3652 -1.2284
 9196SOL     OW39220   0.392   4.487   6.207  0.1941 -0.2121  0.4189
 9196SOL    HW139221   0.440   4.570   6.212  2.3702 -1.4243 -0.1395
 9196SOL    HW239222   0.348   4.505   6.123  2.4632 -0.0889 -0.7568
 9197SOL     OW39223   3.378   2.106   9.078  0.4297  0.0986  0.0048
 9197SOL    HW139224   3.325   2.174   9.119 -0.6141 -1.1153  0.6712
 9197SOL    HW239225   3.323   2.060   9.015 -1.9430  1.6449  0.9333
 9198SOL     OW39226   1.661   4.407  16.713  0.0182 -0.0746  0.0470
 9198SOL    HW139227   1.615   4.348  16.654  0.1457  0.6167 -0.7542
 9198SOL    HW239228   1.748   4.368  16.725  0.2211  0.4411  0.2570
 9199SOL     OW39229   0.581   4.504   5.292 -0.4901 -0.0702  0.4845
 9199SOL    HW139230   0.501   4.532   5.248 -0.1152  2.0546  1.1846
 9199SOL    HW239231   0.544   4.440   5.352  1.4755 -0.4637  1.2695
 9200SOL     OW39232   4.472   4.044   4.418 -0.6630  0.0546  0.1619
 9200SOL    HW139233   4.461   4.115   4.481 -1.7733 -0.0682  0.0956
 9200SOL    HW239234   4.386   4.034   4.378  0.3781  0.9413 -2.3446
 9201SOL     OW39235   3.443   0.007   5.602 -0.0641 -0.4903  0.1613
 9201SOL    HW139236   3.392   0.063   5.660  0.5091 -0.3346  0.5073
 9201SOL    HW239237   3.509   4.735   5.670  0.2139  0.1115 -0.0164
 9202SOL     OW39238   0.644   4.539   8.303  0.3152  0.0814  0.4612
 9202SOL    HW139239   0.574   4.601   8.283  1.5611  1.4935  0.4439
 9202SOL    HW239240   0.619   4.506   8.389  3.0768  0.9211  1.6122
 9203SOL     OW39241   2.905   0.050   7.290  0.0647  0.1193  0.7751
 9203SOL    HW139242   2.877   4.703   7.325  1.7807 -1.1746 -1.0220
 9203SOL    HW239243   2.991   0.041   7.251 -0.2228  1.5347 -0.1975
 9204SOL     OW39244   1.803   2.570  17.563  0.0899  0.0258 -0.2789
 9204SOL    HW139245   1.809   2.614  17.648 -0.4279  0.3356 -0.4009
 9204SOL    HW239246   1.850   2.635  17.511 -0.0133 -0.6341 -1.1826
 9205SOL     OW39247   4.006   1.757   9.844  0.1469  0.0372  0.2209
 9205SOL    HW139248   4.065   1.711   9.904 -0.2832 -1.7043 -0.7114
 9205SOL    HW239249   4.072   1.813   9.803  0.2985  2.3195  3.5513
 9206SOL     OW39250   0.013   0.197   3.120  0.4453  0.1190  0.3494
 9206SOL    HW139251   4.729   0.242   3.039  1.8250  0.8461  0.3856
 9206SOL    HW239252   0.085   0.142   3.090 -1.7088 -2.4446 -0.2260
 9207SOL     OW39253   0.915   0.773  15.134  0.0657 -0.0631 -0.5793
 9207SOL    HW139254   0.963   0.727  15.066 -0.2072 -1.4240  0.1521
 9207SOL    HW239255   0.906   0.862  15.099 -0.0980 -0.2524 -1.0247
 9208SOL     OW39256   4.692   3.995   1.569 -0.0495 -0.2362 -0.7117
 9208SOL    HW139257   4.725   3.989   1.658 -0.3923  1.9703 -0.4378
 9208SOL    HW239258   0.037   3.983   1.523  1.1396 -1.4602  1.7948
 9209SOL     OW39259   4.721   4.171   3.997 -0.9810 -0.7031  0.0844
 9209SOL    HW139260   4.663   4.135   3.930 -2.2379 -0.5706  1.1224
 9209SOL    HW239261   4.716   4.110   4.070  1.4282 -0.6654  0.2837
 9210SOL     OW39262   1.084   1.608   3.292 -0.0821 -0.5661  0.4869
 9210SOL    HW139263   1.145   1.616   3.219  0.4504  0.6235  1.0670
 9210SOL    HW239264   1.003   1.586   3.247 -1.0387  4.3671 -0.1773
 9211SOL     OW39265   3.358   4.545   8.254  1.1900 -0.1213  0.2362
 9211SOL    HW139266   3.386   4.546   8.162  4.8997  0.8932  1.3964
 9211SOL    HW239267   3.328   4.454   8.249  0.5691  0.0541  0.6920
 9212SOL     OW39268   1.325   0.860  13.405 -0.9286  0.1911  0.0940
 9212SOL    HW139269   1.319   0.938  13.460 -0.3987 -0.8333  1.6034
 9212SOL    HW239270   1.419   0.842  13.405 -0.8980  0.3661  0.3999
 9213SOL     OW39271   2.376   2.337   3.050  0.0052 -0.2926  0.1875
 9213SOL    HW139272   2.289   2.376   3.051  0.1796  0.0514  1.1465
 9213SOL    HW239273   2.394   2.311   3.140  0.9311 -1.4455 -0.3355
 9214SOL     OW39274   0.849   2.900  17.063  0.5566 -0.2079 -0.2062
 9214SOL    HW139275   0.941   2.896  17.037  0.6876  0.5128  0.1593
 9214SOL    HW239276   0.853   2.994  17.079 -0.2830 -0.0489 -0.9598
 9215SOL     OW39277   2.653   2.951   3.059  0.0610  0.1863  0.4329
 9215SOL    HW139278   2.635   2.939   2.966  0.2489 -0.0243  0.4244
 9215SOL    HW239279   2.597   3.027   3.075 -0.0186  0.1624  0.2653
 9216SOL     OW39280   3.285   2.370   2.335 -0.1617 -0.1055  0.5632
 9216SOL    HW139281   3.351   2.381   2.403 -1.9563  2.3856  1.8749
 9216SOL    HW239282   3.203   2.377   2.383  0.6166  4.5001  1.2122
 9217SOL     OW39283   3.229   3.309   0.499  0.0411 -0.1895  0.7101
 9217SOL    HW139284   3.306   3.358   0.527 -1.7144  1.4839  2.6107
 9217SOL    HW239285   3.256   3.312   0.407  0.2523 -1.4467  0.7392
 9218SOL     OW39286   2.075   0.559  11.200 -0.2799 -0.2802  0.0530
 9218SOL    HW139287   2.007   0.540  11.135 -0.9414 -1.5198  1.1083
 9218SOL    HW239288   2.087   0.653  11.183 -0.2082 -0.3020 -0.0144
 9219SOL     OW39289   2.207   0.270  17.697  0.1931 -0.4818 -0.4238
 9219SOL    HW139290   2.130   0.213  17.688 -0.2164  0.1700 -1.0098
 9219SOL    HW239291   2.265   0.229   0.011  1.0331  2.1670  0.4960
 9220SOL     OW39292   0.451   2.069   1.465  0.0640  0.2074  0.4232
 9220SOL    HW139293   0.527   2.127   1.460  1.4860 -1.5204  1.5048
 9220SOL    HW239294   0.484   2.000   1.524  0.7228  1.1625  1.1637
 9221SOL     OW39295   2.901   1.494   4.300  0.5841  0.0355 -0.2154
 9221SOL    HW139296   2.952   1.550   4.240  0.4282  1.0021  0.5542
 9221SOL    HW239297   2.817   1.494   4.255  1.3794  1.6298 -1.7176
 9222SOL     OW39298   4.368   4.730   5.555  0.3647 -0.1281 -0.1022
 9222SOL    HW139299   4.443   4.691   5.509  0.5032 -1.1136  0.9625
 9222SOL    HW239300   4.418   0.057   5.605  1.5956 -0.3943 -0.9952
 9223SOL     OW39301   3.985   2.543  17.555  0.0464  0.2689  0.0074
 9223SOL    HW139302   4.056   2.599  17.523  0.1206  0.0700 -0.1761
 9223SOL    HW239303   4.027   2.477  17.610  3.6198  2.2846 -0.3354
 9224SOL     OW39304   2.872   0.472   7.582  0.5789  0.1242  0.3097
 9224SOL    HW139305   2.887   0.404   7.647  0.6015  1.2437  1.4700
 9224SOL    HW239306   2.926   0.540   7.621 -0.9649 -0.4451  3.4455
 9225SOL     OW39307   4.477   3.515   3.747 -0.7131  0.4054  0.3703
 9225SOL    HW139308   4.511   3.443   3.800 -1.4014 -0.5342 -0.4754
 9225SOL    HW239309   4.434   3.476   3.671 -0.8641  0.3137  0.5029
 9226SOL     OW39310   3.204   2.000  11.151 -0.1256  0.2330 -0.0916
 9226SOL    HW139311   3.192   2.093  11.169 -0.3607  0.0449  0.7333
 9226SOL    HW239312   3.215   1.968  11.240  2.6052 -0.2487 -0.6067
 9227SOL     OW39313   3.391   1.510   8.801  0.0476  0.0943 -0.6549
 9227SOL    HW139314   3.431   1.531   8.716  0.2047  1.0163 -0.3539
 9227SOL    HW239315   3.443   1.565   8.860 -0.2050 -2.3461  1.8474
 9228SOL     OW39316   2.235   1.501   2.207  0.1262  0.4092 -0.3553
 9228SOL    HW139317   2.255   1.407   2.200 -0.2325  0.3127 -0.0390
 9228SOL    HW239318   2.140   1.500   2.201 -0.1845 -0.2884  5.2366
 9229SOL     OW39319   3.700   0.588   8.719 -0.2628 -0.6106 -0.0454
 9229SOL    HW139320   3.642   0.632   8.657 -0.2327  1.8768  1.7270
 9229SOL    HW239321   3.714   0.509   8.667 -1.7297 -2.3538  2.2416
 9230SOL     OW39322   1.832   0.514   3.223 -0.9590  0.3503  0.5592
 9230SOL    HW139323   1.916   0.489   3.261 -0.8186  0.2854  0.2044
 9230SOL    HW239324   1.846   0.607   3.209 -1.0947  0.1650 -0.7952
 9231SOL     OW39325   3.469   3.183   0.882 -0.2020 -0.0901 -0.2933
 9231SOL    HW139326   3.503   3.259   0.928  1.3962 -0.8076 -0.2890
 9231SOL    HW239327   3.426   3.151   0.962  2.7667 -1.2538  0.8408
 9232SOL     OW39328   4.350   2.455  16.201  0.5742 -0.3246 -0.4043
 9232SOL    HW139329   4.422   2.486  16.146  0.4021 -0.2161 -0.5685
 9232SOL    HW239330   4.378   2.367  16.227  2.4319 -0.7833 -3.8965
 9233SOL     OW39331   0.967   0.091   0.272 -0.3641  0.2999 -0.1545
 9233SOL    HW139332   1.029   0.027   0.236 -0.3285 -0.6015  1.5088
 9233SOL    HW239333   0.881   0.058   0.248  0.0943  1.1176 -2.9879
 9234SOL     OW39334   4.075   0.467   4.420 -0.0458 -0.0983 -0.0968
 9234SOL    HW139335   4.138   0.493   4.486  0.7503  0.2484 -0.9904
 9234SOL    HW239336   4.005   0.531   4.430  1.3998  1.5562 -0.6187
 9235SOL     OW39337   1.976   4.113   9.230  0.0281  0.1158  0.1034
 9235SOL    HW139338   1.894   4.066   9.247  1.4826 -2.1239  0.9782
 9235SOL    HW239339   1.954   4.192   9.180 -0.3559  1.4808  2.4556
 9236SOL     OW39340   2.013   2.544   5.159  0.1283  0.6861 -0.0215
 9236SOL    HW139341   2.047   2.513   5.243  0.1029 -1.3245 -0.7507
 9236SOL    HW239342   2.057   2.629   5.158  2.8896 -0.7163  2.0584
 9237SOL     OW39343   2.530   0.288   0.255 -0.5338  0.0669 -0.1393
 9237SOL    HW139344   2.437   0.310   0.249 -0.3227  1.2621  0.9527
 9237SOL    HW239345   2.551   0.310   0.346  1.3175 -0.4951 -0.4359
 9238SOL     OW39346   2.553   3.941  17.613 -0.3286  0.3380 -0.7714
 9238SOL    HW139347   2.514   4.019  17.651  1.9957  1.0174  0.2293
 9238SOL    HW239348   2.640   3.951  17.653 -0.3050  0.5099 -0.8658
 9239SOL     OW39349   1.383   4.320  17.730 -0.1755  0.4605  0.2370
 9239SOL    HW139350   1.369   4.362  17.646 -2.6347 -1.6369 -0.3847
 9239SOL    HW239351   1.307   4.349   0.032 -1.0017 -1.3408  0.0300
 9240SOL     OW39352   1.586   3.433   3.013  0.6054  0.0255  0.0176
 9240SOL    HW139353   1.623   3.446   2.926  1.0873 -2.1174 -0.0898
 9240SOL    HW239354   1.504   3.385   2.999  1.2288 -1.1124  0.2235
 9241SOL     OW39355   2.864   4.501  10.771 -0.5722 -0.2329 -0.0894
 9241SOL    HW139356   2.895   4.564  10.837  1.6734 -1.3001 -0.1383
 9241SOL    HW239357   2.807   4.555  10.716 -0.8313  0.6371  1.0306
 9242SOL     OW39358   1.738   4.056   7.721 -0.0081  0.9158 -0.7348
 9242SOL    HW139359   1.683   4.037   7.797  2.5200  0.6616  1.0369
 9242SOL    HW239360   1.693   4.136   7.696 -0.7984  1.0628  1.2175
 9243SOL     OW39361   3.062   1.383  16.332  0.3266  0.0475  0.1715
 9243SOL    HW139362   3.143   1.418  16.295 -0.5757  0.7030 -1.1990
 9243SOL    HW239363   3.021   1.365  16.247  0.1221 -3.0129  0.9211
 9244SOL     OW39364   3.324   0.985   3.334  0.0772  0.5862  0.2593
 9244SOL    HW139365   3.249   1.042   3.353 -0.5736 -1.6051  4.0818
 9244SOL    HW239366   3.297   0.932   3.259 -0.4666  2.4238 -0.8570
 9245SOL     OW39367   3.889   1.786   9.591 -0.3812 -0.1930 -0.4043
 9245SOL    HW139368   3.827   1.858   9.582 -0.6788 -0.2320  1.4118
 9245SOL    HW239369   3.920   1.799   9.680 -2.5575 -1.5635  0.5546
 9246SOL     OW39370   4.585   3.061   8.483 -0.0207  0.6919  0.1941
 9246SOL    HW139371   4.621   2.972   8.488  1.4662  1.3130  0.3991
 9246SOL    HW239372   4.618   3.090   8.398 -3.6669  2.5851 -0.5500
 9247SOL     OW39373   4.383   3.594  12.904  0.0800 -0.3792 -0.1969
 9247SOL    HW139374   4.305   3.546  12.876  1.0627 -1.5279 -0.9557
 9247SOL    HW239375   4.424   3.604  12.818 -1.7367  1.2651 -0.9002
 9248SOL     OW39376   3.919   3.393   9.154 -0.4891 -0.5854  0.4073
 9248SOL    HW139377   4.014   3.380   9.148 -0.8882 -1.8445 -3.2211
 9248SOL    HW239378   3.909   3.460   9.086 -2.2771  0.2853  1.5188
 9249SOL     OW39379   4.230   1.392   9.908  0.6961  0.1162  0.0321
 9249SOL    HW139380   4.268   1.402   9.995 -0.0072 -0.7893  0.4440
 9249SOL    HW239381   4.151   1.347   9.937  1.2046 -0.1052  1.0880
 9250SOL     OW39382   0.961   3.414   0.099 -0.5467  0.0387 -0.4017
 9250SOL    HW139383   1.015   3.339   0.077 -1.7867 -1.3807  1.4264
 9250SOL    HW239384   0.939   3.384   0.187  1.6689  2.3860  0.9304
 9251SOL     OW39385   1.768   0.603   7.788 -0.1611 -0.0094 -0.0895
 9251SOL    HW139386   1.785   0.577   7.697 -0.5139  1.4925 -0.5915
 9251SOL    HW239387   1.704   0.674   7.775 -1.0103 -0.6733  0.4608
 9252SOL     OW39388   4.167   1.386  15.053 -0.0829  0.0369  0.5633
 9252SOL    HW139389   4.245   1.344  15.018 -0.4964 -0.6692  0.4917
 9252SOL    HW239390   4.211   1.415  15.133  0.5866  1.5842 -0.3616
 9253SOL     OW39391   1.609   1.130   3.624  0.2415  0.0387  0.7654
 9253SOL    HW139392   1.611   1.055   3.565 -2.1901  0.7168 -0.1976
 9253SOL    HW239393   1.538   1.186   3.592  1.0005  1.4293  1.5146
 9254SOL     OW39394   1.255   0.840  14.176 -0.2194 -0.4987  0.1580
 9254SOL    HW139395   1.197   0.824  14.251 -0.3202  1.1908  0.4440
 9254SOL    HW239396   1.227   0.768  14.119 -2.2212 -1.7208  2.6838
 9255SOL     OW39397   1.648   1.684  17.081  0.1657  0.0378  0.0764
 9255SOL    HW139398   1.592   1.688  17.159 -0.0335 -0.6897 -0.0342
 9255SOL    HW239399   1.735   1.687  17.122  0.1557  0.7074  0.0442
 9256SOL     OW39400   4.543   0.731   3.112  0.1396  0.0203  0.1068
 9256SOL    HW139401   4.586   0.812   3.086 -1.6677  1.0761  0.4410
 9256SOL    HW239402   4.592   0.666   3.062 -1.2551 -0.3408 -0.7880
 9257SOL     OW39403   1.190   3.649   6.341  0.0102  0.4031 -0.2761
 9257SOL    HW139404   1.245   3.576   6.311  1.6828  2.1170 -1.3998
 9257SOL    HW239405   1.101   3.615   6.331  0.2741 -0.1779 -0.6337
 9258SOL     OW39406   2.273   0.354   5.478 -0.1842  0.6247  0.3494
 9258SOL    HW139407   2.340   0.371   5.411 -0.8584 -0.6078 -0.6392
 9258SOL    HW239408   2.204   0.304   5.435 -1.3749  1.4176  1.3297
 9259SOL     OW39409   4.222   1.857   1.117 -0.4248 -0.0969 -0.7527
 9259SOL    HW139410   4.237   1.950   1.138  0.9647 -0.8058  1.3910
 9259SOL    HW239411   4.304   1.834   1.074 -0.4488  0.2955 -1.0174
 9260SOL     OW39412   0.895   2.168  13.344  0.0450  0.8287  0.5636
 9260SOL    HW139413   0.840   2.152  13.421  0.8164  1.7594  1.3101
 9260SOL    HW239414   0.929   2.256  13.363  1.7794 -0.0754  1.6494
 9261SOL     OW39415   3.430   0.089   4.888  0.0995  0.2040 -0.3660
 9261SOL    HW139416   3.476   0.007   4.872 -1.6096 -1.0346  1.0041
 9261SOL    HW239417   3.376   0.097   4.809 -2.0725 -1.5198  0.9283
 9262SOL     OW39418   1.011   1.879   7.443  0.2009  0.0744  0.1334
 9262SOL    HW139419   0.942   1.818   7.471 -0.1476  0.2940 -0.2393
 9262SOL    HW239420   1.090   1.828   7.462  0.0784  0.6703  2.1951
 9263SOL     OW39421   3.564   0.606   8.347  0.1057  0.3595  0.0602
 9263SOL    HW139422   3.537   0.628   8.437  1.0127 -1.2493  0.7211
 9263SOL    HW239423   3.659   0.595   8.356  0.0907  1.1427  1.2559
 9264SOL     OW39424   3.224   0.862   6.010  0.0013  0.5834  0.3164
 9264SOL    HW139425   3.270   0.940   6.041 -1.0031  1.6030 -0.8047
 9264SOL    HW239426   3.184   0.832   6.092 -0.2749 -0.2818 -0.1372
 9265SOL     OW39427   2.849   2.841   5.031  1.1000  0.4813  0.2015
 9265SOL    HW139428   2.892   2.869   4.950  0.4126  1.8942  0.3361
 9265SOL    HW239429   2.910   2.864   5.100  1.6427  1.4699 -0.6043
 9266SOL     OW39430   1.271   2.267  11.105 -0.6671 -0.1330 -0.0629
 9266SOL    HW139431   1.190   2.275  11.155 -0.2943  1.3223  0.2959
 9266SOL    HW239432   1.336   2.277  11.175  2.1699 -2.5428 -2.3332
 9267SOL     OW39433   3.728   4.691   9.025 -0.1600  0.5495 -0.0643
 9267SOL    HW139434   3.800   4.724   9.079  0.1180  0.5534 -0.4389
 9267SOL    HW239435   3.653   4.725   9.074 -1.6705 -1.2538 -1.1093
 9268SOL     OW39436   1.808   0.471  14.821 -0.7527  0.5441 -0.1624
 9268SOL    HW139437   1.744   0.410  14.857  0.1137 -0.9909 -1.2226
 9268SOL    HW239438   1.810   0.539  14.889 -1.9234 -0.6502  1.0738
 9269SOL     OW39439   4.321   3.026   3.465  0.1121 -0.4840 -0.5884
 9269SOL    HW139440   4.327   3.090   3.394  0.1328  0.1539 -0.0106
 9269SOL    HW239441   4.362   3.071   3.539 -2.1409  0.1439  0.3000
 9270SOL     OW39442   0.853   1.633   9.149  0.7707 -0.7181 -0.7750
 9270SOL    HW139443   0.793   1.650   9.077  0.0140  0.4125  0.1349
 9270SOL    HW239444   0.931   1.680   9.120  0.1852  0.5009 -0.3377
 9271SOL     OW39445   3.180   1.097   2.663 -0.2014  0.4319 -0.1299
 9271SOL    HW139446   3.171   1.159   2.736  0.1432  2.1799 -1.5545
 9271SOL    HW239447   3.104   1.040   2.671  0.9750 -0.9911  0.7466
 9272SOL     OW39448   2.562   0.084   3.019  0.4496 -0.3216 -0.0919
 9272SOL    HW139449   2.501   0.124   2.957  1.1117 -0.6410 -0.9453
 9272SOL    HW239450   2.614   0.031   2.958 -0.5043  0.5297 -1.6336
 9273SOL     OW39451   3.706   2.470  12.417  0.6916 -0.2552 -0.3268
 9273SOL    HW139452   3.800   2.492  12.416  0.7281 -0.4290 -1.8775
 9273SOL    HW239453   3.666   2.549  12.380 -2.2414 -1.7245 -0.2528
 9274SOL     OW39454   0.626   2.961   9.673  0.2480  0.3449  0.2225
 9274SOL    HW139455   0.587   2.902   9.738  0.0125 -0.2884 -0.4889
 9274SOL    HW239456   0.712   2.971   9.713  0.1569 -0.9387  0.7629
 9275SOL     OW39457   2.755   0.732   3.028 -0.0577  0.1803  0.3024
 9275SOL    HW139458   2.811   0.659   2.999 -0.8575  0.5683 -2.1615
 9275SOL    HW239459   2.784   0.740   3.119 -3.7199  1.3070  1.3683
 9276SOL     OW39460   4.278   2.931   5.264  0.3277 -0.0321 -0.0492
 9276SOL    HW139461   4.205   2.878   5.296  1.7477 -2.2617 -0.4554
 9276SOL    HW239462   4.308   2.895   5.180  1.0050 -0.9072  0.5642
 9277SOL     OW39463   4.528   2.836   3.439 -0.0551  0.2161  0.1142
 9277SOL    HW139464   4.535   2.834   3.344 -1.0592 -0.7633  0.0746
 9277SOL    HW239465   4.466   2.908   3.438 -0.1624  0.0280 -3.8227
 9278SOL     OW39466   0.574   2.813  15.968 -0.3584 -0.0707 -0.1697
 9278SOL    HW139467   0.652   2.775  15.927 -0.6794 -1.4489  0.4994
 9278SOL    HW239468   0.526   2.740  16.006  2.3060 -0.4266  2.4951
 9279SOL     OW39469   2.143   1.194  14.471 -0.5893 -0.1882 -0.4922
 9279SOL    HW139470   2.090   1.267  14.441  0.8884  1.9316  2.0388
 9279SOL    HW239471   2.162   1.159  14.384  1.2116 -0.4881  0.0222
 9280SOL     OW39472   0.538   1.029   1.697  0.8680  0.1448  0.0424
 9280SOL    HW139473   0.558   1.028   1.604  0.0716  0.6754 -0.1344
 9280SOL    HW239474   0.604   0.967   1.727  1.4605  1.0485  0.6054
 9281SOL     OW39475   0.165   0.677  16.206 -0.1313 -0.3100  0.4340
 9281SOL    HW139476   0.161   0.734  16.128  1.3145 -1.1688 -0.2849
 9281SOL    HW239477   0.102   0.707  16.271 -0.1897  0.7208 -0.0805
 9282SOL     OW39478   1.742   2.214   9.976 -0.4064  0.0479 -0.0995
 9282SOL    HW139479   1.769   2.229  10.067  2.8032 -0.6516 -0.9155
 9282SOL    HW239480   1.708   2.125   9.974  1.1432 -0.5591  0.1460
 9283SOL     OW39481   3.163   4.188  10.130  0.6122 -0.2698  0.0040
 9283SOL    HW139482   3.147   4.264  10.074  1.3263  0.0509  0.2304
 9283SOL    HW239483   3.112   4.211  10.207  2.1902 -0.9216  1.2376
 9284SOL     OW39484   3.933   1.806   1.853  0.2491 -0.5487  0.1803
 9284SOL    HW139485   4.026   1.823   1.868  0.3560 -3.2798  2.6815
 9284SOL    HW239486   3.902   1.874   1.793  0.4236 -1.8531 -1.3704
 9285SOL     OW39487   1.843   3.817  10.378  0.3445 -0.0836  0.2560
 9285SOL    HW139488   1.777   3.786  10.440  1.2092 -1.7648  0.3401
 9285SOL    HW239489   1.850   3.909  10.404  1.8017  0.2295 -1.1997
 9286SOL     OW39490   1.457   3.738   4.839  0.1840  0.1623 -0.5035
 9286SOL    HW139491   1.530   3.709   4.784 -0.6677 -0.2250 -1.4293
 9286SOL    HW239492   1.391   3.683   4.796  0.3235 -0.8792  0.6152
 9287SOL     OW39493   0.799   0.664   0.682  0.9003  0.2252 -0.0272
 9287SOL    HW139494   0.796   0.744   0.735 -1.3678  0.0070  0.1875
 9287SOL    HW239495   0.728   0.676   0.619 -0.0858  2.0610  1.4558
 9288SOL     OW39496   1.113   0.471  15.917 -0.0603 -0.5347 -0.1384
 9288SOL    HW139497   1.092   0.429  15.833 -0.6770 -1.3589  0.4237
 9288SOL    HW239498   1.109   0.395  15.976  3.5724 -0.4146  0.2703
 9289SOL     OW39499   1.732   0.990   9.687 -0.9531  0.3450  0.3014
 9289SOL    HW139500   1.776   1.004   9.770 -0.6792  3.1821 -0.3323
 9289SOL    HW239501   1.650   1.029   9.715 -0.6539  0.1502  1.4186
 9290SOL     OW39502   1.845   3.078   8.993 -0.3342 -0.3353 -0.0681
 9290SOL    HW139503   1.879   3.154   9.040 -0.2971  0.0364 -0.6981
 9290SOL    HW239504   1.764   3.080   9.045  1.2488  1.5987  2.3193
 9291SOL     OW39505   2.720   4.670   3.768 -0.1852  0.3410  0.3659
 9291SOL    HW139506   2.688   4.588   3.805  1.8118 -0.6413 -0.1182
 9291SOL    HW239507   2.685   4.680   3.680  0.0251 -0.3701  0.2086
 9292SOL     OW39508   3.515   2.232  15.678  0.0475 -0.1892  0.5122
 9292SOL    HW139509   3.595   2.277  15.705  1.1201 -1.5230 -0.4750
 9292SOL    HW239510   3.528   2.222  15.584  1.1661 -1.5107  0.8203
 9293SOL     OW39511   0.732   3.880   4.571  0.3674 -0.0886  0.4165
 9293SOL    HW139512   0.636   3.884   4.568  0.4717  0.4564 -2.0726
 9293SOL    HW239513   0.764   3.917   4.488 -0.8731 -1.2024 -0.5584
 9294SOL     OW39514   0.499   0.871   8.171 -0.0823 -0.3622  0.3415
 9294SOL    HW139515   0.408   0.877   8.142  0.0273 -0.1311  0.0480
 9294SOL    HW239516   0.527   0.788   8.130  0.8951  0.3999 -0.5484
 9295SOL     OW39517   2.601   0.272   7.753 -0.2860  0.1308  0.5031
 9295SOL    HW139518   2.622   0.352   7.800 -2.3465  0.3691  1.0277
 9295SOL    HW239519   2.639   0.202   7.806 -0.2991 -1.3401 -1.3798
 9296SOL     OW39520   0.054   1.027   7.013 -0.8196 -0.8911 -0.1221
 9296SOL    HW139521   0.027   0.935   7.017  3.0165 -1.9813  0.9048
 9296SOL    HW239522   4.708   1.069   7.030 -0.1718  0.8752 -1.2816
 9297SOL     OW39523   0.010   2.065   4.036 -0.9465 -0.8158  0.5585
 9297SOL    HW139524   0.073   2.012   3.987 -0.3139  0.4377  0.0124
 9297SOL    HW239525   0.049   2.153   4.040 -2.6423 -0.0777  0.9321
 9298SOL     OW39526   2.047   0.582   7.475  0.1502  0.3111  0.4266
 9298SOL    HW139527   2.012   0.505   7.522  0.1824  1.2277  1.9504
 9298SOL    HW239528   1.971   0.639   7.467 -1.0004 -1.1899  0.5537
 9299SOL     OW39529   1.510   4.619   1.598  0.3066  0.3063  0.0044
 9299SOL    HW139530   1.481   4.532   1.570  0.3170 -0.7111  3.1029
 9299SOL    HW239531   1.545   4.594   1.684  0.8178 -1.5802 -0.7477
 9300SOL     OW39532   2.944   2.832   5.371  0.4956  0.0981  0.5809
 9300SOL    HW139533   2.849   2.829   5.384  0.1935  3.0212 -1.0726
 9300SOL    HW239534   2.953   2.738   5.389  0.2785 -0.3512 -1.7396
 9301SOL     OW39535   0.278   0.270   8.292  0.2811 -0.8740  0.3091
 9301SOL    HW139536   0.199   0.261   8.239 -0.0194 -0.7260  0.7292
 9301SOL    HW239537   0.238   0.299   8.374  2.9695 -0.2453  1.3828
 9302SOL     OW39538   0.266   2.308  12.158  0.2683 -0.4343 -0.3714
 9302SOL    HW139539   0.220   2.385  12.124 -0.8268 -0.0834  1.9233
 9302SOL    HW239540   0.227   2.240  12.103 -2.3335  1.0159 -0.3608
 9303SOL     OW39541   0.476   2.642  17.512  0.3633 -0.7238  0.1635
 9303SOL    HW139542   0.437   2.706  17.453 -0.9372 -2.3990 -0.8077
 9303SOL    HW239543   0.567   2.670  17.504 -0.1613  0.8303 -0.2396
 9304SOL     OW39544   1.376   4.148  11.548 -0.4669  0.2846 -0.2731
 9304SOL    HW139545   1.463   4.157  11.587 -0.7283 -2.6674  0.9893
 9304SOL    HW239546   1.330   4.200  11.613  0.4703 -0.6776  1.1573
 9305SOL     OW39547   0.337   3.520  10.669 -0.0360  0.4350  0.8742
 9305SOL    HW139548   0.252   3.551  10.701  0.7543  2.5030  1.0026
 9305SOL    HW239549   0.363   3.475  10.749  1.5522  2.7642  1.6669
 9306SOL     OW39550   1.316   1.542   4.493 -0.0120  0.2664 -0.5389
 9306SOL    HW139551   1.384   1.477   4.514 -1.1309 -0.6337  0.3228
 9306SOL    HW239552   1.244   1.485   4.463  1.2970 -0.1424 -2.9511
 9307SOL     OW39553   1.647   2.979   5.185 -0.2511 -0.0602 -0.5723
 9307SOL    HW139554   1.653   3.022   5.100  0.7125  1.0163  0.0365
 9307SOL    HW239555   1.728   2.928   5.187  0.4222  0.9302 -2.1954
 9308SOL     OW39556   1.140   0.892   9.612  0.0693 -0.4517 -0.0252
 9308SOL    HW139557   1.070   0.830   9.632 -0.1049  0.0687  0.9920
 9308SOL    HW239558   1.200   0.828   9.574 -1.0526 -0.8691 -1.1101
 9309SOL     OW39559   2.301   4.313   8.800 -0.4733  0.6454  0.0754
 9309SOL    HW139560   2.360   4.244   8.829  0.0649 -0.3283 -3.3794
 9309SOL    HW239561   2.344   4.349   8.722 -0.5636  0.4894 -0.0454
 9310SOL     OW39562   1.598   3.756   5.883 -0.3098  0.0908 -0.0475
 9310SOL    HW139563   1.637   3.844   5.881 -1.3073  0.5333 -0.5202
 9310SOL    HW239564   1.515   3.763   5.929 -2.8961  1.3607 -4.8512
 9311SOL     OW39565   3.876   4.717   6.495  0.5155 -0.4072  0.4671
 9311SOL    HW139566   3.805   0.031   6.459 -0.6776 -1.4607  1.3101
 9311SOL    HW239567   3.909   4.672   6.417  1.5164  2.6743 -0.8889
 9312SOL     OW39568   3.158   3.460   4.636  0.2576  0.0144  0.3613
 9312SOL    HW139569   3.129   3.452   4.726 -1.5017  0.4092 -0.1835
 9312SOL    HW239570   3.176   3.368   4.617  0.3690  0.3852 -1.4218
 9313SOL     OW39571   2.108   0.751  15.991 -0.1324  0.2143 -0.6695
 9313SOL    HW139572   2.182   0.690  15.997 -1.9662 -1.7971  1.2259
 9313SOL    HW239573   2.102   0.747  15.895  1.1687 -2.4054 -0.6626
 9314SOL     OW39574   2.513   4.159   0.879  0.0975 -1.1280  0.5838
 9314SOL    HW139575   2.483   4.068   0.878  1.6500 -1.6033 -0.9920
 9314SOL    HW239576   2.428   4.203   0.876 -0.3181 -2.0363 -0.8484
 9315SOL     OW39577   1.115   3.877   5.098 -0.6009 -0.2770 -0.2565
 9315SOL    HW139578   1.097   3.964   5.133 -1.1657  0.8333 -3.3678
 9315SOL    HW239579   1.192   3.904   5.050 -0.4033 -1.2008 -0.4683
 9316SOL     OW39580   4.038   0.090  16.004 -0.1992  0.1440  0.1591
 9316SOL    HW139581   4.132   0.073  16.015  0.0671  1.6891  0.2833
 9316SOL    HW239582   3.995   0.010  15.975 -0.1787  0.1198  0.1966
 9317SOL     OW39583   1.049   1.231  15.030 -0.6686  0.1169  0.0702
 9317SOL    HW139584   1.054   1.224  15.125 -0.9948  0.9471  0.1484
 9317SOL    HW239585   1.080   1.320  15.017 -0.5783  0.0550 -0.1480
 9318SOL     OW39586   4.568   1.427  14.549 -0.3624  0.0549 -0.1208
 9318SOL    HW139587   4.641   1.425  14.611  0.0840  0.4653 -0.6299
 9318SOL    HW239588   4.609   1.457  14.468  1.8522 -1.0924  0.5770
 9319SOL     OW39589   3.446   2.374   6.637  0.2297 -0.1417 -0.3915
 9319SOL    HW139590   3.381   2.310   6.666  0.6286 -0.9493 -1.2492
 9319SOL    HW239591   3.442   2.449   6.695 -0.3000 -1.0622  0.7693
 9320SOL     OW39592   3.142   1.958   8.973  0.7869 -0.6180 -0.5455
 9320SOL    HW139593   3.148   1.900   9.049  1.8873 -0.4478 -0.4895
 9320SOL    HW239594   3.093   2.030   9.012 -1.9696 -2.9124  0.1684
 9321SOL     OW39595   2.856   0.239   6.755 -0.0018 -0.3252  0.0566
 9321SOL    HW139596   2.835   0.253   6.847 -2.4716 -0.0992 -0.5514
 9321SOL    HW239597   2.884   0.148   6.765 -2.4249 -1.0304  0.3793
 9322SOL     OW39598   4.191   1.598   5.278  0.0680 -0.2720 -0.2103
 9322SOL    HW139599   4.211   1.661   5.347  0.9745  0.1998 -0.8880
 9322SOL    HW239600   4.266   1.603   5.218  0.5743 -0.5701  0.3909
 9323SOL     OW39601   1.991   4.729  16.373 -0.2724 -0.4290 -0.2866
 9323SOL    HW139602   1.929   0.046  16.420  0.7132  0.6470 -0.2245
 9323SOL    HW239603   1.963   4.735  16.281 -0.8142  0.6387 -0.0549
 9324SOL     OW39604   2.931   4.246  11.619  0.2717  0.3889 -0.1544
 9324SOL    HW139605   2.850   4.251  11.568  1.3125  2.8598 -1.5425
 9324SOL    HW239606   2.909   4.169  11.672  2.2485 -0.2484 -0.2486
 9325SOL     OW39607   3.751   3.148   3.080  0.2464 -0.5739  0.3204
 9325SOL    HW139608   3.664   3.187   3.072  0.0252 -1.0462  0.4177
 9325SOL    HW239609   3.794   3.195   3.009  1.2811 -2.6125 -0.4220
 9326SOL     OW39610   0.823   0.736   0.363 -0.0327  0.0212 -0.3578
 9326SOL    HW139611   0.770   0.811   0.336  0.1111 -0.4699 -2.0008
 9326SOL    HW239612   0.907   0.762   0.326 -0.6972  2.0665 -0.4273
 9327SOL     OW39613   1.546   4.058   7.934 -0.1578 -0.3168  0.3581
 9327SOL    HW139614   1.465   4.099   7.961  0.1571 -0.6144  1.7394
 9327SOL    HW239615   1.519   3.967   7.920  0.4866 -0.6530  1.3097
 9328SOL     OW39616   2.137   2.861  14.591 -0.0581 -0.1825  0.2228
 9328SOL    HW139617   2.223   2.821  14.600  0.0234  0.2972  1.4894
 9328SOL    HW239618   2.141   2.941  14.644  1.8176  0.3244 -0.6919
 9329SOL     OW39619   0.614   0.943   3.629  0.3191 -0.0523  0.0725
 9329SOL    HW139620   0.660   0.949   3.545 -1.1618  0.8651 -0.6715
 9329SOL    HW239621   0.569   1.027   3.630  1.9232  0.7825  0.6966
 9330SOL     OW39622   1.135   3.680   8.031 -0.3105 -0.5744  0.4255
 9330SOL    HW139623   1.169   3.597   7.997  2.6912  0.8201  0.0468
 9330SOL    HW239624   1.134   3.663   8.125 -0.8327 -0.1447  0.4996
 9331SOL     OW39625   2.892   0.456   6.371 -0.4283  0.7896 -0.2010
 9331SOL    HW139626   2.948   0.515   6.421 -0.6076  2.1273 -1.5977
 9331SOL    HW239627   2.850   0.400   6.437 -2.0260  0.7987 -1.2012
 9332SOL     OW39628   0.422   0.840   7.301  0.1703 -0.2492 -0.3223
 9332SOL    HW139629   0.433   0.754   7.343 -1.5558 -0.0901  0.4679
 9332SOL    HW239630   0.424   0.810   7.210 -3.5176 -0.4376 -0.3571
 9333SOL     OW39631   1.301   2.039   6.201  0.2852 -0.0782  0.1307
 9333SOL    HW139632   1.302   2.093   6.280  1.3341  0.1221 -0.0201
 9333SOL    HW239633   1.237   2.083   6.145  2.0670  0.1769 -1.7291
 9334SOL     OW39634   1.052   3.017   8.510  0.6379  0.0908  0.5160
 9334SOL    HW139635   1.005   2.946   8.466  0.5318  0.9416 -0.7538
 9334SOL    HW239636   1.103   3.041   8.432 -1.7088  0.7058 -0.8361
 9335SOL     OW39637   4.565   4.585   8.100 -0.1887 -0.0554 -0.3336
 9335SOL    HW139638   4.560   4.637   8.020  0.1864 -0.4089 -0.5889
 9335SOL    HW239639   4.524   4.642   8.165  0.9602  1.7442 -1.1735
 9336SOL     OW39640   0.406   0.084   6.700 -0.6894 -1.1703  0.0550
 9336SOL    HW139641   0.423   4.728   6.709 -1.4923 -1.2442  0.8216
 9336SOL    HW239642   0.325   0.069   6.651 -0.9694 -0.1733  0.2141
 9337SOL     OW39643   4.320   1.212   7.070 -1.0887  0.0803 -0.0748
 9337SOL    HW139644   4.373   1.133   7.076 -0.0683  0.8432  0.9288
 9337SOL    HW239645   4.350   1.250   7.153  0.0710 -0.9145 -0.0373
 9338SOL     OW39646   4.087   1.912   4.067  0.7641  0.6466 -0.0291
 9338SOL    HW139647   4.171   1.904   4.023  0.2532  0.2095 -0.9423
 9338SOL    HW239648   4.066   2.006   4.064 -1.3311  0.1828  0.2186
 9339SOL     OW39649   2.936   1.979   8.714  0.1425  0.1714  0.1724
 9339SOL    HW139650   3.026   1.998   8.687  0.3431 -0.6759  0.2447
 9339SOL    HW239651   2.906   2.069   8.704 -0.4379 -0.0013  0.3620
 9340SOL     OW39652   1.550   1.806   0.512 -0.4733  0.3121 -0.4437
 9340SOL    HW139653   1.496   1.735   0.546 -0.5110 -0.3314 -1.8544
 9340SOL    HW239654   1.567   1.850   0.595 -1.1540 -2.3608  1.1002
 9341SOL     OW39655   3.884   0.620  16.873  0.1809  0.0227 -0.8033
 9341SOL    HW139656   3.849   0.635  16.786 -0.7287  2.8894  0.0817
 9341SOL    HW239657   3.822   0.558  16.911 -1.7494  1.0349 -2.3386
 9342SOL     OW39658   1.114   2.616  12.162  0.0478  0.3827 -0.1893
 9342SOL    HW139659   1.067   2.541  12.199  0.6961 -0.2599 -0.6836
 9342SOL    HW239660   1.199   2.573  12.160 -0.6379 -0.9350 -1.7690
 9343SOL     OW39661   0.654   4.706   7.688  1.2649  0.4065  0.3804
 9343SOL    HW139662   0.734   0.021   7.686  1.8188 -0.4616 -1.0857
 9343SOL    HW239663   0.641   4.706   7.593 -1.0028  0.1486  0.7011
 9344SOL     OW39664   3.488   2.228   4.956  0.3747 -0.4157 -0.1080
 9344SOL    HW139665   3.574   2.257   4.987 -0.9465  1.2229  2.0319
 9344SOL    HW239666   3.467   2.161   5.021 -0.4715  0.0641  0.1228
 9345SOL     OW39667   4.250   1.066  16.231 -0.0011  0.5619 -0.4757
 9345SOL    HW139668   4.182   1.005  16.201 -1.8645  1.6441  1.5403
 9345SOL    HW239669   4.204   1.149  16.239 -0.3961  0.4521 -1.6400
 9346SOL     OW39670   2.371   1.675   7.259  0.2851 -0.5421 -0.2145
 9346SOL    HW139671   2.375   1.740   7.189 -1.5744 -0.1759  0.0225
 9346SOL    HW239672   2.459   1.637   7.254  0.6037  0.2779 -0.7427
 9347SOL     OW39673   0.051   2.701   3.939  0.2488  0.2802  0.2343
 9347SOL    HW139674   4.720   2.635   3.928 -0.1214  0.7024 -0.0234
 9347SOL    HW239675   4.735   2.780   3.932 -0.2816 -0.2518 -1.9467
 9348SOL     OW39676   3.542   1.844   9.368 -0.5473 -0.2928 -0.2569
 9348SOL    HW139677   3.609   1.876   9.429 -1.2548  0.4891  0.1091
 9348SOL    HW239678   3.546   1.752   9.395 -1.3361  0.2307  1.6270
 9349SOL     OW39679   3.488   1.661   9.018  0.0303 -0.3452 -0.0785
 9349SOL    HW139680   3.455   1.730   8.961 -2.4364  0.4456  2.3018
 9349SOL    HW239681   3.573   1.702   9.039 -0.7596  1.2313  0.0584
 9350SOL     OW39682   1.773   0.905   5.978 -0.0644  0.8072 -0.0137
 9350SOL    HW139683   1.705   0.867   5.921  0.2526  1.7895 -1.0396
 9350SOL    HW239684   1.838   0.836   5.991 -0.4003  0.6566  0.9012
 9351SOL     OW39685   2.455   1.860   2.095  0.2420 -0.6513 -0.6388
 9351SOL    HW139686   2.485   1.887   2.182 -0.3111  0.1584 -0.6971
 9351SOL    HW239687   2.503   1.778   2.091  2.4765  0.6435 -0.6163
 9352SOL     OW39688   0.140   3.450  14.496 -0.2217 -0.1843 -0.3651
 9352SOL    HW139689   0.082   3.430  14.570 -0.4342 -0.3613 -0.5789
 9352SOL    HW239690   0.135   3.546  14.499 -0.9386 -0.2505  0.7792
 9353SOL     OW39691   0.565   2.545   9.818  0.2156 -0.2765  0.7332
 9353SOL    HW139692   0.608   2.480   9.764  1.2862  0.1778  1.0450
 9353SOL    HW239693   0.563   2.503   9.904 -0.7704  0.7259  1.2078
 9354SOL     OW39694   2.105   1.064  13.700  0.6837  0.0434  0.0151
 9354SOL    HW139695   2.185   1.060  13.754 -0.4567 -0.1807  1.6813
 9354SOL    HW239696   2.130   1.146  13.658 -1.5677 -0.1408 -1.6030
 9355SOL     OW39697   4.426   2.418   0.087 -0.2579  0.1969  0.3107
 9355SOL    HW139698   4.432   2.501   0.039  0.1987  1.0099  1.7906
 9355SOL    HW239699   4.502   2.374   0.051 -0.0246 -0.1031  1.1874
 9356SOL     OW39700   0.368   2.154   3.526  0.2127  0.3737 -0.4423
 9356SOL    HW139701   0.290   2.158   3.471 -0.4323  0.4367  0.4707
 9356SOL    HW239702   0.388   2.245   3.548  0.8353  0.2175 -0.3482
 9357SOL     OW39703   3.166   1.628   7.241  0.2433  0.3923  0.1030
 9357SOL    HW139704   3.141   1.536   7.232 -3.8498  1.4771  0.3138
 9357SOL    HW239705   3.104   1.657   7.307  0.0118 -0.1962  0.1498
 9358SOL     OW39706   4.374   4.008   5.517 -0.4462  0.2709  0.1677
 9358SOL    HW139707   4.424   4.087   5.537 -0.2494  0.2987 -0.4392
 9358SOL    HW239708   4.284   4.038   5.527 -0.3958 -0.1151  1.8093
 9359SOL     OW39709   4.073   0.370   6.074  0.3705 -0.1641 -0.8292
 9359SOL    HW139710   4.147   0.378   6.135  1.5234 -1.4354 -2.0678
 9359SOL    HW239711   4.089   0.283   6.039  2.3260  0.2770 -1.0591
 9360SOL     OW39712   0.340   1.793   8.764  0.0831  0.2812 -0.8770
 9360SOL    HW139713   0.245   1.801   8.758 -0.0343  0.7499  1.8683
 9360SOL    HW239714   0.354   1.701   8.743  1.9050 -0.0503  1.7913
 9361SOL     OW39715   0.611   1.868   8.433 -0.5895  0.0332  0.2905
 9361SOL    HW139716   0.578   1.779   8.421 -1.3912  0.4820 -0.8430
 9361SOL    HW239717   0.556   1.909   8.365 -3.0783  0.3104  2.4718
 9362SOL     OW39718   3.880   2.622   7.879  0.1571 -0.0835 -0.2903
 9362SOL    HW139719   3.896   2.713   7.858  0.6491 -0.0115  0.4221
 9362SOL    HW239720   3.903   2.621   7.972  0.2713 -0.0309 -0.3188
 9363SOL     OW39721   0.156   4.140   6.801  0.1378 -0.4396  0.3034
 9363SOL    HW139722   0.154   4.067   6.740  3.1696 -0.6358  0.4508
 9363SOL    HW239723   0.112   4.210   6.752 -1.3959 -1.6557 -0.0417
 9364SOL     OW39724   4.131   3.078  12.953 -0.1581 -0.0710 -0.3107
 9364SOL    HW139725   4.202   3.113  12.899 -2.0612 -1.4712 -3.7038
 9364SOL    HW239726   4.117   2.989  12.920 -2.5542  0.9428 -2.0149
 9365SOL     OW39727   0.698   2.596   2.779 -0.1520  0.2718  0.6044
 9365SOL    HW139728   0.759   2.624   2.848 -0.6335 -0.9802  1.5410
 9365SOL    HW239729   0.619   2.585   2.832  1.0634  1.0620  2.5928
 9366SOL     OW39730   4.475   1.412   8.407  0.3649  0.0300  0.2403
 9366SOL    HW139731   4.420   1.375   8.476 -1.1913 -0.2726 -1.1400
 9366SOL    HW239732   4.424   1.487   8.375 -0.7163 -1.6693 -2.0656
 9367SOL     OW39733   4.448   2.947  10.360  0.1258  0.4301 -0.0863
 9367SOL    HW139734   4.395   3.006  10.307 -0.1466 -0.0353 -0.3285
 9367SOL    HW239735   4.528   2.997  10.379 -0.7633  2.0545 -0.6784
 9368SOL     OW39736   2.201   4.536   3.187  0.0436 -0.5680  0.4129
 9368SOL    HW139737   2.235   4.540   3.276  1.5231  1.3789 -0.2552
 9368SOL    HW239738   2.282   4.549   3.139 -0.1431  1.4014  0.6321
 9369SOL     OW39739   0.052   1.913  15.076  0.4136 -0.1630 -0.4026
 9369SOL    HW139740   0.083   1.880  14.991  0.1988  0.8986 -0.8986
 9369SOL    HW239741   4.736   1.836  15.096 -1.0544  0.8803 -0.3617
 9370SOL     OW39742   2.254   3.601   6.532 -0.0904 -0.0996 -0.1308
 9370SOL    HW139743   2.167   3.617   6.496 -0.3704 -1.7451 -0.1765
 9370SOL    HW239744   2.233   3.614   6.624 -0.1857 -1.0438 -0.0229
 9371SOL     OW39745   2.413   0.379   6.033 -0.0407 -0.4257  0.4040
 9371SOL    HW139746   2.501   0.400   6.002  0.1153 -0.1910  1.0059
 9371SOL    HW239747   2.373   0.370   5.946  0.8883  2.7077 -0.3530
 9372SOL     OW39748   1.674   4.375   3.947 -0.2356  0.0545 -0.6034
 9372SOL    HW139749   1.738   4.336   3.887 -2.1641 -1.4253 -1.7333
 9372SOL    HW239750   1.639   4.448   3.895 -0.5957 -0.5319 -1.1850
 9373SOL     OW39751   3.001   4.698   3.747  0.2562 -0.0111  0.1170
 9373SOL    HW139752   2.990   4.605   3.727 -3.3176  0.7525 -1.3090
 9373SOL    HW239753   2.908   4.717   3.751  0.2995  0.0166  1.1337
 9374SOL     OW39754   2.795   0.396   9.537 -0.6459 -0.6315 -0.3315
 9374SOL    HW139755   2.881   0.378   9.498 -0.6473 -3.3334  0.8998
 9374SOL    HW239756   2.820   0.467   9.595 -1.8737 -0.7874  0.3781
 9375SOL     OW39757   3.323   4.453   6.969 -0.5760  0.3083 -0.3001
 9375SOL    HW139758   3.351   4.366   6.942 -0.1394 -0.0344  1.2630
 9375SOL    HW239759   3.376   4.513   6.916 -1.7226  0.6166 -1.0851
 9376SOL     OW39760   0.459   4.388   9.740 -0.4560  0.2991  0.3006
 9376SOL    HW139761   0.539   4.375   9.790 -0.2264  0.5000 -0.0140
 9376SOL    HW239762   0.427   4.302   9.711  0.5784 -0.7207  2.2175
 9377SOL     OW39763   4.088   2.624   6.171 -0.6567 -0.3438 -0.5241
 9377SOL    HW139764   4.092   2.529   6.186  0.0984 -0.2311  0.0114
 9377SOL    HW239765   4.175   2.635   6.132 -0.7603  0.4518 -0.5172
 9378SOL     OW39766   4.046   2.964   6.367 -0.3569  0.2354 -0.0971
 9378SOL    HW139767   3.963   2.936   6.328  0.3236 -0.5692 -0.9728
 9378SOL    HW239768   4.043   3.059   6.354 -0.1546  0.6053  2.4408
 9379SOL     OW39769   3.497   0.607   7.107 -0.2474 -0.1704  0.1795
 9379SOL    HW139770   3.488   0.522   7.064  2.6321 -0.1679 -0.4068
 9379SOL    HW239771   3.581   0.634   7.070 -0.0756 -0.2659  0.4961
 9380SOL     OW39772   0.266   3.309   6.991  0.5375  0.3213  0.0373
 9380SOL    HW139773   0.319   3.389   6.990 -1.6379  1.7530 -0.3293
 9380SOL    HW239774   0.301   3.266   6.914 -0.1342 -0.2512  0.0502
 9381SOL     OW39775   3.271   2.093   5.376 -0.6422  0.5935  0.1345
 9381SOL    HW139776   3.194   2.044   5.346 -0.0383  0.1399 -0.6663
 9381SOL    HW239777   3.244   2.184   5.367  0.2438  0.7184 -1.2333
 9382SOL     OW39778   1.649   4.038  10.872 -0.1342 -1.0182  0.0897
 9382SOL    HW139779   1.583   3.980  10.834 -0.2699  1.0484 -2.7806
 9382SOL    HW239780   1.596   4.118  10.874 -1.2191 -1.7628  1.4550
 9383SOL     OW39781   0.685   1.147  14.869  0.1353  0.2360 -0.4726
 9383SOL    HW139782   0.699   1.199  14.948 -2.0011  0.1333 -0.0345
 9383SOL    HW239783   0.592   1.160  14.853 -0.6358 -2.3633  2.0495
 9384SOL     OW39784   2.550   1.519   5.105  0.4699  0.5166 -0.0607
 9384SOL    HW139785   2.473   1.566   5.135 -0.5024 -2.0992  1.6109
 9384SOL    HW239786   2.569   1.563   5.022 -0.3812 -1.2881 -1.2067
 9385SOL     OW39787   1.301   2.534   8.502  0.1453 -0.0393  0.4248
 9385SOL    HW139788   1.208   2.512   8.499  0.3099 -0.3537 -1.9410
 9385SOL    HW239789   1.328   2.463   8.443  0.2155  1.8880 -1.8330
 9386SOL     OW39790   4.220   0.596  13.534  0.0466 -0.5136  0.2707
 9386SOL    HW139791   4.237   0.510  13.496  1.4456 -0.4682  0.7819
 9386SOL    HW239792   4.308   0.636  13.533  0.1760 -0.8606 -2.3196
 9387SOL     OW39793   2.510   1.876  12.386 -0.2450  0.2519 -0.4522
 9387SOL    HW139794   2.423   1.872  12.426 -0.7490 -2.2995 -1.7610
 9387SOL    HW239795   2.520   1.971  12.391 -2.4369  0.4424  0.0434
 9388SOL     OW39796   3.929   1.314   4.637  0.3264 -0.0564  1.1349
 9388SOL    HW139797   3.928   1.409   4.622  0.9347 -0.1261  0.6519
 9388SOL    HW239798   4.014   1.303   4.678 -0.2158 -4.4871  1.0681
 9389SOL     OW39799   4.272   2.147   8.212  0.3661  0.1862 -0.0794
 9389SOL    HW139800   4.274   2.243   8.222  1.8642 -0.2805  3.9266
 9389SOL    HW239801   4.342   2.132   8.148  1.3538  0.7082  0.8764
 9390SOL     OW39802   4.368   3.011  12.589 -0.4371  0.0920  0.3202
 9390SOL    HW139803   4.314   3.022  12.511 -0.5402  0.4968  0.4496
 9390SOL    HW239804   4.446   2.967  12.553 -1.5610 -0.8624 -0.9683
 9391SOL     OW39805   0.005   2.162   8.774 -0.4145 -0.2452 -0.3061
 9391SOL    HW139806   0.049   2.148   8.858 -1.3304 -1.1107  0.0402
 9391SOL    HW239807   0.084   2.182   8.724  0.4105  0.3218  1.2323
 9392SOL     OW39808   0.538   2.589   0.037  0.5355 -0.3336  0.0202
 9392SOL    HW139809   0.532   2.564  17.694 -0.3915  1.4652 -0.4153
 9392SOL    HW239810   0.508   2.679   0.046  1.6838  0.0462  0.0502
 9393SOL     OW39811   2.133   2.639   4.465 -0.0863  0.5242 -0.1858
 9393SOL    HW139812   2.152   2.671   4.376 -0.3657  4.1886  1.0807
 9393SOL    HW239813   2.111   2.547   4.452 -2.3949  1.0885 -0.3980
 9394SOL     OW39814   1.878   3.440   6.311 -0.0013 -0.1218  0.1751
 9394SOL    HW139815   1.856   3.361   6.359  3.4873 -0.3100  1.4612
 9394SOL    HW239816   1.842   3.508   6.368  1.2650  1.2498 -0.6564
 9395SOL     OW39817   3.067   3.127   5.988 -0.2855 -0.3249 -0.0780
 9395SOL    HW139818   3.120   3.205   6.004  0.7872 -1.4308  1.7682
 9395SOL    HW239819   3.115   3.085   5.917  0.2348  2.1556 -1.1777
 9396SOL     OW39820   4.647   2.016   6.012 -0.0274  0.3494 -1.1249
 9396SOL    HW139821   4.657   1.929   5.973 -1.6378  0.2632 -1.3439
 9396SOL    HW239822   4.556   2.032   5.987 -0.6958  0.3353  1.2959
 9397SOL     OW39823   2.211   4.720   5.770 -0.2072  0.0071 -0.2764
 9397SOL    HW139824   2.199   4.644   5.713  1.8864  0.0454 -0.7486
 9397SOL    HW239825   2.305   4.718   5.789 -0.2897  0.8870  0.2393
 9398SOL     OW39826   3.991   0.685   8.233 -0.1008 -0.5585  0.0031
 9398SOL    HW139827   4.076   0.641   8.241  0.7284  1.3736  2.0117
 9398SOL    HW239828   3.974   0.720   8.145  1.6274  0.5589  0.0978
 9399SOL     OW39829   2.485   0.736   3.327 -0.7435  0.5193  0.2704
 9399SOL    HW139830   2.406   0.788   3.337 -0.5869  1.4992 -3.6324
 9399SOL    HW239831   2.552   0.801   3.347  0.7645 -0.9246 -0.0191
 9400SOL     OW39832   0.203   1.897   3.901  0.1046 -0.0463  0.4414
 9400SOL    HW139833   0.264   1.939   3.840  0.2985 -1.2233 -0.1821
 9400SOL    HW239834   0.141   1.861   3.837  0.4302 -1.0758  0.6968
 9401SOL     OW39835   0.897   1.827   5.257 -0.2830 -0.9247 -0.1163
 9401SOL    HW139836   0.986   1.825   5.221  0.3474  2.4312  1.2585
 9401SOL    HW239837   0.870   1.735   5.256 -1.4992 -0.5734  1.6087
 9402SOL     OW39838   3.947   1.537   2.850  0.1034 -0.2905  0.2996
 9402SOL    HW139839   3.873   1.593   2.874 -0.5753 -1.3212  0.5937
 9402SOL    HW239840   3.911   1.458   2.889  1.1392 -0.7355  0.3557
 9403SOL     OW39841   3.584   4.643   5.263  0.3019  0.3586  0.1845
 9403SOL    HW139842   3.581   4.610   5.353  2.3205 -2.9619 -0.9875
 9403SOL    HW239843   3.500   4.689   5.267  0.0209 -0.1386 -0.2104
 9404SOL     OW39844   3.671   3.775   4.047 -0.0844 -0.3210  0.7456
 9404SOL    HW139845   3.631   3.730   4.121  2.8335 -3.5102  0.3925
 9404SOL    HW239846   3.594   3.824   4.017  0.6921  0.2365 -0.3361
 9405SOL     OW39847   3.293   3.359   4.316 -0.1115  0.4751  0.2262
 9405SOL    HW139848   3.264   3.307   4.390 -0.8110  1.2625  0.5056
 9405SOL    HW239849   3.383   3.367   4.346 -0.2641 -1.0676  1.0452
 9406SOL     OW39850   3.273   2.009   3.108 -0.1452  0.3648 -0.4346
 9406SOL    HW139851   3.216   2.084   3.118 -2.2693 -1.2708 -0.3635
 9406SOL    HW239852   3.330   2.006   3.185 -1.1765  0.9208  0.3284
 9407SOL     OW39853   4.720   3.556   7.415  0.4471  0.1125 -0.1698
 9407SOL    HW139854   0.044   3.483   7.411 -0.6650 -0.8342 -0.0222
 9407SOL    HW239855   0.042   3.628   7.433  2.7614 -1.7530 -0.3611
 9408SOL     OW39856   4.491   1.946   3.554 -0.8598 -0.5212  0.7802
 9408SOL    HW139857   4.402   1.953   3.517 -0.3968  1.4276  0.0267
 9408SOL    HW239858   4.480   1.875   3.618 -2.2151 -0.4834  0.6030
 9409SOL     OW39859   0.836   0.206   6.758  0.1296  0.2426 -0.5290
 9409SOL    HW139860   0.815   0.124   6.712  2.2611 -1.6643  1.9193
 9409SOL    HW239861   0.901   0.242   6.699  0.9785 -1.2196 -0.4843
 9410SOL     OW39862   2.869   3.811   4.346  0.0400 -0.0729  0.2504
 9410SOL    HW139863   2.813   3.754   4.400  0.2048  0.7847  1.3343
 9410SOL    HW239864   2.845   3.899   4.374 -1.2873 -0.1600 -0.6200
 9411SOL     OW39865   0.533   0.554  17.602  0.3504  0.2744 -0.0402
 9411SOL    HW139866   0.520   0.469  17.561  2.1230 -0.3689  0.7143
 9411SOL    HW239867   0.560   0.546  17.694 -0.4662  0.7643  0.2437
 9412SOL     OW39868   2.731   1.543   5.680  0.2705 -0.5245  0.0284
 9412SOL    HW139869   2.672   1.603   5.637  2.6799  1.6441 -0.2376
 9412SOL    HW239870   2.711   1.466   5.626 -0.1338 -0.1690 -0.3212
 9413SOL     OW39871   2.761   4.323   5.246 -0.9271  1.1246  0.1239
 9413SOL    HW139872   2.812   4.397   5.214 -0.5126  0.3225 -1.0764
 9413SOL    HW239873   2.719   4.362   5.323  0.6106  1.1589  0.9453
 9414SOL     OW39874   4.123   4.342   7.306  0.2312  0.5558  0.5109
 9414SOL    HW139875   4.209   4.383   7.312  0.8289 -0.8243  1.3896
 9414SOL    HW239876   4.123   4.314   7.397  0.1502  2.2966  1.0362
 9415SOL     OW39877   0.027   2.218   8.195  0.2355 -0.1271  0.2435
 9415SOL    HW139878   0.040   2.311   8.175 -0.6451 -0.2094 -0.6806
 9415SOL    HW239879   0.011   2.228   8.289  1.5569 -1.8358  0.6292
 9416SOL     OW39880   4.342   1.834   7.456  0.6573  0.7167  0.3887
 9416SOL    HW139881   4.295   1.752   7.474  0.7947  0.9663  1.8397
 9416SOL    HW239882   4.430   1.800   7.473 -0.2337 -0.7438  2.0425
 9417SOL     OW39883   1.208   4.609   7.508  0.3265  0.2017  0.2366
 9417SOL    HW139884   1.184   4.585   7.598 -2.7045  0.7755 -0.4257
 9417SOL    HW239885   1.239   4.697   7.530  0.2567  0.8551 -2.3496
 9418SOL     OW39886   0.083   1.052  10.565 -0.1116  0.2929  0.3552
 9418SOL    HW139887   0.066   1.066  10.658  0.2256  0.2500  0.4242
 9418SOL    HW239888   4.735   1.026  10.531 -0.5260  0.6846  1.0952
 9419SOL     OW39889   0.544   0.445   9.398 -0.3926 -0.1142 -0.1191
 9419SOL    HW139890   0.471   0.415   9.451 -0.0686 -0.3018  0.2175
 9419SOL    HW239891   0.513   0.504   9.329  0.2818  1.3469  0.8290
 9420SOL     OW39892   4.428   2.747   2.546  0.0996 -0.5400 -0.0332
 9420SOL    HW139893   4.498   2.763   2.483 -0.4628  0.7899 -0.2981
 9420SOL    HW239894   4.419   2.827   2.598  0.9551  1.0599 -2.3766
 9421SOL     OW39895   2.861   2.268  17.363 -0.5478  0.2044 -0.1621
 9421SOL    HW139896   2.828   2.341  17.415 -0.3402  1.3798 -1.6847
 9421SOL    HW239897   2.900   2.322  17.294  0.2980  0.8238  0.8150
 9422SOL     OW39898   1.929   2.472   9.748  0.0450 -0.2302 -0.4686
 9422SOL    HW139899   1.907   2.432   9.663  0.5212  0.4055 -0.8884
 9422SOL    HW239900   1.992   2.540   9.727  0.3947 -0.5635 -0.4849
 9423SOL     OW39901   2.544   3.761   9.002  0.2664  0.1957 -0.4499
 9423SOL    HW139902   2.573   3.673   8.981 -0.8775 -0.3216  0.1220
 9423SOL    HW239903   2.516   3.755   9.094 -0.2780  1.5572 -0.5201
 9424SOL     OW39904   1.584   0.869   1.443 -0.1937  0.1722 -0.1222
 9424SOL    HW139905   1.630   0.949   1.468 -0.3246  1.0529 -2.6394
 9424SOL    HW239906   1.619   0.803   1.503 -0.5337  1.8402  1.9181
 9425SOL     OW39907   3.064   1.825   0.878  0.2151  0.2945 -0.1635
 9425SOL    HW139908   3.064   1.827   0.974 -0.0842 -1.7243 -0.1323
 9425SOL    HW239909   2.981   1.869   0.861  0.7186  0.4889 -2.1504
 9426SOL     OW39910   1.707   2.363   0.074  0.0124 -0.5660 -0.1387
 9426SOL    HW139911   1.720   2.457   0.078  1.1026 -0.7297  0.2294
 9426SOL    HW239912   1.615   2.372   0.049  0.0880  1.2657  0.2437
 9427SOL     OW39913   4.247   2.776  13.050 -0.0928 -0.1145  0.3284
 9427SOL    HW139914   4.342   2.778  13.043 -0.2656 -0.1575 -2.0752
 9427SOL    HW239915   4.217   2.796  12.962  1.3326 -0.3359 -0.2080
 9428SOL     OW39916   4.730   1.144   0.110  0.3615 -0.4420  0.1331
 9428SOL    HW139917   4.733   1.161   0.204 -0.1515  0.2122  0.0245
 9428SOL    HW239918   4.730   1.048   0.118  0.3063 -0.1752  3.3244
 9429SOL     OW39919   2.564   4.260  17.734  0.0618  0.4503  0.4786
 9429SOL    HW139920   2.507   4.288   0.056 -0.2145  0.9381  0.0632
 9429SOL    HW239921   2.651   4.244   0.023  0.2605  1.1115  0.2991
 9430SOL     OW39922   1.213   0.525   5.654  0.0056  0.4264 -0.0788
 9430SOL    HW139923   1.154   0.585   5.608  0.9660  0.1966 -1.6456
 9430SOL    HW239924   1.254   0.597   5.702 -2.3350  2.0222 -0.4863
 9431SOL     OW39925   4.186   1.615   3.974  0.2199 -0.8291  0.2272
 9431SOL    HW139926   4.143   1.587   3.894 -1.4022 -2.3888  1.6568
 9431SOL    HW239927   4.115   1.655   4.024 -0.5980 -1.1905 -0.6485
 9432SOL     OW39928   3.053   3.968  16.143  0.2763 -0.0038 -0.7714
 9432SOL    HW139929   3.125   3.906  16.154 -1.7011 -1.7283  2.1211
 9432SOL    HW239930   3.071   4.025  16.219  0.9868  2.8252 -3.0460
 9433SOL     OW39931   0.021   3.748   4.662 -0.0311 -0.2828 -0.3297
 9433SOL    HW139932   0.044   3.709   4.578 -1.4042  0.1360 -0.9099
 9433SOL    HW239933   0.017   3.668   4.714 -2.5062 -0.8145 -1.3420
 9434SOL     OW39934   1.398   3.631  10.423  0.1632  0.1199 -0.2909
 9434SOL    HW139935   1.380   3.690  10.350 -0.6934  0.3319  0.0806
 9434SOL    HW239936   1.397   3.543  10.388 -1.5417 -0.4701  1.2167
 9435SOL     OW39937   0.232   2.145  17.185  0.4558 -0.5105 -0.3505
 9435SOL    HW139938   0.237   2.232  17.223 -0.9446 -1.1234  1.2631
 9435SOL    HW239939   0.286   2.092  17.245  1.0081  1.9176  1.2905
 9436SOL     OW39940   0.790   3.500   3.606 -0.6170 -0.3188 -0.3808
 9436SOL    HW139941   0.867   3.449   3.631 -0.5219 -0.8428 -1.7482
 9436SOL    HW239942   0.819   3.558   3.535 -0.3918 -0.6495 -0.5561
 9437SOL     OW39943   3.955   1.409   7.012  0.2586 -0.2164 -0.2120
 9437SOL    HW139944   3.864   1.436   6.995  0.4696  0.2417 -0.6427
 9437SOL    HW239945   3.933   1.322   7.045  1.3812 -1.1131 -1.8163
 9438SOL     OW39946   1.777   2.778   4.411 -0.3784  0.1087 -0.3223
 9438SOL    HW139947   1.814   2.690   4.411  2.0375  1.0933 -1.5846
 9438SOL    HW239948   1.731   2.771   4.494  1.1135 -0.0070  0.4914
 9439SOL     OW39949   1.372   0.448   2.890 -0.7337  0.2048 -0.1351
 9439SOL    HW139950   1.286   0.408   2.874 -1.6853  0.6786  3.8258
 9439SOL    HW239951   1.382   0.421   2.981  1.7887  4.0244  0.6992
 9440SOL     OW39952   2.883   2.554   8.839 -0.2985 -0.4663  0.0686
 9440SOL    HW139953   2.796   2.515   8.827  0.4228 -2.1289  0.2770
 9440SOL    HW239954   2.888   2.616   8.766 -1.5780 -1.5943 -0.9722
 9441SOL     OW39955   2.394   1.256   3.007  0.3813  0.5235  0.2793
 9441SOL    HW139956   2.468   1.230   2.951 -1.2444  0.1039 -1.6572
 9441SOL    HW239957   2.388   1.347   2.977  2.1324 -0.0040 -1.7200
 9442SOL     OW39958   4.632   3.090   5.196  0.0550 -0.0764 -0.2322
 9442SOL    HW139959   4.696   3.153   5.163  0.3584 -0.5753 -0.5996
 9442SOL    HW239960   4.550   3.125   5.159  0.4164 -0.8360 -1.7241
 9443SOL     OW39961   3.814   1.746   2.512 -0.0615  0.0773 -0.1973
 9443SOL    HW139962   3.788   1.784   2.596 -0.4476 -1.9135  0.5924
 9443SOL    HW239963   3.728   1.712   2.487 -0.3503  1.1858 -0.6677
 9444SOL     OW39964   2.256   1.756   9.239 -0.2443  0.1760 -0.0422
 9444SOL    HW139965   2.209   1.747   9.321 -0.3186 -2.7947 -0.4140
 9444SOL    HW239966   2.191   1.777   9.173 -1.6941  1.3729  1.7882
 9445SOL     OW39967   0.459   0.326   3.634 -0.0117 -0.1797  0.4460
 9445SOL    HW139968   0.424   0.332   3.723 -0.3365  0.9670  0.2441
 9445SOL    HW239969   0.376   0.323   3.586 -0.1136 -0.5445  0.6488
 9446SOL     OW39970   1.697   3.030  10.054 -0.9177  0.0543  0.5943
 9446SOL    HW139971   1.674   3.121  10.036  2.9643  1.2779  2.0775
 9446SOL    HW239972   1.694   2.984   9.970 -1.5121 -0.8936  1.1258
 9447SOL     OW39973   1.924   0.093   6.794 -0.4069  0.4951  0.5352
 9447SOL    HW139974   1.926   0.093   6.699 -3.2693  3.4996  0.4454
 9447SOL    HW239975   1.980   0.018   6.812 -0.7863 -0.2566 -1.4906
 9448SOL     OW39976   2.009   4.266   5.761 -0.1022 -0.0350  0.6703
 9448SOL    HW139977   1.930   4.313   5.733 -1.8792 -2.4808  1.5566
 9448SOL    HW239978   1.979   4.181   5.792  1.4757 -0.9398 -0.2981
 9449SOL     OW39979   4.535   3.263  10.187 -0.5832 -0.5649 -0.0900
 9449SOL    HW139980   4.552   3.194  10.123  2.2477  0.3394 -0.3346
 9449SOL    HW239981   4.446   3.244  10.216 -0.3416  1.5186  1.9467
 9450SOL     OW39982   1.066   1.341   6.089  0.2023 -0.2411  0.3402
 9450SOL    HW139983   1.155   1.331   6.122  0.4640  1.8251  0.2641
 9450SOL    HW239984   1.079   1.310   5.999  3.0515 -2.6093  1.5730
 9451SOL     OW39985   4.544   2.623   8.444 -0.2217 -0.6197 -0.5094
 9451SOL    HW139986   4.585   2.556   8.498  0.1491  0.5461  0.6402
 9451SOL    HW239987   4.568   2.698   8.497 -0.0891 -0.4332 -0.8325
 9452SOL     OW39988   4.002   1.127   6.769  0.2647 -0.0095 -0.0723
 9452SOL    HW139989   4.094   1.152   6.776  0.9869 -2.7810  0.2337
 9452SOL    HW239990   3.973   1.153   6.856  0.6838  0.7259 -0.1553
 9453SOL     OW39991   1.276   1.515  15.489 -0.2882  0.0250  0.0996
 9453SOL    HW139992   1.187   1.519  15.454 -0.0089  2.9979 -0.2366
 9453SOL    HW239993   1.299   1.608  15.492  0.9749 -0.2866 -0.1046
 9454SOL     OW39994   3.666   4.729   2.668 -0.2091 -0.6968  0.0640
 9454SOL    HW139995   3.701   4.679   2.594 -1.3507  1.6792 -2.0884
 9454SOL    HW239996   3.741   4.733   2.727  0.1578 -1.1632 -0.3675
 9455SOL     OW39997   1.070   0.341   1.326  0.2617  0.0902 -0.0150
 9455SOL    HW139998   0.988   0.366   1.368 -0.1413  0.2181 -0.8696
 9455SOL    HW239999   1.107   0.414   1.277  0.1762  1.0619  1.3705
 9456SOL     OW40000   2.146   2.798   7.637 -0.3164  0.8555 -1.0948
 9456SOL    HW140001   2.110   2.814   7.550 -2.7657 -2.7550 -0.7468
 9456SOL    HW240002   2.191   2.716   7.616 -1.8037 -0.2395 -0.0097
 9457SOL     OW40003   1.484   4.433  13.387  0.5691  0.2164  0.3351
 9457SOL    HW140004   1.426   4.383  13.444  1.3857  2.3814  3.0858
 9457SOL    HW240005   1.558   4.441  13.448  0.0875  1.3620  0.7640
 9458SOL     OW40006   1.505   1.478   4.928  0.0896  0.0231 -0.2053
 9458SOL    HW140007   1.460   1.435   4.855  0.8921 -0.3177 -0.4992
 9458SOL    HW240008   1.561   1.404   4.953  0.8488  0.4879 -0.5388
 9459SOL     OW40009   1.742   1.666   5.706  0.5653  0.0416  0.2064
 9459SOL    HW140010   1.768   1.645   5.616  0.6194 -2.4088  0.8050
 9459SOL    HW240011   1.801   1.736   5.735  1.1853 -0.6448  0.6010
 9460SOL     OW40012   4.474   2.996   6.028  0.6167 -0.2430 -0.1489
 9460SOL    HW140013   4.462   2.988   5.933  0.3236  0.9408 -0.2135
 9460SOL    HW240014   4.560   3.037   6.035  0.1697  0.8044 -0.8853
 9461SOL     OW40015   3.317   0.417   7.533  0.3053  0.0062 -0.4752
 9461SOL    HW140016   3.343   0.326   7.524 -1.7923 -0.6054 -0.2864
 9461SOL    HW240017   3.281   0.417   7.622  0.4672 -3.7612 -0.4138
 9462SOL     OW40018   3.717   3.454   7.692  0.3057  0.5838  0.0701
 9462SOL    HW140019   3.764   3.534   7.666 -0.8340  1.2543  0.0405
 9462SOL    HW240020   3.685   3.488   7.776  1.9716 -1.3358  1.4852
 9463SOL     OW40021   0.655   0.667   3.863  0.0020 -0.4891  0.4183
 9463SOL    HW140022   0.637   0.693   3.953 -0.5130 -0.3526  0.2746
 9463SOL    HW240023   0.735   0.716   3.849 -1.0340  1.5031  1.5733
 9464SOL     OW40024   1.380   4.509   5.128  0.3867 -0.5316 -0.0357
 9464SOL    HW140025   1.436   4.537   5.056 -0.1270 -3.1875 -1.4670
 9464SOL    HW240026   1.304   4.481   5.077 -0.4666  1.2262  0.2788
 9465SOL     OW40027   2.701   4.410   5.513 -0.0141 -0.2953  0.1448
 9465SOL    HW140028   2.640   4.459   5.458  0.8474 -0.7482 -1.1923
 9465SOL    HW240029   2.749   4.481   5.555 -1.0129  0.7222 -0.4382
 9466SOL     OW40030   3.765   2.185   7.099 -0.2071 -0.4280  0.5097
 9466SOL    HW140031   3.706   2.110   7.091  0.9607 -1.1433 -1.2341
 9466SOL    HW240032   3.697   2.251   7.083  0.7560  0.2059 -0.9923
 9467SOL     OW40033   4.464   3.915   6.610  0.3768 -1.0189 -0.4151
 9467SOL    HW140034   4.544   3.871   6.582 -0.6215 -3.6782  0.8891
 9467SOL    HW240035   4.488   4.003   6.582 -2.4237 -1.0619 -2.9194
 9468SOL     OW40036   2.419   3.007  12.640 -0.0687  0.2131  0.6881
 9468SOL    HW140037   2.463   2.928  12.670  2.3597  1.0196 -0.6907
 9468SOL    HW240038   2.470   3.080  12.676 -0.3642  1.2068 -0.8696
 9469SOL     OW40039   1.280   2.163   3.206  0.0476 -0.1753 -0.0377
 9469SOL    HW140040   1.250   2.195   3.292  0.8410 -3.9796  1.6276
 9469SOL    HW240041   1.195   2.140   3.168  0.9618 -2.9181 -0.3556
 9470SOL     OW40042   0.170   0.405   3.674  0.1642 -0.3655 -0.1213
 9470SOL    HW140043   0.166   0.369   3.763  0.3149  0.5700  0.2738
 9470SOL    HW240044   0.143   0.326   3.629 -0.0950 -1.7542  2.4597
 9471SOL     OW40045   1.240   0.429   8.849 -0.5670 -0.1423  0.6005
 9471SOL    HW140046   1.187   0.503   8.881  1.1059  0.5407  1.7729
 9471SOL    HW240047   1.279   0.387   8.926 -0.1420 -1.8663 -0.5740
 9472SOL     OW40048   3.240   3.087  11.496  0.3578  0.5326  0.0823
 9472SOL    HW140049   3.245   3.067  11.590  0.5752 -0.2099 -0.0914
 9472SOL    HW240050   3.240   2.996  11.466  1.8573  0.9377 -1.1107
 9473SOL     OW40051   2.713   3.303  11.091 -0.2579 -0.0217  0.3927
 9473SOL    HW140052   2.764   3.272  11.167 -0.0906 -3.1335 -0.9721
 9473SOL    HW240053   2.778   3.294  11.021 -1.0266  1.6771 -0.5143
 9474SOL     OW40054   1.542   4.690   5.941 -0.1823 -0.6870  0.2372
 9474SOL    HW140055   1.599   4.618   5.967 -0.1318 -1.2172 -1.3163
 9474SOL    HW240056   1.594   0.022   5.980  1.3999 -0.6648 -1.9004
 9475SOL     OW40057   0.825   1.876   4.262  0.3206 -0.4073  0.3464
 9475SOL    HW140058   0.883   1.842   4.330  0.2711  0.4499  0.8049
 9475SOL    HW240059   0.735   1.856   4.287  0.4644 -0.1282  1.0886
 9476SOL     OW40060   2.076   4.085  15.916  0.0451  0.2955 -0.4180
 9476SOL    HW140061   2.123   4.062  15.836 -0.2802 -1.8373  0.0012
 9476SOL    HW240062   1.997   4.128  15.882  0.5338  0.2566 -1.5669
 9477SOL     OW40063   0.209   3.901   6.680 -0.0127 -0.5681  0.0373
 9477SOL    HW140064   0.301   3.891   6.655  0.3881  4.1545 -0.2785
 9477SOL    HW240065   0.199   3.828   6.741  3.7754  0.0033  1.3684
 9478SOL     OW40066   4.409   2.750   7.979 -0.2353 -0.4330  0.2847
 9478SOL    HW140067   4.491   2.715   7.942  0.7373  1.6886  0.3956
 9478SOL    HW240068   4.413   2.844   7.960 -3.1904 -0.9322 -2.7622
 9479SOL     OW40069   2.453   0.954  14.763  0.2910  0.5658  0.4661
 9479SOL    HW140070   2.427   1.043  14.789  1.7454  0.2104  3.1598
 9479SOL    HW240071   2.547   0.967  14.749  0.1970  2.2434  1.2816
 9480SOL     OW40072   1.581   2.196  12.450 -0.2234 -0.0432  0.0356
 9480SOL    HW140073   1.583   2.186  12.355 -0.7948 -1.6419  0.1840
 9480SOL    HW240074   1.487   2.208  12.467  0.0079  1.4302  0.2251
 9481SOL     OW40075   1.758   0.619   3.584 -0.6773 -0.1982 -0.0845
 9481SOL    HW140076   1.694   0.634   3.514 -0.4990  0.9731  0.0017
 9481SOL    HW240077   1.742   0.525   3.586 -0.6155 -0.1453  2.7541
 9482SOL     OW40078   1.300   0.808   3.613 -0.3327 -0.5053  0.0817
 9482SOL    HW140079   1.276   0.852   3.532 -0.9130  0.6082  0.8581
 9482SOL    HW240080   1.274   0.720   3.586 -0.0181  0.4812 -3.4210
 9483SOL     OW40081   1.371   4.296   8.594 -0.3408 -0.0820  0.3280
 9483SOL    HW140082   1.442   4.289   8.657  1.4109  0.2583 -1.6126
 9483SOL    HW240083   1.347   4.388   8.603 -1.4019 -0.4694  1.4844
 9484SOL     OW40084   1.338   0.269   4.893  0.9864  0.5784 -0.1624
 9484SOL    HW140085   1.261   0.214   4.901 -0.1253  2.1306 -0.2369
 9484SOL    HW240086   1.386   0.212   4.833 -0.4633  0.1185 -0.8782
 9485SOL     OW40087   3.355   2.104   7.618  0.2959  0.3437 -0.2827
 9485SOL    HW140088   3.293   2.058   7.674 -0.6765 -0.6164 -2.1599
 9485SOL    HW240089   3.368   2.037   7.551 -0.5249 -0.3128  0.2210
 9486SOL     OW40090   4.415   0.111   8.685  0.1176 -0.4425  0.0563
 9486SOL    HW140091   4.397   0.161   8.765  0.8152 -1.5189  0.8791
 9486SOL    HW240092   4.339   0.053   8.678 -0.6738  0.8312 -1.9021
 9487SOL     OW40093   3.026   1.565   8.475  0.1832  0.1341 -0.1445
 9487SOL    HW140094   3.071   1.491   8.435  0.9507  0.6876 -0.2895
 9487SOL    HW240095   2.947   1.565   8.421 -0.0350  0.5731  0.1741
 9488SOL     OW40096   4.704   2.100   2.668 -0.0814  0.1566 -0.2757
 9488SOL    HW140097   0.002   2.027   2.618  1.4403 -0.5991  1.8915
 9488SOL    HW240098   0.049   2.148   2.671 -0.9623  1.6923 -0.2447
 9489SOL     OW40099   4.158   3.289  15.861 -0.0335 -0.4039  0.4284
 9489SOL    HW140100   4.078   3.252  15.824  0.2937 -0.2349 -0.4316
 9489SOL    HW240101   4.218   3.294  15.787 -0.7869  1.0025 -0.1033
 9490SOL     OW40102   1.947   1.085   2.524 -0.2176 -0.1574 -0.3892
 9490SOL    HW140103   1.885   1.030   2.571 -0.2955  0.1740 -0.1054
 9490SOL    HW240104   1.955   1.163   2.579 -0.6219 -0.0134 -0.5342
 9491SOL     OW40105   0.164   0.916   7.280 -0.2089 -0.8303  0.3873
 9491SOL    HW140106   0.156   1.001   7.324  1.0690  0.2481 -1.4136
 9491SOL    HW240107   0.243   0.879   7.320  1.2248  1.6131 -0.1270
 9492SOL     OW40108   2.878   3.052   2.813 -0.1622 -0.3895  0.1647
 9492SOL    HW140109   2.930   3.130   2.793  0.6522 -1.1212 -0.5982
 9492SOL    HW240110   2.794   3.090   2.837 -1.1468 -2.2171 -0.3815
 9493SOL     OW40111   1.810   0.324   6.846 -0.4671 -0.2475  0.0879
 9493SOL    HW140112   1.875   0.259   6.820 -0.7043 -0.5518  0.2486
 9493SOL    HW240113   1.779   0.362   6.763  2.9520  0.8999 -0.6388
 9494SOL     OW40114   3.409   1.799   4.568 -0.0885  0.1668  0.4863
 9494SOL    HW140115   3.332   1.774   4.619  0.0805 -1.5437 -0.0905
 9494SOL    HW240116   3.473   1.740   4.607  0.9516 -0.2483 -1.8670
 9495SOL     OW40117   0.024   0.268   4.977  0.3173  0.3216  0.0046
 9495SOL    HW140118   0.009   0.246   5.069  1.8967  1.1751  0.4557
 9495SOL    HW240119   0.078   0.346   4.988  0.8848  0.1059 -1.2335
 9496SOL     OW40120   2.636   4.407   8.299 -0.7338 -1.0919 -0.2101
 9496SOL    HW140121   2.681   4.397   8.382  0.0639 -1.5763 -0.7073
 9496SOL    HW240122   2.561   4.348   8.311 -2.8223  2.1164  2.4965
 9497SOL     OW40123   1.572   3.568  10.043  0.1513  0.3940 -0.2634
 9497SOL    HW140124   1.643   3.623  10.077  0.1311  0.2590 -0.0055
 9497SOL    HW240125   1.539   3.613   9.965 -0.9929 -0.2990 -0.1776
 9498SOL     OW40126   2.410   3.280   4.396  0.5561  0.0624 -0.4976
 9498SOL    HW140127   2.445   3.191   4.393  0.4019 -0.0087 -0.2235
 9498SOL    HW240128   2.333   3.267   4.340 -0.0552  1.1094  0.0830
 9499SOL     OW40129   1.605   2.149   0.844 -0.2941  0.7056  0.0431
 9499SOL    HW140130   1.666   2.190   0.905 -0.9470  3.0789 -0.9142
 9499SOL    HW240131   1.637   2.170   0.757 -1.6762  0.6041 -0.4834
 9500SOL     OW40132   4.488   4.490   8.718 -0.4938  0.0223  0.2821
 9500SOL    HW140133   4.428   4.429   8.760  0.7683 -0.5216  1.2921
 9500SOL    HW240134   4.539   4.501   8.799 -0.7682  0.9751  0.3332
 9501SOL     OW40135   1.344   0.656  15.044 -0.1253 -0.1878  0.4120
 9501SOL    HW140136   1.287   0.585  15.014  0.0178  0.0418 -0.4069
 9501SOL    HW240137   1.306   0.686  15.127 -0.9155 -0.4643  0.1543
 9502SOL     OW40138   4.539   0.065   2.488  0.1916 -0.1379 -0.0818
 9502SOL    HW140139   4.450   0.050   2.456 -0.6722  0.6483  1.9237
 9502SOL    HW240140   4.531   0.009   2.565  1.9607 -0.4132 -0.0906
 9503SOL     OW40141   0.554   3.753   3.354  0.8351  0.2339  0.1624
 9503SOL    HW140142   0.615   3.788   3.419  0.8413 -1.2264  0.9612
 9503SOL    HW240143   0.540   3.672   3.404 -0.6490  1.0146  1.0292
 9504SOL     OW40144   3.637   4.159   4.149 -0.1176  0.3819 -0.6658
 9504SOL    HW140145   3.710   4.192   4.201 -1.2680 -1.3000  1.9832
 9504SOL    HW240146   3.615   4.075   4.190 -1.4073 -0.3877 -2.9020
 9505SOL     OW40147   1.548   2.254  14.378  0.4363  0.2788  0.2131
 9505SOL    HW140148   1.627   2.264  14.325  0.4924  3.9047  0.9857
 9505SOL    HW240149   1.568   2.166  14.408 -0.4026 -0.5510 -1.6066
 9506SOL     OW40150   0.009   1.411   2.278 -0.2878  0.6466 -0.3973
 9506SOL    HW140151   4.668   1.428   2.226 -0.5409  0.2319 -0.1485
 9506SOL    HW240152   0.034   1.336   2.224  2.7972  0.8508  0.7683
 9507SOL     OW40153   3.618   1.038   5.184 -0.6580  0.3263  0.1030
 9507SOL    HW140154   3.706   1.067   5.160 -0.7859  0.8477  0.2653
 9507SOL    HW240155   3.618   0.977   5.257  0.5296  0.1420 -0.0445
 9508SOL     OW40156   1.930   3.990  16.656  0.3633 -0.6664  0.0763
 9508SOL    HW140157   1.976   3.978  16.572 -0.7617 -1.6294 -0.4042
 9508SOL    HW240158   1.986   3.944  16.718 -1.9290 -0.8340  2.0081
 9509SOL     OW40159   4.007   3.900   2.765 -0.1133 -0.1133  0.3082
 9509SOL    HW140160   4.070   3.830   2.780  1.2574  0.6408 -1.8668
 9509SOL    HW240161   3.946   3.878   2.835 -3.8670  1.4920 -2.4324
 9510SOL     OW40162   2.122   0.667   3.112 -0.0827 -0.7078  0.0165
 9510SOL    HW140163   2.088   0.617   3.186  0.5757 -2.4302 -0.8574
 9510SOL    HW240164   2.056   0.737   3.112  0.7848  0.1126  0.1161
 9511SOL     OW40165   4.075   2.156   0.567  0.1966 -0.0384  0.7941
 9511SOL    HW140166   4.034   2.077   0.533  1.5608 -0.4294  0.0645
 9511SOL    HW240167   4.151   2.110   0.602  0.1531 -0.3709  0.4499
 9512SOL     OW40168   3.088   1.329   8.345 -0.0977  0.0051  0.4826
 9512SOL    HW140169   3.110   1.249   8.297 -0.5338 -1.9716  3.5628
 9512SOL    HW240170   3.002   1.350   8.308 -0.6916 -2.8093  0.2599
 9513SOL     OW40171   0.050   4.631  14.191  0.4851  0.3806  0.0050
 9513SOL    HW140172   4.735   4.561  14.230 -0.0969  2.0531  2.2040
 9513SOL    HW240173   0.017   4.645  14.102 -1.2746  0.4541  0.6682
 9514SOL     OW40174   3.787   0.274  11.420 -0.1620  0.2947 -0.5668
 9514SOL    HW140175   3.830   0.198  11.381 -1.2315 -1.1767  1.0931
 9514SOL    HW240176   3.709   0.227  11.451  0.9166 -0.3179  1.2351
 9515SOL     OW40177   2.640   4.024   7.740  0.0673 -0.2067 -0.5280
 9515SOL    HW140178   2.657   3.930   7.728 -1.5604 -0.7205  1.0930
 9515SOL    HW240179   2.555   4.039   7.700  0.6950  1.9072 -1.0342
 9516SOL     OW40180   4.254   2.180   2.759  0.2643  0.1074  0.0719
 9516SOL    HW140181   4.161   2.159   2.745 -0.1118  1.6331  0.3447
 9516SOL    HW240182   4.274   2.243   2.690  1.6446  0.2852  0.6492
 9517SOL     OW40183   3.492   2.571   5.243 -0.9213  0.5648 -0.4324
 9517SOL    HW140184   3.441   2.638   5.198 -1.9135 -1.0570 -1.7543
 9517SOL    HW240185   3.566   2.562   5.184  0.5624  1.0129  1.3813
 9518SOL     OW40186   2.191   2.040   8.651  0.4283  0.0517  0.6062
 9518SOL    HW140187   2.222   2.109   8.592 -3.2421  2.0064  0.9842
 9518SOL    HW240188   2.097   2.036   8.634  0.2380  0.6929  1.4729
 9519SOL     OW40189   0.704   0.496  16.981  0.1964  0.5099 -0.5685
 9519SOL    HW140190   0.684   0.415  17.028 -2.3189  0.9578 -0.8237
 9519SOL    HW240191   0.726   0.457  16.897  0.5827  2.0636 -1.1871
 9520SOL     OW40192   3.480   2.499  15.307 -0.2927 -0.2294 -0.5536
 9520SOL    HW140193   3.404   2.554  15.289 -0.7614 -0.2198  1.5198
 9520SOL    HW240194   3.550   2.555  15.274 -0.0617 -0.1387  0.0991
 9521SOL     OW40195   3.300   1.854   2.893  0.0435 -0.3200  0.5971
 9521SOL    HW140196   3.302   1.912   2.969 -0.6891 -0.4531  0.7086
 9521SOL    HW240197   3.228   1.795   2.910 -0.1563  0.2187  1.6128
 9522SOL     OW40198   0.553   3.334   4.770 -0.2257 -0.0604  0.1986
 9522SOL    HW140199   0.621   3.298   4.713 -2.0538 -0.3450 -1.8068
 9522SOL    HW240200   0.592   3.317   4.857 -0.0132 -0.1587  0.0854
 9523SOL     OW40201   3.580   1.955  17.372 -0.3151 -0.0505 -0.3326
 9523SOL    HW140202   3.498   1.956  17.422  1.2789 -1.3007  2.2640
 9523SOL    HW240203   3.557   1.935  17.281 -1.2757  0.1668 -0.1430
 9524SOL     OW40204   2.014   4.602   6.407  0.5389 -0.5706  0.1862
 9524SOL    HW140205   2.089   4.594   6.348 -0.6860 -0.3164 -1.4196
 9524SOL    HW240206   1.950   4.627   6.340  0.2072  0.9009  1.0329
 9525SOL     OW40207   3.934   0.971   7.837  0.5474  0.8529  0.1879
 9525SOL    HW140208   3.905   1.062   7.841  2.3228  1.4011  0.8026
 9525SOL    HW240209   3.968   0.967   7.748 -1.2147 -0.6050 -0.4312
 9526SOL     OW40210   1.582   0.595   2.954 -0.3920  0.4905 -0.1722
 9526SOL    HW140211   1.556   0.587   3.045 -1.7483 -1.6130 -0.7341
 9526SOL    HW240212   1.533   0.526   2.909  1.3262 -0.0809 -1.2154
 9527SOL     OW40213   2.325   0.740   2.920  0.0425  0.4405 -0.1641
 9527SOL    HW140214   2.249   0.709   2.969 -0.8218  2.8782  0.0807
 9527SOL    HW240215   2.326   0.680   2.846 -0.8687  1.3454 -0.9088
 9528SOL     OW40216   2.807   1.016   6.396 -0.0287  0.3767  0.0901
 9528SOL    HW140217   2.774   1.019   6.306  0.5914  1.2339 -0.1090
 9528SOL    HW240218   2.773   0.932   6.426  2.0636 -1.2540 -2.2069
 9529SOL     OW40219   0.970   3.377   2.870 -0.3832  0.2205  0.2151
 9529SOL    HW140220   0.875   3.377   2.877 -0.4291 -0.8452 -0.5532
 9529SOL    HW240221   0.977   3.459   2.821 -0.6132  0.5944  0.8026
 9530SOL     OW40222   4.077   2.425   4.299  0.0416 -0.2560  0.1617
 9530SOL    HW140223   3.994   2.443   4.255 -0.0427  1.6304  1.0865
 9530SOL    HW240224   4.051   2.358   4.363  0.9161  0.3397  1.1245
 9531SOL     OW40225   4.468   1.246   5.710  0.1959  0.5832 -0.4009
 9531SOL    HW140226   4.511   1.165   5.684  0.2579  0.4854  0.0019
 9531SOL    HW240227   4.384   1.238   5.664 -0.2410  0.6252  0.3714
 9532SOL     OW40228   2.542   4.066   3.512 -0.1453  0.6217 -0.3412
 9532SOL    HW140229   2.507   4.139   3.461 -0.5641  0.4254 -0.3292
 9532SOL    HW240230   2.461   4.041   3.556 -0.4021  0.0609 -1.1333
 9533SOL     OW40231   2.048   0.589  15.250  0.5666 -0.3584  0.2418
 9533SOL    HW140232   2.127   0.642  15.259  0.7614 -0.2250 -2.4837
 9533SOL    HW240233   2.026   0.579  15.343 -1.2470  0.3075 -0.1082
 9534SOL     OW40234   1.114   2.545   7.514  0.3904  0.2527 -0.7906
 9534SOL    HW140235   1.183   2.599   7.476 -1.7383  2.8649 -0.9751
 9534SOL    HW240236   1.158   2.460   7.518 -3.2762 -1.5275  1.2215
 9535SOL     OW40237   0.883   3.990   5.609 -0.6550 -0.3905 -0.8390
 9535SOL    HW140238   0.886   4.040   5.527 -1.4000 -0.5640 -0.9691
 9535SOL    HW240239   0.967   3.948   5.590 -0.4820 -1.8816  3.2302
 9536SOL     OW40240   3.530   0.106   7.429 -0.7719  0.7621 -0.5726
 9536SOL    HW140241   3.474   0.134   7.501 -1.0899  1.2873 -1.0262
 9536SOL    HW240242   3.536   0.012   7.448 -1.5473  0.2291 -3.0413
 9537SOL     OW40243   1.419   0.466   3.840  0.2535 -0.8851 -0.0325
 9537SOL    HW140244   1.467   0.548   3.851 -2.0753  0.6130 -1.0412
 9537SOL    HW240245   1.489   0.407   3.814  2.6205  1.6788  0.5689
 9538SOL     OW40246   3.674   4.163   2.307  0.1730 -0.2058 -0.1183
 9538SOL    HW140247   3.706   4.173   2.397 -1.7433  0.8417  0.4481
 9538SOL    HW240248   3.636   4.249   2.287  0.4752  0.1398  0.7796
 9539SOL     OW40249   0.883   0.763   1.401 -0.0263  0.6301 -0.0992
 9539SOL    HW140250   0.822   0.689   1.404  0.7245 -0.0430 -2.0308
 9539SOL    HW240251   0.945   0.733   1.467  0.4793  0.8692 -0.4652
 9540SOL     OW40252   1.165   0.234   5.284 -0.6163  0.1522 -0.0810
 9540SOL    HW140253   1.151   0.252   5.377 -1.0972 -1.6720  0.2103
 9540SOL    HW240254   1.175   0.138   5.286 -0.2707  0.2000  0.5947
 9541SOL     OW40255   2.936   3.152  13.754  0.2224  0.2785  0.0726
 9541SOL    HW140256   2.843   3.157  13.731  1.0891 -2.1153 -4.0811
 9541SOL    HW240257   2.966   3.169  13.664  1.8510  0.7777  0.7010
 9542SOL     OW40258   1.973   4.655   3.665 -0.0682  0.6136 -0.1430
 9542SOL    HW140259   1.988   4.672   3.572  2.0670 -1.7269 -0.2402
 9542SOL    HW240260   2.026   4.728   3.696 -0.1252  0.2447  0.8453
 9543SOL     OW40261   3.064   3.923  14.688 -0.3083  0.2352 -0.3419
 9543SOL    HW140262   2.981   3.894  14.649 -0.1862 -1.4200  0.6455
 9543SOL    HW240263   3.026   3.990  14.746  2.9261  0.9336  0.9587
 9544SOL     OW40264   1.386   4.254   3.404 -0.6273  0.0599 -0.0276
 9544SOL    HW140265   1.416   4.318   3.469 -3.0391 -0.0224  1.1347
 9544SOL    HW240266   1.391   4.173   3.455  0.1913  0.3751  0.3963
 9545SOL     OW40267   1.576   3.117   8.841 -0.4347 -0.4061 -0.5126
 9545SOL    HW140268   1.572   3.116   8.937  0.7736 -1.6165 -0.4827
 9545SOL    HW240269   1.604   3.206   8.819 -2.4001  1.3751  4.1342
 9546SOL     OW40270   1.402   0.273   6.068 -0.3206  0.5571 -0.1741
 9546SOL    HW140271   1.412   0.197   6.126 -0.4434 -2.4732 -4.0810
 9546SOL    HW240272   1.325   0.320   6.099 -0.3443  0.6876 -0.4351
 9547SOL     OW40273   3.372   1.206   5.669  0.2770  0.6863  0.3462
 9547SOL    HW140274   3.411   1.293   5.669  0.5594  0.5588 -0.5745
 9547SOL    HW240275   3.279   1.223   5.686 -0.2130 -0.2212 -1.4048
 9548SOL     OW40276   4.275   1.324   5.153 -0.9781 -0.0044  0.7404
 9548SOL    HW140277   4.320   1.366   5.079 -0.4682  0.7274  1.4698
 9548SOL    HW240278   4.262   1.399   5.211  1.1435  0.4910  0.5905
 9549SOL     OW40279   1.284   2.377   5.213  0.6566 -0.5980 -0.5595
 9549SOL    HW140280   1.340   2.410   5.284 -1.4972 -1.9261  1.7473
 9549SOL    HW240281   1.249   2.457   5.175 -0.8540  0.0165  2.1441
 9550SOL     OW40282   4.498   4.120  16.470 -0.0772 -0.5541 -0.1793
 9550SOL    HW140283   4.582   4.107  16.513 -0.1193 -1.6747 -0.4412
 9550SOL    HW240284   4.537   4.113  16.383 -0.7473  1.9565 -0.6956
 9551SOL     OW40285   1.552   0.721  14.198 -0.5060  0.1033  0.1298
 9551SOL    HW140286   1.520   0.652  14.139 -0.7694  0.6967 -0.4238
 9551SOL    HW240287   1.571   0.680  14.282 -0.1192  1.1218  0.5348
 9552SOL     OW40288   0.744   3.986   2.962 -0.2919 -0.3192 -0.4550
 9552SOL    HW140289   0.661   3.970   3.006 -0.2595 -1.6901 -0.8685
 9552SOL    HW240290   0.759   3.901   2.919  0.2900 -1.1715  1.4160
 9553SOL     OW40291   3.071   0.709   8.510  0.2001 -0.1668 -0.0227
 9553SOL    HW140292   3.095   0.786   8.458  0.4497  0.7246  1.4146
 9553SOL    HW240293   3.122   0.645   8.461  0.5518 -1.1430  1.6229
 9554SOL     OW40294   3.716   0.333   9.116  0.1891  0.2146  0.2148
 9554SOL    HW140295   3.632   0.351   9.072 -0.0174 -3.0275 -0.7234
 9554SOL    HW240296   3.774   0.344   9.042  1.6276 -1.2915  1.1090
 9555SOL     OW40297   0.209   4.040  16.687 -0.0758  0.6242  0.0489
 9555SOL    HW140298   0.276   4.015  16.623  0.9827  2.8520  0.2581
 9555SOL    HW240299   0.168   3.956  16.703 -1.8415  1.5112  0.1530
 9556SOL     OW40300   1.898   0.148   9.859 -0.5909 -0.6362 -0.2124
 9556SOL    HW140301   1.920   0.218   9.921 -0.7427  0.5457 -1.5093
 9556SOL    HW240302   1.882   0.073   9.917  3.0087 -3.4308 -2.8820
 9557SOL     OW40303   3.258   0.740  15.852 -0.3075  0.1975  0.5652
 9557SOL    HW140304   3.287   0.649  15.855 -0.3849  0.2228  2.0046
 9557SOL    HW240305   3.190   0.741  15.919 -1.3711  1.3595 -0.5175
 9558SOL     OW40306   3.440   3.774   2.442 -0.3389 -0.3820 -0.4464
 9558SOL    HW140307   3.429   3.864   2.411 -0.9378 -0.4396 -0.4057
 9558SOL    HW240308   3.524   3.747   2.406  0.1957  0.5854  0.0716
 9559SOL     OW40309   4.046   1.625   7.251 -0.5326 -0.0027 -0.1233
 9559SOL    HW140310   4.085   1.615   7.164 -2.0461  2.4999 -1.0912
 9559SOL    HW240311   3.952   1.618   7.232 -0.8502 -1.1125  1.8316
 9560SOL     OW40312   2.192   2.027   6.856  0.5147 -0.2268 -0.1180
 9560SOL    HW140313   2.171   2.052   6.946  1.6312  1.8662 -0.4409
 9560SOL    HW240314   2.268   2.080   6.834 -0.0171  0.5413 -0.1278
 9561SOL     OW40315   2.489   2.314   6.227  0.3631 -0.1841 -0.3968
 9561SOL    HW140316   2.553   2.382   6.203 -0.3180  0.1743 -1.1978
 9561SOL    HW240317   2.539   2.232   6.230  0.1081 -0.2637  1.7305
 9562SOL     OW40318   4.556   1.277   1.776 -0.2619  0.0409 -0.0626
 9562SOL    HW140319   4.506   1.268   1.696  0.4866 -0.9899 -0.4185
 9562SOL    HW240320   4.524   1.361   1.808  0.4766 -0.3138  1.6392
 9563SOL     OW40321   2.682   1.156   2.584 -0.2569  0.1732  0.0080
 9563SOL    HW140322   2.760   1.209   2.599  0.3722 -0.7889  0.1403
 9563SOL    HW240323   2.689   1.134   2.491  0.1402  0.0971  0.0562
 9564SOL     OW40324   0.758   3.755   2.125  0.0406  0.2168 -0.1062
 9564SOL    HW140325   0.786   3.727   2.213  0.8043  1.2561 -0.0255
 9564SOL    HW240326   0.783   3.847   2.129  2.5128 -0.3121 -3.2633
 9565SOL     OW40327   2.649   0.614   7.051  0.0061 -0.2004  0.0678
 9565SOL    HW140328   2.597   0.693   7.032  2.0587  1.6997  2.3508
 9565SOL    HW240329   2.590   0.549   7.090  0.8299 -0.3109  1.1308
 9566SOL     OW40330   1.422   3.776   7.912 -0.4308  0.5063 -0.0357
 9566SOL    HW140331   1.337   3.759   7.872  0.8703 -1.9488 -1.7327
 9566SOL    HW240332   1.414   3.723   7.992 -0.4763  0.5499 -0.0115
 9567SOL     OW40333   1.919   2.623   1.646 -0.6289 -0.0443  0.1590
 9567SOL    HW140334   1.907   2.718   1.650  0.2206  0.1226 -1.1080
 9567SOL    HW240335   1.831   2.586   1.631 -1.6983  1.8210  1.8269
 9568SOL     OW40336   1.184   1.513   3.658 -0.4420 -0.1310  0.3910
 9568SOL    HW140337   1.101   1.481   3.623 -0.4113  0.2513 -0.0320
 9568SOL    HW240338   1.184   1.461   3.738 -0.8673  0.6090  0.8718
 9569SOL     OW40339   2.750   0.064   5.905  0.0298 -0.1647 -0.2132
 9569SOL    HW140340   2.661   0.076   5.873  1.1757  0.3295 -3.1498
 9569SOL    HW240341   2.795   0.130   5.853  0.9596  0.7317  1.7028
 9570SOL     OW40342   0.650   2.153   7.425 -0.3560  0.0119  0.7450
 9570SOL    HW140343   0.712   2.097   7.377 -1.4741 -0.9773  0.4576
 9570SOL    HW240344   0.571   2.159   7.371  0.8951 -0.6085 -1.1806
 9571SOL     OW40345   0.305   3.023   6.059  0.5620  0.2792 -0.0787
 9571SOL    HW140346   0.358   3.056   6.132 -1.5192  1.4831  0.9223
 9571SOL    HW240347   0.220   3.056   6.089  0.5741 -0.4989  0.8039
   4.73781   4.73781  17.74938
